G2DPncore-PETIM in water
87364
    1aaa     N1    1   6.011   1.219   9.451 -0.3555 -0.1753  0.2369
    1aaa     C1    2   6.121   1.231   9.342  0.0774 -0.6452  0.1671
    1aaa     H1    3   6.197   1.303   9.373 -1.2772  1.7360 -1.6312
    1aaa     H2    4   6.168   1.134   9.329  0.0556 -0.9872  2.3054
    1aaa     C2    5   6.077   1.115   9.551 -0.1899 -0.6139 -0.8379
    1aaa     H3    6   6.181   1.146   9.558  0.0526 -1.0474 -2.3133
    1aaa     H4    7   6.037   1.130   9.652  0.8596 -3.1526  0.0519
    1aaa     C3    8   5.976   1.351   9.511  0.5060  0.0396  0.3345
    1aaa     H5    9   6.052   1.378   9.584  1.6960  1.8498 -1.4373
    1aaa     H6   10   5.971   1.430   9.436 -2.2881 -1.2560 -0.9819
    1aaa     C4   11   5.843   1.344   9.586 -0.2690  0.4752 -0.0009
    1aaa     H7   12   5.763   1.299   9.526  0.1331 -1.8190  1.0746
    1aaa     H8   13   5.860   1.276   9.670  1.6040  0.7924 -0.0885
    1aaa     C5   14   6.069   1.282   9.207 -0.4624 -0.4147  0.1001
    1aaa     H9   15   6.142   1.265   9.126 -0.2399  2.2793 -0.3640
    1aaa    H10   16   5.984   1.220   9.176 -1.6394  1.1970 -0.0592
    1aaa     C6   17   6.057   0.969   9.522 -0.1730 -0.4908 -0.3400
    1aaa    H11   18   5.951   0.943   9.536 -0.4658  0.8625  0.1161
    1aaa    H12   19   6.058   0.963   9.412 -2.2760 -0.9551 -0.3762
    1aaa     C7   20   6.155   0.875   9.587 -0.5164 -0.2136 -0.8685
    1aaa    H13   21   6.255   0.896   9.546  0.5285 -0.7548  1.2789
    1aaa    H14   22   6.161   0.887   9.696 -0.3106  0.6093 -0.9641
    1aaa     C8   23   5.784   1.474   9.647  0.3881 -0.5726  0.3200
    1aaa    H15   24   5.855   1.525   9.713 -1.6048 -0.0916  2.2171
    1aaa    H16   25   5.764   1.550   9.571  1.2514  0.5990  1.2280
    1aaa     C9   26   6.009   1.424   9.195 -0.3081 -0.3514 -0.1031
    1aaa    H17   27   5.995   1.444   9.088  1.5121  3.7123  0.2354
    1aaa    H18   28   5.907   1.437   9.233  0.0633 -0.5904  1.0280
    1aaa    H19   29   5.927   1.182   9.404 -0.3748  0.2181 -0.0378
    2bbb     N1   30   6.230   0.268   9.559  0.0913 -0.4173  0.0658
    2bbb     C1   31   6.333   0.205   9.471  0.1394 -0.4966  0.2450
    2bbb     H1   32   6.303   0.101   9.459 -0.0795 -0.5584  1.2475
    2bbb     H2   33   6.430   0.219   9.519  0.3786  1.2055 -0.6494
    2bbb     C2   34   6.195   0.176   9.671 -0.3078  0.2229  0.0128
    2bbb     H3   35   6.160   0.078   9.638  0.6048  0.1132 -0.6526
    2bbb     H4   36   6.113   0.208   9.735 -0.0865 -2.5324  1.8434
    2bbb     C3   37   6.275   0.405   9.609 -0.0648  0.4590  0.1687
    2bbb     H5   38   6.365   0.429   9.552  1.3956 -2.2679  1.1162
    2bbb     H6   39   6.290   0.402   9.718  1.1142  2.4765  0.1034
    2bbb     C4   40   6.164   0.509   9.584  0.5277  0.2016 -0.0557
    2bbb     H7   41   6.077   0.481   9.646 -2.3524  0.6175 -3.5834
    2bbb     H8   42   6.127   0.502   9.481  1.9841  1.2779 -0.6841
    2bbb     C5   43   6.358   0.256   9.332 -0.5264  0.3149 -0.4625
    2bbb     H9   44   6.357   0.366   9.331  1.4076  0.3710  0.0102
    2bbb    H10   45   6.269   0.229   9.273  0.6278  0.3446 -2.2902
    2bbb     C6   46   6.312   0.137   9.767  1.1309 -0.2164  0.7757
    2bbb    H11   47   6.351   0.233   9.803  0.8386  0.4966 -0.7269
    2bbb    H12   48   6.388   0.088   9.705 -1.3532 -1.7587 -1.2703
    2bbb     C7   49   6.206   0.647   9.620 -0.0532 -0.6500  0.0052
    2bbb    H13   50   6.303   0.650   9.570 -0.4703  0.4223 -0.7709
    2bbb    H14   51   6.211   0.651   9.730 -2.2046  0.0236  0.1283
    2bbb     C8   52   6.265   0.053   9.884  0.8129  0.3659 -0.1841
    2bbb    H15   53   6.346   0.038   9.957 -0.4343 -0.5711  1.0676
    2bbb    H16   54   6.188   0.111   9.936  2.8290  2.2417  0.8967
    2bbb     C9   55   6.492   0.208   9.271 -0.3873  0.2733  0.0928
    2bbb    H17   56   6.573   0.226   9.342  1.3343  0.0673 -1.7207
    2bbb    H18   57   6.527   0.261   9.181  0.9006 -1.3628 -0.4296
    2bbb     O1   58   6.116   0.741   9.559 -0.4103  0.2767 -0.3550
    2bbb    H19   59   6.148   0.280   9.497  0.7037  0.8961 -0.5337
    3bbb     N1   60   5.487   1.383  10.131 -0.5023  0.0400  0.6254
    3bbb     C1   61   5.421   1.254  10.087  0.3578  0.2936 -0.5453
    3bbb     H1   62   5.482   1.171  10.122 -0.2122  0.7649  1.6827
    3bbb     H2   63   5.430   1.252   9.978 -0.0579 -2.4865 -0.5928
    3bbb     C2   64   5.559   1.361  10.262 -0.5171 -0.0340  0.7081
    3bbb     H3   65   5.659   1.322  10.245 -0.6652 -1.2613  2.3968
    3bbb     H4   66   5.501   1.288  10.319 -2.1773  1.0679  0.4826
    3bbb     C3   67   5.579   1.426  10.019  0.6616  0.6461 -0.2758
    3bbb     H5   68   5.625   1.333   9.986 -1.4570 -1.2411  1.7110
    3bbb     H6   69   5.663   1.487  10.056  0.8564  1.1638 -1.5293
    3bbb     C4   70   5.513   1.507   9.908  0.2470 -0.1912 -0.4440
    3bbb     H7   71   5.450   1.587   9.948  0.7553  0.2894 -0.5853
    3bbb     H8   72   5.433   1.451   9.859  0.6726  0.1538 -1.5688
    3bbb     C5   73   5.279   1.237  10.140 -0.6809  0.5100 -0.0756
    3bbb     H9   74   5.288   1.217  10.248  0.9880 -1.0621 -0.4731
    3bbb    H10   75   5.246   1.146  10.089 -0.4618 -0.3764  1.3156
    3bbb     C6   76   5.572   1.484  10.354 -0.1363 -0.0774 -0.2696
    3bbb    H11   77   5.518   1.573  10.319 -0.7615  0.2756  1.4664
    3bbb    H12   78   5.676   1.518  10.345 -0.7604  1.7655 -1.0752
    3bbb     C7   79   5.614   1.561   9.797 -0.6910  0.4423 -0.3991
    3bbb    H13   80   5.686   1.619   9.856  0.7931 -1.1608 -0.5759
    3bbb    H14   81   5.561   1.621   9.721  0.4944  2.0067 -0.0352
    3bbb     C8   82   5.546   1.451  10.495 -0.2799  0.6675 -0.2733
    3bbb    H15   83   5.588   1.538  10.547  1.6862 -0.0246 -0.6108
    3bbb    H16   84   5.439   1.453  10.517  0.1140  0.2084  1.9891
    3bbb     C9   85   5.164   1.338  10.108 -0.4824 -0.0522  0.5714
    3bbb    H17   86   5.072   1.292  10.146 -0.3492 -0.3787  0.5006
    3bbb    H18   87   5.166   1.341   9.998  0.8903 -0.0756  0.5774
    3bbb     O1   88   5.669   1.448   9.731 -0.7644 -0.4573  0.0485
    3bbb    H19   89   5.409   1.449  10.146 -0.0172  0.4439  1.4391
    4bbb     N1   90   6.240   1.572   9.028  0.7081  0.3839  0.5604
    4bbb     C1   91   6.214   1.539   8.881 -0.2328  0.2411  0.5281
    4bbb     H1   92   6.266   1.608   8.814  0.4262 -0.0724  0.7017
    4bbb     H2   93   6.109   1.566   8.873 -0.1496  0.1089 -1.5228
    4bbb     C2   94   6.384   1.532   9.061  0.2936 -0.0926 -0.6778
    4bbb     H3   95   6.388   1.429   9.025 -2.6808 -0.7173  0.5291
    4bbb     H4   96   6.398   1.529   9.170  2.8655  2.2666 -0.8353
    4bbb     C3   97   6.224   1.714   9.065  0.2954  0.0478 -0.0668
    4bbb     H5   98   6.225   1.769   8.970 -0.5257  2.2054  1.1024
    4bbb     H6   99   6.305   1.748   9.129  1.1006  2.2927 -2.0996
    4bbb     C4  100   6.077   1.734   9.128  0.0236 -0.0820 -0.2773
    4bbb     H7  101   6.004   1.715   9.048 -0.3436  0.4386 -0.0721
    4bbb     H8  102   6.072   1.842   9.146 -0.1925 -0.3071  1.0849
    4bbb     C5  103   6.231   1.394   8.833 -0.3388  0.5690  0.2814
    4bbb     H9  104   6.190   1.329   8.911 -1.0962 -0.4101 -0.8996
    4bbb    H10  105   6.335   1.361   8.823 -0.1415  1.3508 -0.3760
    4bbb     C6  106   6.499   1.614   8.995  0.3571  0.1322 -0.2293
    4bbb    H11  107   6.518   1.708   9.048  2.5171 -1.1999  1.5663
    4bbb    H12  108   6.474   1.647   8.893  0.0416  0.3262 -0.0894
    4bbb     C7  109   6.047   1.656   9.255  0.5219 -0.1051 -0.2008
    4bbb    H13  110   5.938   1.656   9.271  0.2489  0.5429 -1.8861
    4bbb    H14  111   6.097   1.711   9.336  1.3260 -1.4115  0.2149
    4bbb     C8  112   6.630   1.542   8.995 -0.2321 -0.0928 -0.3974
    4bbb    H15  113   6.631   1.502   9.097 -2.0153 -0.3297 -0.4413
    4bbb    H16  114   6.618   1.459   8.924 -2.3525  0.6715 -0.9851
    4bbb     C9  115   6.164   1.371   8.700  0.6677  0.6277  1.3857
    4bbb    H17  116   6.062   1.409   8.685  0.1489 -1.3535 -0.7475
    4bbb    H18  117   6.163   1.261   8.693  1.9888  0.5235  2.4106
    4bbb     O1  118   6.102   1.517   9.251 -0.4040 -0.7880  0.5275
    4bbb    H19  119   6.172   1.512   9.076 -0.9635  1.3618 -0.4995
    5bbb     N1  120   6.373  -0.416  10.048  0.2100 -0.5040 -0.1738
    5bbb     C1  121   6.383  -0.557   9.982  0.0633  0.0704  0.1024
    5bbb     H1  122   6.455  -0.559   9.900 -0.0017 -3.1021 -0.0226
    5bbb     H2  123   6.292  -0.583   9.928  0.3331  0.3412 -0.4875
    5bbb     C2  124   6.504  -0.360  10.110  0.1803 -0.6330 -0.4368
    5bbb     H3  125   6.563  -0.328  10.024  1.2512 -0.0147  0.5105
    5bbb     H4  126   6.555  -0.443  10.159  0.2900  0.0765  0.6933
    5bbb     C3  127   6.313  -0.318   9.953  0.0888 -0.5826 -0.1499
    5bbb     H5  128   6.269  -0.376   9.871 -0.9919 -1.7382  1.2095
    5bbb     H6  129   6.386  -0.256   9.900  0.9929 -0.2085  1.4788
    5bbb     C4  130   6.206  -0.219  10.010 -0.2271  0.4286 -0.4624
    5bbb     H7  131   6.266  -0.145  10.064  0.0545  0.7700 -1.2187
    5bbb     H8  132   6.136  -0.278  10.070  0.6613 -1.4867 -1.2257
    5bbb     C5  133   6.407  -0.679  10.071 -0.0876  0.0240  0.2316
    5bbb     H9  134   6.327  -0.692  10.145 -0.6220  1.6834 -0.0007
    5bbb    H10  135   6.499  -0.670  10.130 -1.1977  1.4800  1.8235
    5bbb     C6  136   6.497  -0.240  10.205  0.0530  0.1946  0.6647
    5bbb    H11  137   6.402  -0.249  10.258  0.0436  1.3165  0.8553
    5bbb    H12  138   6.496  -0.145  10.150  0.3339  0.0598  0.4219
    5bbb     C7  139   6.129  -0.145   9.901 -0.8497 -0.4724  0.3253
    5bbb    H13  140   6.059  -0.076   9.950  0.7077 -0.4640  2.7325
    5bbb    H14  141   6.087  -0.222   9.835  2.0603 -0.3055 -1.9294
    5bbb     C8  142   6.611  -0.231  10.302 -0.2992 -0.2818 -0.2436
    5bbb    H15  143   6.705  -0.219  10.246 -0.5170  2.6007 -0.1590
    5bbb    H16  144   6.600  -0.139  10.361  0.2024  0.2102 -0.8923
    5bbb     C9  145   6.399  -0.811   9.979 -0.0580 -1.2279  0.1938
    5bbb    H17  146   6.484  -0.823   9.911 -0.3102 -0.2981 -0.2874
    5bbb    H18  147   6.312  -0.797   9.914  1.4702 -2.2971 -2.2374
    5bbb     O1  148   6.218  -0.065   9.820 -0.0045 -0.5636  0.0558
    5bbb    H19  149   6.303  -0.422  10.122 -0.5025 -0.0901 -0.8026
    6bbb     N1  150   6.318  -0.369   9.156 -0.5409  0.2459  0.4624
    6bbb     C1  151   6.232  -0.446   9.249 -0.3890 -0.4907 -0.1850
    6bbb     H1  152   6.202  -0.543   9.211 -3.1836  0.2833 -0.1642
    6bbb     H2  153   6.151  -0.374   9.263  1.9769  2.1484  1.1130
    6bbb     C2  154   6.262  -0.393   9.009 -0.7327  0.4979 -0.4143
    6bbb     H3  155   6.270  -0.499   8.985  2.2881 -0.1910  2.7591
    6bbb     H4  156   6.321  -0.338   8.935 -0.8278 -0.3151 -1.0983
    6bbb     C3  157   6.324  -0.224   9.197 -0.2372  0.1952  0.1712
    6bbb     H5  158   6.368  -0.225   9.297  0.2481 -0.4091 -0.0387
    6bbb     H6  159   6.227  -0.179   9.218  0.9420  3.1835 -0.3235
    6bbb     C4  160   6.411  -0.131   9.111  0.4517  0.2515  0.4424
    6bbb     H7  161   6.379  -0.132   9.006  0.9186  2.7372  0.2107
    6bbb     H8  162   6.516  -0.161   9.121  0.2333  0.2196  4.2258
    6bbb     C5  163   6.298  -0.468   9.385 -0.1378  0.7003  0.6969
    6bbb     H9  164   6.215  -0.508   9.445 -0.8625  1.0153 -0.0660
    6bbb    H10  165   6.326  -0.381   9.444  0.6938  1.0361 -0.1833
    6bbb     C6  166   6.124  -0.336   8.982 -0.2128  0.3376 -0.2006
    6bbb    H11  167   6.105  -0.236   9.023 -2.3437 -0.7115  1.5950
    6bbb    H12  168   6.051  -0.395   9.038 -0.7564  2.9155  2.0044
    6bbb     C7  169   6.394   0.021   9.142  0.1975 -0.4458 -0.1149
    6bbb    H13  170   6.289   0.038   9.168  0.7314  1.7117  0.8528
    6bbb    H14  171   6.406   0.081   9.051 -0.3908  0.5400  0.4351
    6bbb     C8  172   6.087  -0.344   8.833  0.2028  0.2399  0.4472
    6bbb    H15  173   6.172  -0.311   8.772 -0.8043  1.9920 -0.1084
    6bbb    H16  174   6.062  -0.445   8.800 -1.6872  0.6421  0.5190
    6bbb     C9  175   6.417  -0.562   9.365 -0.6404  0.6865 -0.1014
    6bbb    H17  176   6.386  -0.663   9.338 -1.5074  0.6680  0.8757
    6bbb    H18  177   6.466  -0.559   9.463 -3.2840 -2.1709  1.4767
    6bbb     O1  178   6.478   0.063   9.248 -0.4809  0.7970  0.1407
    6bbb    H19  179   6.412  -0.410   9.166  0.8735  2.0040 -3.4339
    7bbb     N1  180   5.833   1.506  10.863 -0.0218 -0.9299  0.6122
    7bbb     C1  181   5.851   1.644  10.817 -0.7938 -0.5263 -0.0903
    7bbb     H1  182   5.751   1.676  10.787 -1.0380  0.2717  1.4420
    7bbb     H2  183   5.924   1.629  10.738  0.4333  1.8237  0.5122
    7bbb     C2  184   5.746   1.507  10.985  0.5359 -0.0829  0.3282
    7bbb     H3  185   5.655   1.556  10.952  1.8833  2.1040 -0.3984
    7bbb     H4  186   5.789   1.577  11.058  0.8084 -0.4808  0.5540
    7bbb     C3  187   5.758   1.430  10.757 -0.0336  0.0121 -0.4079
    7bbb     H5  188   5.658   1.473  10.760  0.1018  0.2791  0.7190
    7bbb     H6  189   5.750   1.327  10.793 -2.6146  0.8440  1.7822
    7bbb     C4  190   5.825   1.423  10.617  0.4664  0.8452  0.3980
    7bbb     H7  191   5.930   1.397  10.635  1.1328  2.0328 -1.4316
    7bbb     H8  192   5.832   1.523  10.571  0.2077  0.5269 -0.3579
    7bbb     C5  193   5.914   1.757  10.908 -0.2734  0.8369  0.1920
    7bbb     H9  194   5.839   1.760  10.989 -1.0318  0.5683 -0.4797
    7bbb    H10  195   5.906   1.848  10.847 -2.1414  1.7198  1.6254
    7bbb     C6  196   5.719   1.364  11.050  0.1728 -0.3739 -0.6958
    7bbb    H11  197   5.684   1.301  10.967 -1.3441  2.7474 -2.6147
    7bbb    H12  198   5.637   1.381  11.120 -0.3465 -1.1726 -1.1038
    7bbb     C7  199   5.755   1.316  10.530  0.2868 -0.0724 -0.2861
    7bbb    H13  200   5.782   1.219  10.574  1.8799  0.8351  0.8412
    7bbb    H14  201   5.784   1.327  10.424 -1.1896 -1.6978 -0.9154
    7bbb     C8  202   5.841   1.314  11.128 -0.3335 -0.3749 -0.0101
    7bbb    H15  203   5.838   1.206  11.147 -1.1190 -0.4836 -0.7148
    7bbb    H16  204   5.919   1.336  11.053  0.5712 -1.4670  0.5736
    7bbb     C9  205   6.054   1.712  10.953 -0.2439  0.1855 -0.2623
    7bbb    H17  206   6.130   1.758  10.888 -0.8875  1.5643 -0.0914
    7bbb    H18  207   6.063   1.603  10.961  0.3072  0.3370  1.6380
    7bbb     O1  208   5.609   1.331  10.546  0.1658 -0.3762  0.0573
    7bbb    H19  209   5.928   1.470  10.883 -0.5530 -1.7306  1.8886
    8bbb     N1  210   4.832   1.702  10.236 -0.3242 -0.1517  0.2108
    8bbb     C1  211   4.812   1.842  10.182  0.4062  0.1882 -0.0426
    8bbb     H1  212   4.709   1.847  10.147 -0.1262 -1.0833  1.2661
    8bbb     H2  213   4.880   1.848  10.096 -0.4960 -0.2032 -0.7940
    8bbb     C2  214   4.752   1.607  10.142 -0.1787 -0.0638 -0.0352
    8bbb     H3  215   4.776   1.504  10.169 -0.4850  0.0601  0.7481
    8bbb     H4  216   4.791   1.618  10.041 -0.6387  0.4201 -0.1621
    8bbb     C3  217   4.978   1.666  10.218  0.0148  0.2785  0.3707
    8bbb     H5  218   5.042   1.744  10.259  0.4664 -0.3767  0.9382
    8bbb     H6  219   5.009   1.641  10.116 -0.1948 -1.7789  0.7652
    8bbb     C4  220   5.013   1.540  10.307  0.4390 -0.1802  0.2435
    8bbb     H7  221   4.932   1.467  10.293  0.7203 -0.5392  0.4673
    8bbb     H8  222   4.998   1.566  10.413  0.4171  1.3997 -0.1255
    8bbb     C5  223   4.833   1.947  10.292 -0.1731  0.2346 -0.0866
    8bbb     H9  224   4.866   2.039  10.243  0.2265  0.6139  0.8625
    8bbb    H10  225   4.919   1.922  10.355  0.4512  2.1856 -0.0961
    8bbb     C6  226   4.598   1.621  10.149 -0.7300  0.2804  0.9614
    8bbb    H11  227   4.555   1.535  10.097 -0.3840  0.4884  0.3188
    8bbb    H12  228   4.560   1.700  10.084 -0.1723  0.6319  1.0514
    8bbb     C7  229   5.163   1.495  10.295  0.0434  0.9098  0.6373
    8bbb    H13  230   5.176   1.407  10.360 -1.8595  1.4003  1.7613
    8bbb    H14  231   5.233   1.568  10.338  0.7744  0.5414  0.0936
    8bbb     C8  232   4.534   1.637  10.294  0.2814 -0.2074  0.3841
    8bbb    H15  233   4.518   1.742  10.320 -2.5854 -0.0600 -1.5620
    8bbb    H16  234   4.433   1.593  10.299  0.7452 -1.6635 -1.7972
    8bbb     C9  235   4.711   1.978  10.382 -0.0718  0.0479  0.7439
    8bbb    H17  236   4.731   2.075  10.430 -0.6013  0.7256 -0.3668
    8bbb    H18  237   4.704   1.902  10.461 -1.7773  1.1322  1.7103
    8bbb     O1  238   5.208   1.467  10.158 -0.3975  0.5235 -0.2580
    8bbb    H19  239   4.796   1.694  10.333  0.1368 -1.6489  0.2943
    9bbb     N1  240   7.011   1.980   8.980  0.3602 -0.0598 -0.2519
    9bbb     C1  241   7.021   2.044   9.113  0.6177  0.3116 -0.2294
    9bbb     H1  242   7.098   2.122   9.106  2.1233 -0.8785  1.7247
    9bbb     H2  243   7.054   1.964   9.179 -0.9591 -3.1471 -3.2865
    9bbb     C2  244   7.139   1.925   8.937 -0.9996  0.8175 -0.0029
    9bbb     H3  245   7.131   1.847   8.862 -0.3848  0.3662  0.3983
    9bbb     H4  246   7.200   1.877   9.013  2.1951  2.0973 -1.5848
    9bbb     C3  247   6.918   1.857   8.989 -0.1630 -0.6635  0.0766
    9bbb     H5  248   6.819   1.893   9.018 -0.2245 -1.0563  0.3664
    9bbb     H6  249   6.948   1.791   9.071 -2.0526 -0.9099  0.6278
    9bbb     C4  250   6.886   1.790   8.851  0.3622  0.4880  0.2572
    9bbb     H7  251   6.970   1.722   8.827  0.5669  0.7326  0.2741
    9bbb     H8  252   6.881   1.874   8.780 -0.8932  0.2044  0.0000
    9bbb     C5  253   6.890   2.110   9.161  0.1039  0.3171  0.3099
    9bbb     H9  254   6.901   2.124   9.269  0.9191  0.3074  0.2371
    9bbb    H10  255   6.804   2.043   9.146 -1.6056  2.3272  0.6832
    9bbb     C6  256   7.245   2.030   8.894  0.6800  0.3735  0.7291
    9bbb    H11  257   7.274   2.091   8.981  1.4182 -1.6090  1.9272
    9bbb    H12  258   7.203   2.098   8.818 -0.0056 -0.6243  0.1823
    9bbb     C7  259   6.760   1.698   8.847 -0.2128 -0.7249  0.1222
    9bbb    H13  260   6.756   1.630   8.761 -0.8517 -0.6293  0.0725
    9bbb    H14  261   6.675   1.767   8.835 -0.2521 -0.2291  2.7015
    9bbb     C8  262   7.377   1.973   8.827 -0.0324  1.0227 -0.3168
    9bbb    H15  263   7.431   2.053   8.775  0.5714 -1.0476 -3.1204
    9bbb    H16  264   7.422   1.924   8.913 -0.7669 -1.0186 -1.0302
    9bbb     C9  265   6.871   2.245   9.093 -0.1567 -0.1863 -0.2756
    9bbb    H17  266   6.771   2.275   9.127 -0.0601  0.8155 -0.8268
    9bbb    H18  267   6.877   2.252   8.983 -2.9389  1.1885 -0.4327
    9bbb     O1  268   6.742   1.633   8.974  0.4710 -0.6234 -0.1468
    9bbb    H19  269   6.970   2.038   8.905 -0.0482 -0.8865 -0.6918
   10bbb     N1  270   6.170   1.256   8.311  0.0300  0.3879  0.5681
   10bbb     C1  271   6.045   1.308   8.235  0.0263  0.3235 -0.1882
   10bbb     H1  272   5.986   1.222   8.203  1.0886 -0.9253  1.0635
   10bbb     H2  273   6.075   1.352   8.140 -2.0706 -1.9888 -2.0768
   10bbb     C2  274   6.238   1.134   8.259 -0.9615 -0.2006  0.3990
   10bbb     H3  275   6.331   1.111   8.311  1.2257  1.1634 -2.5830
   10bbb     H4  276   6.277   1.147   8.158 -0.0060 -0.1468  0.7716
   10bbb     C3  277   6.278   1.361   8.313  0.1084  0.6364 -0.2605
   10bbb     H5  278   6.220   1.448   8.345  0.2730  0.0780  1.6308
   10bbb     H6  279   6.331   1.375   8.218  0.6892 -0.3747 -0.1033
   10bbb     C4  280   6.392   1.349   8.410  0.7536 -0.5878 -0.4432
   10bbb     H7  281   6.459   1.435   8.405  0.0912  0.1074  1.5824
   10bbb     H8  282   6.448   1.262   8.374  1.8471 -0.0821  0.0072
   10bbb     C5  283   5.953   1.388   8.328 -0.1919  0.0887 -0.2964
   10bbb     H9  284   6.006   1.474   8.371 -1.2027  0.4455  0.2616
   10bbb    H10  285   5.919   1.343   8.422 -2.4701  2.6018  0.2130
   10bbb     C6  286   6.147   1.015   8.249  0.0239  1.5504  0.3757
   10bbb    H11  287   6.054   1.033   8.194 -0.1217  0.6812  0.3179
   10bbb    H12  288   6.124   0.993   8.354  2.0521  0.3581  0.6213
   10bbb     C7  289   6.347   1.330   8.564 -0.3902 -0.0232  0.1178
   10bbb    H13  290   6.427   1.345   8.638  1.9265 -0.1933 -2.1879
   10bbb    H14  291   6.308   1.228   8.566  0.6382 -0.4598 -0.7615
   10bbb     C8  292   6.219   0.888   8.181  0.1769  0.1800  0.7344
   10bbb    H15  293   6.310   0.863   8.237  0.3456 -1.0929 -0.0565
   10bbb    H16  294   6.149   0.803   8.180  1.6750 -1.0946  0.2371
   10bbb     C9  295   5.831   1.445   8.254  0.2637  0.3622  0.7803
   10bbb    H17  296   5.768   1.507   8.321  0.2172 -0.4819  1.5341
   10bbb    H18  297   5.755   1.371   8.229  1.6055 -0.7464 -0.1514
   10bbb     O1  298   6.246   1.424   8.589 -0.3854  0.4059 -0.0830
   10bbb    H19  299   6.127   1.236   8.402 -1.4077 -0.9452 -0.3611
   11bbb     N1  300   6.617  -0.226  10.802 -0.7221 -0.1437  0.0362
   11bbb     C1  301   6.558  -0.095  10.765 -0.1679  0.1974  0.8758
   11bbb     H1  302   6.454  -0.116  10.737 -0.1184 -0.2315  1.0105
   11bbb     H2  303   6.608  -0.049  10.680 -1.3392 -0.4864 -0.2158
   11bbb     C2  304   6.525  -0.292  10.892  1.0441  0.0654  0.1616
   11bbb     H3  305   6.437  -0.320  10.834  0.1764  1.6812  0.6597
   11bbb     H4  306   6.494  -0.220  10.968 -1.0160  1.6011 -1.9956
   11bbb     C3  307   6.631  -0.307  10.675  0.2932 -0.1123  0.0361
   11bbb     H5  308   6.541  -0.305  10.613 -0.2166  0.5378  0.7841
   11bbb     H6  309   6.651  -0.410  10.705 -0.2201 -0.6557 -1.4115
   11bbb     C4  310   6.743  -0.278  10.576 -1.0446  0.1602 -0.3350
   11bbb     H7  311   6.848  -0.281  10.609 -1.1603  1.1077  0.1470
   11bbb     H8  312   6.741  -0.176  10.536 -0.5444 -0.8250 -3.1040
   11bbb     C5  313   6.549   0.013  10.880  0.0371 -0.0594  0.1844
   11bbb     H9  314   6.642   0.040  10.932 -1.4113  0.8705  2.4563
   11bbb    H10  315   6.487  -0.025  10.962  1.9085 -1.1480  1.1730
   11bbb     C6  316   6.578  -0.417  10.962  0.0063 -0.5894 -0.3758
   11bbb    H11  317   6.613  -0.492  10.890  2.4319 -1.0129  1.1165
   11bbb    H12  318   6.489  -0.457  11.012 -1.9127  0.7304 -2.5354
   11bbb     C7  319   6.733  -0.373  10.450 -0.3724  0.6896 -0.3267
   11bbb    H13  320   6.740  -0.480  10.475  1.1255  1.0455  0.9926
   11bbb    H14  321   6.823  -0.352  10.390 -0.2669  1.9548  0.2539
   11bbb     C8  322   6.697  -0.387  11.057 -0.0414 -0.5083 -0.1029
   11bbb    H15  323   6.695  -0.477  11.120 -2.6333 -1.2435 -1.1062
   11bbb    H16  324   6.787  -0.386  10.995 -0.6677 -0.6067 -1.0356
   11bbb     C9  325   6.489   0.140  10.811  0.4546  0.6853 -0.1324
   11bbb    H17  326   6.562   0.175  10.737  2.2100 -0.5303  0.9393
   11bbb    H18  327   6.481   0.220  10.886  0.7489  0.6295 -0.0368
   11bbb     O1  328   6.604  -0.345  10.390  0.6835  0.4809  0.2397
   11bbb    H19  329   6.711  -0.212  10.840  0.2595 -1.2706 -1.8321
   12bbb     N1  330   6.555  -1.261  10.302  0.3310  0.3796 -0.2540
   12bbb     C1  331   6.687  -1.248  10.371 -0.1930 -0.4681  1.1012
   12bbb     H1  332   6.693  -1.334  10.438 -2.1122 -1.4768  0.0637
   12bbb     H2  333   6.681  -1.154  10.426 -1.1256  0.6433 -0.8148
   12bbb     C2  334   6.449  -1.295  10.406  0.2546 -0.2059 -0.1562
   12bbb     H3  335   6.361  -1.239  10.372  0.0242  0.3714  1.2950
   12bbb     H4  336   6.485  -1.263  10.504 -0.4904 -1.5384  0.5812
   12bbb     C3  337   6.524  -1.143  10.209  0.3066  0.1133 -0.2867
   12bbb     H5  338   6.611  -1.121  10.147  0.5710 -1.2700 -0.4180
   12bbb     H6  339   6.497  -1.064  10.280  0.3708 -1.3855  1.4698
   12bbb     C4  340   6.399  -1.168  10.120  0.0960 -0.5350  0.4484
   12bbb     H7  341   6.301  -1.157  10.168  0.0210  0.7011  0.0342
   12bbb     H8  342   6.400  -1.268  10.075  1.6306 -0.1237 -0.5139
   12bbb     C5  343   6.807  -1.239  10.276 -0.0742 -0.1523  0.1351
   12bbb     H9  344   6.804  -1.140  10.227  0.2247 -0.7802 -1.1971
   12bbb    H10  345   6.804  -1.324  10.207  0.7789  2.1826 -3.0464
   12bbb     C6  346   6.412  -1.441  10.421 -0.4816  0.1461 -0.3835
   12bbb    H11  347   6.379  -1.459  10.524  0.2446 -0.1078 -0.1824
   12bbb    H12  348   6.502  -1.504  10.413  0.4378  1.4815 -0.9756
   12bbb     C7  349   6.385  -1.058  10.009 -0.0933 -0.2715  0.5847
   12bbb    H13  350   6.291  -1.069   9.955  0.1976  1.7734 -0.4077
   12bbb    H14  351   6.474  -1.056   9.946 -0.1166  0.8533  0.5717
   12bbb     C8  352   6.312  -1.501  10.315 -0.1259 -0.6337 -0.5398
   12bbb    H15  353   6.381  -1.504  10.229 -0.9747 -0.0105 -1.2712
   12bbb    H16  354   6.263  -1.596  10.336  0.3100 -0.3315  2.1696
   12bbb     C9  355   6.939  -1.252  10.361  0.0112  0.0979  0.5365
   12bbb    H17  356   6.956  -1.160  10.419 -2.7442  2.1477 -1.6369
   12bbb    H18  357   7.030  -1.264  10.301 -1.1092 -0.8646 -1.0586
   12bbb     O1  358   6.384  -0.923  10.072 -0.0178  0.4248  0.6995
   12bbb    H19  359   6.556  -1.340  10.236  2.7138 -1.5726  1.9001
   13bbb     N1  360   5.603  -0.191   8.530  0.0951  0.1322  0.4083
   13bbb     C1  361   5.631  -0.286   8.415 -0.3138 -0.1202 -0.0046
   13bbb     H1  362   5.636  -0.391   8.443 -2.0540 -0.5683 -1.2386
   13bbb     H2  363   5.730  -0.256   8.379  0.5144 -2.4593  0.1719
   13bbb     C2  364   5.463  -0.215   8.579  0.0966 -0.1267 -0.5466
   13bbb     H3  365   5.450  -0.315   8.620 -2.4874  0.2602 -0.2933
   13bbb     H4  366   5.397  -0.205   8.493 -0.3919  0.6176 -0.1018
   13bbb     C3  367   5.707  -0.207   8.644  1.0986 -0.8584  0.9156
   13bbb     H5  368   5.715  -0.313   8.668  2.0521 -0.5771  1.9191
   13bbb     H6  369   5.672  -0.154   8.732  1.2462  2.7286 -0.9842
   13bbb     C4  370   5.845  -0.153   8.610 -0.1943 -0.5490 -0.4789
   13bbb     H7  371   5.850  -0.050   8.647 -0.6669 -0.9601  0.7737
   13bbb     H8  372   5.857  -0.148   8.501  0.3485 -1.3181 -0.4580
   13bbb     C5  373   5.537  -0.262   8.295  0.3068 -0.5565  0.1723
   13bbb     H9  374   5.534  -0.155   8.270 -2.1836 -0.4156  0.8964
   13bbb    H10  375   5.437  -0.294   8.325  0.4535 -0.1348  1.1712
   13bbb     C6  376   5.415  -0.120   8.690  0.1384 -0.0630 -0.5178
   13bbb    H11  377   5.474  -0.136   8.781 -0.2454 -1.9294 -0.5571
   13bbb    H12  378   5.307  -0.138   8.706  0.3635 -0.7470  0.3345
   13bbb     C7  379   5.971  -0.232   8.657 -0.6083 -0.0757  0.3905
   13bbb    H13  380   6.066  -0.185   8.629 -0.4350 -0.7015 -0.1082
   13bbb    H14  381   5.967  -0.330   8.607 -4.0249 -0.0294  0.3016
   13bbb     C8  382   5.431   0.032   8.650  0.8255  0.1418  0.2503
   13bbb    H15  383   5.390   0.089   8.734  3.6992 -0.2045  2.0205
   13bbb    H16  384   5.538   0.056   8.643  0.8509  0.4787  1.4980
   13bbb     C9  385   5.582  -0.351   8.174 -0.1374 -0.7534 -0.1048
   13bbb    H17  386   5.663  -0.294   8.127 -0.5976 -0.4657 -0.5652
   13bbb    H18  387   5.503  -0.361   8.098  0.4580  0.1561 -0.8640
   13bbb     O1  388   5.976  -0.260   8.797  0.3577 -0.7820  0.0560
   13bbb    H19  389   5.619  -0.098   8.488 -0.4470 -0.1228 -0.3820
   14bbb     N1  390   6.876  -0.350   9.092 -0.0515 -0.1465  0.1989
   14bbb     C1  391   6.796  -0.229   9.038 -0.4038 -0.3894  0.8337
   14bbb     H1  392   6.797  -0.148   9.110  0.2805  0.5289 -0.1743
   14bbb     H2  393   6.696  -0.264   9.013 -0.9460  0.8669  1.1703
   14bbb     C2  394   6.998  -0.293   9.160 -0.1408 -0.6836 -0.2366
   14bbb     H3  395   6.960  -0.270   9.259 -0.5369  0.1669 -0.5668
   14bbb     H4  396   7.016  -0.199   9.106 -0.6427 -0.2491  0.3323
   14bbb     C3  397   6.786  -0.427   9.188  0.1648 -0.2339 -0.4026
   14bbb     H5  398   6.746  -0.359   9.263  2.1558 -0.2242  0.7218
   14bbb     H6  399   6.860  -0.485   9.243  2.8404  0.9701 -2.5407
   14bbb     C4  400   6.691  -0.530   9.129  0.1884 -0.2645  0.0267
   14bbb     H7  401   6.744  -0.606   9.071 -1.9024  0.0967 -2.5443
   14bbb     H8  402   6.620  -0.480   9.062  0.6091 -3.1397 -2.7431
   14bbb     C5  403   6.842  -0.173   8.906  0.0482  0.6522 -0.1934
   14bbb     H9  404   6.826  -0.246   8.826  2.0539  0.3850 -0.4044
   14bbb    H10  405   6.948  -0.144   8.904  0.3682  0.1790  3.6217
   14bbb     C6  406   7.122  -0.384   9.168 -0.0222  0.1156  0.1338
   14bbb    H11  407   7.218  -0.332   9.175  1.0555 -1.9944  3.3508
   14bbb    H12  408   7.133  -0.439   9.074  1.6800  0.5458  0.0510
   14bbb     C7  409   6.613  -0.601   9.235 -0.5208  0.2229 -0.1774
   14bbb    H13  410   6.677  -0.625   9.320 -1.1328 -0.6330  0.0623
   14bbb    H14  411   6.566  -0.691   9.193 -0.8066  0.4032 -0.2453
   14bbb     C8  412   7.124  -0.509   9.266 -0.4356 -0.8926  0.7630
   14bbb    H15  413   7.022  -0.550   9.268 -0.7545 -0.1697 -0.0206
   14bbb    H16  414   7.191  -0.586   9.227  1.7256  1.2980 -0.0697
   14bbb     C9  415   6.768  -0.039   8.883  0.4266 -0.2809 -0.0438
   14bbb    H17  416   6.660  -0.050   8.896  0.3649 -1.3156 -1.2401
   14bbb    H18  417   6.782  -0.005   8.780 -0.9551  1.2485  0.2267
   14bbb     O1  418   6.509  -0.509   9.271  0.2052  0.3258  0.1415
   14bbb    H19  419   6.905  -0.416   9.018  2.8011 -0.2377  1.2829
   15bbb     N1  420   5.775   1.138  11.627 -0.5394  0.2892 -0.4697
   15bbb     C1  421   5.700   1.033  11.552 -0.4675  0.0598 -0.6011
   15bbb     H1  422   5.779   0.989  11.491 -0.6867 -0.1962 -0.7001
   15bbb     H2  423   5.638   1.071  11.470  1.1876 -2.1071 -3.0373
   15bbb     C2  424   5.900   1.083  11.699 -0.2551 -0.6027  0.0442
   15bbb     H3  425   5.962   1.172  11.715  1.0068 -1.7332  1.8107
   15bbb     H4  426   5.954   1.014  11.633  0.4166 -0.5706  0.5511
   15bbb     C3  427   5.825   1.251  11.533  0.2572 -0.1234 -0.5229
   15bbb     H5  428   5.871   1.326  11.598 -1.3106  1.1884 -0.8567
   15bbb     H6  429   5.739   1.302  11.490 -1.3354  0.3360  2.8605
   15bbb     C4  430   5.930   1.219  11.421  0.8163  0.3597 -0.2802
   15bbb     H7  431   5.899   1.143  11.348  2.1978  2.5904 -3.4073
   15bbb     H8  432   6.026   1.187  11.463  1.1837 -0.9319 -2.0062
   15bbb     C5  433   5.620   0.917  11.630  0.1794 -0.5792  0.4835
   15bbb     H9  434   5.567   0.964  11.714  0.7650  1.3619 -0.1786
   15bbb    H10  435   5.688   0.843  11.674  1.5745 -0.5724 -1.5117
   15bbb     C6  436   5.875   1.011  11.837  0.5724  0.8124  0.5345
   15bbb    H11  437   5.968   0.982  11.888  0.6852  1.4664  0.7154
   15bbb    H12  438   5.819   0.918  11.823  1.7919  0.0775  0.3879
   15bbb     C7  439   5.962   1.350  11.339  0.0703 -0.5395  0.3101
   15bbb    H13  440   6.049   1.342  11.273 -0.4622  0.7923 -0.6147
   15bbb    H14  441   5.999   1.430  11.404 -0.8988  1.4648 -1.4484
   15bbb     C8  442   5.800   1.108  11.934  0.8960  0.0197  0.1449
   15bbb    H15  443   5.810   1.078  12.039 -0.1201  1.8716  0.8235
   15bbb    H16  444   5.847   1.206  11.918 -2.6197  1.7889 -0.3519
   15bbb     C9  445   5.526   0.843  11.531  0.5018  0.5400 -0.0476
   15bbb    H17  446   5.568   0.858  11.431  0.1283  1.2496 -0.1055
   15bbb    H18  447   5.430   0.896  11.532  0.5636  0.6543  1.0635
   15bbb     O1  448   5.849   1.394  11.252 -0.3802  0.2636  0.3023
   15bbb    H19  449   5.707   1.170  11.698  1.5778  1.6981  1.0332
   16bbb     N1  450   6.149   1.970  11.442 -0.3624  0.1117  0.9622
   16bbb     C1  451   6.217   2.098  11.397  0.5289 -0.2987  0.5028
   16bbb     H1  452   6.261   2.159  11.476  0.3683  0.7687 -0.2030
   16bbb     H2  453   6.139   2.154  11.344  3.1422  0.8810 -2.4388
   16bbb     C2  454   6.059   1.997  11.557  0.6908  0.5430 -0.1923
   16bbb     H3  455   6.016   1.898  11.575  3.0163 -0.9256 -2.1580
   16bbb     H4  456   5.980   2.063  11.520  1.0988  0.7738 -0.6541
   16bbb     C3  457   6.069   1.916  11.328 -0.4008  0.2362  0.1405
   16bbb     H5  458   6.118   1.948  11.237 -1.3615  0.6295 -0.2556
   16bbb     H6  459   5.969   1.959  11.334 -0.9093  0.3497 -5.0182
   16bbb     C4  460   6.065   1.760  11.323 -0.0619 -0.4329  0.0310
   16bbb     H7  461   6.009   1.730  11.413 -0.0468  0.4088  0.3382
   16bbb     H8  462   6.168   1.724  11.315 -0.2296 -0.3739 -3.9462
   16bbb     C5  463   6.337   2.077  11.304 -0.3658  0.3156  0.0084
   16bbb     H9  464   6.315   2.034  11.206 -0.2510  1.1365 -0.3827
   16bbb    H10  465   6.413   2.011  11.347  2.0722  1.4923 -2.2066
   16bbb     C6  466   6.120   2.044  11.691 -0.0308  0.9686  0.0354
   16bbb    H11  467   6.166   2.142  11.675 -0.2443  0.4534 -6.1128
   16bbb    H12  468   6.207   1.983  11.720 -1.5820 -0.1912  2.6796
   16bbb     C7  469   6.002   1.714  11.193  0.2819 -0.6298 -0.3234
   16bbb    H13  470   5.898   1.748  11.187  0.3179 -0.0486  1.7115
   16bbb    H14  471   6.000   1.604  11.189  0.2583 -0.6857  0.8788
   16bbb     C8  472   6.017   2.039  11.810  0.1669 -0.1626  0.0893
   16bbb    H15  473   5.914   2.057  11.778  0.3931  0.0458 -0.5465
   16bbb    H16  474   6.036   1.940  11.854  3.2011  0.8681  1.3756
   16bbb     C9  475   6.412   2.205  11.275 -0.0082  0.3736  1.2977
   16bbb    H17  476   6.515   2.181  11.245 -0.3855  1.1164 -0.7494
   16bbb    H18  477   6.420   2.265  11.366 -2.3758  3.0689 -0.1122
   16bbb     O1  478   6.073   1.773  11.084  1.0916  0.6518  0.2324
   16bbb    H19  479   6.217   1.896  11.465 -0.3729 -0.4855 -0.7431
   17bbb     N1  480   4.669   1.343  10.837  0.0102 -0.0252  0.3238
   17bbb     C1  481   4.813   1.375  10.872 -0.0278 -1.0310 -0.6699
   17bbb     H1  482   4.857   1.411  10.779  0.5251 -1.6366 -0.6467
   17bbb     H2  483   4.860   1.285  10.912  0.9966 -0.3806 -0.3740
   17bbb     C2  484   4.586   1.314  10.962 -0.3000  0.4875  0.1563
   17bbb     H3  485   4.605   1.402  11.024  0.2227  2.0812 -2.1115
   17bbb     H4  486   4.633   1.227  11.006  0.8282  0.9418 -0.1133
   17bbb     C3  487   4.605   1.450  10.755  0.4035  0.4357  0.6980
   17bbb     H5  488   4.577   1.533  10.819 -1.0719  1.1629 -0.8049
   17bbb     H6  489   4.515   1.394  10.731  1.0564 -0.8047  1.0534
   17bbb     C4  490   4.670   1.490  10.613  0.2866  0.7040  0.0431
   17bbb     H7  491   4.709   1.401  10.564 -1.6005 -1.2669  1.9173
   17bbb     H8  492   4.751   1.564  10.619  0.6730  0.2942 -0.0797
   17bbb     C5  493   4.838   1.498  10.979 -0.3711 -0.0970  0.7464
   17bbb     H9  494   4.815   1.470  11.083  0.8451 -0.7997  0.8492
   17bbb    H10  495   4.776   1.585  10.957  0.5672  0.2023 -0.8392
   17bbb     C6  496   4.432   1.288  10.943  0.3449  0.4452 -0.2461
   17bbb    H11  497   4.429   1.190  10.895 -0.0685  0.3351  0.0040
   17bbb    H12  498   4.379   1.356  10.876 -0.1700 -0.8218 -1.1550
   17bbb     C7  499   4.562   1.556  10.517 -0.1559 -0.0807 -0.5963
   17bbb    H13  500   4.520   1.650  10.555 -1.1623 -1.1286  1.0059
   17bbb    H14  501   4.485   1.479  10.501 -1.5164  1.3843 -1.3384
   17bbb     C8  502   4.372   1.263  11.083  0.2523 -0.1214 -0.2486
   17bbb    H15  503   4.396   1.359  11.131 -1.5473 -0.2460  0.9837
   17bbb    H16  504   4.265   1.242  11.071  0.4213 -0.3954 -1.3767
   17bbb     C9  505   4.989   1.531  10.972  0.8676 -0.1550  0.2677
   17bbb    H17  506   5.026   1.516  10.870  1.4915  0.5822  0.3723
   17bbb    H18  507   5.035   1.458  11.039  1.5748  1.3964  1.5579
   17bbb     O1  508   4.623   1.586  10.394 -0.3808 -0.3616  0.6233
   17bbb    H19  509   4.669   1.248  10.796 -0.2022 -1.3657  3.1396
   18bbb     N1  510   4.388   2.434  10.297 -0.2717  0.8155  0.7887
   18bbb     C1  511   4.415   2.581  10.277 -0.4486 -0.7986 -0.5849
   18bbb     H1  512   4.318   2.631  10.283  0.7455  1.5120  1.5901
   18bbb     H2  513   4.465   2.587  10.180 -0.6693 -2.4863 -0.8338
   18bbb     C2  514   4.242   2.393  10.265 -0.1709  0.3383 -0.1252
   18bbb     H3  515   4.228   2.290  10.296  0.9310  0.3136  0.3364
   18bbb     H4  516   4.235   2.415  10.158  0.6999  1.9635  0.1124
   18bbb     C3  517   4.487   2.333  10.237  0.0008  0.0814 -0.0122
   18bbb     H5  518   4.589   2.364  10.260  0.1294 -2.0950  2.8416
   18bbb     H6  519   4.462   2.319  10.131  0.5785 -0.2954 -0.1037
   18bbb     C4  520   4.474   2.194  10.291 -0.2807 -0.2255  0.3791
   18bbb     H7  521   4.371   2.160  10.304 -0.6807  0.7795 -0.0087
   18bbb     H8  522   4.514   2.191  10.393 -0.3608 -1.4565  0.3839
   18bbb     C5  523   4.513   2.650  10.381  0.0112  0.0280 -0.0592
   18bbb     H9  524   4.611   2.601  10.380  2.2077  4.0661 -0.0239
   18bbb    H10  525   4.483   2.637  10.486  0.5522  3.3076  0.5903
   18bbb     C6  526   4.134   2.471  10.349 -0.0265 -0.5064 -0.1696
   18bbb    H11  527   4.128   2.575  10.315  0.1892 -0.3875  0.1462
   18bbb    H12  528   4.167   2.479  10.454 -1.3439 -1.1873  0.3210
   18bbb     C7  529   4.556   2.093  10.220  0.2463  0.2782  0.7878
   18bbb    H13  530   4.646   2.141  10.182  0.9861 -3.2028 -2.4827
   18bbb    H14  531   4.487   2.058  10.142 -0.4538  0.3310  1.3657
   18bbb     C8  532   4.000   2.405  10.337 -0.4924  0.2161  0.0935
   18bbb    H15  533   3.965   2.417  10.234 -0.7234  1.8990  0.3477
   18bbb    H16  534   4.013   2.298  10.356 -0.6551  0.2088  0.1715
   18bbb     C9  535   4.515   2.801  10.347  0.0379 -0.1605  0.5656
   18bbb    H17  536   4.504   2.804  10.238  1.2274 -2.1621  0.3324
   18bbb    H18  537   4.611   2.842  10.380  0.7981 -1.3599 -0.0498
   18bbb     O1  538   4.587   1.979  10.308 -0.0902 -0.1247 -0.5911
   18bbb    H19  539   4.394   2.426  10.399  2.6184 -0.5869  0.6034
   19bbb     N1  540   7.449   1.817   8.321  0.0291  0.0231  0.5708
   19bbb     C1  541   7.304   1.843   8.286 -0.9261 -0.6601 -0.2747
   19bbb     H1  542   7.306   1.950   8.267  0.8757 -0.5846  0.1533
   19bbb     H2  543   7.244   1.810   8.371  0.2182 -0.2941  0.7053
   19bbb     C2  544   7.524   1.924   8.241 -0.1467  0.3367  0.2175
   19bbb     H3  545   7.489   2.018   8.284  0.0620  1.0259 -1.0762
   19bbb     H4  546   7.495   1.912   8.136  1.2115  1.7491 -0.3622
   19bbb     C3  547   7.465   1.840   8.468 -0.1083  0.1880 -0.3042
   19bbb     H5  548   7.417   1.934   8.496 -2.5442 -1.2607  0.6880
   19bbb     H6  549   7.574   1.850   8.475 -0.1477  1.5822 -1.2886
   19bbb     C4  550   7.406   1.731   8.556  0.1353  0.3322  0.2392
   19bbb     H7  551   7.466   1.641   8.540  1.1718  0.7121  1.7496
   19bbb     H8  552   7.303   1.704   8.529  0.6114 -2.7742  1.1286
   19bbb     C5  553   7.264   1.775   8.156 -0.0713 -0.0475  1.0197
   19bbb     H9  554   7.248   1.667   8.164 -2.4945 -0.0264 -1.9997
   19bbb    H10  555   7.338   1.782   8.075  0.0034 -1.6794  0.9239
   19bbb     C6  556   7.682   1.914   8.245  0.1657  0.5943  0.1145
   19bbb    H11  557   7.707   1.823   8.190  1.1274 -0.1693  1.7249
   19bbb    H12  558   7.723   1.892   8.344 -0.7101 -0.2767  0.2917
   19bbb     C7  559   7.397   1.765   8.711  0.2355 -1.0091  0.7819
   19bbb    H13  560   7.499   1.781   8.748  0.0355  2.0811  0.1827
   19bbb    H14  561   7.360   1.686   8.777 -1.7223  0.6321  1.7126
   19bbb     C8  562   7.737   2.031   8.165 -0.3676  0.4339  0.4511
   19bbb    H15  563   7.840   2.010   8.132 -0.0032  1.5576  0.8210
   19bbb    H16  564   7.679   2.044   8.073 -0.9513 -0.8316  0.6289
   19bbb     C9  565   7.134   1.845   8.105 -0.7944 -0.2749 -0.1841
   19bbb    H17  566   7.063   1.854   8.188 -0.7836 -0.4669 -0.1536
   19bbb    H18  567   7.094   1.787   8.021 -0.2811 -0.9198  0.0056
   19bbb     O1  568   7.328   1.883   8.730 -0.1635  0.8873  0.3873
   19bbb    H19  569   7.479   1.722   8.297 -1.2497 -0.3072  0.2251
   20bbb     N1  570   7.091   2.710   9.349 -0.0667 -0.0824  0.6691
   20bbb     C1  571   6.990   2.817   9.328 -0.1898  0.3281 -0.9914
   20bbb     H1  572   6.904   2.778   9.382 -1.1261  0.5894 -2.2668
   20bbb     H2  573   6.975   2.812   9.220 -3.4180  1.0959 -0.6667
   20bbb     C2  574   7.133   2.690   9.494 -0.4036 -0.3081 -0.4479
   20bbb     H3  575   7.045   2.647   9.542  2.9547 -3.7511  3.4488
   20bbb     H4  576   7.158   2.787   9.537  1.7506  0.0286 -2.2668
   20bbb     C3  577   7.025   2.588   9.296 -0.1748 -0.5681  0.4103
   20bbb     H5  578   6.917   2.597   9.312 -0.5402  1.2488 -2.4793
   20bbb     H6  579   7.066   2.498   9.342  2.3984 -0.1104 -0.8311
   20bbb     C4  580   7.052   2.574   9.149  0.1527  0.7208  0.0430
   20bbb     H7  581   7.155   2.540   9.137 -0.9785 -2.4073 -1.9748
   20bbb     H8  582   7.048   2.666   9.089 -2.7186 -0.8115 -2.4397
   20bbb     C5  583   7.035   2.960   9.367 -0.2207 -0.3906 -0.0389
   20bbb     H9  584   7.134   2.982   9.325  0.7374  0.9327  2.6597
   20bbb    H10  585   7.052   2.973   9.475  1.5990  1.0520 -0.4429
   20bbb     C6  586   7.235   2.585   9.527 -0.0220  0.2411 -0.3802
   20bbb    H11  587   7.313   2.593   9.450 -2.1543  0.5291 -2.6205
   20bbb    H12  588   7.199   2.482   9.538  2.1002 -0.5008  0.1579
   20bbb     C7  589   6.967   2.461   9.081 -1.1371  0.3336 -0.0631
   20bbb    H13  590   7.011   2.441   8.983  1.6639 -1.7151  1.4481
   20bbb    H14  591   6.865   2.501   9.080 -0.5375  2.0941  1.5204
   20bbb     C8  592   7.285   2.620   9.669 -0.1333  0.0477 -0.2138
   20bbb    H15  593   7.207   2.655   9.738 -2.0426  4.0627 -3.9420
   20bbb    H16  594   7.309   2.524   9.717 -1.8225  0.1303  0.8924
   20bbb     C9  595   6.927   3.057   9.316  0.2346  0.9435  0.3411
   20bbb    H17  596   6.835   3.045   9.374  1.5515  0.3906  2.4045
   20bbb    H18  597   6.897   3.033   9.213  1.5632  0.1421  0.1130
   20bbb     O1  598   6.969   2.335   9.161 -0.4528 -0.5944 -0.3482
   20bbb    H19  599   7.173   2.743   9.296 -1.0095  2.1273  0.4773
   21bbb     N1  600   6.091   0.873   7.635 -0.3406  0.4448 -0.0364
   21bbb     C1  601   5.940   0.865   7.621  0.1178 -0.4109 -0.5685
   21bbb     H1  602   5.911   0.760   7.615  0.4350 -0.4997 -0.5980
   21bbb     H2  603   5.916   0.885   7.516  0.4375 -0.4298 -0.6484
   21bbb     C2  604   6.141   1.016   7.608 -0.0855  0.0256 -0.0291
   21bbb     H3  605   6.242   1.019   7.650 -0.3708  1.8421  0.6386
   21bbb     H4  606   6.076   1.090   7.655  0.9698  0.4391  0.8441
   21bbb     C3  607   6.121   0.841   7.782 -0.1764 -0.0537 -0.2611
   21bbb     H5  608   6.065   0.750   7.802  2.5191 -1.5921  0.6700
   21bbb     H6  609   6.086   0.930   7.835  2.4779  1.7677 -1.3366
   21bbb     C4  610   6.267   0.820   7.818  0.3066  0.4208  0.1649
   21bbb     H7  611   6.337   0.891   7.772 -0.3831 -1.1052 -3.5746
   21bbb     H8  612   6.289   0.724   7.769 -0.3049  0.6528 -0.5636
   21bbb     C5  613   5.842   0.966   7.695 -0.3854  0.7776  0.0170
   21bbb     H9  614   5.871   1.062   7.649  3.3137  0.7110  1.7868
   21bbb    H10  615   5.873   0.978   7.800  1.1653  2.7141 -0.5780
   21bbb     C6  616   6.153   1.046   7.459  0.6454 -0.3076  0.1246
   21bbb    H11  617   6.193   1.148   7.455 -0.2797  0.1222  1.2456
   21bbb    H12  618   6.054   1.063   7.416  1.0465  0.6965 -0.4141
   21bbb     C7  619   6.286   0.808   7.970 -0.0115 -0.1725 -0.6935
   21bbb    H13  620   6.391   0.784   7.991 -1.0497 -3.0047  1.8795
   21bbb    H14  621   6.231   0.720   8.005 -4.5229  1.8242 -2.0178
   21bbb     C8  622   6.230   0.942   7.380  0.2216 -0.0212  0.7248
   21bbb    H15  623   6.176   0.846   7.378  2.0126 -1.0744  0.8722
   21bbb    H16  624   6.238   0.980   7.278  1.0639  1.4254  1.2962
   21bbb     C9  625   5.695   0.933   7.666  0.4155 -0.1313 -0.4608
   21bbb    H17  626   5.633   0.994   7.732 -0.9794 -0.6680 -1.2368
   21bbb    H18  627   5.686   0.825   7.683  0.8667  0.1240  1.7596
   21bbb     O1  628   6.250   0.923   8.042 -0.8720 -0.7546  0.0170
   21bbb    H19  629   6.142   0.803   7.579 -0.9570  0.5884 -0.7895
   22bbb     N1  630   6.031   1.700   7.809  0.6822  0.7050 -0.5438
   22bbb     C1  631   6.176   1.648   7.823  0.6560  0.2982  0.0713
   22bbb     H1  632   6.242   1.696   7.751  0.4297 -1.6890 -1.5501
   22bbb     H2  633   6.163   1.541   7.804  0.5702  0.8614 -3.7796
   22bbb     C2  634   5.996   1.710   7.661 -0.4277 -0.0007  0.4816
   22bbb     H3  635   5.979   1.610   7.622  0.1146  0.1278 -0.1001
   22bbb     H4  636   6.085   1.750   7.614 -0.5490 -0.8689 -0.5237
   22bbb     C3  637   5.930   1.607   7.878 -0.4922  0.2324  0.1608
   22bbb     H5  638   5.979   1.547   7.955 -2.8194 -1.2643  0.5678
   22bbb     H6  639   5.891   1.531   7.810  1.3361  1.2874 -2.2168
   22bbb     C4  640   5.814   1.676   7.957 -0.5104 -1.1516 -0.4932
   22bbb     H7  641   5.732   1.722   7.901 -2.8503 -1.6599  2.2676
   22bbb     H8  642   5.857   1.771   7.992 -1.4553 -0.0091 -2.3086
   22bbb     C5  643   6.238   1.669   7.958 -0.5100  0.3618 -0.3432
   22bbb     H9  644   6.341   1.630   7.954 -1.4711 -2.4602 -0.4049
   22bbb    H10  645   6.186   1.616   8.040 -0.7431 -0.0274 -0.7400
   22bbb     C6  646   5.871   1.792   7.616  0.5143 -0.9158 -1.1024
   22bbb    H11  647   5.884   1.892   7.659 -2.3266 -1.3475  1.0812
   22bbb    H12  648   5.778   1.767   7.669 -0.5017  0.4857 -2.1674
   22bbb     C7  649   5.758   1.601   8.079 -0.3366  0.7157 -0.1857
   22bbb    H13  650   5.687   1.522   8.049  0.0727 -0.2700  1.3533
   22bbb    H14  651   5.703   1.669   8.144 -0.7592 -0.5441  0.8075
   22bbb     C8  652   5.864   1.778   7.461 -0.1297 -0.4297 -0.0649
   22bbb    H15  653   5.959   1.794   7.409 -0.1454  0.8974  0.2954
   22bbb    H16  654   5.847   1.673   7.433  0.3265 -0.5535  0.1090
   22bbb     C9  655   6.236   1.813   7.991  0.3873 -0.5679  0.1146
   22bbb    H17  656   6.279   1.876   7.913 -0.3522 -0.2993 -0.0859
   22bbb    H18  657   6.298   1.835   8.079  0.2705  1.8451 -0.3265
   22bbb     O1  658   5.867   1.537   8.148 -0.2066  0.2837  0.0931
   22bbb    H19  659   6.024   1.792   7.853  1.5395  0.8585 -0.7065
   23bbb     N1  660   6.686  -0.054  11.519 -0.7697  0.9028  0.2521
   23bbb     C1  661   6.610   0.082  11.525 -0.4442  0.2777 -0.3524
   23bbb     H1  662   6.505   0.060  11.508 -1.0509  2.8411 -0.2680
   23bbb     H2  663   6.642   0.145  11.443  2.5684 -0.1909  0.2979
   23bbb     C2  664   6.632  -0.138  11.634 -0.7710 -0.0140  0.3281
   23bbb     H3  665   6.651  -0.088  11.729  0.4266  1.4087 -0.6102
   23bbb     H4  666   6.702  -0.222  11.633 -0.4978  0.2090 -0.3580
   23bbb     C3  667   6.672  -0.126  11.389  0.0778  0.0091 -1.0762
   23bbb     H5  668   6.567  -0.120  11.361  0.1949 -0.8000 -1.7135
   23bbb     H6  669   6.688  -0.233  11.402 -0.1436 -0.3685 -3.4849
   23bbb     C4  670   6.756  -0.074  11.263  0.2633 -0.2988  0.3036
   23bbb     H7  671   6.848  -0.027  11.299 -0.2486 -1.4191  3.4349
   23bbb     H8  672   6.699   0.005  11.213 -0.3213  0.3901  1.9799
   23bbb     C5  673   6.621   0.172  11.654 -0.7060 -0.3023 -0.2936
   23bbb     H9  674   6.724   0.211  11.659 -0.2934 -1.1722 -1.5426
   23bbb    H10  675   6.604   0.113  11.745 -1.0276 -0.6320 -0.5647
   23bbb     C6  676   6.492  -0.189  11.622 -0.3771 -0.4037 -0.7109
   23bbb    H11  677   6.479  -0.257  11.537 -0.5993 -1.7731  0.3858
   23bbb    H12  678   6.416  -0.111  11.610  0.8769  1.8182  3.6604
   23bbb     C7  679   6.789  -0.191  11.168  0.1420 -0.1745 -0.0872
   23bbb    H13  680   6.856  -0.257  11.225  1.9152  1.7345  0.1461
   23bbb    H14  681   6.847  -0.158  11.081 -0.9443  0.2590 -0.6588
   23bbb     C8  682   6.445  -0.272  11.743  0.8559 -0.4653 -0.2699
   23bbb    H15  683   6.356  -0.326  11.709  0.4223 -0.4187  0.7467
   23bbb    H16  684   6.516  -0.355  11.760  0.1439 -1.1931 -0.7795
   23bbb     C9  685   6.523   0.286  11.646  0.3627 -0.0121 -0.5654
   23bbb    H17  686   6.528   0.347  11.737  0.9645  0.6277 -1.0100
   23bbb    H18  687   6.417   0.257  11.647  0.5499 -0.6715  0.4261
   23bbb     O1  688   6.670  -0.267  11.135  0.0489  0.2392  0.3759
   23bbb    H19  689   6.787  -0.037  11.528 -0.1639 -2.0361  0.0215
   24bbb     N1  690   6.052   0.208  11.070 -0.0006 -0.2079 -0.0275
   24bbb     C1  691   6.084   0.246  11.209  0.1532 -0.0097 -0.2357
   24bbb     H1  692   5.986   0.273  11.249 -0.3404  1.9423 -2.5136
   24bbb     H2  693   6.138   0.340  11.195 -1.1530  0.5916 -1.5068
   24bbb     C2  694   5.942   0.299  11.021  0.5229  0.2884 -0.8022
   24bbb     H3  695   5.862   0.288  11.094  1.1492  2.5807  0.3215
   24bbb     H4  696   5.907   0.253  10.929  1.4180  1.0405 -1.5382
   24bbb     C3  697   6.175   0.224  10.976 -0.2162 -0.6109 -0.2771
   24bbb     H5  698   6.248   0.147  11.002 -0.4561 -1.7058 -2.5543
   24bbb     H6  699   6.233   0.311  11.007  1.8176 -1.3143 -1.9069
   24bbb     C4  700   6.142   0.224  10.823  0.2897  0.2581  0.2245
   24bbb     H7  701   6.104   0.324  10.796  1.9256  1.5261  2.3637
   24bbb     H8  702   6.076   0.142  10.791  0.0896  0.4043  0.2591
   24bbb     C5  703   6.162   0.143  11.301  0.3596  0.2842  0.0006
   24bbb     H9  704   6.261   0.114  11.263  1.5995 -1.8078  4.1917
   24bbb    H10  705   6.110   0.047  11.303  3.0758 -1.2884  0.1893
   24bbb     C6  706   5.972   0.456  11.015  0.9013  0.5904  0.0118
   24bbb    H11  707   6.050   0.476  10.940  0.5593 -0.3617 -0.6100
   24bbb    H12  708   6.019   0.499  11.105  1.3829 -0.3210  0.2042
   24bbb     C7  709   6.270   0.221  10.731 -0.2144  0.2154 -0.2587
   24bbb    H13  710   6.327   0.313  10.751  0.6736 -0.5177  0.7270
   24bbb    H14  711   6.234   0.218  10.627 -2.0055 -2.1197  0.3443
   24bbb     C8  712   5.835   0.527  10.997 -0.7049  0.4369  0.4441
   24bbb    H15  713   5.760   0.496  11.071 -2.0108 -0.1304 -1.0642
   24bbb    H16  714   5.853   0.634  11.010  0.0699  0.2797  0.7452
   24bbb     C9  715   6.185   0.191  11.442 -0.0568 -0.0282 -0.3156
   24bbb    H17  716   6.259   0.271  11.445 -0.4708  0.3478  0.0422
   24bbb    H18  717   6.228   0.117  11.510 -0.2841  1.1173  1.1297
   24bbb     O1  718   6.354   0.099  10.760  0.2956  0.2315 -0.5632
   24bbb    H19  719   6.018   0.111  11.063 -0.7121  0.1006 -1.1395
   25bbb     N1  720   6.011  -1.007  10.387  0.8945 -0.6382  0.4992
   25bbb     C1  721   5.917  -0.995  10.269  0.8556  0.4311 -0.0929
   25bbb     H1  722   5.867  -0.899  10.282  2.2988  1.3256 -0.7675
   25bbb     H2  723   5.848  -1.078  10.284 -1.8657  2.8859  2.1275
   25bbb     C2  724   5.931  -0.991  10.524 -0.1557 -0.2304  0.5764
   25bbb     H3  725   5.975  -1.065  10.592  0.5322 -0.5763 -0.2243
   25bbb     H4  726   5.830  -1.027  10.507 -0.2111 -0.1101  0.6552
   25bbb     C3  727   6.081  -1.141  10.387  0.0049  0.1512  0.2173
   25bbb     H5  728   6.143  -1.156  10.476 -2.7991 -0.1330  2.2634
   25bbb     H6  729   6.148  -1.142  10.301  0.4939 -2.4076  0.5365
   25bbb     C4  730   6.008  -1.279  10.376  0.1150  0.7368 -0.2010
   25bbb     H7  731   5.963  -1.291  10.277 -2.2325  0.7062  0.7955
   25bbb     H8  732   5.930  -1.303  10.450 -0.2498 -1.1367 -1.1326
   25bbb     C5  733   5.983  -1.009  10.130  0.1197  0.0502  0.3003
   25bbb     H9  734   5.965  -1.113  10.100 -3.0202  0.4134  0.5693
   25bbb    H10  735   6.092  -0.994  10.127 -0.0793  1.6964  0.0833
   25bbb     C6  736   5.931  -0.855  10.598 -0.0608 -0.3647 -0.3700
   25bbb    H11  737   5.903  -0.859  10.704 -1.0788  1.7674 -0.5028
   25bbb    H12  738   5.856  -0.790  10.552  0.3666 -0.4423 -1.1838
   25bbb     C7  739   6.108  -1.391  10.398 -0.3814  0.4744  0.8502
   25bbb    H13  740   6.047  -1.481  10.393 -0.4779  0.5673  0.2640
   25bbb    H14  741   6.154  -1.384  10.498 -1.9846 -0.5306  1.7088
   25bbb     C8  742   6.070  -0.783  10.586 -0.6892  0.0805  0.1105
   25bbb    H15  743   6.085  -0.747  10.484  0.6815 -0.5152  0.0709
   25bbb    H16  744   6.079  -0.693  10.649 -1.3225 -0.9264  1.6863
   25bbb     C9  745   5.910  -0.925  10.023 -0.3336  0.5523  0.4854
   25bbb    H17  746   5.967  -0.953   9.933  1.8285 -1.5058  2.3337
   25bbb    H18  747   5.926  -0.819  10.044 -0.2230  0.3513  1.4456
   25bbb     O1  748   6.217  -1.391  10.296  0.1178  0.6233  0.1484
   25bbb    H19  749   6.084  -0.935  10.384 -0.6560  1.1182  2.3536
   26bbb     N1  750   7.289  -1.559  10.577 -0.2079  0.4254  0.1666
   26bbb     C1  751   7.376  -1.459  10.630 -0.0598 -0.2278 -0.4517
   26bbb     H1  752   7.436  -1.511  10.705 -0.6877  0.7793  0.7799
   26bbb     H2  753   7.323  -1.385  10.690 -0.6700 -0.6676 -0.4380
   26bbb     C2  754   7.278  -1.685  10.662 -0.3566 -0.5361  0.1390
   26bbb     H3  755   7.172  -1.709  10.660 -0.8373  1.2752 -3.0992
   26bbb     H4  756   7.298  -1.665  10.767 -1.7935 -2.0263  0.7517
   26bbb     C3  757   7.152  -1.506  10.547  0.6697 -0.2166 -0.2518
   26bbb     H5  758   7.163  -1.398  10.538 -0.4653 -0.0795 -0.0600
   26bbb     H6  759   7.084  -1.519  10.631 -1.0332  1.1778 -1.3671
   26bbb     C4  760   7.093  -1.549  10.411  0.2637  0.8935 -0.3759
   26bbb     H7  761   7.094  -1.659  10.406  0.1568  0.7691  1.6613
   26bbb     H8  762   7.152  -1.502  10.331 -1.7495  0.2032 -2.3938
   26bbb     C5  763   7.473  -1.402  10.531 -0.2354  0.0356 -0.1194
   26bbb     H9  764   7.410  -1.353  10.456  0.2211  1.0729  0.1519
   26bbb    H10  765   7.521  -1.485  10.478 -0.1171  0.4870 -0.7457
   26bbb     C6  766   7.358  -1.815  10.617 -0.0303  0.6465 -0.1318
   26bbb    H11  767   7.320  -1.852  10.520 -0.9232 -0.5094  0.6244
   26bbb    H12  768   7.330  -1.897  10.684  0.5789  2.0022  1.8480
   26bbb     C7  769   6.942  -1.498  10.400 -0.2453  0.2230  0.3719
   26bbb    H13  770   6.868  -1.556  10.457  0.7362  0.5255  2.0165
   26bbb    H14  771   6.898  -1.508  10.300 -2.4218 -0.7391  1.3490
   26bbb     C8  772   7.507  -1.813  10.612  0.5760 -0.1551  0.1717
   26bbb    H15  773   7.548  -1.775  10.706 -0.7946 -1.0241  1.1520
   26bbb    H16  774   7.556  -1.911  10.605  3.0540  1.0486 -0.4715
   26bbb     C9  775   7.585  -1.323  10.602  0.0640 -0.0439  0.6124
   26bbb    H17  776   7.665  -1.281  10.539  0.3604  1.5748  1.9965
   26bbb    H18  777   7.625  -1.387  10.681  0.0282 -2.2297 -1.0348
   26bbb     O1  778   6.936  -1.358  10.451 -0.4158 -0.3762  0.2030
   26bbb    H19  779   7.331  -1.588  10.488  0.4074  1.5746  0.0623
   27bbb     N1  780   5.270   0.140   8.103 -0.1144 -0.3141 -0.4326
   27bbb     C1  781   5.345   0.251   8.038  0.4186 -0.9012  0.9799
   27bbb     H1  782   5.441   0.209   8.008  0.6449 -1.1723  2.0177
   27bbb     H2  783   5.370   0.316   8.122 -0.2067  2.0911 -1.0097
   27bbb     C2  784   5.267   0.010   8.023 -0.8860 -0.1963  0.2945
   27bbb     H3  785   5.361  -0.042   8.045  0.0540  2.0877  2.0811
   27bbb     H4  786   5.270   0.046   7.920  2.4944 -1.7454 -0.3023
   27bbb     C3  787   5.336   0.108   8.246  0.0977  1.1388 -0.1747
   27bbb     H5  788   5.443   0.097   8.234 -0.0552 -1.9893  0.5442
   27bbb     H6  789   5.293   0.012   8.275 -1.5310  1.7473 -0.4414
   27bbb     C4  790   5.308   0.210   8.356 -0.1529  0.9541 -0.4835
   27bbb     H7  791   5.205   0.197   8.390  0.2121 -0.6632  0.0985
   27bbb     H8  792   5.325   0.315   8.331  1.3176  1.4047  2.0169
   27bbb     C5  793   5.267   0.333   7.933  0.5122  0.7158  0.3057
   27bbb     H9  794   5.167   0.349   7.974  0.3930 -0.0031  0.3190
   27bbb    H10  795   5.262   0.280   7.837 -1.4757 -1.1840  1.3671
   27bbb     C6  796   5.150  -0.084   8.044 -1.1129 -0.5803  0.0995
   27bbb    H11  797   5.172  -0.147   8.132  2.6973  1.4118  0.7686
   27bbb    H12  798   5.158  -0.151   7.958  4.0122  1.8628 -1.6872
   27bbb     C7  799   5.391   0.185   8.476 -0.1151  0.1873 -0.7979
   27bbb    H13  800   5.361   0.256   8.554 -0.7207 -0.2679 -0.6125
   27bbb    H14  801   5.496   0.210   8.455  0.0077  1.1721  0.8066
   27bbb     C8  802   5.007  -0.022   8.043 -0.4431 -0.1425  0.3525
   27bbb    H15  803   4.985   0.020   7.944  0.2286 -1.5194 -0.4128
   27bbb    H16  804   4.934  -0.103   8.047 -0.5257 -0.1359 -0.8464
   27bbb     C9  805   5.336   0.469   7.922  0.5458 -0.3233 -0.5869
   27bbb    H17  806   5.276   0.536   7.859 -3.3977 -2.3307  0.7024
   27bbb    H18  807   5.437   0.459   7.879  0.3320 -0.1619 -1.1392
   27bbb     O1  808   5.361   0.052   8.520  0.3435 -0.0532 -0.0043
   27bbb    H19  809   5.172   0.169   8.110 -0.2572 -0.7964 -0.4092
   28bbb     N1  810   5.738  -0.836   8.274 -0.1816  0.0145 -0.1070
   28bbb     C1  811   5.817  -0.913   8.166  0.0305  0.6865  0.0818
   28bbb     H1  812   5.921  -0.909   8.201 -0.2309  1.3379  0.8286
   28bbb     H2  813   5.797  -0.861   8.072 -0.5837 -0.7852 -0.6195
   28bbb     C2  814   5.746  -0.906   8.413 -0.4160  0.3603  0.1703
   28bbb     H3  815   5.849  -0.931   8.440 -0.0083 -0.6298 -2.0944
   28bbb     H4  816   5.704  -1.006   8.408  3.6720 -1.7477  2.8497
   28bbb     C3  817   5.806  -0.700   8.300  1.0329 -0.1267  0.2155
   28bbb     H5  818   5.901  -0.706   8.354 -0.4448  2.3388  3.4753
   28bbb     H6  819   5.740  -0.650   8.371 -1.6216 -1.5995 -1.0769
   28bbb     C4  820   5.824  -0.608   8.180 -0.1320 -0.3278 -0.3152
   28bbb     H7  821   5.888  -0.648   8.100 -1.4012 -2.0844 -0.5019
   28bbb     H8  822   5.888  -0.523   8.208 -0.1289 -0.1231 -0.9346
   28bbb     C5  823   5.781  -1.065   8.155 -0.0146  0.2524 -0.6986
   28bbb     H9  824   5.781  -1.114   8.253  0.5197 -1.6792 -1.6091
   28bbb    H10  825   5.845  -1.134   8.099 -0.6220 -1.1917  0.3358
   28bbb     C6  826   5.671  -0.835   8.526 -0.7589 -0.3902 -0.5685
   28bbb    H11  827   5.697  -0.729   8.537  0.3432 -0.7442  0.4889
   28bbb    H12  828   5.693  -0.879   8.624  0.7575  0.1294 -0.6420
   28bbb     C7  829   5.700  -0.551   8.115 -0.0744  0.0129  0.7239
   28bbb    H13  830   5.635  -0.622   8.063 -0.8512  1.4371 -0.3262
   28bbb    H14  831   5.735  -0.480   8.039  0.4637 -0.5341  0.4472
   28bbb     C8  832   5.514  -0.837   8.511 -0.6621 -0.1903  0.1137
   28bbb    H15  833   5.478  -0.804   8.609  1.0042 -1.5503  1.2468
   28bbb    H16  834   5.475  -0.768   8.436  0.2241 -1.3236 -1.4600
   28bbb     C9  835   5.639  -1.096   8.100  0.2347  0.1435 -0.2471
   28bbb    H17  836   5.565  -1.048   8.166 -0.2169  0.6497 -1.1084
   28bbb    H18  837   5.628  -1.205   8.096  1.0642  0.0213  0.4434
   28bbb     O1  838   5.624  -0.477   8.217 -0.0570  0.8537 -0.2289
   28bbb    H19  839   5.645  -0.825   8.229  1.2879  1.8107 -2.9887
   29bbb     N1  840   7.426  -0.368   9.394 -0.0623  0.2350 -0.2124
   29bbb     C1  841   7.453  -0.234   9.467  0.1646  0.2010  0.3494
   29bbb     H1  842   7.558  -0.212   9.450 -0.6224  1.4484 -4.0887
   29bbb     H2  843   7.421  -0.237   9.572 -0.0851 -3.2178  0.2807
   29bbb     C2  844   7.548  -0.397   9.300  0.4558 -0.5453  0.1546
   29bbb     H3  845   7.627  -0.444   9.360  1.7374  0.2076 -0.8938
   29bbb     H4  846   7.589  -0.305   9.260 -0.6086  0.2779  0.9066
   29bbb     C3  847   7.429  -0.487   9.497 -0.0888 -0.5533  0.2740
   29bbb     H5  848   7.516  -0.468   9.560  1.4473  2.7193 -2.4792
   29bbb     H6  849   7.441  -0.578   9.438  1.8407 -0.0303 -0.2149
   29bbb     C4  850   7.311  -0.504   9.594 -0.2133  0.2856  0.5488
   29bbb     H7  851   7.297  -0.416   9.658  0.2202  0.6500  0.1495
   29bbb     H8  852   7.330  -0.591   9.657  1.0209 -0.6287 -1.0086
   29bbb     C5  853   7.384  -0.107   9.410  0.4839  0.4453 -0.7701
   29bbb     H9  854   7.283  -0.149   9.398  1.2510 -2.3320  1.2941
   29bbb    H10  855   7.428  -0.070   9.316 -0.1769  1.4632 -0.6967
   29bbb     C6  856   7.513  -0.500   9.189 -1.1738  0.0687 -0.2858
   29bbb    H11  857   7.435  -0.447   9.132 -4.2588 -2.8113  0.9431
   29bbb    H12  858   7.464  -0.591   9.226  0.0018 -1.7867 -2.9670
   29bbb     C7  859   7.182  -0.538   9.509 -1.0570 -0.0795 -0.2359
   29bbb    H13  860   7.103  -0.566   9.580  0.4106  2.1591  2.4467
   29bbb    H14  861   7.200  -0.635   9.460 -0.6038 -0.6735  1.0689
   29bbb     C8  862   7.640  -0.523   9.095 -0.1033 -0.0791  0.2524
   29bbb    H15  863   7.725  -0.567   9.148 -0.1648 -0.3227  0.1501
   29bbb    H16  864   7.598  -0.598   9.026 -1.2655  1.0663 -0.3503
   29bbb     C9  865   7.389   0.008   9.508  0.0245 -0.3193 -0.8172
   29bbb    H17  866   7.491   0.030   9.543 -0.7068  1.2169  0.4186
   29bbb    H18  867   7.329  -0.008   9.598 -1.0105 -0.5928 -1.5325
   29bbb     O1  868   7.164  -0.451   9.397 -0.3332  0.0835 -1.1746
   29bbb    H19  869   7.340  -0.364   9.339  0.3277  1.8210 -0.7650
   30bbb     N1  870   7.016   0.354   8.795 -0.0019 -0.0056  0.2378
   30bbb     C1  871   7.059   0.370   8.943 -0.0683  0.0752  0.4681
   30bbb     H1  872   7.107   0.282   8.984 -1.2256 -0.2752  1.1125
   30bbb     H2  873   6.966   0.391   8.996 -0.4329 -0.8501  0.2133
   30bbb     C2  874   7.132   0.309   8.705 -0.0573  0.2014  0.3918
   30bbb     H3  875   7.210   0.385   8.701  1.7427 -1.6043 -1.0499
   30bbb     H4  876   7.086   0.311   8.606 -2.7887 -0.1746  1.5821
   30bbb     C3  877   6.909   0.255   8.787  0.1590 -0.0178  0.0062
   30bbb     H5  878   6.954   0.172   8.841  2.1956  1.7308  1.1544
   30bbb     H6  879   6.886   0.232   8.682  1.0178  0.8103 -0.3833
   30bbb     C4  880   6.779   0.286   8.862 -0.8326 -0.0849  0.2425
   30bbb     H7  881   6.691   0.285   8.797 -0.2913  0.0920 -0.5100
   30bbb     H8  882   6.769   0.392   8.888 -0.3715 -0.3143  1.3953
   30bbb     C5  883   7.139   0.493   8.975  0.0759 -0.5980  0.7813
   30bbb     H9  884   7.136   0.511   9.084 -0.4715 -0.9079  0.8202
   30bbb    H10  885   7.101   0.583   8.924  0.7693 -0.2322  0.9044
   30bbb     C6  886   7.210   0.176   8.733 -0.0364 -0.1328  0.9685
   30bbb    H11  887   7.137   0.094   8.725 -1.3620  0.8833  2.1965
   30bbb    H12  888   7.246   0.171   8.836 -1.7644  0.6088  1.6589
   30bbb     C7  889   6.756   0.195   8.983 -0.0166  0.6615 -0.1775
   30bbb    H13  890   6.647   0.182   8.995 -0.3094 -0.7716 -3.3817
   30bbb    H14  891   6.789   0.245   9.074 -1.3683  0.2633  0.5667
   30bbb     C8  892   7.321   0.143   8.630 -0.1622 -0.5203 -0.7553
   30bbb    H15  893   7.399   0.219   8.624  1.9422 -2.3868  1.0037
   30bbb    H16  894   7.367   0.054   8.675 -0.5634 -0.8296 -0.9480
   30bbb     C9  895   7.286   0.483   8.943  0.4742  0.2505 -0.3271
   30bbb    H17  896   7.344   0.563   8.992 -0.6042  0.7297  0.1948
   30bbb    H18  897   7.317   0.498   8.839  0.1353  0.7566 -0.3566
   30bbb     O1  898   6.820   0.062   8.968  0.0160  0.6013  0.6960
   30bbb    H19  899   6.984   0.444   8.758  0.9974  0.1623 -0.2497
   31bbb     N1  900   5.241   1.048  11.875 -0.4691 -1.3991 -0.2017
   31bbb     C1  901   5.272   1.019  11.729 -0.4521  0.1976  0.0698
   31bbb     H1  902   5.317   0.920  11.735 -1.4158 -0.1772  1.8172
   31bbb     H2  903   5.350   1.088  11.697 -1.2801  1.8567  1.4560
   31bbb     C2  904   5.183   0.935  11.960 -0.3295 -1.0723 -0.2232
   31bbb     H3  905   5.264   0.869  11.991 -0.8711 -1.7827 -0.3072
   31bbb     H4  906   5.122   0.866  11.902 -1.0494 -2.1759  1.7641
   31bbb     C3  907   5.373   1.088  11.936  0.5097 -0.6928  0.1327
   31bbb     H5  908   5.445   1.006  11.924  1.6415  0.5193 -1.9511
   31bbb     H6  909   5.354   1.109  12.042  0.5304  0.3897 -0.0667
   31bbb     C4  910   5.447   1.220  11.898 -0.0178  0.0137 -0.1378
   31bbb     H7  911   5.394   1.307  11.939  3.6209  1.5493  1.7777
   31bbb     H8  912   5.447   1.228  11.789 -2.1389  0.2219 -0.1663
   31bbb     C5  913   5.142   1.029  11.650 -0.7329 -0.8303  0.3784
   31bbb     H9  914   5.122   1.136  11.637  0.0893 -0.3374  2.6273
   31bbb    H10  915   5.049   1.006  11.704 -0.7303 -0.7626  0.4113
   31bbb     C6  916   5.119   0.977  12.091 -0.7444  0.3395 -0.1713
   31bbb    H11  917   5.019   1.012  12.064 -1.1073  1.9982  2.9392
   31bbb    H12  918   5.176   1.056  12.142  1.8858 -0.7443 -1.2600
   31bbb     C7  919   5.589   1.234  11.954  0.1348 -0.0464  0.6403
   31bbb    H13  920   5.590   1.217  12.062 -0.4225 -1.7976  0.3893
   31bbb    H14  921   5.624   1.337  11.934 -1.2509  0.4078  0.4317
   31bbb     C8  922   5.111   0.857  12.188 -0.6298  0.1859 -0.0719
   31bbb    H15  923   5.211   0.815  12.206 -1.1542 -2.5115 -2.6890
   31bbb    H16  924   5.078   0.892  12.287  1.3360  0.1792  0.6295
   31bbb     C9  925   5.147   0.957  11.521 -0.3230  0.3710  0.8953
   31bbb    H17  926   5.184   0.855  11.540 -0.1132  0.6683  2.2496
   31bbb    H18  927   5.210   1.022  11.460  0.5890 -0.2890  1.1062
   31bbb     O1  928   5.669   1.130  11.886 -0.6400  0.0112 -0.0463
   31bbb    H19  929   5.178   1.130  11.872 -0.5377 -1.2384  2.8291
   32bbb     N1  930   5.456   0.314  11.742  0.5547 -0.4109 -0.2228
   32bbb     C1  931   5.539   0.233  11.646 -0.0256  0.3851  0.0045
   32bbb     H1  932   5.609   0.182  11.712  0.4762  1.4386  0.3150
   32bbb     H2  933   5.602   0.301  11.587 -0.3128  0.4767 -0.1946
   32bbb     C2  934   5.527   0.322  11.876 -0.4449 -0.3416 -0.0438
   32bbb     H3  935   5.546   0.219  11.906  2.5751  0.4970  1.2997
   32bbb     H4  936   5.458   0.357  11.953 -0.6612 -0.2783 -0.2663
   32bbb     C3  937   5.425   0.458  11.696  0.9407  0.7701  0.2051
   32bbb     H5  938   5.490   0.536  11.734  0.4596  1.8728 -1.1450
   32bbb     H6  939   5.325   0.478  11.736  0.3442  0.2245 -0.9507
   32bbb     C4  940   5.415   0.486  11.545  0.0221  0.4831 -0.1394
   32bbb     H7  941   5.319   0.445  11.515 -0.5848  0.9551  1.0844
   32bbb     H8  942   5.501   0.448  11.488  0.8667 -0.2752  1.5575
   32bbb     C5  943   5.449   0.139  11.560 -0.0588 -0.3121  0.2704
   32bbb     H9  944   5.509   0.098  11.478 -0.6431 -1.5185  0.4314
   32bbb    H10  945   5.371   0.193  11.505 -0.6977 -2.2015 -0.7708
   32bbb     C6  946   5.667   0.387  11.870 -0.1417 -0.4965  1.3501
   32bbb    H11  947   5.669   0.492  11.835  1.2483 -1.5223 -2.0926
   32bbb    H12  948   5.728   0.340  11.792  0.1614  1.9812 -0.0222
   32bbb     C7  949   5.403   0.640  11.520  0.4484 -0.6797 -0.6579
   32bbb    H13  950   5.313   0.681  11.567  1.2824  0.9580 -0.4534
   32bbb    H14  951   5.384   0.653  11.412 -2.2392 -1.5624 -0.3827
   32bbb     C8  952   5.731   0.379  12.010  0.1417 -0.1570  0.0398
   32bbb    H15  953   5.826   0.435  12.009  0.2837 -0.3894  0.3300
   32bbb    H16  954   5.666   0.427  12.084  1.3291  0.2287  0.8702
   32bbb     C9  955   5.389   0.017  11.638 -0.2479  0.2784  0.3365
   32bbb    H17  956   5.473  -0.047  11.669  1.8586  1.3981 -2.6083
   32bbb    H18  957   5.333  -0.051  11.573  0.7482  1.7792 -2.2648
   32bbb     O1  958   5.516   0.706  11.579  0.2603  0.1680  0.5264
   32bbb    H19  959   5.370   0.259  11.754  0.7530 -0.6455  0.1746
   33bbb     N1  960   6.296   2.166  12.037  0.2161  0.3379  0.3854
   33bbb     C1  961   6.312   2.296  11.968 -0.1044 -0.6502  0.6133
   33bbb     H1  962   6.357   2.368  12.037  0.6901  1.2222 -1.7090
   33bbb     H2  963   6.216   2.343  11.949 -0.4006 -1.9217 -1.3349
   33bbb     C2  964   6.429   2.099  12.072 -0.1820 -0.3981 -0.0597
   33bbb     H3  965   6.475   2.154  12.154 -0.7633 -3.1063  2.2238
   33bbb     H4  966   6.502   2.110  11.991 -1.1957  0.3602 -0.9036
   33bbb     C3  967   6.207   2.173  12.158 -0.6253 -0.9072 -0.1831
   33bbb     H5  968   6.263   2.222  12.237 -0.6394 -0.7885 -0.2453
   33bbb     H6  969   6.198   2.072  12.198 -0.7722 -0.6812  0.3651
   33bbb     C4  970   6.060   2.223  12.136  0.2859 -0.1201 -0.3646
   33bbb     H7  971   6.065   2.333  12.129 -0.6336  0.0529  1.2340
   33bbb     H8  972   6.009   2.206  12.231  0.5154  0.6142 -0.1006
   33bbb     C5  973   6.398   2.295  11.838  0.6520 -0.2519 -0.2763
   33bbb     H9  974   6.344   2.214  11.786 -0.1506 -0.1518  0.3974
   33bbb    H10  975   6.500   2.257  11.852  0.1577 -1.6314 -0.2381
   33bbb     C6  976   6.424   1.946  12.096  0.7038  0.3093  0.2477
   33bbb    H11  977   6.517   1.903  12.056  2.3523  0.8056  3.2217
   33bbb    H12  978   6.338   1.892  12.055 -0.2155  0.7992  1.4554
   33bbb     C7  979   5.976   2.154  12.022 -0.4285 -0.0618  0.6886
   33bbb    H13  980   5.882   2.206  12.002  0.4271  1.2098 -0.2229
   33bbb    H14  981   5.944   2.055  12.058  0.4598 -0.8549 -0.5994
   33bbb     C8  982   6.435   1.921  12.249 -0.3382  0.2156 -0.9892
   33bbb    H15  983   6.516   1.980  12.293 -0.5369 -0.9085  1.0224
   33bbb    H16  984   6.346   1.957  12.302  0.9957 -0.7825  2.1598
   33bbb     C9  985   6.397   2.427  11.760  0.4444  0.0373  0.2157
   33bbb    H17  986   6.299   2.461  11.725  1.2793 -0.0859 -2.5180
   33bbb    H18  987   6.460   2.404  11.673 -0.4149  0.4632 -0.5405
   33bbb     O1  988   6.062   2.133  11.910 -0.0518 -0.4148  0.3615
   33bbb    H19  989   6.252   2.108  11.964 -3.7420  0.4146  2.4015
   34bbb     N1  990   6.160   2.710  11.055  0.5037  0.5980  0.0588
   34bbb     C1  991   6.008   2.708  11.072 -0.6713 -0.0871  0.0452
   34bbb     H1  992   5.985   2.748  11.171 -3.0904 -0.1753 -0.4193
   34bbb     H2  993   5.973   2.604  11.076 -0.3388 -0.1936  0.2508
   34bbb     C2  994   6.221   2.834  11.127 -0.6561  0.8468  0.3376
   34bbb     H3  995   6.201   2.832  11.234 -0.2084 -1.0609  0.4110
   34bbb     H4  996   6.167   2.919  11.084 -1.7253 -0.7758 -1.7121
   34bbb     C3  997   6.206   2.583  11.126 -0.2207 -0.4029 -0.2140
   34bbb     H5  998   6.116   2.523  11.146 -0.0071 -1.0328 -1.0864
   34bbb     H6  999   6.239   2.619  11.223 -0.0270 -0.1891 -0.3607
   34bbb     C4 1000   6.309   2.502  11.046 -0.7321 -0.0070 -0.8996
   34bbb     H7 1001   6.377   2.570  10.994 -0.7599 -0.7553 -1.9511
   34bbb     H8 1002   6.256   2.456  10.962 -0.4111  1.2309 -1.8081
   34bbb     C5 1003   5.935   2.777  10.957  0.3915 -0.4711  0.0094
   34bbb     H9 1004   5.938   2.886  10.964  0.8535 -0.5585  1.5972
   34bbb    H10 1005   5.831   2.750  10.980  0.8092 -0.5442  2.0354
   34bbb     C6 1006   6.371   2.839  11.106 -0.0075 -0.0052  0.3161
   34bbb    H11 1007   6.403   2.827  11.001  2.8172  0.9339  0.9854
   34bbb    H12 1008   6.421   2.753  11.152  0.4040  0.4979  0.8019
   34bbb     C7 1009   6.403   2.405  11.127  0.8446 -0.0360 -0.1121
   34bbb    H13 1010   6.448   2.456  11.213  1.9128 -0.7264 -0.2303
   34bbb    H14 1011   6.474   2.379  11.047  0.1028  0.5013 -0.9609
   34bbb     C8 1012   6.424   2.976  11.162 -0.4390 -0.4198 -0.0887
   34bbb    H15 1013   6.529   2.985  11.134  0.2090  0.6789  2.4388
   34bbb    H16 1014   6.371   3.057  11.110  1.0551  0.7507  0.1508
   34bbb     C9 1015   5.966   2.746  10.809 -0.2319 -0.7357 -0.3684
   34bbb    H17 1016   5.898   2.806  10.747 -0.8239 -2.3746 -1.3565
   34bbb    H18 1017   5.969   2.638  10.791  0.0803 -0.4728 -2.0236
   34bbb     O1 1018   6.331   2.282  11.176 -0.0230 -0.1588 -0.3023
   34bbb    H19 1019   6.184   2.709  10.955  3.1077  2.9196  0.5208
   35bbb     N1 1020   4.301   0.942  11.595 -0.2897  0.5704 -0.0546
   35bbb     C1 1021   4.204   1.048  11.657  0.5809 -0.1426  0.0149
   35bbb     H1 1022   4.167   1.006  11.750  2.0396  0.3748  0.8651
   35bbb     H2 1023   4.125   1.062  11.583 -0.0175  1.8817  0.9546
   35bbb     C2 1024   4.249   0.810  11.643 -0.3850 -0.0637 -0.0964
   35bbb     H3 1025   4.293   0.745  11.567  0.8919  1.9374 -1.1427
   35bbb     H4 1026   4.140   0.801  11.634 -0.4094 -0.4496  0.5075
   35bbb     C3 1027   4.294   0.940  11.443  0.0932  0.0793  0.3188
   35bbb     H5 1028   4.193   0.920  11.405  1.0466 -2.7036 -1.0418
   35bbb     H6 1029   4.347   0.850  11.413  2.4131  0.9670  1.5167
   35bbb     C4 1030   4.355   1.059  11.357 -0.2989  0.3709  0.0889
   35bbb     H7 1031   4.455   1.065  11.402  0.1453 -0.8623 -0.6929
   35bbb     H8 1032   4.291   1.146  11.373  2.0045  1.9904  1.0868
   35bbb     C5 1033   4.277   1.178  11.677 -0.3513 -0.1871 -0.0203
   35bbb     H9 1034   4.194   1.246  11.702 -2.5044 -2.2755 -1.0799
   35bbb    H10 1035   4.319   1.214  11.583  1.2944 -0.2405  0.6672
   35bbb     C6 1036   4.292   0.773  11.791  0.2370  0.2214  0.0800
   35bbb    H11 1037   4.220   0.807  11.866 -0.0001 -0.1876  0.0364
   35bbb    H12 1038   4.383   0.824  11.825  1.5541 -2.2894  0.5611
   35bbb     C7 1039   4.373   1.038  11.199 -1.0362 -0.4285 -0.5848
   35bbb    H13 1040   4.274   1.043  11.152 -0.6670  0.8481 -1.2576
   35bbb    H14 1041   4.426   0.942  11.186 -0.8066 -0.0823 -2.3634
   35bbb     C8 1042   4.315   0.624  11.813 -0.5237 -0.1883 -0.4079
   35bbb    H15 1043   4.370   0.604  11.906 -0.0243  0.2471 -0.6108
   35bbb    H16 1044   4.222   0.566  11.819 -1.2482  1.0573  0.9735
   35bbb     C9 1045   4.392   1.165  11.783  0.1714 -0.0343  0.1421
   35bbb    H17 1046   4.416   1.268  11.813 -2.0441  0.7494 -0.5704
   35bbb    H18 1047   4.475   1.121  11.727 -2.1068 -1.0902 -2.6045
   35bbb     O1 1048   4.448   1.149  11.135  1.1767  0.6075 -0.3637
   35bbb    H19 1049   4.398   0.947  11.628 -0.9211  1.0970  1.8762
   36bbb     N1 1050   5.226   2.080  10.989 -0.1191  0.0251  0.1440
   36bbb     C1 1051   5.374   2.065  10.953 -0.7628  0.1746 -0.2397
   36bbb     H1 1052   5.398   2.042  10.849 -1.9105  0.4460 -0.5784
   36bbb     H2 1053   5.407   1.983  11.017 -1.9205  0.2383  0.4590
   36bbb     C2 1054   5.162   2.172  10.889 -0.1181 -0.0695  0.2867
   36bbb     H3 1055   5.172   2.126  10.791 -1.5872  1.7833 -0.8139
   36bbb     H4 1056   5.209   2.270  10.893  0.6241 -0.4183  0.1742
   36bbb     C3 1057   5.166   1.940  10.970  0.5466  0.0133 -0.2979
   36bbb     H5 1058   5.196   1.900  10.873  0.6394  2.1121 -1.1845
   36bbb     H6 1059   5.058   1.952  10.956  0.3857 -2.8042 -2.3532
   36bbb     C4 1060   5.196   1.827  11.077 -0.5140  0.4981  0.2447
   36bbb     H7 1061   5.138   1.846  11.168 -1.7963 -0.0565 -0.4191
   36bbb     H8 1062   5.302   1.837  11.101 -0.3538 -2.5882  1.1955
   36bbb     C5 1063   5.462   2.186  10.994  0.5141  0.1932 -0.3423
   36bbb     H9 1064   5.450   2.216  11.099  3.5672  1.0863 -0.1318
   36bbb    H10 1065   5.435   2.276  10.938  0.2136  1.0756  1.1491
   36bbb     C6 1066   5.014   2.208  10.900  0.4487  0.1031  0.2390
   36bbb    H11 1067   4.957   2.114  10.890 -0.1372  0.4889 -0.0749
   36bbb    H12 1068   4.987   2.258  10.806 -1.2176  1.2222  1.2610
   36bbb     C7 1069   5.158   1.686  11.030  0.0738 -0.1545 -0.9595
   36bbb    H13 1070   5.196   1.610  11.100  1.4900 -0.8841 -2.4486
   36bbb    H14 1071   5.214   1.658  10.940  1.2532 -1.6562  0.1784
   36bbb     C8 1072   4.958   2.287  11.024  1.2075  0.4124 -0.3720
   36bbb    H15 1073   4.854   2.319  11.013  1.1599  1.9530  3.1880
   36bbb    H16 1074   4.962   2.227  11.115 -1.8127 -0.2778 -0.5985
   36bbb     C9 1075   5.611   2.151  10.981 -0.4384  0.2427 -0.4265
   36bbb    H17 1076   5.635   2.075  11.057 -0.2695  1.6098  0.9261
   36bbb    H18 1077   5.667   2.242  11.006 -1.4950  0.4893  1.1592
   36bbb     O1 1078   5.019   1.666  11.010  0.5860  0.3640 -0.4062
   36bbb    H19 1079   5.200   2.116  11.082 -4.3550 -2.0624  0.0186
   37bbb     N1 1080   3.587   2.718  10.273 -0.3298  0.5270  0.0142
   37bbb     C1 1081   3.510   2.824  10.348  1.1243 -0.7741 -0.4941
   37bbb     H1 1082   3.423   2.780  10.398 -0.1264  1.8742 -0.2145
   37bbb     H2 1083   3.466   2.888  10.272  1.1220  1.7930  1.5535
   37bbb     C2 1084   3.677   2.779  10.167 -0.5822 -0.4819  0.3823
   37bbb     H3 1085   3.747   2.697  10.148  1.2779  1.1890 -0.2620
   37bbb     H4 1086   3.729   2.865  10.209 -2.6375  2.0114 -1.8033
   37bbb     C3 1087   3.682   2.643  10.365  0.5126 -0.1512  0.0903
   37bbb     H5 1088   3.646   2.661  10.466  0.8020 -1.6726  0.4917
   37bbb     H6 1089   3.785   2.680  10.356  1.1284 -1.9458 -0.7466
   37bbb     C4 1090   3.686   2.489  10.347  0.5345  0.2260 -0.3619
   37bbb     H7 1091   3.716   2.463  10.245 -0.2744  1.3853 -0.9223
   37bbb     H8 1092   3.589   2.440  10.365  2.0583 -1.9051  2.7484
   37bbb     C5 1093   3.574   2.918  10.456 -0.1417 -0.4944  0.0463
   37bbb     H9 1094   3.666   2.969  10.423 -0.3185 -0.8330 -1.0033
   37bbb    H10 1095   3.598   2.865  10.550 -1.4054  0.2573  0.8206
   37bbb     C6 1096   3.600   2.832  10.037 -0.2797  0.3804 -0.0303
   37bbb    H11 1097   3.525   2.906  10.068  1.0603  0.9973  1.9060
   37bbb    H12 1098   3.554   2.748   9.984  0.6867 -0.1067 -0.1213
   37bbb     C7 1099   3.785   2.428  10.452  0.0675 -0.5088  0.1038
   37bbb    H13 1100   3.787   2.318  10.454  0.6406 -0.4960  1.3719
   37bbb    H14 1101   3.742   2.456  10.549 -0.6511  0.6248 -0.5167
   37bbb     C8 1102   3.696   2.894   9.932  0.0170  0.4301 -0.3986
   37bbb    H15 1103   3.765   2.821   9.888  1.2127  1.2827 -0.0041
   37bbb    H16 1104   3.639   2.933   9.847  0.5276  1.5846 -0.2348
   37bbb     C9 1105   3.472   3.028  10.501 -0.7670  0.7165  0.0299
   37bbb    H17 1106   3.506   3.079  10.592  1.6678 -0.3898 -0.1905
   37bbb    H18 1107   3.379   2.979  10.534 -0.4129  0.4106  0.5918
   37bbb     O1 1108   3.921   2.477  10.436 -0.1398  0.0387  0.6351
   37bbb    H19 1109   3.517   2.659  10.225  0.0839 -1.0154  1.2409
   38bbb     N1 1110   4.329   3.099  10.618  0.0574 -0.4203  0.0013
   38bbb     C1 1111   4.420   3.207  10.677 -0.2059 -0.6110  0.6611
   38bbb     H1 1112   4.455   3.161  10.770 -0.5118 -0.2205  0.9730
   38bbb     H2 1113   4.365   3.300  10.691 -2.0487 -1.0112 -2.8268
   38bbb     C2 1114   4.212   3.060  10.698  0.4743 -0.2324 -0.1343
   38bbb     H3 1115   4.161   2.991  10.632  1.5038 -1.3476  0.1885
   38bbb     H4 1116   4.152   3.149  10.716  0.1398 -0.7359  1.3748
   38bbb     C3 1117   4.280   3.149  10.487  0.8416  0.1495  0.0672
   38bbb     H5 1118   4.358   3.207  10.436 -1.1065  3.0896  0.2121
   38bbb     H6 1119   4.195   3.214  10.508  0.2299 -1.0724  1.5226
   38bbb     C4 1120   4.225   3.045  10.385  0.0592  0.0466  0.0149
   38bbb     H7 1121   4.160   3.098  10.314 -0.2737 -2.0871 -1.3715
   38bbb     H8 1122   4.164   2.974  10.441  1.5340 -0.7798  0.6040
   38bbb     C5 1123   4.560   3.244  10.607  0.5098 -0.3507  0.4048
   38bbb     H9 1124   4.595   3.318  10.680  0.0580  0.1946  0.0735
   38bbb    H10 1125   4.549   3.303  10.516  0.5778  2.7681  2.2730
   38bbb     C6 1126   4.238   2.978  10.821 -0.1241  0.5126 -0.4096
   38bbb    H11 1127   4.326   3.013  10.877  0.5671  2.0508 -2.3312
   38bbb    H12 1128   4.264   2.875  10.793 -1.9386 -0.1338  0.1309
   38bbb     C7 1129   4.345   2.970  10.320 -0.6133 -0.6497 -0.0059
   38bbb    H13 1130   4.419   3.040  10.279 -0.8638 -0.4634 -0.1455
   38bbb    H14 1131   4.309   2.897  10.247 -0.1119 -1.8999  0.9669
   38bbb     C8 1132   4.105   2.965  10.904 -0.3683 -0.5488  0.1695
   38bbb    H15 1133   4.024   2.942  10.833 -1.2796 -0.1124  1.0548
   38bbb    H16 1134   4.112   2.892  10.985 -0.6151  1.3176  1.9434
   38bbb     C9 1135   4.656   3.127  10.588  0.2927  0.2342 -0.4805
   38bbb    H17 1136   4.746   3.167  10.540 -0.3817 -0.4437 -2.4429
   38bbb    H18 1137   4.609   3.053  10.522  2.1559  0.0720 -1.6989
   38bbb     O1 1138   4.407   2.881  10.413  0.2251 -0.0232  0.2345
   38bbb    H19 1139   4.386   3.015  10.601 -0.3354 -0.4477 -1.3565
   39bbb     N1 1140   8.005   2.455   8.307  0.5557  0.3215  0.8519
   39bbb     C1 1141   8.023   2.597   8.246 -0.2287 -0.2027  0.4547
   39bbb     H1 1142   8.128   2.595   8.218 -0.1131 -0.7084  0.9272
   39bbb     H2 1143   8.012   2.676   8.321  0.2054  1.7245 -1.4143
   39bbb     C2 1144   8.083   2.441   8.431  0.5458 -0.1956  0.8160
   39bbb     H3 1145   8.070   2.335   8.454 -1.3641 -0.0943  0.3995
   39bbb     H4 1146   8.027   2.502   8.503 -0.5509  0.5880 -0.6515
   39bbb     C3 1147   7.851   2.431   8.338 -0.0844 -0.2741  0.1789
   39bbb     H5 1148   7.803   2.430   8.241  1.8491 -1.8023 -0.8464
   39bbb     H6 1149   7.818   2.521   8.391  0.7243  0.0903  0.0848
   39bbb     C4 1150   7.808   2.304   8.414  0.3605  0.7290  0.0353
   39bbb     H7 1151   7.703   2.313   8.445  0.0988  0.7107 -0.8125
   39bbb     H8 1152   7.870   2.302   8.504  0.9909 -0.5100 -0.4035
   39bbb     C5 1153   7.934   2.642   8.127  0.2684  0.2942 -0.1809
   39bbb     H9 1154   7.827   2.621   8.139  0.8213 -2.2326  1.0680
   39bbb    H10 1155   7.965   2.586   8.038  0.0174 -1.2203  0.6392
   39bbb     C6 1156   8.235   2.477   8.438 -0.1558 -0.0565 -0.0150
   39bbb    H11 1157   8.248   2.579   8.398 -0.2748 -0.0672 -0.0810
   39bbb    H12 1158   8.280   2.410   8.364 -1.0318 -1.4159  0.6633
   39bbb     C7 1159   7.834   2.170   8.343 -0.0882 -0.0187 -0.1676
   39bbb    H13 1160   7.831   2.084   8.411  0.0340 -0.7815 -1.0965
   39bbb    H14 1161   7.934   2.171   8.298  0.8522 -0.8930  1.7826
   39bbb     C8 1162   8.303   2.456   8.571  0.4357  0.1086  0.4965
   39bbb    H15 1163   8.408   2.429   8.553  0.4229  0.2800  0.1639
   39bbb    H16 1164   8.297   2.556   8.615 -0.2044  1.2455 -1.9827
   39bbb     C9 1165   7.943   2.793   8.112  0.3730  0.1401  0.3335
   39bbb    H17 1166   7.870   2.817   8.034  0.9200  1.0502  0.0865
   39bbb    H18 1167   8.037   2.828   8.068 -0.5986  0.8100 -1.2873
   39bbb     O1 1168   7.729   2.156   8.243  0.2077 -0.0740  0.4642
   39bbb    H19 1169   8.044   2.391   8.235 -1.0840 -0.1262  0.3151
   40bbb     N1 1170   7.056   2.268   8.284  0.0379  0.5880  0.2167
   40bbb     C1 1171   7.144   2.320   8.398  0.1562  0.0215  0.8083
   40bbb     H1 1172   7.089   2.327   8.492 -1.6623  1.4905 -0.2876
   40bbb     H2 1173   7.170   2.424   8.380 -0.3736  0.3982  2.0832
   40bbb     C2 1174   6.942   2.368   8.271  0.0543  0.1016 -0.1842
   40bbb     H3 1175   6.911   2.372   8.166  1.2399  0.4428 -0.5322
   40bbb     H4 1176   6.978   2.467   8.299 -2.6291  0.9736  0.5666
   40bbb     C3 1177   7.120   2.284   8.147 -0.8526 -0.1156 -0.3021
   40bbb     H5 1178   7.215   2.230   8.154  0.9979  2.0433 -4.6800
   40bbb     H6 1179   7.139   2.390   8.129 -1.1081 -0.1254 -0.6225
   40bbb     C4 1180   7.054   2.217   8.024 -0.5509  0.3976 -0.3003
   40bbb     H7 1181   7.120   2.244   7.941  0.1590  2.6129  0.8919
   40bbb     H8 1182   6.956   2.264   8.008 -0.3612  1.1228  0.5806
   40bbb     C5 1183   7.267   2.228   8.421 -0.2568 -0.2388 -0.4465
   40bbb     H9 1184   7.330   2.233   8.332 -0.1142 -0.2138 -0.3455
   40bbb    H10 1185   7.232   2.124   8.427  1.2873 -0.7433  0.4955
   40bbb     C6 1186   6.816   2.346   8.358  0.3539  0.4432 -0.0459
   40bbb    H11 1187   6.849   2.323   8.460  0.4600  1.7833  0.2320
   40bbb    H12 1188   6.763   2.257   8.321  0.9433 -0.0074  0.1791
   40bbb     C7 1189   7.039   2.063   8.030  0.5786  0.5844  0.6836
   40bbb    H13 1190   7.001   2.022   7.935  1.7290 -0.6902  0.7456
   40bbb    H14 1191   6.968   2.048   8.112 -0.7953  1.3713 -0.3123
   40bbb     C8 1192   6.718   2.465   8.356  0.0389  0.3528  0.0886
   40bbb    H15 1193   6.774   2.559   8.358  1.9869 -0.7223 -0.7984
   40bbb    H16 1194   6.658   2.461   8.264 -2.2042 -1.1877  1.4981
   40bbb     C9 1195   7.346   2.267   8.548  0.1656  0.6431 -0.3729
   40bbb    H17 1196   7.415   2.186   8.575 -0.7965  0.2791  1.1386
   40bbb    H18 1197   7.274   2.279   8.630 -1.7625 -2.1142 -1.5205
   40bbb     O1 1198   7.156   1.987   8.073  0.5740  0.0941 -0.1359
   40bbb    H19 1199   7.031   2.169   8.299  0.3832  0.4247 -0.2496
   41bbb     N1 1200   7.821   2.812   9.599  0.0296 -0.5931  0.3150
   41bbb     C1 1201   7.938   2.713   9.575 -0.9492 -0.1379  0.1344
   41bbb     H1 1202   8.031   2.768   9.560 -1.0582  0.0815  0.2555
   41bbb     H2 1203   7.905   2.669   9.480  0.2511 -1.7657  0.4375
   41bbb     C2 1204   7.784   2.888   9.480 -0.6324 -0.9948  0.2433
   41bbb     H3 1205   7.730   2.975   9.515 -0.3263 -0.5096 -0.4628
   41bbb     H4 1206   7.725   2.823   9.414 -0.3347 -1.0953  0.0738
   41bbb     C3 1207   7.692   2.742   9.648  0.0431  0.3608 -0.0086
   41bbb     H5 1208   7.724   2.655   9.706  0.9257 -0.3895 -1.5546
   41bbb     H6 1209   7.638   2.703   9.561 -1.2477  0.6865  0.6197
   41bbb     C4 1210   7.595   2.821   9.734 -0.2854 -0.6528 -0.1344
   41bbb     H7 1211   7.550   2.898   9.670  2.1314 -0.5019 -1.7773
   41bbb     H8 1212   7.650   2.864   9.818  0.0481  1.3832 -1.3362
   41bbb     C5 1213   7.973   2.588   9.670 -0.3408 -0.8136  0.8458
   41bbb     H9 1214   7.989   2.630   9.770 -1.6331  0.2274  0.6524
   41bbb    H10 1215   8.070   2.552   9.635 -0.6194  0.1296 -1.0469
   41bbb     C6 1216   7.896   2.935   9.391  0.4314  0.7316  1.0110
   41bbb    H11 1217   7.938   2.853   9.332 -2.1721  0.0012  0.0096
   41bbb    H12 1218   7.972   2.974   9.459 -0.2605  0.1731  2.1198
   41bbb     C7 1219   7.476   2.732   9.774  0.4691  0.2712 -0.2482
   41bbb    H13 1220   7.418   2.796   9.841 -0.0939  1.7397 -2.0594
   41bbb    H14 1221   7.498   2.641   9.831 -0.9624  0.1832  0.1930
   41bbb     C8 1222   7.858   3.048   9.297 -0.1746  0.3663  0.2256
   41bbb    H15 1223   7.787   3.120   9.338 -0.0951  1.1674 -0.9828
   41bbb    H16 1224   7.947   3.101   9.260 -2.0989  2.3961 -1.7580
   41bbb     C9 1225   7.876   2.467   9.665 -0.1416 -0.2609  0.3679
   41bbb    H17 1226   7.786   2.473   9.728 -1.8598 -2.6236 -1.6279
   41bbb    H18 1227   7.927   2.382   9.713 -3.5386 -0.8141  3.4288
   41bbb     O1 1228   7.399   2.707   9.658  0.0166  0.2082  0.4305
   41bbb    H19 1229   7.852   2.874   9.676 -2.2951  1.0421  0.0605
   42bbb     N1 1230   7.105   3.575   9.175  0.7068 -0.3639  0.1414
   42bbb     C1 1231   7.164   3.564   9.035  0.0597 -0.2504  0.3350
   42bbb     H1 1232   7.183   3.668   9.006 -0.0561 -0.0723  0.8948
   42bbb     H2 1233   7.096   3.527   8.958  1.8045  2.8124 -2.9947
   42bbb     C2 1234   7.004   3.684   9.186 -0.1429 -0.3655 -0.4024
   42bbb     H3 1235   6.964   3.676   9.287  0.5018  1.0817  0.0051
   42bbb     H4 1236   6.920   3.661   9.120 -0.2855  0.0103 -0.3558
   42bbb     C3 1237   7.036   3.444   9.207  0.2764  0.4173 -0.1016
   42bbb     H5 1238   7.118   3.373   9.212  0.2949  0.5210  2.6334
   42bbb     H6 1239   6.965   3.412   9.131 -1.7704  3.4516  0.3491
   42bbb     C4 1240   6.952   3.434   9.338 -0.4298  0.5092  0.0022
   42bbb     H7 1241   6.879   3.514   9.352 -1.2388 -0.4680  1.7824
   42bbb     H8 1242   7.025   3.431   9.420  0.2810 -0.5264 -0.6450
   42bbb     C5 1243   7.298   3.489   9.021  0.5890  0.2094  0.2171
   42bbb     H9 1244   7.262   3.386   9.004 -0.7974  1.1029 -3.1072
   42bbb    H10 1245   7.361   3.497   9.110  0.6392 -1.5318  0.3645
   42bbb     C6 1246   7.043   3.831   9.162 -0.0953 -0.9751 -0.6971
   42bbb    H11 1247   6.967   3.886   9.219 -0.6656 -2.8895  0.4691
   42bbb    H12 1248   7.039   3.854   9.055 -1.4949 -0.1323 -0.4806
   42bbb     C7 1249   6.880   3.293   9.335 -0.5481  0.5726 -0.2440
   42bbb    H13 1250   6.823   3.292   9.242 -0.9984 -1.1037  0.0252
   42bbb    H14 1251   6.809   3.288   9.418 -1.6132 -0.6703 -1.1948
   42bbb     C8 1252   7.184   3.869   9.225  1.0140 -0.2323 -0.1612
   42bbb    H15 1253   7.181   3.975   9.252  1.9445 -0.0380 -0.7659
   42bbb    H16 1254   7.215   3.814   9.315  1.7762  0.5945  0.0880
   42bbb     C9 1255   7.374   3.538   8.894  0.8663 -0.6982 -0.0662
   42bbb    H17 1256   7.419   3.636   8.914 -0.7197  0.7913 -2.9742
   42bbb    H18 1257   7.305   3.563   8.812  2.2680 -0.8099 -1.3127
   42bbb     O1 1258   6.982   3.192   9.330  0.0662 -0.2558 -0.6419
   42bbb    H19 1259   7.178   3.587   9.246  1.1583  0.0721 -0.3862
   43bbb     N1 1260   6.805   0.887   7.531  0.0952  0.0696  0.2286
   43bbb     C1 1261   6.887   1.012   7.537 -0.5067 -0.1052 -0.1989
   43bbb     H1 1262   6.965   1.019   7.613  2.1154  1.6130 -2.7930
   43bbb     H2 1263   6.819   1.093   7.562 -0.9496 -0.2498 -0.9155
   43bbb     C2 1264   6.779   0.841   7.677 -0.5347  0.4278  0.3421
   43bbb     H3 1265   6.877   0.838   7.726 -2.2172  1.9961  4.1590
   43bbb     H4 1266   6.743   0.738   7.673 -3.4341  1.3939 -1.4704
   43bbb     C3 1267   6.680   0.903   7.447 -0.3181 -0.0723  0.0093
   43bbb     H5 1268   6.697   0.940   7.346 -0.4152  0.6978  0.2697
   43bbb     H6 1269   6.631   0.989   7.494  0.1328  1.3867 -2.0524
   43bbb     C4 1270   6.577   0.782   7.446 -0.2950  0.0217  0.3552
   43bbb     H7 1271   6.556   0.743   7.546  1.8575  1.1997  1.3260
   43bbb     H8 1272   6.625   0.697   7.397 -0.9673  1.2011 -2.5539
   43bbb     C5 1273   6.945   1.061   7.398 -0.1997  0.3567  0.0031
   43bbb     H9 1274   6.862   1.052   7.327 -0.0212  1.0108 -0.2969
   43bbb    H10 1275   7.032   1.003   7.366 -0.7775  0.8679 -2.7828
   43bbb     C6 1276   6.673   0.920   7.760 -0.3161  0.6198  0.6150
   43bbb    H11 1277   6.575   0.890   7.720  0.5721 -1.7173  0.0070
   43bbb    H12 1278   6.692   1.027   7.746 -0.6632  0.5017 -0.9059
   43bbb     C7 1279   6.433   0.814   7.380  0.0615  0.6803 -0.3514
   43bbb    H13 1280   6.377   0.722   7.398  2.0442 -0.3239  1.0238
   43bbb    H14 1281   6.457   0.821   7.273  2.5680 -1.0408  0.0159
   43bbb     C8 1282   6.670   0.898   7.910 -0.0617  0.1307  0.2386
   43bbb    H15 1283   6.760   0.934   7.961  0.1862 -1.2435  0.8289
   43bbb    H16 1284   6.586   0.950   7.958 -1.0103 -1.8937  0.8928
   43bbb     C9 1285   6.984   1.209   7.417  0.0225 -0.0429 -0.0369
   43bbb    H17 1286   7.023   1.247   7.322  0.7353  0.3766  0.4157
   43bbb    H18 1287   7.061   1.209   7.495 -1.7499  0.6296  1.8006
   43bbb     O1 1288   6.362   0.926   7.434 -0.3984 -0.0335 -0.0862
   43bbb    H19 1289   6.863   0.816   7.485  0.7733 -0.1361  1.3585
   44bbb     N1 1290   5.741   1.040   7.137  0.3867 -0.0814  0.4525
   44bbb     C1 1291   5.874   1.104   7.110  0.4682  0.0992 -0.1917
   44bbb     H1 1292   5.906   1.151   7.202  0.2814 -1.9349  0.9700
   44bbb     H2 1293   5.862   1.181   7.034 -2.7427  2.3241  2.3058
   44bbb     C2 1294   5.682   0.973   7.013 -0.2960 -0.2794  0.1562
   44bbb     H3 1295   5.579   0.938   7.030 -0.1502 -0.5267  0.5614
   44bbb     H4 1296   5.754   0.895   6.988  1.1899  0.7068  1.1880
   44bbb     C3 1297   5.752   0.935   7.250 -0.0471  0.6081  0.4526
   44bbb     H5 1298   5.807   0.976   7.335  0.2184  0.2676  0.4469
   44bbb     H6 1299   5.797   0.839   7.221  0.4949  0.8895  0.3386
   44bbb     C4 1300   5.609   0.903   7.298  0.7818 -0.3526 -0.3472
   44bbb     H7 1301   5.577   0.814   7.242  0.0836 -1.0384  1.1008
   44bbb     H8 1302   5.535   0.977   7.267  0.7044 -0.6325 -0.8535
   44bbb     C5 1303   5.990   1.012   7.064  0.3814 -0.2218  0.1655
   44bbb     H9 1304   5.976   0.950   6.975  2.4278 -2.4331  1.2824
   44bbb    H10 1305   6.015   0.943   7.146  0.1186 -0.7172 -0.1728
   44bbb     C6 1306   5.673   1.074   6.894  0.1351 -0.7743  0.2528
   44bbb    H11 1307   5.771   1.114   6.864 -0.7437  0.3068 -1.2898
   44bbb    H12 1308   5.609   1.158   6.922 -1.1190 -1.1789 -1.3053
   44bbb     C7 1309   5.596   0.869   7.450  0.2132 -0.3507  0.8875
   44bbb    H13 1310   5.638   0.769   7.463 -2.8102 -1.8059  0.3011
   44bbb    H14 1311   5.491   0.871   7.482 -0.4278 -1.6946 -0.9820
   44bbb     C8 1312   5.600   0.994   6.775  0.3359 -0.1962  0.2434
   44bbb    H15 1313   5.594   1.053   6.682 -0.5247 -3.1178 -1.6976
   44bbb    H16 1314   5.657   0.904   6.752  1.6778  0.6857  0.0246
   44bbb     C9 1315   6.117   1.085   7.027 -0.7300  0.1485  0.0414
   44bbb    H17 1316   6.103   1.140   6.933 -0.7900 -1.4700 -0.9420
   44bbb    H18 1317   6.197   1.012   7.009 -2.4286 -1.9133  0.4485
   44bbb     O1 1318   5.676   0.963   7.525  0.0648 -0.6567 -0.0781
   44bbb    H19 1319   5.676   1.116   7.160 -0.6142 -0.6121 -0.5019
   45bbb     N1 1320   5.694   1.882   7.150  0.3510 -1.0535  0.2645
   45bbb     C1 1321   5.545   1.895   7.109  0.0235  0.2730  0.1296
   45bbb     H1 1322   5.544   1.956   7.019  0.2821 -0.7925 -0.6153
   45bbb     H2 1323   5.485   1.946   7.184 -0.9908 -0.0232 -0.4645
   45bbb     C2 1324   5.771   1.808   7.037  0.4098 -0.0453 -0.0793
   45bbb     H3 1325   5.735   1.706   7.026  1.9581 -0.5559 -0.8008
   45bbb     H4 1326   5.873   1.793   7.075 -0.6478 -1.5386  2.3792
   45bbb     C3 1327   5.741   2.023   7.181  0.3255  0.0508  0.5183
   45bbb     H5 1328   5.691   2.084   7.105 -1.0099 -1.3911  0.2015
   45bbb     H6 1329   5.850   2.025   7.184  0.2933  0.8259  2.6748
   45bbb     C4 1330   5.700   2.075   7.323  0.0886  0.6862  0.5591
   45bbb     H7 1331   5.595   2.056   7.350 -0.2003  0.3077 -0.7745
   45bbb     H8 1332   5.712   2.184   7.317  2.5410  0.4341  0.1681
   45bbb     C5 1333   5.478   1.761   7.082  0.4857  0.1904 -0.8672
   45bbb     H9 1334   5.526   1.714   6.996  0.0424 -0.4593 -0.7663
   45bbb    H10 1335   5.374   1.779   7.051 -1.1128 -1.9552  2.5774
   45bbb     C6 1336   5.785   1.887   6.908 -0.5799 -0.0620  1.7450
   45bbb    H11 1337   5.834   1.982   6.934 -0.6167  0.4456  0.0941
   45bbb    H12 1338   5.691   1.922   6.863 -0.9624 -0.7632  1.9943
   45bbb     C7 1339   5.784   2.012   7.438  0.4520 -0.3246  0.3893
   45bbb    H13 1340   5.757   2.050   7.537 -0.1414  0.4410 -0.0507
   45bbb    H14 1341   5.890   2.036   7.423 -0.1476  3.0468  0.7329
   45bbb     C8 1342   5.875   1.817   6.804  0.2460 -0.0314  0.2099
   45bbb    H15 1343   5.820   1.732   6.763 -3.6653  2.9696 -1.4576
   45bbb    H16 1344   5.888   1.880   6.715 -0.1726  1.3633  1.1016
   45bbb     C9 1345   5.470   1.677   7.206  0.0352 -0.2482 -0.1321
   45bbb    H17 1346   5.383   1.611   7.194 -0.8885  0.5919  1.6363
   45bbb    H18 1347   5.460   1.738   7.297  0.6241 -0.0070 -0.2201
   45bbb     O1 1348   5.759   1.873   7.416 -0.2304  0.6990 -0.1358
   45bbb    H19 1349   5.693   1.830   7.239 -0.1994 -1.1067  0.2303
   46bbb     N1 1350   5.772   2.174   8.174  0.1494  0.2709 -0.2316
   46bbb     C1 1351   5.774   2.235   8.316 -0.3047  0.1570  0.2000
   46bbb     H1 1352   5.677   2.284   8.329 -1.3538 -1.3237 -1.4780
   46bbb     H2 1353   5.851   2.312   8.320 -1.3338  1.1896  0.6392
   46bbb     C2 1354   5.695   2.252   8.069 -0.5281  0.0514  0.1800
   46bbb     H3 1355   5.713   2.183   7.987  1.8169  1.5175 -0.6428
   46bbb     H4 1356   5.753   2.343   8.052  0.6974 -0.4987  1.2487
   46bbb     C3 1357   5.912   2.150   8.132  0.0038  0.9172  0.7112
   46bbb     H5 1358   5.975   2.166   8.220  0.2065  0.1159  0.7223
   46bbb     H6 1359   5.935   2.224   8.055  0.1762  0.1900  0.0531
   46bbb     C4 1360   5.942   2.012   8.071  0.0476 -0.5099 -0.2982
   46bbb     H7 1361   5.889   2.015   7.975 -0.2701  1.1740 -0.1105
   46bbb     H8 1362   5.903   1.939   8.143 -0.4416  0.2113  0.1894
   46bbb     C5 1363   5.771   2.136   8.436 -0.7287 -0.5967  0.3074
   46bbb     H9 1364   5.688   2.068   8.412 -1.2398  0.8613 -2.4806
   46bbb    H10 1365   5.748   2.186   8.531  0.9653 -0.1660  0.5173
   46bbb     C6 1366   5.545   2.270   8.099  0.1865 -0.0291 -0.2785
   46bbb    H11 1367   5.519   2.312   8.197  0.1869 -1.6215  0.4458
   46bbb    H12 1368   5.490   2.175   8.102 -1.9099  1.1094 -0.3218
   46bbb     C7 1369   6.092   1.986   8.053 -0.2799 -0.3138 -0.2180
   46bbb    H13 1370   6.135   2.016   8.150  1.3669 -1.1928 -0.6483
   46bbb    H14 1371   6.139   2.044   7.972 -0.4983 -0.0763 -0.1791
   46bbb     C8 1372   5.485   2.340   7.979 -0.2543 -1.3033 -0.3175
   46bbb    H15 1373   5.386   2.385   7.991  0.0008  0.5711 -3.9367
   46bbb    H16 1374   5.550   2.426   7.961 -1.4864 -0.6757 -1.8712
   46bbb     C9 1375   5.906   2.072   8.463  0.1000  0.4556  0.0229
   46bbb    H17 1376   5.947   2.018   8.376 -1.5536 -1.6390  0.4528
   46bbb    H18 1377   5.888   1.987   8.530 -0.3173 -1.3163 -2.2305
   46bbb     O1 1378   6.106   1.845   8.031  0.0884 -0.6247  0.0711
   46bbb    H19 1379   5.722   2.084   8.184  1.7724 -0.7620 -1.0186
   47ccc     C1 1380   6.159  -0.372  12.045 -0.5035  0.0229  0.8102
   47ccc     C2 1381   6.130  -0.266  12.154  0.3390  0.6074  0.0056
   47ccc     H1 1382   6.219  -0.451  12.092 -0.3794  0.2475  1.0317
   47ccc     H2 1383   6.075  -0.312  12.237  0.8200  0.5016  0.2732
   47ccc     C3 1384   6.271  -0.215  12.207  0.6144 -0.4584  0.7365
   47ccc     C4 1385   6.359  -0.159  12.089  0.4270  0.0565  0.0314
   47ccc     C5 1386   6.376  -0.261  11.975  0.1915 -0.0193 -0.0047
   47ccc     H3 1387   6.312  -0.072  12.042 -2.9032 -1.0545  1.0280
   47ccc     H4 1388   6.319  -0.308  12.241 -1.8634 -1.8361  0.6792
   47ccc     H5 1389   6.451  -0.334  12.010  1.2213  0.8149 -0.3987
   47ccc     O1 1390   6.432  -0.194  11.861  0.2596 -0.1309 -0.4537
   47ccc     O2 1391   6.499  -0.138  12.127 -0.0390 -0.0090 -0.3076
   47ccc     O3 1392   6.262  -0.124  12.319  0.1239 -0.0760  0.3731
   47ccc     O4 1393   6.059  -0.164  12.096  0.0581 -0.1981  0.0148
   47ccc     C6 1394   6.036  -0.445  11.980 -0.1565 -0.2059 -0.2079
   47ccc     H6 1395   6.206  -0.054  12.282 -0.5394  0.5373  2.3637
   47ccc     H7 1396   6.021  -0.123  12.175 -1.5118 -1.7200  0.1127
   47ccc     H8 1397   6.507  -0.058  12.181  0.8252 -0.5805  0.4519
   47ccc     H9 1398   5.990  -0.508  12.057  0.2829 -1.1167 -0.6834
   47ccc    H10 1399   6.065  -0.523  11.909 -0.7227 -2.3303  1.7901
   47ccc     O5 1400   5.943  -0.354  11.923 -0.1063 -0.2828  0.5383
   47ccc    H11 1401   5.887  -0.410  11.867 -0.8108  0.6078  0.3267
   47ccc     O6 1402   6.242  -0.317  11.937  0.1867  0.5721 -0.7710
   48ccc     C1 1403   6.273   0.602  11.462 -0.0115 -0.3078  0.8148
   48ccc     C2 1404   6.324   0.643  11.321 -0.1442  0.2592  0.1500
   48ccc     H1 1405   6.292   0.685  11.530  1.8250 -0.0972  0.0931
   48ccc     H2 1406   6.269   0.734  11.293  1.3474  1.8782  2.1297
   48ccc     C3 1407   6.478   0.675  11.322 -0.2473 -0.2422  1.0440
   48ccc     C4 1408   6.559   0.561  11.378 -0.6144  0.3472  0.4986
   48ccc     C5 1409   6.500   0.498  11.511  0.4431 -0.3600 -0.6145
   48ccc     H3 1410   6.551   0.473  11.313 -0.7817 -0.6434  1.8113
   48ccc     H4 1411   6.488   0.763  11.388  2.8832  0.8733 -0.7126
   48ccc     H5 1412   6.526   0.559  11.598 -0.7401  0.2352 -0.6517
   48ccc     O1 1413   6.560   0.367  11.527  0.1047 -0.0926  0.0760
   48ccc     O2 1414   6.699   0.591  11.389  0.4205 -1.1609  0.3235
   48ccc     O3 1415   6.522   0.727  11.196 -0.4935 -0.9607  0.1844
   48ccc     O4 1416   6.294   0.532  11.238 -0.0895 -0.1647 -0.1727
   48ccc     C6 1417   6.125   0.567  11.469  0.9444  0.4671  0.9260
   48ccc     H6 1418   6.471   0.810  11.193  0.2969 -0.4155  1.0626
   48ccc     H7 1419   6.271   0.571  11.152 -1.6152 -0.6123 -0.0076
   48ccc     H8 1420   6.722   0.630  11.302  0.7217 -0.1485  0.8327
   48ccc     H9 1421   6.119   0.459  11.452 -0.4169  0.5612  0.6931
   48ccc    H10 1422   6.063   0.617  11.394  1.2949  1.4721  1.2914
   48ccc     O5 1423   6.078   0.598  11.596  0.4668 -0.3023  0.4521
   48ccc    H11 1424   6.153   0.603  11.659 -0.2868  1.9403  1.2468
   48ccc     O6 1425   6.353   0.481  11.495  0.5882 -0.9234 -0.0429
   49ccc     C1 1426   5.546   0.726  10.791 -0.1491 -0.4965  0.0681
   49ccc     C2 1427   5.494   0.673  10.658  0.3245  0.2090 -0.7977
   49ccc     H1 1428   5.617   0.799  10.750  0.3527 -0.5375  0.8477
   49ccc     H2 1429   5.440   0.752  10.603 -2.3344 -0.0477  1.2339
   49ccc     C3 1430   5.602   0.622  10.568 -0.0133  0.4128  0.2631
   49ccc     C4 1431   5.690   0.519  10.650 -0.3191 -0.1995 -0.1793
   49ccc     C5 1432   5.734   0.580  10.788  0.3583 -0.1322 -0.1225
   49ccc     H3 1433   5.620   0.438  10.670 -1.0897 -0.1386 -2.3353
   49ccc     H4 1434   5.669   0.701  10.531 -3.1597  2.6460 -1.2202
   49ccc     H5 1435   5.791   0.670  10.763 -0.2197 -0.1793 -1.7232
   49ccc     O1 1436   5.794   0.482  10.867 -0.4530  0.6104 -0.0806
   49ccc     O2 1437   5.811   0.477  10.575  0.2628 -0.3493 -0.3130
   49ccc     O3 1438   5.543   0.559  10.456  0.5631  0.0283  0.1922
   49ccc     O4 1439   5.403   0.571  10.691  0.2173 -0.4391  0.0016
   49ccc     C6 1440   5.442   0.783  10.890  0.3193  0.4915 -0.0861
   49ccc     H6 1441   5.599   0.491  10.413 -1.5073 -1.1200 -0.8839
   49ccc     H7 1442   5.368   0.532  10.609  0.5907 -0.7225 -0.0246
   49ccc     H8 1443   5.777   0.437  10.493 -2.3286  1.7866 -0.4130
   49ccc     H9 1444   5.378   0.709  10.940  1.9134  0.3218  1.8384
   49ccc    H10 1445   5.375   0.847  10.831 -0.8572  0.6939  1.4287
   49ccc     O5 1446   5.514   0.861  10.986  0.1998  0.5979 -0.1154
   49ccc    H11 1447   5.462   0.944  10.982 -1.7555 -0.5531  0.0914
   49ccc     O6 1448   5.617   0.619  10.857  0.1631  0.1625 -0.2378
   50ccc     C1 1449   6.173   0.237  11.861  0.1860  0.1842 -0.1582
   50ccc     C2 1450   6.112   0.098  11.896  0.2295  0.1484  0.6733
   50ccc     H1 1451   6.114   0.320  11.901  0.5278  0.3454  0.0169
   50ccc     H2 1452   6.104   0.093  12.005 -0.4675  2.6314  0.7993
   50ccc     C3 1453   5.967   0.100  11.839  0.4353 -0.1186  0.6170
   50ccc     C4 1454   5.964   0.119  11.688  0.0224 -0.0874  0.4629
   50ccc     C5 1455   6.047   0.254  11.649 -0.0796 -1.1901  0.3263
   50ccc     H3 1456   6.018   0.033  11.647 -0.4504  1.3461 -3.6037
   50ccc     H4 1457   5.915   0.182  11.890  1.1679  0.3001  0.7145
   50ccc     H5 1458   5.982   0.340  11.670 -2.0918 -1.9871 -2.1534
   50ccc     O1 1459   6.059   0.240  11.505  0.3724  0.3813  0.2618
   50ccc     O2 1460   5.822   0.112  11.652 -0.0327 -0.2021 -0.0722
   50ccc     O3 1461   5.904  -0.026  11.879 -0.4700 -0.0544  0.2083
   50ccc     O4 1462   6.181  -0.015  11.839 -0.3710 -0.6083 -0.6559
   50ccc     C6 1463   6.311   0.253  11.916  0.1801 -0.3530  0.6656
   50ccc     H6 1464   5.810  -0.009  11.862 -0.0382  1.2046 -1.1264
   50ccc     H7 1465   6.264   0.035  11.844 -2.1907  2.8668 -1.7871
   50ccc     H8 1466   5.820   0.041  11.585 -0.3521  0.0268 -0.3072
   50ccc     H9 1467   6.319   0.249  12.025  2.0143 -0.2926  0.5712
   50ccc    H10 1468   6.349   0.350  11.881 -0.5700  0.1038  1.1018
   50ccc     O5 1469   6.387   0.131  11.886 -0.5379  0.1154 -0.4527
   50ccc    H11 1470   6.482   0.144  11.901 -0.1996 -0.1578 -2.1580
   50ccc     O6 1471   6.177   0.255  11.718  0.5374 -0.1922  0.5852
   51ccc     C1 1472   6.493  -0.728  10.543  0.0865  0.3190 -0.4854
   51ccc     C2 1473   6.582  -0.853  10.556 -0.0728 -1.2307  0.8101
   51ccc     H1 1474   6.518  -0.666  10.630 -3.8651  2.0808 -0.3937
   51ccc     H2 1475   6.676  -0.820  10.601  0.0611 -3.9493  2.7971
   51ccc     C3 1476   6.528  -0.967  10.649 -0.4733 -0.4074 -0.4778
   51ccc     C4 1477   6.378  -0.989  10.647  0.3987 -0.7799  0.5145
   51ccc     C5 1478   6.302  -0.855  10.642  0.0792  0.4354  0.3049
   51ccc     H3 1479   6.356  -1.046  10.556  0.0939  0.4847 -0.2299
   51ccc     H4 1480   6.542  -0.937  10.754  0.2512 -1.0662 -0.3746
   51ccc     H5 1481   6.311  -0.799  10.736  0.7280  0.5641  0.1671
   51ccc     O1 1482   6.166  -0.886  10.621 -0.0352  0.0527  0.0895
   51ccc     O2 1483   6.327  -1.068  10.751 -0.3322 -0.8879 -0.4595
   51ccc     O3 1484   6.596  -1.097  10.616  0.0290  0.2264 -0.1186
   51ccc     O4 1485   6.588  -0.918  10.429 -0.2504 -0.0998 -0.3766
   51ccc     C6 1486   6.518  -0.651  10.414  0.2951  0.5379 -0.2158
   51ccc     H6 1487   6.589  -1.142  10.702 -1.1169 -0.7192 -0.6802
   51ccc     H7 1488   6.619  -1.006  10.457 -0.4689  0.0790  0.4699
   51ccc     H8 1489   6.281  -1.002  10.807  1.3053  0.2103 -0.3564
   51ccc     H9 1490   6.512  -0.718  10.327  2.9848 -1.1773  0.7963
   51ccc    H10 1491   6.622  -0.615  10.408  0.0796  0.9546 -2.4219
   51ccc     O5 1492   6.435  -0.539  10.413 -0.1348  0.0101  0.4846
   51ccc    H11 1493   6.498  -0.465  10.413  2.3202 -1.9254  1.6272
   51ccc     O6 1494   6.347  -0.770  10.548 -0.0672 -0.6426 -0.1017
   52ccc     C1 1495   5.706  -0.699   9.757 -0.1391 -0.2196 -0.0510
   52ccc     C2 1496   5.563  -0.651   9.807 -0.2696  0.4370  0.5987
   52ccc     H1 1497   5.688  -0.751   9.662 -1.8287  1.9369 -0.9885
   52ccc     H2 1498   5.512  -0.611   9.719 -0.2621 -0.6943  0.0650
   52ccc     C3 1499   5.475  -0.773   9.851  0.5603  0.4797  0.4049
   52ccc     C4 1500   5.549  -0.852   9.963 -0.5535  0.6254 -0.6241
   52ccc     C5 1501   5.689  -0.896   9.908 -0.0568  0.1845  0.5595
   52ccc     H3 1502   5.577  -0.791  10.050 -2.0520 -1.7919  1.6971
   52ccc     H4 1503   5.465  -0.836   9.762  1.2969  0.4002  0.3749
   52ccc     H5 1504   5.676  -0.965   9.824  1.0430 -0.3576  0.8203
   52ccc     O1 1505   5.770  -0.963  10.013  0.5372  0.2516  0.1493
   52ccc     O2 1506   5.466  -0.964  10.006  0.0172  0.0524 -0.2579
   52ccc     O3 1507   5.350  -0.727   9.903 -0.8406  0.0669  0.1184
   52ccc     O4 1508   5.582  -0.553   9.912  0.2739  0.1596 -0.2400
   52ccc     C6 1509   5.809  -0.591   9.713 -0.1372 -1.3278 -0.0028
   52ccc     H6 1510   5.312  -0.672   9.834  2.8341  1.2148 -1.2331
   52ccc     H7 1511   5.495  -0.513   9.929 -0.6035 -2.5899  2.8007
   52ccc     H8 1512   5.394  -0.916  10.051 -0.4614 -1.0440  0.1838
   52ccc     H9 1513   5.777  -0.538   9.623  1.1534  0.2930  0.4472
   52ccc    H10 1514   5.907  -0.635   9.689  1.4187  0.9836  1.6868
   52ccc     O5 1515   5.823  -0.497   9.819  0.1177 -0.0589  0.3700
   52ccc    H11 1516   5.734  -0.504   9.858  0.5026 -0.7354  1.1591
   52ccc     O6 1517   5.765  -0.782   9.851  0.2555  0.6118  0.4414
   53ccc     C1 1518   7.882  -1.637  10.585  0.2524 -0.1149 -0.8983
   53ccc     C2 1519   7.926  -1.554  10.460 -0.5442 -0.0808 -0.5670
   53ccc     H1 1520   7.939  -1.731  10.575 -1.4313 -1.1611 -1.0686
   53ccc     H2 1521   8.035  -1.547  10.459 -0.2790 -2.6338  0.8006
   53ccc     C3 1522   7.873  -1.621  10.333 -0.6034  0.7857 -0.1079
   53ccc     C4 1523   7.722  -1.652  10.346 -0.2246  0.1341  0.6650
   53ccc     C5 1524   7.691  -1.723  10.476  0.1939 -0.2788 -0.5636
   53ccc     H3 1525   7.662  -1.561  10.340 -0.1700  0.1681  0.6333
   53ccc     H4 1526   7.913  -1.722  10.322 -3.0010 -0.1169 -1.1589
   53ccc     H5 1527   7.733  -1.824  10.471 -2.5818 -1.8080  2.8828
   53ccc     O1 1528   7.549  -1.733  10.498 -0.3344 -0.2601 -0.4420
   53ccc     O2 1529   7.688  -1.755  10.252  0.1861 -0.2257  0.7924
   53ccc     O3 1530   7.906  -1.550  10.208 -0.0454  0.2249  0.3026
   53ccc     O4 1531   7.881  -1.422  10.476  0.1521  0.4537  0.3244
   53ccc     C6 1532   7.920  -1.577  10.725  0.2886 -0.7454 -0.3887
   53ccc     H6 1533   7.834  -1.487  10.191 -1.1536 -1.1696 -0.3506
   53ccc     H7 1534   7.929  -1.373  10.408  0.2722 -0.3095 -0.1535
   53ccc     H8 1535   7.699  -1.703  10.170  1.8314 -0.8612  0.5826
   53ccc     H9 1536   8.028  -1.560  10.736 -0.3191  1.8561  3.8783
   53ccc    H10 1537   7.884  -1.638  10.808 -0.0929 -0.5152 -0.3842
   53ccc     O5 1538   7.860  -1.450  10.728 -0.6985 -0.4045 -0.5833
   53ccc    H11 1539   7.846  -1.435  10.633 -0.8343 -1.3643 -0.7311
   53ccc     O6 1540   7.739  -1.657  10.592  0.1158  0.2639 -0.3112
   54ccc     C1 1541   7.787  -1.088  10.869 -0.0759 -0.3525  0.0151
   54ccc     C2 1542   7.708  -0.990  10.958  0.0168  0.1301  0.3497
   54ccc     H1 1543   7.850  -1.034  10.798 -1.0591 -2.5604 -2.6994
   54ccc     H2 1544   7.782  -0.923  11.003 -0.2044  1.2849 -0.9691
   54ccc     C3 1545   7.602  -0.907  10.876  0.1033  0.2963  0.1650
   54ccc     C4 1546   7.513  -1.002  10.788  0.7609  0.9295  0.1074
   54ccc     C5 1547   7.599  -1.110  10.706 -0.3493 -0.1639 -0.2647
   54ccc     H3 1548   7.458  -1.072  10.853 -0.9900  2.2270  0.0887
   54ccc     H4 1549   7.663  -0.847  10.807 -0.1849  0.0612 -0.2996
   54ccc     H5 1550   7.660  -1.055  10.633 -0.1033  0.2842  0.2697
   54ccc     O1 1551   7.515  -1.212  10.651 -0.7235  0.2648 -0.9884
   54ccc     O2 1552   7.425  -0.923  10.712  0.6523  0.1686  0.4587
   54ccc     O3 1553   7.517  -0.823  10.958  0.0012  0.0184 -0.0119
   54ccc     O4 1554   7.635  -1.066  11.054 -0.1848  0.6572  0.0404
   54ccc     C6 1555   7.884  -1.176  10.950  0.1169  0.4500  0.2072
   54ccc     H6 1556   7.575  -0.761  11.005  0.3343  0.9644 -1.6067
   54ccc     H7 1557   7.592  -1.000  11.110  2.4722  2.7790 -0.2363
   54ccc     H8 1558   7.362  -0.986  10.674  0.3684  0.9951 -0.5102
   54ccc     H9 1559   7.825  -1.242  11.014 -2.0342  0.3267 -1.7612
   54ccc    H10 1560   7.945  -1.117  11.019 -0.2250 -0.8373  1.6832
   54ccc     O5 1561   7.970  -1.250  10.864 -0.6597 -0.2887  0.5000
   54ccc    H11 1562   7.922  -1.321  10.818  0.9466 -1.3651  0.4009
   54ccc     O6 1563   7.695  -1.179  10.798  0.3557 -0.0877 -0.3028
   55ccc     C1 1564   4.796   0.335   7.994 -0.2678 -0.1757  0.4995
   55ccc     C2 1565   4.798   0.436   8.108 -0.5820 -0.0575 -0.2713
   55ccc     H1 1566   4.692   0.303   7.978 -0.3979  0.7316 -0.5589
   55ccc     H2 1567   4.714   0.503   8.084 -0.1410  0.7140  0.3101
   55ccc     C3 1568   4.774   0.365   8.246 -0.4118  0.3077  0.6013
   55ccc     C4 1569   4.864   0.242   8.266 -0.4043 -0.1043 -0.2006
   55ccc     C5 1570   4.872   0.149   8.146 -0.4367 -0.4004  0.1937
   55ccc     H3 1571   4.963   0.281   8.290  0.6075 -1.7050 -1.5673
   55ccc     H4 1572   4.678   0.313   8.233  0.3364 -1.3052  1.2474
   55ccc     H5 1573   4.789   0.078   8.152  0.1837 -1.1216  0.5776
   55ccc     O1 1574   4.991   0.073   8.152 -0.0895  0.6304  0.2171
   55ccc     O2 1575   4.814   0.179   8.385  0.0473 -0.6208  0.5496
   55ccc     O3 1576   4.770   0.452   8.364  0.3793  0.7571 -0.3535
   55ccc     O4 1577   4.925   0.503   8.107 -0.6447 -0.6576  0.2421
   55ccc     C6 1578   4.827   0.395   7.855  0.3216 -0.6215  0.6149
   55ccc     H6 1579   4.711   0.524   8.337  0.9007  1.0948 -0.5941
   55ccc     H7 1580   4.935   0.510   8.011  1.0482 -1.1010  0.3574
   55ccc     H8 1581   4.789   0.254   8.442 -1.8255  0.3394 -1.3774
   55ccc     H9 1582   4.738   0.450   7.823  2.0805  2.3135  0.4138
   55ccc    H10 1583   4.842   0.312   7.785  1.3128 -0.8321  1.0521
   55ccc     O5 1584   4.941   0.484   7.852  0.8315  0.2912 -0.3752
   55ccc    H11 1585   5.001   0.471   7.777  1.1612  2.2064 -0.5037
   55ccc     O6 1586   4.883   0.219   8.023  0.0309 -0.4974  0.2253
   56ccc     C1 1587   5.632   0.735   8.049  0.3786 -0.9505 -0.0840
   56ccc     C2 1588   5.642   0.743   8.202 -0.4633  0.0845  0.6190
   56ccc     H1 1589   5.595   0.831   8.012 -0.8948 -0.7489  1.5856
   56ccc     H2 1590   5.716   0.813   8.243  2.4826 -3.0285  1.1484
   56ccc     C3 1591   5.511   0.778   8.274  0.1550  0.5496 -0.5218
   56ccc     C4 1592   5.402   0.684   8.227 -0.4828  0.1013 -0.7263
   56ccc     C5 1593   5.399   0.655   8.073 -0.0862 -0.0047  0.1484
   56ccc     H3 1594   5.430   0.585   8.263  0.9399  0.8336  0.2730
   56ccc     H4 1595   5.475   0.875   8.236 -1.3453  0.3754  0.3561
   56ccc     H5 1596   5.346   0.736   8.021  0.1051  1.0545  1.5261
   56ccc     O1 1597   5.337   0.531   8.050  0.2960  0.7461 -0.0296
   56ccc     O2 1598   5.276   0.729   8.286 -0.3100  0.7471 -0.3609
   56ccc     O3 1599   5.516   0.787   8.414 -0.4102 -0.6706 -0.2894
   56ccc     O4 1600   5.696   0.618   8.243  0.7256  0.2868 -0.3779
   56ccc     C6 1601   5.765   0.708   7.968 -0.2141 -0.1448 -0.3613
   56ccc     H6 1602   5.510   0.881   8.438 -1.1758 -0.8367  0.2019
   56ccc     H7 1603   5.688   0.619   8.340  0.8207  0.4900 -0.3712
   56ccc     H8 1604   5.310   0.744   8.376  2.1956 -1.5803 -0.7953
   56ccc     H9 1605   5.833   0.795   7.962 -2.0899  1.3420 -1.1613
   56ccc    H10 1606   5.742   0.680   7.864 -1.0298 -0.3940 -0.1154
   56ccc     O5 1607   5.825   0.594   8.017 -0.0009 -0.5403  0.4928
   56ccc    H11 1608   5.772   0.589   8.099 -0.3892 -1.0483  0.2147
   56ccc     O6 1609   5.532   0.638   8.021 -0.0535  0.0223  0.4283
   57ccc     C1 1610   5.147  -1.049   8.633  0.2598 -0.8791  0.4887
   57ccc     C2 1611   5.109  -1.162   8.545  0.2333  0.0570  0.3038
   57ccc     H1 1612   5.094  -0.962   8.593  0.0936 -1.3292 -0.2753
   57ccc     H2 1613   5.001  -1.180   8.557  0.3391 -1.3839 -0.6555
   57ccc     C3 1614   5.131  -1.127   8.391 -0.4668 -0.4649 -0.0176
   57ccc     C4 1615   5.279  -1.085   8.374  0.0161  0.0967 -0.3998
   57ccc     C5 1616   5.324  -0.977   8.483 -0.4256  0.7195  0.3363
   57ccc     H3 1617   5.337  -1.177   8.393 -0.2975  0.1173  0.7271
   57ccc     H4 1618   5.068  -1.039   8.373 -1.2945 -0.9621  0.3722
   57ccc     H5 1619   5.291  -0.877   8.454  1.1955  1.1904  0.0766
   57ccc     O1 1620   5.465  -0.972   8.484 -0.8847 -0.1307 -0.2626
   57ccc     O2 1621   5.292  -1.026   8.243  0.2880  0.3770  0.3110
   57ccc     O3 1622   5.088  -1.234   8.310 -0.1265 -0.3135  0.3477
   57ccc     O4 1623   5.180  -1.272   8.589 -0.6652  0.4838  0.2881
   57ccc     C6 1624   5.093  -1.074   8.775 -0.3556  0.3691  0.0593
   57ccc     H6 1625   5.112  -1.211   8.219  2.0701  1.1768  1.2098
   57ccc     H7 1626   5.165  -1.353   8.536  0.4922 -0.2258  1.0128
   57ccc     H8 1627   5.268  -1.098   8.182 -0.7958  1.6219 -0.8006
   57ccc     H9 1628   5.155  -1.152   8.821  2.5244  3.7432  2.4373
   57ccc    H10 1629   4.987  -1.102   8.767 -0.6527  1.4802 -0.0445
   57ccc     O5 1630   5.119  -0.958   8.852  0.0414 -0.0353  0.1325
   57ccc    H11 1631   5.055  -0.898   8.811 -0.7856 -0.2534  1.0560
   57ccc     O6 1632   5.285  -1.016   8.618  0.2877 -0.0536 -0.4658
   58ccc     C1 1633   5.285  -1.118   7.873 -0.5618  0.0331  0.7781
   58ccc     C2 1634   5.306  -1.249   7.791  0.4601 -0.0309  0.2279
   58ccc     H1 1635   5.256  -1.037   7.806  2.3287  0.6436  0.1185
   58ccc     H2 1636   5.231  -1.257   7.712  0.5864 -1.4405  0.2157
   58ccc     C3 1637   5.438  -1.256   7.716  0.0806  0.4887 -0.0084
   58ccc     C4 1638   5.550  -1.224   7.817 -0.0394  0.1336 -0.2270
   58ccc     C5 1639   5.528  -1.084   7.875 -0.1082  0.2798 -0.4850
   58ccc     H3 1640   5.557  -1.293   7.903  1.3843 -0.2589 -0.6240
   58ccc     H4 1641   5.445  -1.174   7.644 -0.5347  0.9834  0.4744
   58ccc     H5 1642   5.527  -1.022   7.785 -3.3380 -1.1043 -1.5898
   58ccc     O1 1643   5.625  -1.037   7.967 -0.0548  0.0823  0.0848
   58ccc     O2 1644   5.674  -1.230   7.740  0.5890 -0.4121 -0.3250
   58ccc     O3 1645   5.460  -1.382   7.647 -0.4310  0.1018  0.3983
   58ccc     O4 1646   5.292  -1.362   7.885  0.4726 -0.0641  0.0045
   58ccc     C6 1647   5.168  -1.133   7.971  0.0954  0.0916 -0.4144
   58ccc     H6 1648   5.515  -1.359   7.570 -0.3925 -0.3710  0.2818
   58ccc     H7 1649   5.316  -1.442   7.835  0.5686 -0.1585  0.1998
   58ccc     H8 1650   5.695  -1.325   7.748  0.4960 -0.3911  0.1720
   58ccc     H9 1651   5.080  -1.176   7.922  0.1584 -1.2497  0.6058
   58ccc    H10 1652   5.132  -1.034   7.998 -0.6834 -0.5867  1.1707
   58ccc     O5 1653   5.209  -1.209   8.079  0.6134 -0.0304 -0.3187
   58ccc    H11 1654   5.258  -1.277   8.030  1.3611  1.2169 -1.3624
   58ccc     O6 1655   5.404  -1.082   7.944 -0.1476  0.6285  0.0425
   59ccc     C1 1656   7.998  -0.464   8.894  0.0777 -0.2126 -0.6284
   59ccc     C2 1657   8.037  -0.317   8.855  0.0622  0.6142 -0.1191
   59ccc     H1 1658   7.952  -0.520   8.812 -3.9553  1.5782  0.1963
   59ccc     H2 1659   8.115  -0.334   8.779 -1.1590  0.8046 -1.4511
   59ccc     C3 1660   7.922  -0.230   8.805 -0.8947 -0.5087 -0.4247
   59ccc     C4 1661   7.788  -0.250   8.878 -0.5831  0.2356  0.1930
   59ccc     C5 1662   7.768  -0.396   8.927  0.5575 -0.6946 -0.1868
   59ccc     H3 1663   7.791  -0.187   8.968 -1.8954 -0.9037  1.0700
   59ccc     H4 1664   7.908  -0.255   8.699  0.3888 -0.4805 -0.6208
   59ccc     H5 1665   7.728  -0.456   8.845  0.3804  0.4896 -1.0057
   59ccc     O1 1666   7.667  -0.391   9.032 -0.6549 -0.0179 -0.1098
   59ccc     O2 1667   7.680  -0.196   8.796 -0.2495  0.6450  0.1708
   59ccc     O3 1668   7.959  -0.091   8.797 -0.4060 -0.7558  0.5152
   59ccc     O4 1669   8.100  -0.263   8.974  0.0016 -0.2530  0.1295
   59ccc     C6 1670   8.103  -0.556   8.966  0.3263 -0.3477  0.4183
   59ccc     H6 1671   7.979  -0.056   8.886 -0.0248 -1.2290  0.6213
   59ccc     H7 1672   8.134  -0.347   9.009 -0.1145 -1.2589 -1.9982
   59ccc     H8 1673   7.675  -0.253   8.717  0.4778 -0.3695  0.8234
   59ccc     H9 1674   8.152  -0.611   8.884 -0.1185 -1.9732  1.1978
   59ccc    H10 1675   8.045  -0.622   9.031 -1.2121  0.6130  0.0610
   59ccc     O5 1676   8.196  -0.479   9.044 -0.4962 -0.2591  0.1182
   59ccc    H11 1677   8.268  -0.539   9.069  2.3119  2.0049 -1.8781
   59ccc     O6 1678   7.889  -0.451   8.988 -0.0237 -0.0711  0.2463
   60ccc     C1 1679   7.188   0.396   9.627 -0.0015  0.0473 -0.0511
   60ccc     C2 1680   7.179   0.498   9.510  0.1744  0.5760 -0.1427
   60ccc     H1 1681   7.258   0.428   9.705 -2.0836  1.6033  1.2596
   60ccc     H2 1682   7.166   0.603   9.540 -0.6085  0.7268 -0.9777
   60ccc     C3 1683   7.317   0.497   9.443  0.0802 -0.4287  1.1751
   60ccc     C4 1684   7.351   0.356   9.386  0.8390 -0.0387  0.4715
   60ccc     C5 1685   7.348   0.251   9.494  0.4023  0.8801 -0.1081
   60ccc     H3 1686   7.269   0.338   9.315  1.6896  0.2186 -0.5866
   60ccc     H4 1687   7.387   0.517   9.525  3.0869  0.4939 -1.3977
   60ccc     H5 1688   7.442   0.255   9.550  0.3681  2.3069 -0.1246
   60ccc     O1 1689   7.339   0.116   9.431 -0.2553  0.2654  0.0906
   60ccc     O2 1690   7.470   0.350   9.308  0.8424 -0.3385 -0.0719
   60ccc     O3 1691   7.310   0.599   9.334 -0.0882 -0.2075  0.1606
   60ccc     O4 1692   7.073   0.466   9.421 -0.1350 -0.0413 -0.5785
   60ccc     C6 1693   7.053   0.369   9.700 -0.9319  0.1397  0.9160
   60ccc     H6 1694   7.388   0.595   9.276  0.3772  0.8458  0.6953
   60ccc     H7 1695   7.079   0.544   9.363  1.0724  0.6571  0.4386
   60ccc     H8 1696   7.457   0.270   9.254 -0.0568 -0.3832  0.1921
   60ccc     H9 1697   6.973   0.330   9.637 -0.1942 -1.3735  0.8849
   60ccc    H10 1698   7.017   0.462   9.746  1.9348  1.9288 -0.1896
   60ccc     O5 1699   7.078   0.271   9.803  0.5199  0.4967 -0.9191
   60ccc    H11 1700   7.168   0.242   9.777  1.8896  1.1047  2.5571
   60ccc     O6 1701   7.240   0.266   9.584  0.0531 -0.1405  0.2379
   61ccc     C1 1702   7.429   0.331   8.242  0.6022 -0.1311 -0.7792
   61ccc     C2 1703   7.325   0.306   8.132  0.3336 -0.8125 -0.1650
   61ccc     H1 1704   7.515   0.264   8.227  1.0171  0.2336 -0.0869
   61ccc     H2 1705   7.364   0.339   8.035 -2.8367  1.7624 -0.7250
   61ccc     C3 1706   7.296   0.156   8.126  0.2509  0.4199  0.4592
   61ccc     C4 1707   7.244   0.099   8.260 -0.6182 -0.1235  0.4671
   61ccc     C5 1708   7.327   0.145   8.380 -0.0137 -0.1399 -0.3269
   61ccc     H3 1709   7.149   0.151   8.275 -0.0476  0.7061  1.3524
   61ccc     H4 1710   7.387   0.103   8.095  0.2522  1.1576 -0.8686
   61ccc     H5 1711   7.422   0.090   8.385  1.2499  1.7153 -2.2804
   61ccc     O1 1712   7.246   0.126   8.505 -0.5041  0.1010 -0.5972
   61ccc     O2 1713   7.234  -0.046   8.241  0.4924 -0.5716 -0.2964
   61ccc     O3 1714   7.208   0.131   8.015 -0.4150  0.2285  0.7205
   61ccc     O4 1715   7.204   0.379   8.160 -0.2922  0.0487 -0.3684
   61ccc     C6 1716   7.478   0.479   8.257 -0.3928  0.3969  0.4312
   61ccc     H6 1717   7.116   0.162   8.024 -1.5643 -2.9074  1.1321
   61ccc     H7 1718   7.252   0.452   8.204  0.0290 -1.3309  1.7245
   61ccc     H8 1719   7.195  -0.066   8.154 -1.6078  1.6016  0.0231
   61ccc     H9 1720   7.527   0.495   8.160 -1.0253 -0.1946  0.0028
   61ccc    H10 1721   7.549   0.501   8.337 -0.7423  2.1813  0.3089
   61ccc     O5 1722   7.364   0.563   8.270 -0.2734  0.0097  0.1199
   61ccc    H11 1723   7.407   0.650   8.263  0.7857 -0.5886 -1.0027
   61ccc     O6 1724   7.364   0.287   8.366  0.1564  0.2027  0.2059
   62ccc     C1 1725   7.653   0.321   8.804 -0.3957  0.1865  0.0126
   62ccc     C2 1726   7.700   0.176   8.852 -0.0948  0.3184  0.4702
   62ccc     H1 1727   7.719   0.383   8.866 -0.5243  2.0700 -1.6317
   62ccc     H2 1728   7.809   0.171   8.838 -0.2594 -0.4754 -0.6550
   62ccc     C3 1729   7.654   0.145   9.005 -0.9176 -0.2750 -0.1217
   62ccc     C4 1730   7.506   0.173   9.017 -0.0561  0.2892 -0.3698
   62ccc     C5 1731   7.473   0.325   8.980  0.0226 -0.2100 -0.1518
   62ccc     H3 1732   7.452   0.110   8.946 -1.5596  1.2330 -0.1113
   62ccc     H4 1733   7.720   0.210   9.064  1.1704 -2.6315  0.3104
   62ccc     H5 1734   7.536   0.371   9.057  1.4555 -1.4663 -0.5175
   62ccc     O1 1735   7.335   0.359   8.993 -0.2363  0.4225  0.1293
   62ccc     O2 1736   7.461   0.142   9.161  0.1913 -0.2689 -0.2252
   62ccc     O3 1737   7.680   0.015   9.049 -0.1724  0.0546  0.1478
   62ccc     O4 1738   7.632   0.081   8.766 -0.1564 -0.0805 -0.3298
   62ccc     C6 1739   7.692   0.352   8.661  0.1112  0.0435 -0.2767
   62ccc     H6 1740   7.634   0.010   9.135 -0.6407  0.7844 -0.0492
   62ccc     H7 1741   7.656  -0.003   8.810 -2.2382 -1.0460 -0.9030
   62ccc     H8 1742   7.406   0.062   9.155 -0.3492 -0.0295  1.0767
   62ccc     H9 1743   7.626   0.299   8.590 -0.0526  0.3745 -0.3717
   62ccc    H10 1744   7.795   0.316   8.646  0.4024  0.4563  0.6753
   62ccc     O5 1745   7.671   0.490   8.652 -0.1379 -0.4064  0.1739
   62ccc    H11 1746   7.574   0.500   8.646  0.0746  1.4956 -0.8115
   62ccc     O6 1747   7.517   0.347   8.846  0.4274 -0.4317  0.4648
   63ccc     C1 1748   5.021   0.569  12.447 -0.3873 -0.1720  0.8413
   63ccc     C2 1749   4.938   0.446  12.402  0.6510  0.4561  0.4065
   63ccc     H1 1750   4.953   0.634  12.502 -0.1893 -0.2813  1.2181
   63ccc     H2 1751   4.890   0.397  12.487 -0.8826  1.5966  0.2332
   63ccc     C3 1752   4.835   0.476  12.293  0.5315  0.5437 -0.1039
   63ccc     C4 1753   4.895   0.552  12.175  0.2584  0.5506  0.2225
   63ccc     C5 1754   4.968   0.675  12.231 -0.6370 -0.2739  0.3099
   63ccc     H3 1755   4.966   0.487  12.123  0.5630 -0.2058  1.5505
   63ccc     H4 1756   4.760   0.546  12.333 -0.7299 -1.6263  1.5621
   63ccc     H5 1757   4.898   0.726  12.297  1.6656  1.8731  1.2534
   63ccc     O1 1758   5.024   0.760  12.132 -0.0782 -0.5150  0.8443
   63ccc     O2 1759   4.789   0.588  12.090  0.3455 -0.0549  0.0067
   63ccc     O3 1760   4.758   0.352  12.259 -0.1090  0.1889  0.2751
   63ccc     O4 1761   5.030   0.342  12.350  0.2378  0.5194  0.3836
   63ccc     C6 1762   5.145   0.547  12.532 -0.0342  0.1107 -0.6733
   63ccc     H6 1763   4.672   0.386  12.229 -0.0725  0.3222  0.3168
   63ccc     H7 1764   4.975   0.264  12.330  2.6749 -1.5859  1.2396
   63ccc     H8 1765   4.794   0.529  12.012  2.6559  0.5417 -0.3636
   63ccc     H9 1766   5.213   0.503  12.458 -1.2511 -1.7055 -0.7756
   63ccc    H10 1767   5.125   0.476  12.612 -1.7016  0.8927 -0.3652
   63ccc     O5 1768   5.180   0.676  12.578 -0.2787 -0.5885  0.0169
   63ccc    H11 1769   5.221   0.662  12.665  1.3381  0.3368 -0.5355
   63ccc     O6 1770   5.071   0.638  12.326  0.5416  0.6490  0.4645
   64ccc     C1 1771   5.071   0.703  11.192  0.1606 -0.2066  0.2051
   64ccc     C2 1772   5.043   0.792  11.065 -0.0280  0.4803 -0.1222
   64ccc     H1 1773   4.981   0.645  11.216 -1.4612  2.3158  0.6911
   64ccc     H2 1774   5.016   0.719  10.988 -0.8416  1.3384 -0.6634
   64ccc     C3 1775   4.934   0.892  11.098  0.3997  0.2503 -0.4748
   64ccc     C4 1776   4.968   0.968  11.226  0.0924 -0.0377 -0.1061
   64ccc     C5 1777   4.992   0.877  11.344  0.3498  0.0812 -0.5962
   64ccc     H3 1778   5.060   1.027  11.214  0.8303 -0.9519  0.8605
   64ccc     H4 1779   4.846   0.832  11.124 -0.5551  2.3131  1.4176
   64ccc     H5 1780   4.910   0.809  11.370  0.6181  0.2629  0.8285
   64ccc     O1 1781   5.021   0.955  11.466  0.6981 -0.2493  0.5243
   64ccc     O2 1782   4.856   1.057  11.258 -0.1153  0.4815 -0.4390
   64ccc     O3 1783   4.898   0.981  10.992  0.4979  0.2144  0.1484
   64ccc     O4 1784   5.161   0.858  11.040 -0.1149 -0.9503  0.2886
   64ccc     C6 1785   5.187   0.600  11.161  0.0163 -0.6255 -1.0105
   64ccc     H6 1786   4.801   0.979  10.993  0.3561  3.0297 -0.5304
   64ccc     H7 1787   5.134   0.891  10.952 -1.7544 -0.2388  1.0106
   64ccc     H8 1788   4.905   1.133  11.294 -1.3383  2.2927 -2.3374
   64ccc     H9 1789   5.284   0.649  11.152 -0.4453  0.2577 -1.3573
   64ccc    H10 1790   5.158   0.544  11.072  2.3251 -3.5017 -0.0872
   64ccc     O5 1791   5.201   0.513  11.274  0.1806 -0.1297  0.0555
   64ccc    H11 1792   5.281   0.468  11.244 -0.0289 -0.0583 -0.6377
   64ccc     O6 1793   5.107   0.791  11.308 -0.2691  0.1048  0.0616
   65ccc     C1 1794   5.986   0.274  12.331  0.0126  0.4195 -0.5071
   65ccc     C2 1795   6.023   0.122  12.346 -0.3964  0.7221 -0.0735
   65ccc     H1 1796   5.914   0.293  12.411  0.6143  1.9495 -0.3102
   65ccc     H2 1797   6.064   0.101  12.445  1.1548 -3.8171 -1.4327
   65ccc     C3 1798   5.897   0.033  12.333  0.0810  0.2191 -0.1740
   65ccc     C4 1799   5.821   0.064  12.205  0.0364 -0.0383 -0.5988
   65ccc     C5 1800   5.799   0.217  12.183 -0.0004 -0.2149  0.2597
   65ccc     H3 1801   5.882   0.022  12.125  0.9630  0.6014 -0.2470
   65ccc     H4 1802   5.830   0.053  12.418  1.3901 -0.9614  1.1883
   65ccc     H5 1803   5.732   0.241  12.266 -1.1310 -3.0528  0.2936
   65ccc     O1 1804   5.743   0.242  12.054  0.1933  0.1141  0.6178
   65ccc     O2 1805   5.694  -0.014  12.208 -0.4113  0.0659 -0.0413
   65ccc     O3 1806   5.925  -0.106  12.350 -0.1888  0.1320  0.8177
   65ccc     O4 1807   6.122   0.095  12.243  0.3022  0.3095 -0.1944
   65ccc     C6 1808   6.089   0.380  12.347  0.2977 -0.7050  0.6798
   65ccc     H6 1809   5.846  -0.131  12.401 -0.8102  1.0462  0.3271
   65ccc     H7 1810   6.160   0.185  12.245 -1.2882  1.3108  6.2965
   65ccc     H8 1811   5.729  -0.104  12.196  0.9821  0.1042  2.8354
   65ccc     H9 1812   6.114   0.391  12.453 -1.8047 -0.1807  1.1631
   65ccc    H10 1813   6.053   0.473  12.302 -2.3041 -0.2860  3.3787
   65ccc     O5 1814   6.202   0.342  12.265  0.0704  0.5695 -0.1758
   65ccc    H11 1815   6.244   0.426  12.243  0.8150  0.7606  1.8106
   65ccc     O6 1816   5.922   0.285  12.200 -0.7568  0.5820  0.5304
   66ccc     C1 1817   5.101  -0.241  11.839 -0.1127  0.0223 -0.0968
   66ccc     C2 1818   5.034  -0.181  11.967  0.1889 -0.4741  1.1330
   66ccc     H1 1819   5.170  -0.321  11.868 -1.4995 -1.2994 -0.3187
   66ccc     H2 1820   4.982  -0.261  12.021 -2.6052  0.6537  0.3129
   66ccc     C3 1821   5.151  -0.119  12.049  0.3944  0.0543 -0.9052
   66ccc     C4 1822   5.223  -0.002  11.973  0.4779  0.3008  0.5219
   66ccc     C5 1823   5.265  -0.053  11.829  0.1253  0.5428  0.4377
   66ccc     H3 1824   5.153   0.082  11.962  2.2182  1.6582 -0.8077
   66ccc     H4 1825   5.218  -0.205  12.063  0.7836  0.5299  0.2770
   66ccc     H5 1826   5.354  -0.115  11.843  1.4538  2.8408  3.3334
   66ccc     O1 1827   5.307   0.062  11.746  0.1285  0.2769 -0.7387
   66ccc     O2 1828   5.334   0.045  12.051 -0.2266  0.3725  0.2339
   66ccc     O3 1829   5.103  -0.071  12.180 -0.1698  0.0151  0.5296
   66ccc     O4 1830   4.944  -0.079  11.937  0.1409  0.7414 -0.0666
   66ccc     C6 1831   4.995  -0.299  11.755 -0.4649 -0.2473 -0.2704
   66ccc     H6 1832   5.020  -0.022  12.167 -0.8396 -1.2065  0.0138
   66ccc     H7 1833   4.853  -0.113  11.943 -0.4093  2.3023  1.3979
   66ccc     H8 1834   5.291   0.107  12.113 -1.9198  0.8022 -1.3061
   66ccc     H9 1835   4.922  -0.222  11.726  1.0584  1.1376 -0.5200
   66ccc    H10 1836   4.942  -0.375  11.815  1.0599 -1.9094 -0.9449
   66ccc     O5 1837   5.055  -0.364  11.642  0.3077 -0.6105 -0.5177
   66ccc    H11 1838   5.046  -0.285  11.585  1.2747  0.2452  0.4765
   66ccc     O6 1839   5.167  -0.133  11.769 -0.0827  0.2362  1.2198
   67ccc     C1 1840   6.734   1.754  12.482  0.4462 -0.1520 -0.3170
   67ccc     C2 1841   6.739   1.598  12.512  0.8747  0.4531 -0.2199
   67ccc     H1 1842   6.702   1.813  12.569  1.7019  0.0320  0.0308
   67ccc     H2 1843   6.781   1.579  12.612 -1.7417  1.7067  1.2467
   67ccc     C3 1844   6.597   1.541  12.533  0.0427  0.0804  0.3304
   67ccc     C4 1845   6.507   1.579  12.407  0.0170  0.8474  0.4394
   67ccc     C5 1846   6.503   1.734  12.391 -0.2254 -0.1706  0.5426
   67ccc     H3 1847   6.563   1.537  12.323  1.7488 -2.6892  3.0881
   67ccc     H4 1848   6.548   1.592  12.616 -0.1185  2.2657 -1.0091
   67ccc     H5 1849   6.452   1.783  12.475 -2.5854 -1.2948 -0.1407
   67ccc     O1 1850   6.440   1.774  12.267 -0.0946  0.1685 -0.6565
   67ccc     O2 1851   6.379   1.518  12.422  0.1441  0.1482 -0.5159
   67ccc     O3 1852   6.611   1.404  12.564  0.2529  0.2856 -0.5708
   67ccc     O4 1853   6.803   1.525  12.406  0.7265 -0.4053  0.0361
   67ccc     C6 1854   6.868   1.813  12.445  0.4276 -0.2107 -0.7039
   67ccc     H6 1855   6.618   1.400  12.661 -0.9963  2.2003 -0.3559
   67ccc     H7 1856   6.808   1.431  12.428 -0.5389 -0.5573 -0.2766
   67ccc     H8 1857   6.395   1.422  12.423  0.1123  0.0624 -2.7562
   67ccc     H9 1858   6.890   1.774  12.345 -0.3575 -1.8600 -0.2682
   67ccc    H10 1859   6.937   1.769  12.518  0.3564  1.0004  0.1289
   67ccc     O5 1860   6.857   1.955  12.450  0.6010  0.4155  0.0801
   67ccc    H11 1861   6.948   1.988  12.460  0.0164  2.0075  0.4689
   67ccc     O6 1862   6.639   1.787  12.378 -0.6414 -0.0086  0.4534
   68ccc     C1 1863   6.634   2.820  11.900 -0.4748  0.3801 -0.7566
   68ccc     C2 1864   6.528   2.930  11.908  0.0211  0.1855  0.6861
   68ccc     H1 1865   6.692   2.831  11.808  0.4816  2.6453  0.0352
   68ccc     H2 1866   6.582   3.023  11.884  3.0573 -1.6509 -0.1594
   68ccc     C3 1867   6.417   2.901  11.801 -1.1555 -0.0114 -0.5396
   68ccc     C4 1868   6.365   2.759  11.811  0.7899  0.0669 -0.1264
   68ccc     C5 1869   6.483   2.658  11.811  0.7260 -0.1203  0.0653
   68ccc     H3 1870   6.308   2.746  11.904 -0.9647  0.2286 -1.1367
   68ccc     H4 1871   6.464   2.907  11.702  0.6845  2.0120  0.3597
   68ccc     H5 1872   6.535   2.657  11.714  1.4850  0.4848  0.4506
   68ccc     O1 1873   6.453   2.520  11.853 -0.7481  0.3685  0.1663
   68ccc     O2 1874   6.290   2.738  11.691  0.5337  0.1220  0.3483
   68ccc     O3 1875   6.320   3.004  11.810 -0.1040 -0.0701  0.1009
   68ccc     O4 1876   6.468   2.938  12.036 -0.0115 -0.6392 -0.5153
   68ccc     C6 1877   6.737   2.842  12.015  0.4643 -0.5298 -0.1059
   68ccc     H6 1878   6.303   3.022  11.904 -0.9235  2.8390 -0.4918
   68ccc     H7 1879   6.490   3.016  12.090 -1.0174 -0.6939 -0.0001
   68ccc     H8 1880   6.210   2.793  11.694 -0.4185 -1.0756 -1.2627
   68ccc     H9 1881   6.699   2.833  12.118  1.7695 -0.6004  0.3926
   68ccc    H10 1882   6.767   2.947  12.020 -1.9368  0.1843  1.4082
   68ccc     O5 1883   6.849   2.750  11.993 -0.0699 -0.0036  0.7331
   68ccc    H11 1884   6.923   2.801  11.956  0.1350  1.3758  2.9034
   68ccc     O6 1885   6.576   2.689  11.913 -0.2971  0.4508  0.1200
   69ccc     C1 1886   6.538   3.328  11.357  0.3679 -0.1695 -0.0978
   69ccc     C2 1887   6.515   3.344  11.505  0.6787  0.2310 -0.6456
   69ccc     H1 1888   6.473   3.400  11.304  0.1795  1.1632  1.8318
   69ccc     H2 1889   6.504   3.452  11.518 -0.9847 -0.0405  0.6750
   69ccc     C3 1890   6.390   3.272  11.558  0.1495  0.1461 -0.2431
   69ccc     C4 1891   6.394   3.124  11.510  0.2762  0.1996  0.3323
   69ccc     C5 1892   6.402   3.124  11.354 -0.3410 -0.4940  0.0891
   69ccc     H3 1893   6.488   3.082  11.550 -0.0701 -0.0937  0.8568
   69ccc     H4 1894   6.305   3.299  11.495 -0.4925 -0.8076  0.1877
   69ccc     H5 1895   6.320   3.180  11.310 -1.3447 -1.7022  0.3644
   69ccc     O1 1896   6.415   2.985  11.303  0.2431 -0.3293  0.2080
   69ccc     O2 1897   6.280   3.049  11.542  0.0945 -0.0363  0.1946
   69ccc     O3 1898   6.359   3.287  11.700  0.1542  0.7202 -0.1442
   69ccc     O4 1899   6.634   3.304  11.587  0.5973  0.5207 -0.5466
   69ccc     C6 1900   6.684   3.370  11.321  0.1645 -0.1230  0.2777
   69ccc     H6 1901   6.315   3.372  11.715 -2.0192 -0.2583 -0.5299
   69ccc     H7 1902   6.679   3.223  11.557  0.7627  0.1835  0.5866
   69ccc     H8 1903   6.283   3.035  11.638 -0.3919  0.6641  0.3144
   69ccc     H9 1904   6.769   3.307  11.350 -0.2144 -0.5372  0.5006
   69ccc    H10 1905   6.709   3.467  11.364  2.5059 -0.7817  0.5551
   69ccc     O5 1906   6.684   3.385  11.181  0.5045 -0.9454 -0.2331
   69ccc    H11 1907   6.773   3.418  11.163  0.9384 -1.5883  0.6408
   69ccc     O6 1908   6.524   3.192  11.313  0.7413  0.1752 -0.0305
   70ccc     C1 1909   6.169   2.840  10.433  0.2800 -0.1209 -0.4693
   70ccc     C2 1910   6.319   2.861  10.442 -0.0756  0.1053 -0.3618
   70ccc     H1 1911   6.131   2.940  10.409  0.5899  0.5812  1.6863
   70ccc     H2 1912   6.353   2.917  10.354  1.1980 -0.0760  0.0034
   70ccc     C3 1913   6.346   2.961  10.559  0.2697  0.6732  1.1142
   70ccc     C4 1914   6.291   2.902  10.688 -0.6022 -0.1386  0.5080
   70ccc     C5 1915   6.144   2.868  10.676  0.2571  0.4193  0.0151
   70ccc     H3 1916   6.350   2.811  10.705 -0.3946  0.1413  1.3382
   70ccc     H4 1917   6.280   3.045  10.535 -2.1111 -1.2736  0.3920
   70ccc     H5 1918   6.077   2.954  10.686 -1.6414 -1.2025  2.5452
   70ccc     O1 1919   6.104   2.794  10.794 -0.2961 -0.0872  0.5608
   70ccc     O2 1920   6.310   3.002  10.788  0.3288 -0.2754  0.1211
   70ccc     O3 1921   6.482   3.006  10.585  0.4377  0.0986  0.3986
   70ccc     O4 1922   6.381   2.734  10.460 -0.6201  0.4659 -0.6658
   70ccc     C6 1923   6.138   2.746  10.310 -0.0766 -0.2042  0.1038
   70ccc     H6 1924   6.497   3.096  10.552  0.2655  0.1665  0.5069
   70ccc     H7 1925   6.478   2.744  10.460 -0.6832  1.2527 -1.8819
   70ccc     H8 1926   6.398   3.034  10.761  0.1816 -2.2603 -3.3230
   70ccc     H9 1927   6.132   2.643  10.346  0.0644 -0.2002  0.1401
   70ccc    H10 1928   6.204   2.756  10.223  0.6652  0.4445  0.7204
   70ccc     O5 1929   6.016   2.785  10.268  0.4212  0.2688  0.2226
   70ccc    H11 1930   5.992   2.723  10.196 -0.3808  0.2915  0.4622
   70ccc     O6 1931   6.115   2.789  10.563  0.3839 -0.4847  0.4455
   71ccc     C1 1932   4.622   0.310  11.796  0.2812  0.0578 -0.5404
   71ccc     C2 1933   4.685   0.284  11.662  0.0509  0.5346 -0.2301
   71ccc     H1 1934   4.544   0.235  11.815  0.7980 -0.8838 -1.9660
   71ccc     H2 1935   4.728   0.183  11.664 -1.9141 -0.3504  1.4863
   71ccc     C3 1936   4.568   0.278  11.561  0.5671 -0.0828 -0.2725
   71ccc     C4 1937   4.479   0.404  11.556  0.6171 -0.9716  0.0197
   71ccc     C5 1938   4.439   0.445  11.701 -0.0341  0.0124  0.0941
   71ccc     H3 1939   4.539   0.489  11.521  1.8580 -1.6426  0.4477
   71ccc     H4 1940   4.508   0.192  11.593  2.9031 -1.2583  1.1946
   71ccc     H5 1941   4.358   0.384  11.745 -1.2752  0.5379 -1.3700
   71ccc     O1 1942   4.384   0.576  11.698  0.2652  0.3959  0.8365
   71ccc     O2 1943   4.366   0.386  11.470 -0.6007  0.3006  0.5638
   71ccc     O3 1944   4.627   0.249  11.430 -0.7421 -0.1923 -0.1647
   71ccc     O4 1945   4.778   0.386  11.629  0.1512 -0.0280  0.0110
   71ccc     C6 1946   4.721   0.299  11.919  0.7312 -0.0889  1.3840
   71ccc     H6 1947   4.564   0.217  11.363  0.4418  0.4096 -1.6153
   71ccc     H7 1948   4.799   0.379  11.534 -0.0671  0.2137 -0.0571
   71ccc     H8 1949   4.408   0.363  11.386 -0.3309  0.3224  0.6907
   71ccc     H9 1950   4.757   0.196  11.932  1.0991 -0.0896  0.4407
   71ccc    H10 1951   4.673   0.328  12.013  0.0551  1.1472  0.6896
   71ccc     O5 1952   4.834   0.387  11.898 -0.4893 -0.2236  0.1172
   71ccc    H11 1953   4.821   0.405  11.803  0.9787 -0.1639 -0.1099
   71ccc     O6 1954   4.557   0.438  11.789  0.2959  0.0936  0.3801
   72ccc     C1 1955   4.665   0.942  12.007  0.3292  0.2871 -0.6976
   72ccc     C2 1956   4.615   0.868  12.138 -0.0425  0.2954  0.1532
   72ccc     H1 1957   4.723   1.029  12.041 -0.6805  0.3159  1.0935
   72ccc     H2 1958   4.701   0.866  12.205  0.3113 -2.1256 -0.2807
   72ccc     C3 1959   4.508   0.947  12.215  0.6277 -0.4825 -0.1305
   72ccc     C4 1960   4.398   0.989  12.114  0.5300  1.1226  0.1533
   72ccc     C5 1961   4.455   1.068  12.003 -0.1067 -0.4928  0.0018
   72ccc     H3 1962   4.364   0.899  12.062  1.4584 -1.1101  3.0952
   72ccc     H4 1963   4.560   1.035  12.255  2.4397 -1.0093 -1.2250
   72ccc     H5 1964   4.489   1.159  12.053 -2.0397  0.2486  0.0221
   72ccc     O1 1965   4.352   1.091  11.899  0.1039 -0.1290 -0.2282
   72ccc     O2 1966   4.296   1.058  12.191 -0.3589  0.2598 -0.2476
   72ccc     O3 1967   4.433   0.867  12.322 -0.3619 -0.3281  0.2449
   72ccc     O4 1968   4.570   0.738  12.097  0.1881 -0.0911  0.3090
   72ccc     C6 1969   4.744   0.854  11.914  0.9020 -0.3088 -0.2361
   72ccc     H6 1970   4.341   0.900  12.329 -0.2931  0.3260 -1.3717
   72ccc     H7 1971   4.640   0.672  12.103 -1.3156 -1.7477  0.5693
   72ccc     H8 1972   4.209   1.044  12.151 -0.5424 -0.1145  0.2644
   72ccc     H9 1973   4.674   0.783  11.870 -1.9461  1.9148  0.3799
   72ccc    H10 1974   4.818   0.799  11.974  1.3002  0.3262 -0.1360
   72ccc     O5 1975   4.815   0.926  11.819  0.4817 -0.2291 -0.0879
   72ccc    H11 1976   4.883   0.860  11.799 -0.7855 -1.3431 -0.9207
   72ccc     O6 1977   4.556   0.997  11.934 -0.1143 -0.4110 -0.8158
   73ccc     C1 1978   4.827   2.588  11.275  0.7734  0.3605 -0.9531
   73ccc     C2 1979   4.875   2.730  11.248  0.0876  0.0350 -0.7081
   73ccc     H1 1980   4.860   2.554  11.374 -2.7121  1.2804  0.6507
   73ccc     H2 1981   4.846   2.796  11.330 -0.4041  0.2689 -1.0688
   73ccc     C3 1982   5.022   2.730  11.238 -0.5593  0.1683  0.6652
   73ccc     C4 1983   5.071   2.635  11.128 -0.1648  1.2047  0.0409
   73ccc     C5 1984   5.020   2.489  11.155 -0.3035 -0.4079  0.1326
   73ccc     H3 1985   5.028   2.661  11.030 -1.0361 -1.8737 -0.5227
   73ccc     H4 1986   5.067   2.689  11.330  1.5912 -1.9045 -1.1800
   73ccc     H5 1987   5.065   2.436  11.240  1.1369  3.0600  1.7375
   73ccc     O1 1988   5.040   2.410  11.038  0.2695 -0.0811  0.0979
   73ccc     O2 1989   5.215   2.633  11.107  0.4930  0.3243  0.0382
   73ccc     O3 1990   5.073   2.861  11.228 -0.2835 -0.0122  0.2133
   73ccc     O4 1991   4.818   2.782  11.128 -0.0437  0.7901 -0.6877
   73ccc     C6 1992   4.676   2.570  11.272 -0.4694  0.0393  0.2322
   73ccc     H6 1993   5.045   2.910  11.307 -0.0655  2.3030 -1.0660
   73ccc     H7 1994   4.813   2.877  11.147 -0.8840  0.7331 -0.5681
   73ccc     H8 1995   5.232   2.728  11.098 -0.1513  0.5665  1.2713
   73ccc     H9 1996   4.641   2.639  11.350  1.2234 -1.3000  2.2795
   73ccc    H10 1997   4.647   2.468  11.299 -0.5112  0.0063  0.0605
   73ccc     O5 1998   4.638   2.599  11.135 -0.2474  0.9522  0.1797
   73ccc    H11 1999   4.688   2.680  11.118 -0.4386  0.7746 -1.4069
   73ccc     O6 2000   4.872   2.502  11.171 -0.0796  0.8684 -0.2009
   74ccc     C1 2001   6.015   2.157  10.878 -0.2281 -0.0186 -0.1281
   74ccc     C2 2002   6.022   2.303  10.829 -0.2072 -0.5551  0.3183
   74ccc     H1 2003   6.067   2.097  10.803 -0.2496  2.0939 -1.9119
   74ccc     H2 2004   6.126   2.334  10.809 -0.4383 -0.0709 -0.1473
   74ccc     C3 2005   5.936   2.313  10.696  0.3726  0.4971 -0.1741
   74ccc     C4 2006   5.791   2.269  10.715 -0.4136  0.0085  0.2157
   74ccc     C5 2007   5.770   2.130  10.788  0.3975 -0.9355  0.4113
   74ccc     H3 2008   5.742   2.341  10.782 -1.7247 -0.7312  0.0961
   74ccc     H4 2009   5.972   2.231  10.633 -2.2339 -0.8198 -0.0895
   74ccc     H5 2010   5.799   2.056  10.712 -1.5047  0.3916 -1.7194
   74ccc     O1 2011   5.639   2.107  10.845 -0.3924 -0.1384 -0.4641
   74ccc     O2 2012   5.726   2.282  10.584 -0.2078  0.6901  0.0860
   74ccc     O3 2013   5.934   2.438  10.624  0.1082  0.2410 -0.3807
   74ccc     O4 2014   5.968   2.382  10.931  0.9275 -0.3918  0.4806
   74ccc     C6 2015   6.093   2.118  11.010  0.3466 -0.5019  0.1397
   74ccc     H6 2016   6.029   2.456  10.617 -0.0358  1.9987  1.4223
   74ccc     H7 2017   5.992   2.337  11.014 -1.9531  0.8039  2.0959
   74ccc     H8 2018   5.791   2.326  10.525 -0.6198  1.4404  0.1868
   74ccc     H9 2019   6.198   2.114  10.978  0.5615 -0.9378  0.8841
   74ccc    H10 2020   6.064   2.022  11.054 -0.5490 -1.0037 -1.4403
   74ccc     O5 2021   6.071   2.222  11.095  0.0413  0.0373  0.4643
   74ccc    H11 2022   6.154   2.238  11.143  0.9025 -0.4367 -0.8196
   74ccc     O6 2023   5.868   2.120  10.897 -0.7234 -0.3256  0.1216
   75ccc     C1 2024   4.019   3.030   9.732 -0.0695 -0.0136 -0.1009
   75ccc     C2 2025   4.118   3.142   9.779 -0.1959  0.5455 -0.4693
   75ccc     H1 2026   3.949   3.067   9.656  0.2233 -2.9217 -1.9126
   75ccc     H2 2027   4.163   3.201   9.698 -3.3207  1.7554 -1.4857
   75ccc     C3 2028   4.041   3.255   9.854 -0.4157  0.2563 -0.2563
   75ccc     C4 2029   3.954   3.186   9.966  0.0695  0.3653 -0.6024
   75ccc     C5 2030   3.862   3.074   9.899  0.2763 -0.4826 -0.0075
   75ccc     H3 2031   4.018   3.133  10.038 -1.2611  0.1986  0.5013
   75ccc     H4 2032   3.974   3.301   9.780 -0.5004 -0.4085 -0.6013
   75ccc     H5 2033   3.795   3.118   9.825 -0.9900 -2.5850 -0.1870
   75ccc     O1 2034   3.770   3.011   9.991 -0.6392  0.1038  0.2137
   75ccc     O2 2035   3.877   3.286  10.038  0.1412 -0.3168 -0.3850
   75ccc     O3 2036   4.151   3.347   9.899  0.5163 -0.3381 -0.0122
   75ccc     O4 2037   4.222   3.099   9.861 -0.2025 -0.1805 -0.2939
   75ccc     C6 2038   4.103   2.924   9.659  0.0823  0.0093 -0.2953
   75ccc     H6 2039   4.111   3.435   9.886 -1.6275 -1.6924 -4.5840
   75ccc     H7 2040   4.255   3.188   9.881 -0.2140 -0.4444  0.9589
   75ccc     H8 2041   3.939   3.355  10.068 -1.8531  1.3511  0.1496
   75ccc     H9 2042   4.174   2.876   9.728  0.4950 -0.1864 -0.8413
   75ccc    H10 2043   4.162   2.957   9.572 -0.8954 -2.3305 -1.9487
   75ccc     O5 2044   4.019   2.813   9.622  0.5103 -0.5000 -0.1304
   75ccc    H11 2045   4.071   2.753   9.565  0.4105  0.1005 -0.8767
   75ccc     O6 2046   3.953   2.975   9.839  0.2237  0.0209 -0.1056
   76ccc     C1 2047   3.116   3.272  10.489  0.4517 -0.6812 -0.3293
   76ccc     C2 2048   3.103   3.376  10.378  0.1600 -0.1446  0.0482
   76ccc     H1 2049   3.153   3.324  10.578  1.3788 -0.9318 -0.5494
   76ccc     H2 2050   3.036   3.457  10.407  0.8064  0.7855 -0.9650
   76ccc     C3 2051   3.233   3.442  10.331 -0.0419 -0.2185  0.4672
   76ccc     C4 2052   3.343   3.336  10.316 -0.1058  0.0682  0.0377
   76ccc     C5 2053   3.352   3.234  10.438  0.1587  0.5289 -0.7305
   76ccc     H3 2054   3.313   3.272  10.231 -0.1777  0.4747 -0.2458
   76ccc     H4 2055   3.266   3.507  10.413 -3.7471  0.5921  1.4987
   76ccc     H5 2056   3.380   3.284  10.531  0.9309 -1.9765  0.4655
   76ccc     O1 2057   3.447   3.127  10.401 -0.0136 -0.0159  0.0287
   76ccc     O2 2058   3.468   3.405  10.303 -0.2600 -0.4389 -0.3780
   76ccc     O3 2059   3.212   3.524  10.213  0.3959  0.0769  0.0745
   76ccc     O4 2060   3.043   3.305  10.277  0.3375  0.3646  0.5660
   76ccc     C6 2061   2.992   3.193  10.543  0.6327  0.3665  0.7180
   76ccc     H6 2062   3.291   3.578  10.197 -1.0635  2.6908  1.0086
   76ccc     H7 2063   3.013   3.228  10.329  1.0694 -1.2233 -1.2029
   76ccc     H8 2064   3.524   3.367  10.233 -0.6228  0.0178 -0.9269
   76ccc     H9 2065   2.928   3.252  10.610 -1.5195 -2.6639  1.5117
   76ccc    H10 2066   3.037   3.117  10.606 -0.6710 -1.0350  0.0195
   76ccc     O5 2067   2.914   3.122  10.441 -0.5354 -0.1014  0.0682
   76ccc    H11 2068   2.866   3.053  10.489 -0.1828  0.6981  1.6633
   76ccc     O6 2069   3.215   3.172  10.451 -0.2360  0.0948  0.0610
   77ccc     C1 2070   3.731   3.123  11.073  0.6046 -0.1567 -0.5928
   77ccc     C2 2071   3.749   3.243  11.171 -0.3581  0.4400 -0.4275
   77ccc     H1 2072   3.720   3.030  11.130 -0.1916 -0.0357 -0.5310
   77ccc     H2 2073   3.673   3.238  11.250  0.5892  1.0779  0.5633
   77ccc     C3 2074   3.890   3.234  11.240 -0.0241 -0.1705  0.1663
   77ccc     C4 2075   4.008   3.198  11.147 -0.0407  0.4238 -0.0806
   77ccc     C5 2076   3.966   3.084  11.051 -0.8516 -1.0416  0.1158
   77ccc     H3 2077   4.022   3.287  11.085 -2.7293  2.1052  1.5448
   77ccc     H4 2078   3.883   3.158  11.319 -0.7088 -0.2960 -0.0056
   77ccc     H5 2079   3.959   2.991  11.108  1.9706 -1.3832  0.0520
   77ccc     O1 2080   4.072   3.088  10.960 -0.5294  0.3329 -0.2270
   77ccc     O2 2081   4.124   3.148  11.218 -0.0303  0.0132 -0.5053
   77ccc     O3 2082   3.919   3.366  11.303  0.1704 -0.0043 -0.1242
   77ccc     O4 2083   3.740   3.361  11.095  0.0232  0.5670  0.1898
   77ccc     C6 2084   3.601   3.144  11.009 -0.0472  0.1850  0.1650
   77ccc     H6 2085   3.876   3.347  11.388  0.1839  0.3530 -0.0357
   77ccc     H7 2086   3.734   3.434  11.160 -0.5556  0.4018  0.3294
   77ccc     H8 2087   4.200   3.176  11.164 -0.0243  0.4900 -0.2513
   77ccc     H9 2088   3.614   3.196  10.913  1.4667 -0.3379  0.0599
   77ccc    H10 2089   3.532   3.205  11.068 -0.4867 -0.5908  0.4724
   77ccc     O5 2090   3.525   3.026  10.971 -0.0955  0.2546 -0.1231
   77ccc    H11 2091   3.454   3.055  10.911 -0.0111 -0.0522 -0.3773
   77ccc     O6 2092   3.845   3.112  10.981  0.2032 -0.2476  0.6397
   78ccc     C1 2093   4.999   3.159  10.864  0.3102 -0.3179  0.2143
   78ccc     C2 2094   4.983   3.104  11.005  0.4492 -0.3481  0.1712
   78ccc     H1 2095   4.986   3.268  10.869 -2.1223 -0.4646 -1.0313
   78ccc     H2 2096   5.066   3.137  11.068  0.2468  2.8400 -1.0664
   78ccc     C3 2097   4.842   3.129  11.065  0.2492 -0.3438 -0.1923
   78ccc     C4 2098   4.739   3.071  10.960 -0.8931  0.1608 -0.3065
   78ccc     C5 2099   4.759   3.130  10.815  0.1042 -0.3784  1.0029
   78ccc     H3 2100   4.757   2.963  10.949  1.2037  0.5992 -1.5438
   78ccc     H4 2101   4.832   3.237  11.078 -1.4694 -0.7941  3.2327
   78ccc     H5 2102   4.732   3.235  10.829 -0.2653 -0.5458  1.5868
   78ccc     O1 2103   4.672   3.061  10.716  0.1193 -0.4945 -0.4470
   78ccc     O2 2104   4.603   3.088  11.008  0.2092 -0.7200  0.2138
   78ccc     O3 2105   4.829   3.069  11.197 -0.3062 -0.5600  0.0854
   78ccc     O4 2106   5.001   2.961  10.992  0.0630  0.1639  0.4566
   78ccc     C6 2107   5.125   3.140  10.781  0.1664 -0.2478  0.2763
   78ccc     H6 2108   4.790   3.134  11.257  3.7381  1.4820  0.8465
   78ccc     H7 2109   5.026   2.924  11.078 -0.5868  0.5081  0.8026
   78ccc     H8 2110   4.588   3.019  11.074 -0.2904 -0.8545 -0.0401
   78ccc     H9 2111   5.128   3.038  10.741  0.3771 -0.0549 -0.1983
   78ccc    H10 2112   5.201   3.162  10.857  0.4057 -0.0419 -0.0225
   78ccc     O5 2113   5.122   3.238  10.676 -0.2343 -0.0554  0.4073
   78ccc    H11 2114   5.211   3.276  10.664  0.1377  0.0599  3.0095
   78ccc     O6 2115   4.895   3.115  10.768 -0.3785  0.0140 -0.0661
   79ccc     C1 2116   8.303   2.044   8.469 -0.3437 -0.1083  0.1053
   79ccc     C2 2117   8.228   1.942   8.565  1.2785  0.4743  0.3877
   79ccc     H1 2118   8.410   2.039   8.493 -0.2408  0.1662 -0.2869
   79ccc     H2 2119   8.276   1.844   8.553  2.1438  0.9096  0.2341
   79ccc     C3 2120   8.233   1.983   8.713  0.2244 -0.1461  0.4395
   79ccc     C4 2121   8.205   2.131   8.739  0.2003 -0.2461 -0.1915
   79ccc     C5 2122   8.274   2.219   8.631 -0.8242  0.3621  0.1132
   79ccc     H3 2123   8.099   2.156   8.732  0.3535  0.1383 -1.5772
   79ccc     H4 2124   8.335   1.965   8.750 -0.0613 -0.1927  1.2197
   79ccc     H5 2125   8.383   2.213   8.642 -0.7280 -1.1448 -1.3051
   79ccc     O1 2126   8.238   2.359   8.656 -0.2428  0.0254  0.4110
   79ccc     O2 2127   8.250   2.166   8.876 -0.0694  0.6645  0.2092
   79ccc     O3 2128   8.138   1.916   8.792 -0.2528 -0.1851 -0.0352
   79ccc     O4 2129   8.091   1.935   8.519  0.2998  0.0369 -0.0504
   79ccc     C6 2130   8.284   2.011   8.318 -0.4754 -0.5363 -0.6486
   79ccc     H6 2131   8.102   1.987   8.848 -0.5146  0.8654 -1.4643
   79ccc     H7 2132   8.096   1.988   8.437 -0.4447 -0.2897 -0.3170
   79ccc     H8 2133   8.192   2.238   8.908 -1.5819  0.1194 -1.1237
   79ccc     H9 2134   8.301   1.904   8.304  0.2339 -0.6561  0.9718
   79ccc    H10 2135   8.357   2.069   8.260 -0.7732 -1.4309 -1.9649
   79ccc     O5 2136   8.153   2.046   8.289 -0.3681  0.8327 -0.1988
   79ccc    H11 2137   8.150   2.050   8.192  0.0514  2.3293 -0.1670
   79ccc     O6 2138   8.250   2.174   8.497  0.5475 -0.0248  0.1959
   80ccc     C1 2139   7.544   2.910   8.236  0.2809  1.0034  0.1102
   80ccc     C2 2140   7.551   3.021   8.339  0.0331  0.4351  1.1603
   80ccc     H1 2141   7.499   2.817   8.274  0.7087  1.8030  2.7635
   80ccc     H2 2142   7.445   3.027   8.366  0.0969  1.1123  1.2807
   80ccc     C3 2143   7.628   2.964   8.457 -0.1345 -0.3952 -0.5840
   80ccc     C4 2144   7.772   2.934   8.414  0.6305  0.2513 -0.1559
   80ccc     C5 2145   7.775   2.842   8.294  0.3450 -0.7078 -0.0171
   80ccc     H3 2146   7.815   3.030   8.382 -0.0613 -0.0156 -2.0234
   80ccc     H4 2147   7.567   2.879   8.489 -1.5559  0.7109 -0.2429
   80ccc     H5 2148   7.753   2.738   8.318 -0.1564 -0.3341  1.2122
   80ccc     O1 2149   7.910   2.852   8.240  0.6321  0.0064 -0.5836
   80ccc     O2 2150   7.857   2.882   8.513 -0.5100 -0.2313 -0.2752
   80ccc     O3 2151   7.631   3.053   8.571  0.0201 -0.5300  0.2241
   80ccc     O4 2152   7.601   3.144   8.283  0.5207 -0.0600 -0.7451
   80ccc     C6 2153   7.473   2.944   8.102  0.1207 -0.4830  0.1066
   80ccc     H6 2154   7.670   3.134   8.536  1.2149 -1.5305 -0.8584
   80ccc     H7 2155   7.568   3.135   8.192  0.3941 -1.1920 -0.5979
   80ccc     H8 2156   7.846   2.944   8.586 -2.9469 -0.0859 -0.6801
   80ccc     H9 2157   7.367   2.929   8.123  0.6815 -3.8400  1.2485
   80ccc    H10 2158   7.500   2.860   8.036  1.1258  0.4139 -0.6693
   80ccc     O5 2159   7.506   3.078   8.055  0.3136  0.1559  0.1652
   80ccc    H11 2160   7.437   3.084   7.987  0.9804  0.2197 -0.5203
   80ccc     O6 2161   7.681   2.884   8.202  0.4503 -0.3888 -0.1947
   81ccc     C1 2162   6.517   2.791   8.533  0.1678  0.7919 -0.0042
   81ccc     C2 2163   6.419   2.750   8.643 -0.1844 -0.2043 -0.3079
   81ccc     H1 2164   6.460   2.801   8.440 -1.8282 -0.0847  1.0547
   81ccc     H2 2165   6.345   2.830   8.657 -0.1221 -0.4777  1.9673
   81ccc     C3 2166   6.328   2.629   8.606 -0.3520 -0.0535 -0.2387
   81ccc     C4 2167   6.420   2.507   8.571 -0.4273  0.1801 -0.2465
   81ccc     C5 2168   6.527   2.553   8.470  0.3126  0.1617  0.2914
   81ccc     H3 2169   6.479   2.501   8.663 -0.3760 -0.5711 -0.3215
   81ccc     H4 2170   6.262   2.670   8.529 -2.2338 -0.2079  1.2154
   81ccc     H5 2171   6.477   2.573   8.374  0.2260  3.1351  0.8472
   81ccc     O1 2172   6.625   2.453   8.465  0.2482  0.1256  0.1069
   81ccc     O2 2173   6.356   2.380   8.539  0.3959 -0.3847 -0.4390
   81ccc     O3 2174   6.247   2.599   8.723 -0.0982  0.4502 -0.1138
   81ccc     O4 2175   6.488   2.729   8.765 -0.5563 -0.0950  0.0173
   81ccc     C6 2176   6.602   2.916   8.553 -0.2821  0.0684 -0.2698
   81ccc     H6 2177   6.173   2.553   8.680 -0.1266  1.4357 -1.1650
   81ccc     H7 2178   6.412   2.717   8.825 -0.0986  2.1240  1.1377
   81ccc     H8 2179   6.284   2.354   8.599  0.6756 -1.3256 -0.4954
   81ccc     H9 2180   6.530   3.000   8.555  1.2463  1.4230 -0.3225
   81ccc    H10 2181   6.665   2.942   8.467  0.1218  0.3839  0.1171
   81ccc     O5 2182   6.664   2.899   8.674  0.1903  0.2676  0.1355
   81ccc    H11 2183   6.611   2.828   8.715  0.0484 -0.3826 -1.1206
   81ccc     O6 2184   6.603   2.672   8.509 -0.2999  0.1248  0.1216
   82ccc     C1 2185   7.485   2.474   8.879 -0.2957 -0.0343 -0.2986
   82ccc     C2 2186   7.533   2.623   8.863 -0.2641  0.3000  0.0672
   82ccc     H1 2187   7.569   2.405   8.898 -0.1171 -0.0384 -1.0459
   82ccc     H2 2188   7.592   2.641   8.953  0.7237  1.0808 -0.7112
   82ccc     C3 2189   7.623   2.627   8.740 -0.4883  0.2825  0.1324
   82ccc     C4 2190   7.544   2.584   8.613 -0.0895 -1.0198  0.3515
   82ccc     C5 2191   7.494   2.440   8.632  0.5278  0.3958  0.1774
   82ccc     H3 2192   7.455   2.647   8.612 -0.5226 -1.4357  3.0799
   82ccc     H4 2193   7.702   2.552   8.757 -0.1430  0.2492 -1.4500
   82ccc     H5 2194   7.567   2.359   8.636 -0.8980 -1.0385 -1.5050
   82ccc     O1 2195   7.406   2.397   8.524 -0.6156  0.4415  0.6730
   82ccc     O2 2196   7.631   2.609   8.496 -0.0213  0.2527  0.4003
   82ccc     O3 2197   7.685   2.752   8.710  0.2717 -0.0908 -1.2106
   82ccc     O4 2198   7.418   2.709   8.854 -0.6085 -0.1104  0.4514
   82ccc     C6 2199   7.378   2.435   8.996 -0.2004  0.0304  0.1022
   82ccc     H6 2200   7.719   2.732   8.621  0.0702  1.5088 -1.6747
   82ccc     H7 2201   7.448   2.797   8.828 -1.0088  0.1895  0.9785
   82ccc     H8 2202   7.582   2.592   8.414  0.5626  2.4236 -0.4766
   82ccc     H9 2203   7.278   2.420   8.952 -0.8571  0.7263  1.3143
   82ccc    H10 2204   7.360   2.521   9.061  2.2135  1.1607 -0.6302
   82ccc     O5 2205   7.424   2.325   9.063 -0.1729  0.5255 -0.1711
   82ccc    H11 2206   7.357   2.311   9.132  0.7432  3.6341  1.5493
   82ccc     O6 2207   7.425   2.432   8.759  0.9234 -0.2927  0.3430
   83ccc     C1 2208   7.482   3.173   9.106 -0.1392 -0.0891 -0.1051
   83ccc     C2 2209   7.445   3.078   8.989  0.3622  0.0309  0.5462
   83ccc     H1 2210   7.513   3.271   9.067  1.1954 -1.4893 -2.8044
   83ccc     H2 2211   7.372   3.140   8.935  2.8817  0.5947 -2.4622
   83ccc     C3 2212   7.558   3.028   8.891  0.3069 -0.2065  0.2973
   83ccc     C4 2213   7.658   2.959   8.990  0.5284  0.4733  0.5252
   83ccc     C5 2214   7.708   3.059   9.099 -0.6352 -0.2379  0.6415
   83ccc     H3 2215   7.611   2.883   9.054  0.2091 -0.2316 -0.5154
   83ccc     H4 2216   7.617   3.110   8.849 -1.7338  0.2322 -1.9133
   83ccc     H5 2217   7.767   3.139   9.053 -0.3200  0.2161  1.8059
   83ccc     O1 2218   7.782   2.981   9.190  0.3082  0.0351 -0.1949
   83ccc     O2 2219   7.762   2.905   8.911  0.2565 -0.3366  0.2798
   83ccc     O3 2220   7.513   2.942   8.785  0.3209  0.5105 -0.0003
   83ccc     O4 2221   7.379   2.964   9.039  0.5249 -0.5988  0.0168
   83ccc     C6 2222   7.370   3.189   9.208  0.0856 -0.2664  0.2365
   83ccc     H6 2223   7.565   2.964   8.705  2.8269 -2.1719  0.6993
   83ccc     H7 2224   7.313   2.925   8.979  0.8975 -1.4099  0.1209
   83ccc     H8 2225   7.711   2.850   8.849 -1.1525  2.3410 -1.1497
   83ccc     H9 2226   7.372   3.104   9.277  0.2039  1.1591  2.0793
   83ccc    H10 2227   7.269   3.196   9.165 -0.8101 -1.2882  2.0783
   83ccc     O5 2228   7.396   3.305   9.286 -0.6152 -0.7498 -0.1154
   83ccc    H11 2229   7.432   3.266   9.367 -1.6487  0.6538  1.0736
   83ccc     O6 2230   7.597   3.115   9.176 -0.1750 -0.0780  0.0542
   84ccc     C1 2231   7.839   2.069   9.459 -0.5316  0.0464 -0.4311
   84ccc     C2 2232   7.775   2.071   9.320 -0.5657  0.3234 -0.1395
   84ccc     H1 2233   7.770   2.038   9.539  0.9768 -1.5497  0.3085
   84ccc     H2 2234   7.720   1.977   9.305  1.6109 -1.4554  2.1481
   84ccc     C3 2235   7.662   2.174   9.307  0.3691  0.0789  0.1678
   84ccc     C4 2236   7.710   2.305   9.360  0.3874  0.6960 -0.1708
   84ccc     C5 2237   7.774   2.306   9.502  0.7520 -0.5092 -0.1174
   84ccc     H3 2238   7.791   2.342   9.295  0.4079  0.5880 -0.2070
   84ccc     H4 2239   7.585   2.139   9.377  1.6611 -0.8140  1.2025
   84ccc     H5 2240   7.707   2.273   9.583  0.9721 -0.2833  0.1599
   84ccc     O1 2241   7.829   2.439   9.530  0.5709  0.1186 -0.1156
   84ccc     O2 2242   7.609   2.406   9.360 -0.2863  0.5775  0.0223
   84ccc     O3 2243   7.618   2.167   9.170  0.6357  0.0640  0.2186
   84ccc     O4 2244   7.874   2.091   9.211 -0.5908 -0.3374 -0.4780
   84ccc     C6 2245   7.961   1.967   9.479  0.2354  0.2411  0.0514
   84ccc     H6 2246   7.547   2.231   9.152 -0.6903 -1.3934  0.0177
   84ccc     H7 2247   7.824   2.081   9.128 -0.8987  1.7829 -0.5946
   84ccc     H8 2248   7.547   2.371   9.425  0.0087  1.2535  0.6923
   84ccc     H9 2249   7.919   1.866   9.488  1.1555 -0.0175  1.9839
   84ccc    H10 2250   8.007   1.983   9.577  1.7696 -0.8446 -0.4597
   84ccc     O5 2251   8.055   1.973   9.367  0.0585  0.3966 -0.0874
   84ccc    H11 2252   7.997   2.011   9.299  0.7734 -0.2696 -1.0803
   84ccc     O6 2253   7.883   2.209   9.497 -0.2104 -0.1528 -0.4473
   85ccc     C1 2254   7.566   3.834   9.353 -0.1199 -0.1975  0.0918
   85ccc     C2 2255   7.633   3.976   9.340  0.8159  0.2924  0.3780
   85ccc     H1 2256   7.612   3.763   9.283  0.0228  0.2134 -0.2307
   85ccc     H2 2257   7.740   3.973   9.363  1.7009  1.9286 -2.9183
   85ccc     C3 2258   7.619   4.019   9.190 -0.6684  0.3870  0.6570
   85ccc     C4 2259   7.477   3.991   9.128  0.1265 -0.4119  0.6385
   85ccc     C5 2260   7.415   3.854   9.161 -0.7381  0.2993  0.0417
   85ccc     H3 2261   7.395   4.054   9.164 -1.0817 -1.7631  0.3460
   85ccc     H4 2262   7.697   3.968   9.132 -0.3378  0.5953  0.9147
   85ccc     H5 2263   7.473   3.776   9.110  0.2074  1.4179 -0.6570
   85ccc     O1 2264   7.276   3.844   9.116 -0.0251 -0.3854  0.4246
   85ccc     O2 2265   7.495   4.006   8.983 -0.0590 -0.1478  0.4742
   85ccc     O3 2266   7.670   4.157   9.179 -0.7485  0.0014 -0.3088
   85ccc     O4 2267   7.546   4.064   9.421 -0.2000  0.3113  0.0055
   85ccc     C6 2268   7.576   3.782   9.497  0.2336  0.0251 -0.1315
   85ccc     H6 2269   7.753   4.155   9.230 -0.3717  0.2398 -0.9003
   85ccc     H7 2270   7.610   4.135   9.441  0.2936  0.3080 -1.4449
   85ccc     H8 2271   7.480   4.100   8.961 -0.0520 -0.1643  0.3984
   85ccc     H9 2272   7.502   3.836   9.557  0.4431 -0.3678  0.4886
   85ccc    H10 2273   7.674   3.805   9.540  0.4623  0.9850 -1.1101
   85ccc     O5 2274   7.552   3.642   9.491 -0.3614  0.3039 -0.6245
   85ccc    H11 2275   7.585   3.599   9.572 -0.3375 -0.2185 -0.9053
   85ccc     O6 2276   7.432   3.842   9.306  0.2375  0.3964 -0.4265
   86ccc     C1 2277   7.551   3.587   8.519 -0.0293 -0.7376 -0.0488
   86ccc     C2 2278   7.616   3.458   8.455 -0.0052  0.9094  0.1584
   86ccc     H1 2279   7.637   3.651   8.541  0.2705 -1.5821  1.4111
   86ccc     H2 2280   7.676   3.489   8.369  0.3704 -0.5049 -0.1060
   86ccc     C3 2281   7.712   3.396   8.558  0.9859  0.6111 -0.1611
   86ccc     C4 2282   7.631   3.364   8.690 -0.6658  0.1098  0.0456
   86ccc     C5 2283   7.563   3.488   8.746  0.3411 -0.6967  0.4089
   86ccc     H3 2284   7.570   3.280   8.656  1.3656 -0.5344 -2.3078
   86ccc     H4 2285   7.797   3.461   8.583  1.9480 -0.9377  0.7417
   86ccc     H5 2286   7.641   3.554   8.785  0.4556 -1.7766  2.1108
   86ccc     O1 2287   7.473   3.448   8.850  0.4641  0.4461 -0.4418
   86ccc     O2 2288   7.727   3.312   8.782 -0.2639  0.0990  0.5211
   86ccc     O3 2289   7.765   3.272   8.505 -0.2260 -0.3756  0.3644
   86ccc     O4 2290   7.515   3.360   8.416  0.3941 -0.7886  0.1672
   86ccc     C6 2291   7.441   3.645   8.435  0.2768  0.0116 -0.4436
   86ccc     H6 2292   7.849   3.286   8.458 -0.1519 -2.2071 -0.1059
   86ccc     H7 2293   7.569   3.290   8.375 -2.2146 -2.1713 -1.1713
   86ccc     H8 2294   7.763   3.238   8.730  0.3657  1.3197 -0.8529
   86ccc     H9 2295   7.353   3.579   8.435 -1.3552  2.0606 -1.3650
   86ccc    H10 2296   7.488   3.662   8.337  0.9109 -2.1495 -0.5525
   86ccc     O5 2297   7.402   3.768   8.508  0.3384  0.0479 -0.3247
   86ccc    H11 2298   7.450   3.762   8.592  1.8063  1.8885 -0.9628
   86ccc     O6 2299   7.485   3.547   8.635 -0.6151  0.2812 -0.1578
   87ccc     C1 2300   6.909   0.642   8.163 -0.1516 -0.5382 -0.0148
   87ccc     C2 2301   6.891   0.488   8.137  0.4775  0.5528 -0.0717
   87ccc     H1 2302   6.874   0.673   8.262  0.3623  1.7396 -0.4916
   87ccc     H2 2303   6.931   0.431   8.222  1.8413  1.6153  0.0305
   87ccc     C3 2304   6.745   0.439   8.115  0.5386 -0.7776  0.0944
   87ccc     C4 2305   6.664   0.534   8.012  0.0016  0.0510  0.2369
   87ccc     C5 2306   6.695   0.685   8.045 -0.1271  0.4254 -0.1149
   87ccc     H3 2307   6.705   0.516   7.912  3.2505  2.4533  0.9656
   87ccc     H4 2308   6.693   0.461   8.209 -0.1641  0.2447 -0.5049
   87ccc     H5 2309   6.647   0.714   8.139 -1.6614 -0.2778 -0.6512
   87ccc     O1 2310   6.646   0.755   7.931  0.1649  0.2160  0.3286
   87ccc     O2 2311   6.522   0.500   8.007 -0.2497  0.0930  0.4244
   87ccc     O3 2312   6.727   0.295   8.098 -0.2124  0.1163 -0.1917
   87ccc     O4 2313   6.963   0.459   8.026 -0.1658  0.1859  0.6019
   87ccc     C6 2314   7.055   0.689   8.144 -0.2693 -0.3445 -0.2305
   87ccc     H6 2315   6.641   0.274   8.139 -1.9279  3.8276 -1.4222
   87ccc     H7 2316   7.033   0.406   8.068  1.3924  2.4615  1.0639
   87ccc     H8 2317   6.486   0.550   8.082  1.7145  2.0347  0.1753
   87ccc     H9 2318   7.087   0.709   8.041 -1.2859  0.0702 -0.4820
   87ccc    H10 2319   7.119   0.610   8.183 -1.5533 -0.9115  0.8074
   87ccc     O5 2320   7.071   0.795   8.231  0.1073  0.0241 -0.7050
   87ccc    H11 2321   7.007   0.861   8.199  0.7492  1.5652  0.9793
   87ccc     O6 2322   6.836   0.710   8.059  0.3524 -0.3716  0.5772
   88ccc     C1 2323   6.907   1.378   7.789 -0.2360  0.1250 -0.2354
   88ccc     C2 2324   6.763   1.373   7.831  0.2256  0.5237  0.1287
   88ccc     H1 2325   6.938   1.483   7.779 -3.0728  1.1385  0.5512
   88ccc     H2 2326   6.738   1.423   7.926 -0.9036  1.8711 -0.8528
   88ccc     C3 2327   6.691   1.452   7.723  0.2743 -0.0110  0.6697
   88ccc     C4 2328   6.712   1.407   7.576  0.6878  0.4495 -0.1841
   88ccc     C5 2329   6.862   1.381   7.550 -0.3180  0.7576  0.2995
   88ccc     H3 2330   6.648   1.319   7.562 -1.1121  1.7519 -0.5641
   88ccc     H4 2331   6.738   1.551   7.724  2.5724 -0.9573 -1.7690
   88ccc     H5 2332   6.904   1.478   7.522  0.3972  0.1507 -0.8173
   88ccc     O1 2333   6.860   1.285   7.441  0.1690  0.4795  0.4213
   88ccc     O2 2334   6.667   1.510   7.479  0.1550 -0.5675  0.1230
   88ccc     O3 2335   6.555   1.476   7.752 -0.2636 -0.7580 -0.0846
   88ccc     O4 2336   6.717   1.241   7.830 -0.0113  0.2674  0.1570
   88ccc     C6 2337   7.001   1.317   7.889  0.0512  0.6531  0.3453
   88ccc     H6 2338   6.507   1.539   7.695 -1.4380 -1.8410 -0.3453
   88ccc     H7 2339   6.802   1.201   7.853  1.5100  2.9978 -0.3494
   88ccc     H8 2340   6.571   1.504   7.469 -0.1305  2.4193  0.1046
   88ccc     H9 2341   6.999   1.366   7.987 -1.7672 -0.1302  0.7411
   88ccc    H10 2342   7.101   1.346   7.853  0.2810  0.9303  1.1793
   88ccc     O5 2343   6.975   1.177   7.892  0.2901  0.2883  0.3088
   88ccc    H11 2344   7.060   1.142   7.924  1.6728  1.6097 -1.6332
   88ccc     O6 2345   6.925   1.316   7.658 -0.1925  0.2093  0.0936
   89ccc     C1 2346   5.283   0.898   6.500 -0.3510 -0.5538 -0.1910
   89ccc     C2 2347   5.142   0.923   6.556 -0.0708 -0.6146  1.2032
   89ccc     H1 2348   5.294   0.790   6.485  1.1947 -0.5694  0.7823
   89ccc     H2 2349   5.072   0.876   6.486  1.0494  0.2073 -0.5365
   89ccc     C3 2350   5.126   0.861   6.696  0.2379  0.6013  0.0425
   89ccc     C4 2351   5.235   0.915   6.796 -0.7390  0.3188 -0.0902
   89ccc     C5 2352   5.376   0.896   6.737  0.1445 -0.7736 -0.6061
   89ccc     H3 2353   5.227   1.024   6.790 -1.4674  0.3581  1.1519
   89ccc     H4 2354   5.128   0.753   6.678 -2.9479  0.5705 -0.8248
   89ccc     H5 2355   5.411   0.792   6.739 -0.3678 -0.9457 -0.3914
   89ccc     O1 2356   5.466   0.970   6.825 -0.2701 -0.5022  0.1162
   89ccc     O2 2357   5.215   0.861   6.921 -0.5426  0.2934 -0.5850
   89ccc     O3 2358   5.000   0.902   6.746 -0.1651  0.3417 -0.4618
   89ccc     O4 2359   5.097   1.064   6.574  0.3469  0.5486 -0.0589
   89ccc     C6 2360   5.312   0.958   6.370  0.1283 -0.4479  0.0879
   89ccc     H6 2361   4.990   0.850   6.828 -0.7874  1.2873  0.0784
   89ccc     H7 2362   5.024   1.043   6.635 -0.0393  1.3032 -0.2463
   89ccc     H8 2363   5.150   0.919   6.963 -1.9504 -2.0567  0.7315
   89ccc     H9 2364   5.286   1.064   6.366  1.8206 -0.0182  0.0072
   89ccc    H10 2365   5.252   0.901   6.298 -0.5844 -2.6545  2.2589
   89ccc     O5 2366   5.449   0.929   6.337 -0.3115 -0.5551  0.6672
   89ccc    H11 2367   5.503   1.007   6.358 -0.8730  0.3332 -0.9955
   89ccc     O6 2368   5.375   0.953   6.599 -0.5770 -0.1555 -0.6910
   90ccc     C1 2369   6.502   1.238   7.093  0.8596 -0.1507 -0.2788
   90ccc     C2 2370   6.544   1.317   7.214  0.2741 -0.2111 -0.2948
   90ccc     H1 2371   6.493   1.307   7.008  0.1766  0.6121  0.4039
   90ccc     H2 2372   6.638   1.370   7.199  0.2869 -0.1180  0.0967
   90ccc     C3 2373   6.421   1.422   7.244  0.8002  0.3667  0.1247
   90ccc     C4 2374   6.290   1.347   7.243 -0.4599  0.1241 -0.2536
   90ccc     C5 2375   6.264   1.254   7.122 -0.4690 -0.0574  0.1664
   90ccc     H3 2376   6.301   1.271   7.321 -1.7273 -0.2387 -0.4011
   90ccc     H4 2377   6.412   1.501   7.169 -1.9212  0.3943  0.3872
   90ccc     H5 2378   6.249   1.318   7.034 -0.9216 -0.4833 -0.0702
   90ccc     O1 2379   6.151   1.175   7.133 -0.1432  0.4698  0.0976
   90ccc     O2 2380   6.183   1.444   7.264  0.2893  0.7731 -0.2193
   90ccc     O3 2381   6.435   1.486   7.371 -0.1325 -0.0197 -0.1493
   90ccc     O4 2382   6.556   1.210   7.312  0.3999 -0.0448 -0.1833
   90ccc     C6 2383   6.614   1.140   7.052 -0.2534  0.1309  0.5003
   90ccc     H6 2384   6.371   1.559   7.361  0.7730  0.5048 -2.9458
   90ccc     H7 2385   6.588   1.136   7.258 -1.2901 -1.5096  0.7153
   90ccc     H8 2386   6.107   1.402   7.308  1.3411  0.6610  1.6014
   90ccc     H9 2387   6.710   1.193   7.052 -1.0570  1.6533  1.3219
   90ccc    H10 2388   6.604   1.105   6.948  1.0977 -1.4823  0.8698
   90ccc     O5 2389   6.621   1.025   7.139 -0.0739  0.4239 -0.4421
   90ccc    H11 2390   6.541   0.976   7.113 -0.1173  0.7570 -0.9474
   90ccc     O6 2391   6.383   1.168   7.105 -0.1251 -0.0856 -0.4891
   91ccc     C1 2392   6.133   1.537   6.617  0.2106 -0.1000  0.0772
   91ccc     C2 2393   6.251   1.472   6.695  0.3250 -0.8842 -0.5744
   91ccc     H1 2394   6.158   1.603   6.533 -3.6962  1.3514 -0.1607
   91ccc     H2 2395   6.325   1.430   6.626  1.1226 -1.9098  0.8822
   91ccc     C3 2396   6.331   1.584   6.777 -0.0960  0.2949 -0.1563
   91ccc     C4 2397   6.227   1.673   6.863 -0.1805  0.1974 -0.2929
   91ccc     C5 2398   6.107   1.725   6.776 -0.0913  0.2769  0.4583
   91ccc     H3 2399   6.193   1.600   6.938  1.8223 -1.6718 -1.0833
   91ccc     H4 2400   6.376   1.654   6.705  0.9945  0.8090  0.9933
   91ccc     H5 2401   6.146   1.799   6.705 -1.5700  0.8048  0.1677
   91ccc     O1 2402   6.003   1.779   6.869 -0.2098 -0.4587  0.0429
   91ccc     O2 2403   6.296   1.778   6.932  0.2734 -0.3832  0.6982
   91ccc     O3 2404   6.444   1.531   6.855  0.3563  0.1350  0.0423
   91ccc     O4 2405   6.207   1.363   6.782 -0.1527  0.6522 -1.1399
   91ccc     C6 2406   6.055   1.418   6.550  0.2615  0.0375 -0.2021
   91ccc     H6 2407   6.488   1.475   6.789  1.0813  2.3956 -1.5098
   91ccc     H7 2408   6.248   1.283   6.745  0.9317  0.8657 -0.4331
   91ccc     H8 2409   6.377   1.733   6.960  1.3034  0.6273 -0.5599
   91ccc     H9 2410   5.993   1.372   6.629  2.0043  1.5587  2.2048
   91ccc    H10 2411   6.120   1.346   6.500 -1.2064  0.1942 -2.4802
   91ccc     O5 2412   5.980   1.487   6.453  0.2766 -0.7586  0.1068
   91ccc    H11 2413   5.946   1.419   6.393  0.1766 -0.5414 -0.0849
   91ccc     O6 2414   6.043   1.615   6.705 -0.0689  0.6012  0.3479
   92ccc     C1 2415   5.530   1.491   7.566 -0.5548 -0.3280 -0.5056
   92ccc     C2 2416   5.634   1.379   7.578  0.3039 -0.2240 -0.3995
   92ccc     H1 2417   5.427   1.452   7.561 -0.0904 -1.4463 -3.3112
   92ccc     H2 2418   5.610   1.309   7.659  0.8859  1.1482  1.0017
   92ccc     C3 2419   5.648   1.298   7.445  0.3956  0.3758  0.0057
   92ccc     C4 2420   5.675   1.396   7.324  0.1038 -0.2074  0.7715
   92ccc     C5 2421   5.555   1.502   7.318  0.8091  0.9681 -0.2872
   92ccc     H3 2422   5.765   1.453   7.351 -0.3210  0.5515  0.6368
   92ccc     H4 2423   5.554   1.243   7.432 -0.8519  1.8935  2.1675
   92ccc     H5 2424   5.458   1.455   7.300  0.8775  1.7756 -3.3532
   92ccc     O1 2425   5.588   1.595   7.219 -0.0868  0.5217  0.8388
   92ccc     O2 2426   5.697   1.323   7.205  0.1689 -0.2225  0.7725
   92ccc     O3 2427   5.750   1.198   7.457  0.4528  0.0943 -0.1098
   92ccc     O4 2428   5.756   1.452   7.608  0.5302  0.2852  0.1723
   92ccc     C6 2429   5.531   1.587   7.682 -0.3913  0.2722  0.1505
   92ccc     H6 2430   5.699   1.118   7.474  0.6784 -0.2011 -0.8048
   92ccc     H7 2431   5.834   1.393   7.603 -0.1838 -0.7278  0.6535
   92ccc     H8 2432   5.725   1.390   7.140 -2.1889  1.1856  1.0666
   92ccc     H9 2433   5.615   1.655   7.666  1.2322 -1.2471  1.7796
   92ccc    H10 2434   5.538   1.537   7.780  1.5981  1.0731  0.4557
   92ccc     O5 2435   5.418   1.665   7.690  0.2968 -0.1636  0.0295
   92ccc    H11 2436   5.357   1.602   7.733  2.1012 -1.7368  0.4113
   92ccc     O6 2437   5.560   1.572   7.447  0.2944 -0.0484 -0.0843
   93ccc     C1 2438   5.200   2.418   7.660 -0.3457 -0.2488 -0.1868
   93ccc     C2 2439   5.168   2.291   7.577  0.4854  0.4517  0.3716
   93ccc     H1 2440   5.244   2.488   7.588 -0.7636  0.1858 -0.0267
   93ccc     H2 2441   5.108   2.318   7.490  2.1359 -0.4835 -1.1169
   93ccc     C3 2442   5.293   2.203   7.542 -0.2719  0.0445 -0.7757
   93ccc     C4 2443   5.376   2.179   7.668  0.4078 -0.2862  0.5169
   93ccc     C5 2444   5.414   2.305   7.740  0.2833 -0.5415 -0.3352
   93ccc     H3 2445   5.320   2.115   7.737  1.3936 -2.1449 -0.3239
   93ccc     H4 2446   5.343   2.276   7.477 -3.0413 -0.7176 -4.0434
   93ccc     H5 2447   5.483   2.365   7.678  0.7482 -0.1339  0.5619
   93ccc     O1 2448   5.486   2.261   7.861  0.7794 -0.0695 -0.3306
   93ccc     O2 2449   5.496   2.111   7.617 -0.0803 -0.1078  0.1126
   93ccc     O3 2450   5.272   2.085   7.464  1.0149 -0.2980  0.3749
   93ccc     O4 2451   5.080   2.199   7.647  0.8641 -0.4038 -0.3114
   93ccc     C6 2452   5.068   2.490   7.708 -0.4394 -0.8731 -0.1867
   93ccc     H6 2453   5.256   2.015   7.529 -0.0357 -0.2498  0.1961
   93ccc     H7 2454   5.065   2.127   7.583 -0.8394 -2.4812  2.1934
   93ccc     H8 2455   5.463   2.027   7.580 -0.2263 -0.0591  0.1331
   93ccc     H9 2456   5.005   2.437   7.781  0.7996  0.5444  1.9954
   93ccc    H10 2457   5.010   2.506   7.616  0.3653 -0.6066 -0.6545
   93ccc     O5 2458   5.100   2.626   7.751  0.5288 -0.0216 -0.1551
   93ccc    H11 2459   5.018   2.649   7.798 -0.3130 -2.2545 -0.4222
   93ccc     O6 2460   5.286   2.385   7.767 -0.3025 -0.0946  0.7624
   94ccc     C1 2461   6.263   1.912   8.565  0.2552 -0.1008  0.2701
   94ccc     C2 2462   6.293   1.923   8.717 -0.4273 -0.4184  0.1160
   94ccc     H1 2463   6.345   1.961   8.511  0.9968 -1.8311 -0.2424
   94ccc     H2 2464   6.388   1.878   8.750 -1.0147 -2.2599 -0.5814
   94ccc     C3 2465   6.285   2.079   8.765  0.8070  0.4569 -0.7990
   94ccc     C4 2466   6.158   2.142   8.700 -0.7466  0.0334  0.1740
   94ccc     C5 2467   6.133   2.113   8.546 -0.3024 -0.1670 -0.0198
   94ccc     H3 2468   6.067   2.101   8.745 -0.1540 -0.3441  1.0540
   94ccc     H4 2469   6.368   2.134   8.719  1.4252  0.3695  0.1884
   94ccc     H5 2470   6.195   2.166   8.474 -1.9307 -1.0098 -2.1510
   94ccc     O1 2471   6.000   2.160   8.511  0.1247  0.0854  0.2359
   94ccc     O2 2472   6.166   2.285   8.722 -0.1203 -0.3580 -0.2514
   94ccc     O3 2473   6.266   2.097   8.907  0.0935  0.4770 -0.0962
   94ccc     O4 2474   6.185   1.860   8.770 -0.0769  0.6743 -0.3520
   94ccc     C6 2475   6.272   1.767   8.508 -0.6059 -0.0802  0.6663
   94ccc     H6 2476   6.343   2.055   8.949  1.0347  1.7225 -0.5114
   94ccc     H7 2477   6.164   1.798   8.698  0.2610  0.6048 -0.3935
   94ccc     H8 2478   6.125   2.291   8.810  0.6310 -1.3991  0.1932
   94ccc     H9 2479   6.376   1.735   8.523  1.0149  4.1131 -0.3785
   94ccc    H10 2480   6.261   1.774   8.399 -0.0250  1.7871  0.7029
   94ccc     O5 2481   6.183   1.680   8.585  0.8617  0.1544  0.4332
   94ccc    H11 2482   6.205   1.588   8.564  0.8533  0.1329  0.5191
   94ccc     O6 2483   6.142   1.975   8.525  0.1267 -0.0694 -0.6681
   95SOL     OW 2484   5.162   6.556   7.562  0.0230 -0.3989 -0.9915
   95SOL    HW1 2485   5.154   6.629   7.501  0.0887  0.3087 -0.1636
   95SOL    HW2 2486   5.216   6.492   7.516  1.0968  0.6381 -1.2204
   96SOL     OW 2487   8.314   4.538   4.667  0.2511  0.3736 -0.2766
   96SOL    HW1 2488   8.261   4.483   4.609 -2.0235  1.2806  0.8111
   96SOL    HW2 2489   8.324   4.621   4.620  2.2318 -0.3421 -1.1980
   97SOL     OW 2490   8.263   1.155   4.886 -0.2833  0.2214  0.9031
   97SOL    HW1 2491   8.300   1.188   4.968  1.2895 -2.6587  1.4869
   97SOL    HW2 2492   8.193   1.094   4.914  0.1181 -0.6107  0.1388
   98SOL     OW 2493   4.726   2.286   1.059  0.0729 -0.9823 -0.1572
   98SOL    HW1 2494   4.632   2.296   1.043  0.0674 -1.8686 -0.7753
   98SOL    HW2 2495   4.731   2.260   1.151  0.0145  2.8875  1.0838
   99SOL     OW 2496   5.524   1.403   3.251  0.4304  0.3816  0.7325
   99SOL    HW1 2497   5.618   1.421   3.260 -0.0049  2.5549  1.3787
   99SOL    HW2 2498   5.504   1.426   3.160  0.5235 -0.1745  0.5662
  100SOL     OW 2499   7.893   4.519   2.976 -0.3866  0.0346  0.0439
  100SOL    HW1 2500   7.941   4.602   2.977  1.9469 -1.2186 -1.3713
  100SOL    HW2 2501   7.909   4.480   3.062  1.3729 -0.4625 -0.4823
  101SOL     OW 2502   2.018   4.526   3.751  0.0693 -0.5672 -0.0052
  101SOL    HW1 2503   1.976   4.505   3.834 -1.7078 -0.2039 -0.7726
  101SOL    HW2 2504   2.048   4.442   3.716  0.4204 -0.7705  0.7755
  102SOL     OW 2505   2.947   9.299   7.281 -0.3322 -0.7813 -0.0221
  102SOL    HW1 2506   2.873   9.358   7.293 -1.3878 -1.9538 -0.5880
  102SOL    HW2 2507   2.966   9.267   7.369 -1.7254 -1.9050 -0.1158
  103SOL     OW 2508   0.961   0.980   1.502  0.4164 -0.2539  0.1355
  103SOL    HW1 2509   0.929   0.912   1.443 -0.8051  1.1750 -0.9181
  103SOL    HW2 2510   1.021   1.032   1.450 -0.8941  1.1951 -0.0025
  104SOL     OW 2511   6.735   9.086   6.005  0.2709  0.3915  0.5962
  104SOL    HW1 2512   6.821   9.105   5.968 -0.8010  1.8222 -1.4268
  104SOL    HW2 2513   6.720   8.994   5.984 -0.0758  1.0029 -2.3807
  105SOL     OW 2514   0.023   5.841   3.729 -0.0890 -0.6060 -0.2256
  105SOL    HW1 2515   0.025   5.937   3.725 -0.8653 -0.5318  0.7111
  105SOL    HW2 2516   0.103   5.814   3.685  0.3327  0.4894 -0.1805
  106SOL     OW 2517   8.276   2.622   2.164 -0.6332  0.2863  0.0450
  106SOL    HW1 2518   8.347   2.565   2.194  0.9037  2.2200  0.2958
  106SOL    HW2 2519   8.199   2.590   2.210  0.4252 -0.8381  1.1139
  107SOL     OW 2520   4.977   0.037   1.349  0.0114  0.2197  0.1947
  107SOL    HW1 2521   4.964   0.061   1.441 -0.1058 -0.5442  0.3916
  107SOL    HW2 2522   4.999  -0.057   1.352 -1.5650 -0.2170 -0.6655
  108SOL     OW 2523   8.339   7.796   8.814  0.0242 -0.1550 -0.0911
  108SOL    HW1 2524   8.313   7.833   8.898  2.0401 -1.0334  0.9876
  108SOL    HW2 2525   8.272   7.730   8.795  0.2606 -0.9228  1.5624
  109SOL     OW 2526   7.488   5.392   3.012  0.0096  0.0092 -0.2306
  109SOL    HW1 2527   7.459   5.469   2.963  1.5116  0.6532 -0.1583
  109SOL    HW2 2528   7.492   5.422   3.103 -0.6042 -0.5386 -0.0118
  110SOL     OW 2529   8.928   2.302   1.111 -0.6308 -0.2731 -0.0626
  110SOL    HW1 2530   9.008   2.284   1.160 -2.2085 -0.1032  2.8492
  110SOL    HW2 2531   8.918   2.228   1.052  1.2355 -0.6931  0.0949
  111SOL     OW 2532   6.724   0.059   3.002  0.2617  0.4949 -0.0081
  111SOL    HW1 2533   6.649   0.099   3.046 -0.2416  2.1293 -2.1789
  111SOL    HW2 2534   6.696  -0.030   2.983 -0.9105  0.9025 -0.2598
  112SOL     OW 2535   2.440   4.152   7.344 -0.0327  0.5448  0.0454
  112SOL    HW1 2536   2.496   4.226   7.366 -0.0444  0.3695  0.6783
  112SOL    HW2 2537   2.485   4.109   7.271 -0.9632  2.2342 -1.6236
  113SOL     OW 2538   2.661   1.653   1.547 -0.6356  0.0397 -0.1596
  113SOL    HW1 2539   2.645   1.559   1.554  1.8582 -0.5539 -1.2826
  113SOL    HW2 2540   2.650   1.673   1.454  2.6665 -0.0604 -0.6886
  114SOL     OW 2541   3.229   5.033   9.098  0.2671  0.3802 -0.1030
  114SOL    HW1 2542   3.274   5.097   9.044 -0.0736  1.2116  0.5775
  114SOL    HW2 2543   3.158   5.081   9.139  2.4424  0.7493  3.7524
  115SOL     OW 2544   8.545   1.931   8.193 -0.3301  0.3972 -0.2491
  115SOL    HW1 2545   8.557   1.946   8.099 -0.5320 -1.4497 -0.6073
  115SOL    HW2 2546   8.603   1.995   8.235  0.8301  0.3358 -1.6682
  116SOL     OW 2547   7.216   0.027   2.287  0.6904  0.2084 -0.0075
  116SOL    HW1 2548   7.308   0.039   2.261  0.1682  0.4519 -1.9423
  116SOL    HW2 2549   7.203  -0.068   2.284  0.5949  0.2356 -0.9517
  117SOL     OW 2550   5.749   8.015   2.676  0.3112  0.9997  0.6683
  117SOL    HW1 2551   5.721   8.062   2.755  1.9629  0.8394  1.3784
  117SOL    HW2 2552   5.796   7.939   2.709 -0.4383 -0.0053 -0.4900
  118SOL     OW 2553   7.777   2.689   1.449  0.7637 -0.0826 -0.1186
  118SOL    HW1 2554   7.727   2.618   1.409  1.0139 -0.5170  0.3334
  118SOL    HW2 2555   7.854   2.698   1.394  0.1573  0.6588 -0.8794
  119SOL     OW 2556   4.225   5.739   3.347 -0.3886  0.1449 -0.5218
  119SOL    HW1 2557   4.155   5.700   3.294 -1.1278  2.1317 -1.0899
  119SOL    HW2 2558   4.200   5.831   3.356  0.6415  0.2603  1.8255
  120SOL     OW 2559   1.582   8.899   2.991  0.2091 -0.0699  0.2836
  120SOL    HW1 2560   1.563   8.956   3.065 -0.0273 -1.1052  1.0475
  120SOL    HW2 2561   1.507   8.909   2.932  0.2125  0.4655  0.3679
  121SOL     OW 2562   8.307   6.426   9.173  0.2725 -0.0988 -0.2715
  121SOL    HW1 2563   8.322   6.332   9.162 -0.3758 -0.1907 -0.3771
  121SOL    HW2 2564   8.269   6.434   9.261  0.1236  0.0460 -0.3502
  122SOL     OW 2565   9.002   0.289   0.014  0.3364  0.1882 -0.4524
  122SOL    HW1 2566   9.067   0.303   0.083 -0.5107 -2.8464  1.1281
  122SOL    HW2 2567   9.050   0.241  -0.053  0.2526 -0.1353 -0.2803
  123SOL     OW 2568   1.252   9.361   1.507  0.5479  0.2790 -0.1388
  123SOL    HW1 2569   1.216   9.346   1.595 -1.4327  3.1092 -0.3107
  123SOL    HW2 2570   1.330   9.414   1.522  0.5518  0.2445 -0.0344
  124SOL     OW 2571   1.592   6.064   7.268 -0.4332 -0.4201 -0.3484
  124SOL    HW1 2572   1.591   6.160   7.263 -0.9626 -0.4783 -1.8278
  124SOL    HW2 2573   1.522   6.042   7.329  0.0357  0.1372  0.4136
  125SOL     OW 2574   7.526   2.444   5.999  0.0052 -0.2628  0.1872
  125SOL    HW1 2575   7.529   2.516   6.061  0.2006  0.2557 -0.4190
  125SOL    HW2 2576   7.615   2.441   5.962  0.2044 -1.2571  0.7088
  126SOL     OW 2577   3.012   1.773   5.439  0.3159 -0.2907  0.9067
  126SOL    HW1 2578   3.033   1.859   5.476 -1.8295  0.3396  0.7807
  126SOL    HW2 2579   2.976   1.723   5.512  0.5752 -0.7167  0.7461
  127SOL     OW 2580   6.572   3.465   8.468 -0.1563  0.5406  0.1173
  127SOL    HW1 2581   6.606   3.554   8.463 -0.0064  0.4620 -3.8576
  127SOL    HW2 2582   6.647   3.409   8.450 -0.8779 -0.1117 -1.0078
  128SOL     OW 2583   2.234   3.768   8.088 -0.8946 -0.4755 -0.2097
  128SOL    HW1 2584   2.287   3.693   8.061 -0.6911 -0.7688  0.9617
  128SOL    HW2 2585   2.242   3.830   8.015  1.8970 -0.0749  0.3292
  129SOL     OW 2586   8.167   3.689   9.469  0.1115 -0.2218  0.1368
  129SOL    HW1 2587   8.223   3.612   9.474 -1.2520 -1.2590 -0.1561
  129SOL    HW2 2588   8.138   3.692   9.377  2.4900  2.3894 -0.6736
  130SOL     OW 2589   0.789   4.203   2.209 -0.1338 -0.1098 -0.0634
  130SOL    HW1 2590   0.708   4.180   2.254 -0.1715 -0.0506 -0.1004
  130SOL    HW2 2591   0.815   4.123   2.163  1.4728 -1.1352  2.3671
  131SOL     OW 2592   6.243   2.989   9.527  0.1856 -0.3132  0.5631
  131SOL    HW1 2593   6.171   2.997   9.465  0.1986 -1.1506  0.4297
  131SOL    HW2 2594   6.247   3.074   9.571 -1.2641 -0.4482  0.9864
  132SOL     OW 2595   6.098   4.927   4.630 -0.3105 -0.1606  1.0430
  132SOL    HW1 2596   6.133   4.919   4.719  0.4554 -0.1671  0.7480
  132SOL    HW2 2597   6.170   4.964   4.579 -0.2818 -1.3714  0.1488
  133SOL     OW 2598   6.372   5.001   0.487 -0.0500 -0.2137 -0.5681
  133SOL    HW1 2599   6.299   5.051   0.451 -0.6906 -0.8480 -0.1855
  133SOL    HW2 2600   6.344   4.910   0.480  1.4255 -0.5806 -1.9536
  134SOL     OW 2601   2.845   3.009   1.970 -0.0122  0.1311 -0.0932
  134SOL    HW1 2602   2.890   2.954   1.905 -0.9620 -0.3733 -0.3408
  134SOL    HW2 2603   2.774   2.954   2.003 -0.9108  1.1482 -0.2567
  135SOL     OW 2604   3.978   4.413   4.780 -0.3001  0.3884  0.0364
  135SOL    HW1 2605   3.978   4.403   4.875  0.0729  2.1555  0.2488
  135SOL    HW2 2606   3.952   4.327   4.747  0.5526 -0.5495  1.6958
  136SOL     OW 2607   2.036   1.509   0.936 -0.6961 -0.4048  0.2245
  136SOL    HW1 2608   1.965   1.482   0.994 -0.8275  0.6601  0.5817
  136SOL    HW2 2609   2.017   1.601   0.916  0.2858 -0.2652 -0.1232
  137SOL     OW 2610   9.165   2.486   6.895  0.2664  0.1910  0.6727
  137SOL    HW1 2611   9.083   2.454   6.858 -0.1021  0.7061  1.0338
  137SOL    HW2 2612   9.160   2.582   6.887  0.5501  0.2614  1.2804
  138SOL     OW 2613   4.677   2.411   0.277 -0.2007 -0.5820  0.2779
  138SOL    HW1 2614   4.681   2.492   0.328 -0.1249 -0.5310  0.1923
  138SOL    HW2 2615   4.601   2.423   0.219  0.3096 -0.2116 -0.3347
  139SOL     OW 2616   3.621   0.597   0.163  0.0377 -0.7133 -0.2872
  139SOL    HW1 2617   3.631   0.519   0.108  0.7008 -0.7667 -0.0971
  139SOL    HW2 2618   3.617   0.564   0.252  0.9624 -0.4951 -0.1539
  140SOL     OW 2619   2.800   1.328   0.711 -0.0957 -0.1769  0.4489
  140SOL    HW1 2620   2.878   1.362   0.754  0.0641  0.1270 -0.0668
  140SOL    HW2 2621   2.752   1.406   0.682 -0.1762 -0.3766  0.0380
  141SOL     OW 2622   6.507   0.488   0.886 -0.3667  0.3540 -0.3878
  141SOL    HW1 2623   6.530   0.568   0.932 -0.0250 -0.6833  1.3122
  141SOL    HW2 2624   6.575   0.426   0.909  0.3264  0.0028 -3.0508
  142SOL     OW 2625   3.979   4.031   4.714  0.1904 -0.2691  0.4748
  142SOL    HW1 2626   3.949   4.017   4.804  2.4502 -1.7370  1.0841
  142SOL    HW2 2627   4.044   4.102   4.721 -0.7425  0.6912 -0.2907
  143SOL     OW 2628   1.104   2.972   6.653  0.7050 -0.5868  0.2834
  143SOL    HW1 2629   1.170   2.980   6.584  1.6185 -1.6075  0.9979
  143SOL    HW2 2630   1.095   3.061   6.688  1.0331 -0.2658 -0.4226
  144SOL     OW 2631   7.585   1.452   5.536 -0.3285  0.2073 -0.1787
  144SOL    HW1 2632   7.565   1.400   5.459 -1.0793 -0.3690  0.3942
  144SOL    HW2 2633   7.586   1.389   5.608 -3.9897  1.2791  0.9833
  145SOL     OW 2634   2.429   7.200   5.397  0.1899  0.4705 -0.0602
  145SOL    HW1 2635   2.454   7.112   5.370  1.5939  0.4049  1.3311
  145SOL    HW2 2636   2.443   7.201   5.491 -0.1362  2.0947 -0.0011
  146SOL     OW 2637   6.545   6.114   4.030  0.0634  0.6105 -0.0119
  146SOL    HW1 2638   6.468   6.147   3.983 -1.8500  0.2419  2.5857
  146SOL    HW2 2639   6.548   6.021   4.009  0.6311  0.8721 -1.1462
  147SOL     OW 2640   1.884   6.901   2.288  0.8806 -0.0785  0.0755
  147SOL    HW1 2641   1.902   6.811   2.263  1.6171  0.2284 -0.5320
  147SOL    HW2 2642   1.927   6.912   2.372 -0.5481 -0.7434  0.9409
  148SOL     OW 2643   5.470   3.590   4.653 -0.1283 -0.0127 -0.4951
  148SOL    HW1 2644   5.513   3.629   4.729  1.4750  1.4949 -2.0933
  148SOL    HW2 2645   5.400   3.651   4.631 -1.6226 -1.2300  0.6188
  149SOL     OW 2646   5.600   7.754   9.056 -0.1938 -0.1476 -0.4511
  149SOL    HW1 2647   5.670   7.700   9.094 -1.0696 -0.9193  0.1338
  149SOL    HW2 2648   5.616   7.842   9.090  1.0787 -0.0798 -1.1612
  150SOL     OW 2649   8.832   6.154   1.289 -0.0358  0.1319 -0.5310
  150SOL    HW1 2650   8.779   6.077   1.267  1.0640 -0.2692 -1.8727
  150SOL    HW2 2651   8.783   6.197   1.360 -0.6619 -1.7835  0.2501
  151SOL     OW 2652   0.656   7.372   8.158  0.5207  0.3101 -0.1417
  151SOL    HW1 2653   0.572   7.402   8.194  0.6979 -0.7933  1.2732
  151SOL    HW2 2654   0.706   7.453   8.143 -0.3357  0.9085  0.1601
  152SOL     OW 2655   1.923   9.012   1.389 -0.0093  0.8569 -0.0288
  152SOL    HW1 2656   1.902   9.072   1.460  0.8404  0.4092  0.6118
  152SOL    HW2 2657   1.844   9.011   1.334  0.2053  3.1001 -0.4698
  153SOL     OW 2658   6.497   7.692   8.189 -0.5552  0.2461 -0.1966
  153SOL    HW1 2659   6.579   7.698   8.139 -0.3374 -1.4197 -0.1041
  153SOL    HW2 2660   6.501   7.764   8.251  2.4443 -1.6560  2.0543
  154SOL     OW 2661   8.266   3.103   6.320  0.1740  0.0350 -0.3476
  154SOL    HW1 2662   8.326   3.072   6.252 -1.3054 -0.1097 -1.6376
  154SOL    HW2 2663   8.273   3.038   6.390  1.6183  0.1100 -0.3929
  155SOL     OW 2664   3.524   8.416   3.648 -0.2831  0.3228  0.1869
  155SOL    HW1 2665   3.529   8.362   3.726 -1.2196 -0.0526  0.0026
  155SOL    HW2 2666   3.452   8.378   3.597 -0.1541  0.9957 -0.5151
  156SOL     OW 2667   7.962   7.625   0.021 -0.4239  0.7873  0.4809
  156SOL    HW1 2668   8.048   7.666   0.011  1.4814 -2.7252  0.7112
  156SOL    HW2 2669   7.945   7.628   0.116  0.5676 -0.4162  0.7214
  157SOL     OW 2670   2.806   2.351   6.826  0.1411 -0.3797  0.0908
  157SOL    HW1 2671   2.754   2.355   6.746 -0.2764 -0.1804  0.3679
  157SOL    HW2 2672   2.820   2.443   6.850  0.5193 -0.4343  0.0796
  158SOL     OW 2673   7.542   8.436   2.139  1.0062 -0.6321 -0.2854
  158SOL    HW1 2674   7.524   8.398   2.226  0.7770  0.3462  0.1062
  158SOL    HW2 2675   7.619   8.491   2.153  1.3702 -0.9842 -0.8669
  159SOL     OW 2676   2.977   1.241   8.549  0.3111 -0.0589 -0.2843
  159SOL    HW1 2677   3.024   1.266   8.469  0.5152  0.3206 -0.0493
  159SOL    HW2 2678   2.966   1.323   8.597 -1.7327  0.0826 -0.9307
  160SOL     OW 2679   2.090   5.810   3.144 -0.4426  0.3522 -0.1421
  160SOL    HW1 2680   2.103   5.877   3.212 -2.1837 -0.6542  1.2764
  160SOL    HW2 2681   2.079   5.859   3.063  1.1518  1.6237  0.3559
  161SOL     OW 2682   0.346   7.381   0.018  0.3491  0.4359 -0.7583
  161SOL    HW1 2683   0.283   7.324   0.063  0.7065  0.5295 -0.1368
  161SOL    HW2 2684   0.431   7.341   0.034  0.6499  1.3537  0.0199
  162SOL     OW 2685   4.740   7.273   8.664  0.7517 -0.4596 -0.0334
  162SOL    HW1 2686   4.743   7.252   8.757  1.9405  1.8201  0.5264
  162SOL    HW2 2687   4.734   7.369   8.661 -1.2600 -0.5436 -2.3176
  163SOL     OW 2688   4.825   7.925   0.672  0.2150 -0.6452  0.4445
  163SOL    HW1 2689   4.736   7.954   0.689 -0.2751 -3.2224  2.9104
  163SOL    HW2 2690   4.815   7.839   0.630  1.5603 -0.7897  0.3647
  164SOL     OW 2691   1.748   5.117   3.375 -0.3882 -0.2897 -0.1408
  164SOL    HW1 2692   1.762   5.211   3.384  0.9701 -0.4930  0.0620
  164SOL    HW2 2693   1.719   5.088   3.461 -1.8134  0.0880 -0.4717
  165SOL     OW 2694   2.177   5.810   5.573 -0.8134  0.1525  0.2278
  165SOL    HW1 2695   2.170   5.903   5.554  1.1382  0.2417 -0.2692
  165SOL    HW2 2696   2.269   5.797   5.597 -0.8090 -1.7833 -0.6237
  166SOL     OW 2697   0.413   5.095   6.702  0.0469  0.1165 -0.0195
  166SOL    HW1 2698   0.449   5.017   6.660 -0.0528 -0.2324  0.5330
  166SOL    HW2 2699   0.482   5.161   6.695 -0.3306  0.3735 -1.5889
  167SOL     OW 2700   1.410   2.052   3.405  0.2048 -0.4263  0.2289
  167SOL    HW1 2701   1.379   1.981   3.462  0.6380 -0.5111  0.3611
  167SOL    HW2 2702   1.372   2.032   3.320 -1.8098  0.5779  0.8215
  168SOL     OW 2703   0.638   7.312   8.525  0.6068  0.0017  0.1391
  168SOL    HW1 2704   0.645   7.396   8.572  1.1833 -1.4773  2.9153
  168SOL    HW2 2705   0.545   7.289   8.532  0.5480  0.1441 -0.1554
  169SOL     OW 2706   0.078   4.960   5.918 -0.2987  0.3328  0.1508
  169SOL    HW1 2707   0.161   4.914   5.905 -1.2037 -0.9585 -1.3715
  169SOL    HW2 2708   0.069   5.016   5.842 -0.0065  1.8693  1.1974
  170SOL     OW 2709   7.852   5.763   8.315 -0.0685 -0.8765  1.3257
  170SOL    HW1 2710   7.825   5.852   8.337 -2.7569 -1.3244  0.3118
  170SOL    HW2 2711   7.834   5.712   8.394  0.8722 -0.6411  1.6976
  171SOL     OW 2712   2.562   4.091   3.075  0.2130  0.4083 -0.6674
  171SOL    HW1 2713   2.563   4.088   3.170 -1.2558  0.6988 -0.6253
  171SOL    HW2 2714   2.637   4.038   3.048 -0.7384 -1.6877  0.6212
  172SOL     OW 2715   5.315   5.304   7.752 -0.0291  0.1559  0.4318
  172SOL    HW1 2716   5.269   5.368   7.697  0.4820 -0.8677 -1.2591
  172SOL    HW2 2717   5.398   5.346   7.773 -0.2289  0.5606  0.4309
  173SOL     OW 2718   4.091   7.303   6.290  0.1119 -0.4664 -0.6283
  173SOL    HW1 2719   4.028   7.369   6.319  2.0640  0.4756  1.8280
  173SOL    HW2 2720   4.051   7.219   6.313 -0.0986  0.1326  1.3664
  174SOL     OW 2721   8.494   4.084   1.587 -0.2472 -0.2625  0.1607
  174SOL    HW1 2722   8.467   4.024   1.519  1.6001 -0.9699 -0.0122
  174SOL    HW2 2723   8.442   4.059   1.664 -1.6944 -0.0320 -0.7052
  175SOL     OW 2724   4.579   3.837   1.602 -0.2072 -0.6623  0.3464
  175SOL    HW1 2725   4.643   3.766   1.603 -0.6091 -1.0857 -1.0560
  175SOL    HW2 2726   4.519   3.813   1.531 -1.3248  0.2364  0.9580
  176SOL     OW 2727   2.749   8.171   7.385 -0.6667  0.0330  0.8913
  176SOL    HW1 2728   2.725   8.199   7.297  0.1051 -0.7740  0.4115
  176SOL    HW2 2729   2.685   8.215   7.442 -1.7152 -0.1159 -0.1309
  177SOL     OW 2730   6.147   3.058   3.366 -0.2123  0.0173 -0.0950
  177SOL    HW1 2731   6.202   3.109   3.424 -0.6145 -1.3573  1.5617
  177SOL    HW2 2732   6.059   3.093   3.378 -0.0496  0.8643 -1.2097
  178SOL     OW 2733   1.742   1.211   0.615  0.0166 -0.5321  0.1569
  178SOL    HW1 2734   1.773   1.181   0.700  0.5631 -1.7132 -0.4398
  178SOL    HW2 2735   1.792   1.160   0.551 -0.5616  0.1499 -0.8775
  179SOL     OW 2736   6.349   3.336   0.327  0.3748 -0.0571 -0.5127
  179SOL    HW1 2737   6.282   3.357   0.392  0.9030  0.4958 -0.1318
  179SOL    HW2 2738   6.416   3.290   0.376 -0.3725 -1.9407 -1.1793
  180SOL     OW 2739   6.579   1.640   3.851  0.0916  0.1183  0.9902
  180SOL    HW1 2740   6.561   1.706   3.783 -0.4050 -1.2900 -0.3248
  180SOL    HW2 2741   6.674   1.631   3.852  0.1463  0.7017  1.0227
  181SOL     OW 2742   3.120   6.286   2.022 -0.4318 -0.3067 -0.0067
  181SOL    HW1 2743   3.063   6.312   1.950 -0.8765  1.3196  0.8929
  181SOL    HW2 2744   3.208   6.313   1.995 -0.6189  0.4298  0.1026
  182SOL     OW 2745   1.612   7.706   6.733  0.1539  0.1047  0.3131
  182SOL    HW1 2746   1.559   7.782   6.710  0.1921  0.5020  1.4970
  182SOL    HW2 2747   1.638   7.669   6.648  0.2214  1.4545 -0.2782
  183SOL     OW 2748   7.804   1.969   6.292 -0.1081  0.1602 -0.1621
  183SOL    HW1 2749   7.868   1.898   6.290  0.4353  0.6197  0.8459
  183SOL    HW2 2750   7.719   1.924   6.296 -0.0668 -0.5168 -3.5070
  184SOL     OW 2751   7.047   9.024   7.671 -0.3527  0.5300 -0.5114
  184SOL    HW1 2752   7.044   8.943   7.619  0.8111  0.7273 -0.9049
  184SOL    HW2 2753   7.119   9.011   7.732 -0.2539  1.2130 -0.4755
  185SOL     OW 2754   1.509   5.823   7.609 -0.5397 -0.4873 -0.3196
  185SOL    HW1 2755   1.462   5.900   7.579 -0.2348  0.1806  0.8547
  185SOL    HW2 2756   1.487   5.755   7.546 -1.9760  0.1662 -0.5553
  186SOL     OW 2757   1.773   2.552   5.041  0.2229 -0.4027  0.2157
  186SOL    HW1 2758   1.748   2.484   5.104 -1.3580 -1.2025 -1.1898
  186SOL    HW2 2759   1.701   2.554   4.978  0.8650  1.6840 -0.5271
  187SOL     OW 2760   7.449   5.369   9.522  0.1563 -0.0129 -0.3184
  187SOL    HW1 2761   7.494   5.348   9.604  0.5444  1.0966 -0.2217
  187SOL    HW2 2762   7.514   5.419   9.472  0.4830 -1.9693 -1.9923
  188SOL     OW 2763   5.317   3.261   6.267  0.2728 -0.6377 -0.7398
  188SOL    HW1 2764   5.231   3.263   6.309 -0.0894  0.6605 -1.4550
  188SOL    HW2 2765   5.310   3.192   6.201  0.1521 -1.2867 -0.0502
  189SOL     OW 2766   1.012   4.449   8.856  0.1649 -0.0101  0.3033
  189SOL    HW1 2767   1.021   4.452   8.761  1.3578 -3.0965  0.1911
  189SOL    HW2 2768   0.963   4.369   8.872 -0.4602  0.7316  2.2866
  190SOL     OW 2769   8.747   3.783   4.909 -0.5874 -0.3873 -0.2087
  190SOL    HW1 2770   8.757   3.767   4.816 -1.5950 -0.1463 -0.3725
  190SOL    HW2 2771   8.707   3.870   4.914 -0.4385 -0.3490  0.4528
  191SOL     OW 2772   8.767   4.892   3.450  0.0203  0.1137 -0.3356
  191SOL    HW1 2773   8.767   4.987   3.446 -2.6683  0.2234  0.4814
  191SOL    HW2 2774   8.712   4.864   3.377  0.6416 -0.8297 -0.4662
  192SOL     OW 2775   0.084   3.477   7.918  0.0588 -0.1152  0.3442
  192SOL    HW1 2776   0.131   3.394   7.921  0.2525 -0.0523 -0.6914
  192SOL    HW2 2777  -0.008   3.453   7.930 -0.0279 -0.6269 -1.2285
  193SOL     OW 2778   0.675   2.915   0.884  0.1688 -0.0406  0.1224
  193SOL    HW1 2779   0.599   2.881   0.931 -2.6472  3.9101 -1.0799
  193SOL    HW2 2780   0.676   2.867   0.801 -0.8450 -0.3546  0.2756
  194SOL     OW 2781   9.574   0.210   4.942 -0.2496 -0.4469  0.4732
  194SOL    HW1 2782   9.573   0.245   5.031 -1.9821 -1.3735  0.8609
  194SOL    HW2 2783   9.553   0.285   4.887  0.5447  0.0706  0.8432
  195SOL     OW 2784   8.346   7.326   8.858 -0.4656  0.3048 -0.2134
  195SOL    HW1 2785   8.424   7.381   8.855 -0.5623  0.4257 -2.0602
  195SOL    HW2 2786   8.375   7.244   8.897  0.9773 -0.1683 -2.1506
  196SOL     OW 2787   4.892   1.339   9.480 -0.0628  0.5491  0.5344
  196SOL    HW1 2788   4.837   1.402   9.433  0.1959 -0.4327 -1.1557
  196SOL    HW2 2789   4.830   1.287   9.531 -0.5717  0.4569 -0.1579
  197SOL     OW 2790   2.043   4.408   1.379  0.1158  0.3610  0.3631
  197SOL    HW1 2791   1.960   4.369   1.405 -0.2432 -0.0656 -1.2994
  197SOL    HW2 2792   2.109   4.361   1.431 -0.5392 -0.6207  0.3425
  198SOL     OW 2793   6.735   7.662   2.247  0.0188  0.1011 -0.0477
  198SOL    HW1 2794   6.704   7.746   2.280  0.8618  0.8183 -1.0451
  198SOL    HW2 2795   6.774   7.619   2.323  0.2760  0.9391  0.2956
  199SOL     OW 2796   4.385   7.444   6.027  0.5397 -0.8122  0.3589
  199SOL    HW1 2797   4.320   7.376   6.011  0.2911 -0.6769  0.7665
  199SOL    HW2 2798   4.396   7.444   6.122  1.2440 -0.9364  0.2814
  200SOL     OW 2799   9.235   3.472   2.031 -0.2680  0.2472  0.0998
  200SOL    HW1 2800   9.158   3.526   2.015 -0.7388 -0.7606 -1.1812
  200SOL    HW2 2801   9.220   3.433   2.117 -1.3710 -0.2255 -0.2957
  201SOL     OW 2802   4.896   2.820   7.081 -0.1325 -0.4603 -0.1881
  201SOL    HW1 2803   4.898   2.839   7.175 -0.3412 -3.5140  0.5195
  201SOL    HW2 2804   4.873   2.727   7.076  0.7057 -0.5850 -3.2536
  202SOL     OW 2805   5.651   3.905   6.658 -0.0402 -0.2467  0.0513
  202SOL    HW1 2806   5.599   3.876   6.583 -0.3866 -0.4271  0.3571
  202SOL    HW2 2807   5.679   3.825   6.701  3.1394 -0.2982 -1.8410
  203SOL     OW 2808   4.785   5.143   3.803 -0.3783 -0.5024  0.0532
  203SOL    HW1 2809   4.875   5.121   3.828 -0.2100 -1.8631 -1.5347
  203SOL    HW2 2810   4.795   5.197   3.724 -0.9452 -0.3969  0.0533
  204SOL     OW 2811   0.996   4.380   9.341  0.1955 -0.4505  0.4397
  204SOL    HW1 2812   0.993   4.467   9.382  1.4565  0.0985 -0.5821
  204SOL    HW2 2813   1.022   4.321   9.411  1.1674  0.2937  0.7253
  205SOL     OW 2814   6.574   9.343   3.849 -0.0947 -0.0740 -0.1795
  205SOL    HW1 2815   6.668   9.355   3.856 -0.0163  0.1962 -1.5320
  205SOL    HW2 2816   6.537   9.402   3.915  0.6650  0.0529  0.1356
  206SOL     OW 2817   1.137   5.353   0.427 -0.1701 -0.0637  0.4930
  206SOL    HW1 2818   1.154   5.445   0.407 -1.6559 -0.0382 -0.7905
  206SOL    HW2 2819   1.185   5.304   0.360 -0.0366 -0.2037  0.6893
  207SOL     OW 2820   7.279   0.217   3.380 -0.0669 -0.4515  0.5905
  207SOL    HW1 2821   7.333   0.290   3.352  0.1291 -0.8427 -0.0668
  207SOL    HW2 2822   7.190   0.252   3.381  0.0702 -0.0954  0.6845
  208SOL     OW 2823   9.064   9.030   0.204 -0.0788 -0.5968  0.1561
  208SOL    HW1 2824   8.998   9.023   0.134  1.2155 -1.8227 -1.0131
  208SOL    HW2 2825   9.087   9.123   0.207 -1.6201 -0.1950  0.3899
  209SOL     OW 2826   8.751   1.048   3.846  0.9419 -0.5125  0.0042
  209SOL    HW1 2827   8.696   0.984   3.890 -1.0448 -0.0962 -1.7445
  209SOL    HW2 2828   8.793   0.999   3.776  2.1703 -0.6176  0.7737
  210SOL     OW 2829   5.462   1.952   0.964  0.0083  0.6776 -0.0236
  210SOL    HW1 2830   5.506   1.971   0.881 -0.4591  1.3151 -0.1321
  210SOL    HW2 2831   5.436   2.038   0.998 -0.0792  0.3978  0.6319
  211SOL     OW 2832   3.530   1.333   7.864  0.4812  0.4447  0.1399
  211SOL    HW1 2833   3.606   1.319   7.921  1.0410  1.6045 -0.2905
  211SOL    HW2 2834   3.480   1.252   7.871  2.1702 -0.6844 -0.2029
  212SOL     OW 2835   0.500   7.727   2.803  0.2393 -0.3603 -0.1853
  212SOL    HW1 2836   0.589   7.692   2.793  0.1525 -0.7880  0.5363
  212SOL    HW2 2837   0.477   7.757   2.715  1.3182  0.2999 -0.2673
  213SOL     OW 2838   9.241   4.467   7.401 -0.7535  0.8200  0.1248
  213SOL    HW1 2839   9.203   4.555   7.399 -1.4482  0.6488 -4.3298
  213SOL    HW2 2840   9.334   4.481   7.380 -0.8883  0.5172 -0.6969
  214SOL     OW 2841   2.616   3.902   2.113  0.1780  0.0306 -0.3265
  214SOL    HW1 2842   2.533   3.905   2.066 -0.0651 -0.6986  0.0238
  214SOL    HW2 2843   2.590   3.887   2.204  0.6944 -0.2878 -0.2304
  215SOL     OW 2844   2.067   7.687   0.531  0.0351  0.2420  0.9873
  215SOL    HW1 2845   2.031   7.607   0.568 -1.1494  1.0584  1.6627
  215SOL    HW2 2846   2.002   7.715   0.466  1.7835 -0.8393 -1.3978
  216SOL     OW 2847   4.002   0.997   6.371  0.4426  0.3284 -0.3792
  216SOL    HW1 2848   4.062   1.035   6.436 -0.0943 -1.9225  1.5840
  216SOL    HW2 2849   3.941   1.068   6.351  0.9842  1.2872  1.1556
  217SOL     OW 2850   4.362   3.933   2.492 -0.2280 -0.0275 -0.3230
  217SOL    HW1 2851   4.337   3.920   2.584  0.9934 -0.1034  0.0204
  217SOL    HW2 2852   4.355   4.027   2.479  0.4745  0.0988  0.1365
  218SOL     OW 2853   1.002   7.000   6.586  0.6021  0.0574  0.2690
  218SOL    HW1 2854   1.049   7.052   6.522 -0.5502  0.0293 -0.6314
  218SOL    HW2 2855   0.935   7.059   6.620  0.9103 -0.0703  1.1222
  219SOL     OW 2856   0.290   2.447   0.281 -0.2499  0.2304 -1.1231
  219SOL    HW1 2857   0.253   2.362   0.306 -2.4462  1.0067 -1.4897
  219SOL    HW2 2858   0.249   2.510   0.341  0.1538  1.2041 -1.8436
  220SOL     OW 2859   0.841   9.287   5.370  0.5293  0.0235 -0.2496
  220SOL    HW1 2860   0.839   9.236   5.289 -0.1770  1.1211 -0.9596
  220SOL    HW2 2861   0.792   9.234   5.433 -0.7775  0.1065 -1.1587
  221SOL     OW 2862   6.050   2.753   2.938  0.4576  0.3523 -0.6134
  221SOL    HW1 2863   6.001   2.675   2.966  0.5777  0.4285 -0.1853
  221SOL    HW2 2864   6.105   2.775   3.013  0.2098  1.0294 -0.6273
  222SOL     OW 2865   3.111   0.684   9.016 -0.2616  0.4453  0.0810
  222SOL    HW1 2866   3.122   0.777   9.032 -0.1738  0.4068  0.2540
  222SOL    HW2 2867   3.057   0.654   9.089  2.0738 -0.1830  1.6693
  223SOL     OW 2868   2.802   8.353   8.638 -0.4476 -0.2861  0.6213
  223SOL    HW1 2869   2.796   8.287   8.707  0.0761 -3.9070 -2.4059
  223SOL    HW2 2870   2.891   8.346   8.605 -1.3294 -0.6953 -1.9905
  224SOL     OW 2871   1.472   3.005   6.668 -0.1963  0.2805  0.2437
  224SOL    HW1 2872   1.448   3.019   6.576 -1.6070  2.9418  0.9088
  224SOL    HW2 2873   1.522   3.083   6.691 -0.1107 -0.2164  1.8112
  225SOL     OW 2874   2.785   2.109   2.824  0.2709  0.8887 -0.2430
  225SOL    HW1 2875   2.747   2.141   2.742  1.8497  0.7011 -1.0856
  225SOL    HW2 2876   2.720   2.132   2.891 -0.9450  1.2624 -1.5000
  226SOL     OW 2877   5.804   0.723   1.712  0.2919 -0.1788  0.3429
  226SOL    HW1 2878   5.889   0.750   1.679 -0.8774  1.7783 -1.2518
  226SOL    HW2 2879   5.804   0.750   1.804  1.9721 -1.7559  0.8539
  227SOL     OW 2880   7.581   6.010   7.838 -0.4761 -0.4064 -0.7700
  227SOL    HW1 2881   7.583   5.915   7.844 -1.6771 -0.3469  1.2063
  227SOL    HW2 2882   7.567   6.028   7.745 -0.7802 -2.1472 -1.0892
  228SOL     OW 2883   0.513   6.441   6.022  0.3629  0.0870  0.2205
  228SOL    HW1 2884   0.561   6.449   5.940 -0.0312  0.5254  0.0277
  228SOL    HW2 2885   0.422   6.425   5.996  0.3761 -0.6437  0.5801
  229SOL     OW 2886   4.015   7.441   0.007 -0.1477 -0.3287 -0.2481
  229SOL    HW1 2887   4.015   7.359   0.058  1.6053 -0.1910  0.0362
  229SOL    HW2 2888   4.097   7.439  -0.041 -0.0089  1.3366 -0.1360
  230SOL     OW 2889   9.242   6.386   3.763  0.0842 -0.0390  0.1753
  230SOL    HW1 2890   9.236   6.402   3.857  0.0151  0.9772  0.0061
  230SOL    HW2 2891   9.312   6.443   3.733 -0.2259  0.0150 -0.4662
  231SOL     OW 2892   7.924   7.583   1.356  0.0262 -0.1414 -0.2577
  231SOL    HW1 2893   7.831   7.602   1.348  0.1713  0.6472 -0.1440
  231SOL    HW2 2894   7.954   7.568   1.266 -0.1571 -0.1474 -0.3165
  232SOL     OW 2895   1.265   4.289   1.588 -0.1294  0.1306 -0.0265
  232SOL    HW1 2896   1.250   4.355   1.520 -0.0454 -0.4154 -0.5891
  232SOL    HW2 2897   1.212   4.214   1.560 -1.2761  0.4121  1.2994
  233SOL     OW 2898   8.742   9.543   0.714 -0.8005 -0.3274  0.5806
  233SOL    HW1 2899   8.720   9.455   0.685 -0.0422 -0.2136 -0.3775
  233SOL    HW2 2900   8.830   9.558   0.681 -0.5186  0.4112  1.6194
  234SOL     OW 2901   9.033   8.351   5.811  0.2828  0.0252  0.2335
  234SOL    HW1 2902   9.060   8.331   5.722  2.2584  0.3444  0.7096
  234SOL    HW2 2903   8.993   8.270   5.843  0.5200 -0.4307 -0.6046
  235SOL     OW 2904   0.458   3.900   9.439 -0.0587  0.1907  0.5472
  235SOL    HW1 2905   0.496   3.939   9.518  1.0743 -0.4492  0.3284
  235SOL    HW2 2906   0.529   3.899   9.376 -0.9501  0.6669 -0.4902
  236SOL     OW 2907   3.619   3.022   6.823 -0.2848 -0.4674 -0.0725
  236SOL    HW1 2908   3.537   2.981   6.851 -0.6195 -0.2208 -0.6711
  236SOL    HW2 2909   3.688   2.966   6.860 -0.6356  0.9074  2.9434
  237SOL     OW 2910   4.570   0.166   7.797  0.0281 -0.2839 -0.4542
  237SOL    HW1 2911   4.500   0.175   7.862  1.4778 -0.2845  1.1830
  237SOL    HW2 2912   4.538   0.214   7.721 -1.0377  1.1952  0.8531
  238SOL     OW 2913   6.969   6.025   8.938 -0.5066  1.0104  0.1140
  238SOL    HW1 2914   6.977   6.057   9.028 -1.3833  0.2924  0.4583
  238SOL    HW2 2915   7.059   6.003   8.913 -0.2602  1.1628  0.8308
  239SOL     OW 2916   4.149   6.749   7.285  0.2139  0.3560  0.1138
  239SOL    HW1 2917   4.054   6.764   7.277 -0.0180 -1.2637 -0.6179
  239SOL    HW2 2918   4.169   6.689   7.214  1.7190  0.2849  0.5753
  240SOL     OW 2919   0.540   2.823   3.706  0.1108  0.2893 -0.3874
  240SOL    HW1 2920   0.562   2.843   3.797  3.5104  2.1562 -1.4518
  240SOL    HW2 2921   0.465   2.880   3.688 -0.3523  0.2052  1.1007
  241SOL     OW 2922   1.127   1.815   2.294 -0.2645 -1.0041  0.2322
  241SOL    HW1 2923   1.179   1.776   2.223  1.4699 -1.3342  1.5968
  241SOL    HW2 2924   1.088   1.740   2.338  0.1265 -0.9485  0.6829
  242SOL     OW 2925   0.787   7.378   2.556  0.5961  0.2116 -0.1521
  242SOL    HW1 2926   0.716   7.441   2.567  1.5433  1.4547 -0.8104
  242SOL    HW2 2927   0.795   7.368   2.461  1.6134  0.5000 -0.1083
  243SOL     OW 2928   3.426   2.172   0.032 -0.0788  0.2661 -0.3609
  243SOL    HW1 2929   3.337   2.199   0.008  0.0931  0.5129 -0.7226
  243SOL    HW2 2930   3.430   2.187   0.127 -0.0893  1.2350 -0.4978
  244SOL     OW 2931   5.073   6.776   7.712 -0.3093  0.0787  0.6013
  244SOL    HW1 2932   5.020   6.736   7.781  0.7730 -1.5112  0.5767
  244SOL    HW2 2933   5.129   6.705   7.681  1.2640  1.4745  0.0769
  245SOL     OW 2934   3.725   6.618   2.111  0.0712 -0.3379 -0.1311
  245SOL    HW1 2935   3.633   6.626   2.134  0.0534  0.6068 -0.4793
  245SOL    HW2 2936   3.733   6.667   2.029  0.9748  0.0055  0.1530
  246SOL     OW 2937   8.379   7.796   6.527  0.1550  0.0942 -0.2808
  246SOL    HW1 2938   8.319   7.870   6.538 -0.9247 -0.6665 -0.9133
  246SOL    HW2 2939   8.422   7.787   6.613 -0.9992  0.3479  0.3390
  247SOL     OW 2940   3.997   6.148   8.508 -0.6635  0.2035 -0.9531
  247SOL    HW1 2941   4.018   6.171   8.418  1.4684 -2.3233 -1.2139
  247SOL    HW2 2942   3.927   6.083   8.500 -0.3561 -0.1473 -0.7919
  248SOL     OW 2943   4.399   9.461   8.077  0.0714  0.3220  0.1321
  248SOL    HW1 2944   4.310   9.425   8.072  0.4095 -0.4336 -0.9636
  248SOL    HW2 2945   4.451   9.403   8.021  1.2369  0.8251  0.6571
  249SOL     OW 2946   2.559   3.066   7.667 -0.1484  0.4911 -0.1641
  249SOL    HW1 2947   2.473   3.088   7.632 -0.4483 -0.2253  0.1151
  249SOL    HW2 2948   2.612   3.044   7.590  0.3110  2.6123 -0.5106
  250SOL     OW 2949   8.377   7.688   3.256  0.3461  0.5939 -0.2851
  250SOL    HW1 2950   8.405   7.611   3.206  0.0765 -0.0653  0.5453
  250SOL    HW2 2951   8.323   7.738   3.195 -0.5803 -0.5650 -0.4533
  251SOL     OW 2952   3.847   4.783   4.194 -0.6628  0.1488  0.1954
  251SOL    HW1 2953   3.912   4.845   4.163 -0.3356  0.3177  1.1714
  251SOL    HW2 2954   3.870   4.768   4.286  0.0258 -2.3691 -0.2944
  252SOL     OW 2955   3.270   2.429   8.721 -0.2157 -0.3530 -0.1838
  252SOL    HW1 2956   3.300   2.446   8.632 -0.0640  1.2629  0.1456
  252SOL    HW2 2957   3.340   2.463   8.777 -1.0061  0.0900  0.5547
  253SOL     OW 2958   1.662   1.994   4.848  0.6194  0.1351 -0.1208
  253SOL    HW1 2959   1.729   2.003   4.916  0.7244  1.7598 -0.4090
  253SOL    HW2 2960   1.588   1.953   4.893 -0.3612  3.5709  1.7922
  254SOL     OW 2961   7.895   5.424   2.521 -0.1705 -0.0544 -0.1431
  254SOL    HW1 2962   7.976   5.442   2.569  0.1393  1.3618 -1.1260
  254SOL    HW2 2963   7.842   5.373   2.582  1.5349 -1.2225  0.4522
  255SOL     OW 2964   1.286   6.269   0.352 -0.0170 -0.1184 -0.1843
  255SOL    HW1 2965   1.207   6.281   0.404 -1.2264 -1.5735 -1.5911
  255SOL    HW2 2966   1.314   6.179   0.370  2.0509  0.7093  1.1701
  256SOL     OW 2967   4.176   6.381   0.084 -0.6270  0.1047 -0.1813
  256SOL    HW1 2968   4.218   6.405   0.166 -0.4295 -0.0377 -0.2388
  256SOL    HW2 2969   4.204   6.449   0.022 -0.9080  0.3033 -0.0916
  257SOL     OW 2970   4.851   2.538   7.084  0.7531 -0.4176  0.9684
  257SOL    HW1 2971   4.903   2.466   7.121  0.8367 -1.8472 -1.6627
  257SOL    HW2 2972   4.773   2.542   7.139  1.0322 -2.1629  1.5610
  258SOL     OW 2973   0.710   0.787   9.506 -0.0018 -0.5810  0.0970
  258SOL    HW1 2974   0.729   0.874   9.540 -0.0197 -1.4274  2.4010
  258SOL    HW2 2975   0.795   0.745   9.497 -0.0793 -0.7815  0.2923
  259SOL     OW 2976   3.186   8.519   4.462 -0.3137 -0.2450  0.6394
  259SOL    HW1 2977   3.273   8.541   4.430 -0.5216  0.9386  0.8301
  259SOL    HW2 2978   3.190   8.425   4.481  0.0405 -0.8566 -2.0620
  260SOL     OW 2979   5.678   5.806   4.318  0.1316 -0.0261  0.4625
  260SOL    HW1 2980   5.675   5.740   4.248 -1.4428 -1.3859  1.7258
  260SOL    HW2 2981   5.698   5.888   4.273 -0.8999 -0.8445 -1.6072
  261SOL     OW 2982   7.887   2.172   1.249  0.2439  0.4340 -0.0324
  261SOL    HW1 2983   7.931   2.105   1.302 -0.0361 -0.1441 -0.5149
  261SOL    HW2 2984   7.956   2.236   1.230  0.3509  0.6333  0.9919
  262SOL     OW 2985   8.603   7.654   8.394 -0.1818 -0.2135 -0.2036
  262SOL    HW1 2986   8.672   7.656   8.460 -0.3082 -0.3492 -0.0670
  262SOL    HW2 2987   8.649   7.667   8.311  0.0179 -0.3771 -0.1196
  263SOL     OW 2988   2.161   5.565   1.069  0.2934  0.2827  0.4889
  263SOL    HW1 2989   2.096   5.626   1.034  0.9065  0.6445 -0.0386
  263SOL    HW2 2990   2.157   5.578   1.164 -0.7503 -0.0623  0.5048
  264SOL     OW 2991   2.280   1.991   4.058 -1.0652  0.0060  0.1731
  264SOL    HW1 2992   2.196   2.007   4.101 -1.2973 -0.7434  0.0246
  264SOL    HW2 2993   2.280   2.048   3.981 -1.4391  0.0208  0.1839
  265SOL     OW 2994   7.015   3.033   1.008  0.4747 -0.5784 -0.3551
  265SOL    HW1 2995   7.085   3.095   1.027  0.5568 -0.8572  0.2678
  265SOL    HW2 2996   6.992   2.996   1.093 -1.9901  1.1656 -0.1377
  266SOL     OW 2997   4.169   7.429   7.509  0.3856 -0.0422 -0.7540
  266SOL    HW1 2998   4.084   7.449   7.471  0.6001  0.1273 -1.1449
  266SOL    HW2 2999   4.232   7.469   7.450  0.7534 -0.4963 -0.6729
  267SOL     OW 3000   8.956   4.647   1.467  0.6673  0.0756 -0.1032
  267SOL    HW1 3001   8.905   4.604   1.535 -1.2458  0.8136 -1.0065
  267SOL    HW2 3002   9.003   4.575   1.424  0.4398 -0.6260  0.7894
  268SOL     OW 3003   1.569   2.612   2.924  0.0255 -0.5490 -0.3957
  268SOL    HW1 3004   1.516   2.660   2.860 -0.9264 -0.8538  0.1334
  268SOL    HW2 3005   1.528   2.634   3.008  1.4633  0.1251  0.1513
  269SOL     OW 3006   5.392   8.739   7.048  0.0852 -0.4980  0.0539
  269SOL    HW1 3007   5.380   8.778   6.961  1.3007 -1.6290 -0.6601
  269SOL    HW2 3008   5.305   8.744   7.088 -0.8528 -1.1732 -1.7562
  270SOL     OW 3009   0.768   2.474   1.577 -0.1090  0.0320 -0.6195
  270SOL    HW1 3010   0.784   2.547   1.517  0.2532  0.3332 -0.1691
  270SOL    HW2 3011   0.690   2.500   1.626 -0.6795 -0.4241 -1.2736
  271SOL     OW 3012   8.209   1.685   4.263 -0.0862 -0.4336  0.3357
  271SOL    HW1 3013   8.174   1.729   4.341  0.8487 -0.4610  0.7925
  271SOL    HW2 3014   8.257   1.610   4.298 -0.0193 -0.6878 -0.3018
  272SOL     OW 3015   1.370   0.255   3.024  0.0817  0.1704  0.5353
  272SOL    HW1 3016   1.376   0.350   3.026  4.2928  0.2955 -2.6022
  272SOL    HW2 3017   1.317   0.236   2.947 -0.1069  0.0117  0.7046
  273SOL     OW 3018   9.111   7.893   3.287  0.3024  0.3074 -0.4003
  273SOL    HW1 3019   9.044   7.950   3.249  1.0848  1.7887  0.3462
  273SOL    HW2 3020   9.172   7.875   3.216 -0.3661 -0.2806 -0.8413
  274SOL     OW 3021   9.537   0.314   6.362 -0.2945 -0.0304  0.0900
  274SOL    HW1 3022   9.605   0.295   6.297  0.4424  0.5423  0.6622
  274SOL    HW2 3023   9.554   0.405   6.387  0.5244 -0.7156  2.3076
  275SOL     OW 3024   0.980   1.624   2.465  0.1448  0.0607 -0.2126
  275SOL    HW1 3025   1.011   1.596   2.551 -0.2256 -0.2598 -0.1789
  275SOL    HW2 3026   0.888   1.597   2.463  0.5678 -1.4920 -1.3559
  276SOL     OW 3027   8.303   7.298   8.345  0.2391 -0.1310 -0.1710
  276SOL    HW1 3028   8.282   7.280   8.437 -0.8992  1.1726 -0.1465
  276SOL    HW2 3029   8.348   7.218   8.315 -1.7472 -1.7064  0.7825
  277SOL     OW 3030   2.027   3.407   3.934 -0.1959 -0.9576  0.0374
  277SOL    HW1 3031   2.008   3.340   4.000 -1.4050 -1.4745 -0.8083
  277SOL    HW2 3032   1.957   3.398   3.869  1.2551 -0.8562 -1.6327
  278SOL     OW 3033   3.031   3.503   1.813  0.1614  0.4764 -0.0834
  278SOL    HW1 3034   2.936   3.492   1.821  0.2335  0.4467  0.9790
  278SOL    HW2 3035   3.066   3.419   1.843  0.6103  1.8874  3.8948
  279SOL     OW 3036   0.902   3.086   1.972 -0.9114 -0.5040 -0.1439
  279SOL    HW1 3037   0.910   3.126   2.058  2.8170 -2.3436  0.5755
  279SOL    HW2 3038   0.927   2.994   1.985 -1.1728 -1.0895 -3.0184
  280SOL     OW 3039   5.547   3.630   4.924  0.3038 -0.1459 -0.0183
  280SOL    HW1 3040   5.607   3.561   4.952 -0.7125 -1.1162 -0.2097
  280SOL    HW2 3041   5.576   3.707   4.974  1.9482 -0.4809 -0.3847
  281SOL     OW 3042   6.986   0.519   1.387  0.0424 -0.0628 -0.3143
  281SOL    HW1 3043   7.052   0.478   1.331  0.0073 -0.3866 -0.1214
  281SOL    HW2 3044   7.026   0.601   1.415 -0.2410  0.4738 -1.4318
  282SOL     OW 3045   6.798   3.869   2.413  0.1265 -0.0713 -0.5467
  282SOL    HW1 3046   6.811   3.801   2.347 -0.3749  0.8033 -1.5859
  282SOL    HW2 3047   6.884   3.881   2.454  0.5009 -0.4597 -1.2126
  283SOL     OW 3048   5.464   2.409   3.870  0.4333 -0.0177 -0.2310
  283SOL    HW1 3049   5.535   2.425   3.808  2.2565  0.6820  1.9108
  283SOL    HW2 3050   5.503   2.353   3.938 -0.5947  1.5748  1.7833
  284SOL     OW 3051   2.299   9.015   1.293  0.2113  0.1781 -0.0138
  284SOL    HW1 3052   2.248   8.972   1.361  0.2670 -0.2548 -0.2395
  284SOL    HW2 3053   2.243   9.012   1.215  0.2044  0.5414 -0.0219
  285SOL     OW 3054   2.422   6.672   0.404 -0.6718 -0.2750  0.3885
  285SOL    HW1 3055   2.503   6.686   0.354 -1.9282 -0.4886 -1.8380
  285SOL    HW2 3056   2.404   6.757   0.444  0.9187 -0.3734  1.4072
  286SOL     OW 3057   5.403   4.528   1.998 -0.5779 -0.5676 -0.0307
  286SOL    HW1 3058   5.409   4.598   2.064 -1.7808 -0.8733  0.4346
  286SOL    HW2 3059   5.471   4.549   1.934 -1.8190  1.8641 -0.6801
  287SOL     OW 3060   0.138   1.337   6.220  0.4951 -0.0664 -0.4606
  287SOL    HW1 3061   0.220   1.343   6.173  0.6617  1.0908 -0.0456
  287SOL    HW2 3062   0.154   1.382   6.303  0.2786 -2.1994  0.8201
  288SOL     OW 3063   9.473   7.273   8.116 -0.0089 -0.1491 -0.4437
  288SOL    HW1 3064   9.514   7.359   8.120 -0.8876  0.3118 -1.1185
  288SOL    HW2 3065   9.438   7.259   8.204  1.1604 -0.3523  0.0112
  289SOL     OW 3066   0.613   8.273   2.965  0.2549 -0.1591 -0.0060
  289SOL    HW1 3067   0.566   8.191   2.953  0.2132 -0.2314  0.6144
  289SOL    HW2 3068   0.646   8.269   3.055  0.3038  0.4774  0.0111
  290SOL     OW 3069   1.932   5.327   9.393  0.2787  0.0047  0.3936
  290SOL    HW1 3070   1.954   5.274   9.316  1.7930 -0.5361  1.1594
  290SOL    HW2 3071   1.889   5.266   9.453  1.2552 -0.1874  0.9260
  291SOL     OW 3072   5.904   6.932   5.906 -0.1034 -0.2172  0.1766
  291SOL    HW1 3073   5.897   6.862   5.841 -0.0756 -0.8011  0.7933
  291SOL    HW2 3074   5.997   6.955   5.908 -0.0085 -0.6233  0.4484
  292SOL     OW 3075   3.412   0.804   2.800  0.1583 -0.1273  0.3079
  292SOL    HW1 3076   3.382   0.867   2.865 -1.2238 -0.7155  0.2762
  292SOL    HW2 3077   3.494   0.770   2.835 -0.1330  0.1935  1.3218
  293SOL     OW 3078   3.800   6.725   8.368  0.0564 -0.4839 -0.3171
  293SOL    HW1 3079   3.749   6.775   8.305 -1.1044 -1.2850 -0.0474
  293SOL    HW2 3080   3.861   6.674   8.314 -0.6203 -0.8285 -0.7759
  294SOL     OW 3081   6.893   2.199   7.645 -0.1354 -0.3129 -0.3942
  294SOL    HW1 3082   6.986   2.208   7.665 -0.2609 -0.4226  0.2452
  294SOL    HW2 3083   6.874   2.273   7.586  0.4453 -0.5343 -0.8709
  295SOL     OW 3084   1.747   8.640   8.671 -0.4539 -0.0213  0.5207
  295SOL    HW1 3085   1.727   8.581   8.599 -0.1328  0.7165 -0.1816
  295SOL    HW2 3086   1.841   8.656   8.664 -0.1192 -1.0389  1.9602
  296SOL     OW 3087   5.232   3.151   5.013 -0.0689  0.4422 -0.0312
  296SOL    HW1 3088   5.228   3.245   5.028 -0.6575  0.3479  0.4219
  296SOL    HW2 3089   5.202   3.112   5.095  1.1874 -0.1622  0.1541
  297SOL     OW 3090   9.074   2.026   4.952 -0.1139 -0.2527  0.0463
  297SOL    HW1 3091   9.039   2.094   5.010  0.0819  0.2758 -0.4468
  297SOL    HW2 3092   9.165   2.016   4.979  0.2827  0.7382 -0.8195
  298SOL     OW 3093   3.809   2.590   6.441 -0.4349 -0.1916 -0.2307
  298SOL    HW1 3094   3.744   2.520   6.442 -1.5136  0.7919 -0.3898
  298SOL    HW2 3095   3.767   2.663   6.486  0.0415  0.9015 -1.5079
  299SOL     OW 3096   3.731   3.024   4.299  0.4617  0.0349  0.1420
  299SOL    HW1 3097   3.743   2.933   4.325 -0.9281 -0.8342 -1.9591
  299SOL    HW2 3098   3.654   3.053   4.347  0.2080 -0.2931 -0.0638
  300SOL     OW 3099   9.436   4.129   1.555  0.2355  0.0058  0.0068
  300SOL    HW1 3100   9.400   4.091   1.475  1.1054 -0.2895 -0.2570
  300SOL    HW2 3101   9.363   4.129   1.617 -0.2746 -0.3530 -0.5856
  301SOL     OW 3102   0.213   1.579   8.035  0.1670  0.5183 -0.0835
  301SOL    HW1 3103   0.130   1.533   8.022  0.5467 -0.1510 -0.1707
  301SOL    HW2 3104   0.190   1.655   8.087 -0.3001 -0.3348  0.9915
  302SOL     OW 3105   3.187   1.768   3.669 -0.0824  0.3655  0.3549
  302SOL    HW1 3106   3.272   1.811   3.662  0.2113 -0.0418  1.2900
  302SOL    HW2 3107   3.188   1.702   3.600  0.6362 -0.0877  0.7881
  303SOL     OW 3108   4.649   1.678   1.592  0.3687  0.0011 -0.0465
  303SOL    HW1 3109   4.560   1.706   1.615  0.6696  1.0261 -0.1087
  303SOL    HW2 3110   4.675   1.620   1.664  0.5159  1.5263  1.1744
  304SOL     OW 3111   6.456   2.380   3.924  0.2796 -0.2952 -0.0907
  304SOL    HW1 3112   6.485   2.289   3.934  2.0904  0.1961 -0.4352
  304SOL    HW2 3113   6.364   2.374   3.899  0.0330 -1.9841  1.0981
  305SOL     OW 3114   2.977   9.294   9.226  0.0286 -0.0954  0.1561
  305SOL    HW1 3115   2.884   9.312   9.209  0.0596  1.6088  1.5298
  305SOL    HW2 3116   3.021   9.328   9.148 -0.4590 -0.6285 -0.3675
  306SOL     OW 3117   4.364   2.855   3.894  0.4315 -0.4255  0.1640
  306SOL    HW1 3118   4.324   2.774   3.925  0.1476 -0.0359  0.8260
  306SOL    HW2 3119   4.323   2.924   3.946 -0.1301  0.2662 -1.1272
  307SOL     OW 3120   8.007   8.747   7.122  0.5514 -0.5772  0.0004
  307SOL    HW1 3121   7.976   8.658   7.137  1.1632 -0.6694  0.7806
  307SOL    HW2 3122   7.928   8.800   7.119  0.2483 -0.9663  0.8383
  308SOL     OW 3123   8.746   0.270   6.461  0.0839  0.1419  0.1429
  308SOL    HW1 3124   8.792   0.342   6.418  0.7438 -0.6155 -0.4403
  308SOL    HW2 3125   8.658   0.272   6.424  0.3475  0.1339 -0.4865
  309SOL     OW 3126   8.874   8.661   6.114  0.0683 -0.4769 -0.3822
  309SOL    HW1 3127   8.929   8.704   6.049 -0.1550  1.1621  0.4531
  309SOL    HW2 3128   8.928   8.657   6.193 -0.6686  0.2890  0.1761
  310SOL     OW 3129   6.674   6.474   4.795 -0.7040  0.7252 -0.5812
  310SOL    HW1 3130   6.716   6.436   4.719  0.6243  0.8252  0.0804
  310SOL    HW2 3131   6.682   6.568   4.783 -0.1694  0.7396 -0.1563
  311SOL     OW 3132   2.678   9.415   6.062 -0.0151 -0.1689 -0.4862
  311SOL    HW1 3133   2.704   9.340   6.115 -1.0090  0.8231  1.4991
  311SOL    HW2 3134   2.583   9.421   6.073  0.0078  1.1969 -0.8448
  312SOL     OW 3135   4.429   0.570   5.486 -0.2131 -0.2656  0.5713
  312SOL    HW1 3136   4.419   0.523   5.569  2.2561  0.0131  1.1066
  312SOL    HW2 3137   4.495   0.637   5.505 -3.6181  3.6341 -0.1168
  313SOL     OW 3138   9.263   1.934   2.731 -0.2585 -0.1086  1.3537
  313SOL    HW1 3139   9.313   1.970   2.804 -0.0636 -0.9513  1.6415
  313SOL    HW2 3140   9.233   1.849   2.761 -0.0639 -0.5287  0.4065
  314SOL     OW 3141   2.277   8.964   7.041 -0.4356  0.2097  0.6513
  314SOL    HW1 3142   2.369   8.942   7.029 -0.0865  1.6949  0.3433
  314SOL    HW2 3143   2.229   8.904   6.984  0.5169  0.8220 -0.8420
  315SOL     OW 3144   7.314   3.784   4.044 -0.3193  0.0287 -0.4926
  315SOL    HW1 3145   7.247   3.716   4.043 -0.5684  0.2211  0.9288
  315SOL    HW2 3146   7.287   3.845   3.977 -1.4002 -0.0709 -0.1670
  316SOL     OW 3147   0.161   0.211   9.334 -0.1168  0.6214 -0.0476
  316SOL    HW1 3148   0.214   0.225   9.256  1.3223 -2.0269  0.3274
  316SOL    HW2 3149   0.114   0.129   9.316  0.8128 -0.4634  2.0669
  317SOL     OW 3150   1.076   7.276   0.229  0.0217  0.3444  0.8824
  317SOL    HW1 3151   1.168   7.301   0.228 -0.5043  2.4978 -0.6303
  317SOL    HW2 3152   1.042   7.314   0.310  0.2727  0.2726  1.0230
  318SOL     OW 3153   9.133   8.600   6.777  0.2327  0.2338 -0.5324
  318SOL    HW1 3154   9.064   8.653   6.818 -0.2880 -1.3131  0.7097
  318SOL    HW2 3155   9.185   8.663   6.727  0.0488  2.0386  1.3644
  319SOL     OW 3156   0.230   0.102   4.834 -0.1787  0.3743 -0.2548
  319SOL    HW1 3157   0.253   0.041   4.905 -1.7450 -1.9582 -1.6086
  319SOL    HW2 3158   0.142   0.132   4.856 -0.2681  0.4253 -0.6680
  320SOL     OW 3159   5.262   0.674   4.584 -0.3627  0.3028  0.6752
  320SOL    HW1 3160   5.273   0.604   4.520 -2.6979 -0.7783  1.3384
  320SOL    HW2 3161   5.216   0.633   4.657  0.2428  2.0239  2.1067
  321SOL     OW 3162   3.964   1.416   8.116  0.2173 -0.1238 -0.0000
  321SOL    HW1 3163   3.977   1.355   8.044 -0.1347 -0.6793  0.4041
  321SOL    HW2 3164   3.889   1.470   8.088  0.3160 -0.0912 -0.2060
  322SOL     OW 3165   1.958   6.592   8.448  0.0315 -0.0352 -0.4932
  322SOL    HW1 3166   1.863   6.586   8.455 -0.1419  0.4428 -1.9900
  322SOL    HW2 3167   1.981   6.528   8.380  0.7999 -0.2285 -0.0671
  323SOL     OW 3168   6.251   8.021   6.708  0.4293  0.3074 -0.2034
  323SOL    HW1 3169   6.291   7.960   6.646 -0.7483 -0.2375 -0.4528
  323SOL    HW2 3170   6.307   8.099   6.704  1.6490 -0.5421 -0.2756
  324SOL     OW 3171   4.836   1.984   8.086 -0.3819  0.0286  0.0546
  324SOL    HW1 3172   4.795   1.929   8.153  0.5906 -2.5447 -1.3218
  324SOL    HW2 3173   4.902   2.035   8.134  0.3483 -1.8039  1.0930
  325SOL     OW 3174   4.813   7.657   0.273 -0.3877 -0.2748  1.1611
  325SOL    HW1 3175   4.783   7.721   0.210  1.3545 -0.0826  0.4773
  325SOL    HW2 3176   4.757   7.581   0.259 -0.2291 -0.1332 -0.4399
  326SOL     OW 3177   7.753   8.092   6.412  0.1109 -0.2969 -0.0247
  326SOL    HW1 3178   7.734   8.186   6.418 -0.3256 -0.4773  2.3646
  326SOL    HW2 3179   7.777   8.078   6.321  0.6804  2.2388 -0.3301
  327SOL     OW 3180   6.374   1.792   5.967 -0.1825  0.2154  0.4812
  327SOL    HW1 3181   6.371   1.745   6.050 -0.0598 -0.6601  0.0017
  327SOL    HW2 3182   6.296   1.849   5.969  0.5815  1.2594  1.7826
  328SOL     OW 3183   2.131   3.263   6.365 -0.0547  0.0503 -0.1809
  328SOL    HW1 3184   2.143   3.357   6.348  0.7973 -0.0432 -0.1340
  328SOL    HW2 3185   2.046   3.242   6.325  0.2229  0.6165 -1.0993
  329SOL     OW 3186   8.507   7.325   2.218  0.0205 -0.6653 -0.0469
  329SOL    HW1 3187   8.459   7.341   2.300  0.9914 -0.3647  0.4773
  329SOL    HW2 3188   8.449   7.267   2.168 -0.7984 -0.4789  0.6513
  330SOL     OW 3189   7.252   6.625   3.348  0.2200 -0.4678 -0.3820
  330SOL    HW1 3190   7.182   6.686   3.370 -0.3397 -1.5386  0.8927
  330SOL    HW2 3191   7.316   6.679   3.302 -1.5427  0.4914 -1.8673
  331SOL     OW 3192   3.379   1.075   8.369 -0.4193 -0.3164 -0.0126
  331SOL    HW1 3193   3.284   1.075   8.362 -0.5685  0.3502  1.5562
  331SOL    HW2 3194   3.397   1.041   8.457  0.7085  0.8666  0.2506
  332SOL     OW 3195   2.125   8.361   0.336 -0.5359  0.3307  0.2314
  332SOL    HW1 3196   2.151   8.305   0.264 -2.2339 -0.6746  0.3494
  332SOL    HW2 3197   2.046   8.405   0.305 -2.4088 -1.5100  2.0453
  333SOL     OW 3198   4.322   8.565   7.060 -0.6325  0.2411  0.4833
  333SOL    HW1 3199   4.291   8.655   7.068 -0.6997  0.3498 -0.8931
  333SOL    HW2 3200   4.394   8.570   6.997  1.5428 -0.1791  2.7530
  334SOL     OW 3201   3.139   5.466   0.532 -0.0153  0.2175 -0.1496
  334SOL    HW1 3202   3.067   5.403   0.529 -0.9239  1.1216  1.4055
  334SOL    HW2 3203   3.215   5.414   0.559 -0.7236 -0.2741  0.9902
  335SOL     OW 3204   9.560   6.305   5.164 -0.1215 -0.1176  0.2308
  335SOL    HW1 3205   9.471   6.270   5.166 -0.5916  0.9927  2.9010
  335SOL    HW2 3206   9.550   6.395   5.194  1.7807  0.4652 -0.7336
  336SOL     OW 3207   1.149   4.056   7.412 -0.0838  0.4380  0.3744
  336SOL    HW1 3208   1.157   4.151   7.397  0.8506  0.2298 -0.5166
  336SOL    HW2 3209   1.079   4.029   7.353  0.8415  0.2966 -0.6839
  337SOL     OW 3210   4.345   6.787   7.716 -0.3149 -0.1415 -0.7207
  337SOL    HW1 3211   4.387   6.704   7.737  1.9036  0.2413 -3.1741
  337SOL    HW2 3212   4.263   6.762   7.673 -0.1395 -1.0184 -0.5639
  338SOL     OW 3213   4.397   2.173   7.656  0.1388 -0.6850 -0.0890
  338SOL    HW1 3214   4.314   2.184   7.702 -0.1481 -0.8453 -0.5506
  338SOL    HW2 3215   4.427   2.086   7.682 -0.9034 -1.5364 -1.5284
  339SOL     OW 3216   7.382   4.628   3.537  0.1148  0.3657 -0.4246
  339SOL    HW1 3217   7.358   4.536   3.539  1.3505  0.0225 -0.6241
  339SOL    HW2 3218   7.324   4.669   3.602 -0.4694 -0.5363 -0.3585
  340SOL     OW 3219   2.661   8.314   5.150  0.0032  0.2664 -0.3773
  340SOL    HW1 3220   2.753   8.289   5.150  0.0315  0.3583 -0.0502
  340SOL    HW2 3221   2.646   8.351   5.063  0.5356  1.1604 -0.1080
  341SOL     OW 3222   2.137   8.208   2.002 -0.0935  0.4562  0.0105
  341SOL    HW1 3223   2.071   8.276   2.017 -0.2493  0.7960 -1.8959
  341SOL    HW2 3224   2.101   8.154   1.932  1.6686  0.7303 -1.1909
  342SOL     OW 3225   4.193   0.700   8.028  0.4763  0.3632  0.2769
  342SOL    HW1 3226   4.214   0.616   8.067 -0.2141 -0.7454 -1.6085
  342SOL    HW2 3227   4.098   0.698   8.016  0.3999  1.5706  0.4906
  343SOL     OW 3228   5.020   2.726   2.144  0.9378  0.3721  0.0905
  343SOL    HW1 3229   4.936   2.768   2.129  0.6384 -0.0092  0.6580
  343SOL    HW2 3230   5.033   2.729   2.239  0.7274 -1.1080  0.2016
  344SOL     OW 3231   5.163   9.075   1.829  0.6457  0.2780  0.5367
  344SOL    HW1 3232   5.115   9.128   1.893  0.4500  1.1553 -0.3169
  344SOL    HW2 3233   5.197   9.139   1.766  0.2143 -0.6381 -0.6508
  345SOL     OW 3234   8.620   0.019   8.899 -0.4257 -0.9129 -0.0415
  345SOL    HW1 3235   8.696   0.040   8.845 -0.5410  0.2610  0.2306
  345SOL    HW2 3236   8.645   0.047   8.987 -0.9805 -0.9937  0.1458
  346SOL     OW 3237   6.918   8.765   8.840  0.5053  0.2745  0.3521
  346SOL    HW1 3238   6.981   8.771   8.768  0.2961 -0.8889  0.0618
  346SOL    HW2 3239   6.849   8.707   8.807  1.2194 -1.6384  2.0655
  347SOL     OW 3240   2.442   5.699   8.526  0.4267 -0.3247 -0.6537
  347SOL    HW1 3241   2.425   5.607   8.509  0.1936 -0.3079 -0.5261
  347SOL    HW2 3242   2.476   5.702   8.616 -2.3556 -0.0270  0.4986
  348SOL     OW 3243   4.147   2.219   8.698 -0.5298 -0.7212 -0.4219
  348SOL    HW1 3244   4.084   2.155   8.731 -0.2248 -0.8737 -0.1377
  348SOL    HW2 3245   4.205   2.168   8.642  0.5307 -0.9580  0.8539
  349SOL     OW 3246   5.515   1.760   5.080  0.0256 -0.0410  0.0542
  349SOL    HW1 3247   5.536   1.853   5.090  0.9467 -0.3505  1.0990
  349SOL    HW2 3248   5.443   1.745   5.140 -0.9004  0.2258 -0.9481
  350SOL     OW 3249   8.169   2.067   0.567 -0.3835  0.3878 -0.3112
  350SOL    HW1 3250   8.263   2.058   0.587 -0.4123  1.1298  0.2037
  350SOL    HW2 3251   8.166   2.139   0.503 -0.6771  1.0921  0.4711
  351SOL     OW 3252   3.654   1.993   7.122  0.2125 -0.2199 -0.3462
  351SOL    HW1 3253   3.686   2.070   7.169 -0.6088  0.2346 -0.4993
  351SOL    HW2 3254   3.711   1.921   7.150  1.0729  0.4648 -0.2962
  352SOL     OW 3255   7.295   5.778   5.289  0.2686 -0.0955 -0.1673
  352SOL    HW1 3256   7.324   5.743   5.206 -1.1166 -2.6412  0.3134
  352SOL    HW2 3257   7.330   5.867   5.292  2.7670 -0.9233 -2.1519
  353SOL     OW 3258   6.181   5.567   5.559  0.1363  0.0470  0.5872
  353SOL    HW1 3259   6.229   5.650   5.559  1.2160 -0.4938  2.6974
  353SOL    HW2 3260   6.098   5.587   5.517  1.0444  1.7609 -0.5080
  354SOL     OW 3261   0.327   4.840   1.189 -0.6699 -0.0185  0.2014
  354SOL    HW1 3262   0.407   4.874   1.149 -0.4088 -0.0351  0.6933
  354SOL    HW2 3263   0.280   4.797   1.118 -0.5410  0.5349 -0.2228
  355SOL     OW 3264   4.971   4.505   0.661  0.2543  0.1412  0.1908
  355SOL    HW1 3265   5.005   4.440   0.723  2.5725 -1.1323 -2.2105
  355SOL    HW2 3266   5.020   4.584   0.680  0.8049 -0.1806  0.1290
  356SOL     OW 3267   2.977   2.499   9.386  0.3024  0.3466  0.1863
  356SOL    HW1 3268   2.945   2.410   9.396  0.5722  0.1884 -0.3050
  356SOL    HW2 3269   2.991   2.509   9.292 -0.4792  1.1761  0.1477
  357SOL     OW 3270   9.371   2.314   5.198 -0.6219  0.0157  0.0404
  357SOL    HW1 3271   9.465   2.299   5.206 -0.4659  0.3421 -1.0121
  357SOL    HW2 3272   9.356   2.321   5.104 -1.5893  0.6900  0.2303
  358SOL     OW 3273   5.188   5.309   4.771  0.4417 -0.0378 -0.6785
  358SOL    HW1 3274   5.167   5.228   4.818 -0.3966 -0.3350 -1.5352
  358SOL    HW2 3275   5.268   5.341   4.814  0.6477 -1.1787 -0.1569
  359SOL     OW 3276   3.092   3.500   0.313 -0.1208 -0.0276 -0.2010
  359SOL    HW1 3277   3.122   3.580   0.270 -0.7819  1.2440  1.5969
  359SOL    HW2 3278   3.060   3.445   0.241  1.1623  0.9188 -1.5618
  360SOL     OW 3279   7.406   1.252   9.085 -0.1159  0.4057 -0.4453
  360SOL    HW1 3280   7.368   1.208   9.009  1.9068  0.9462 -1.8480
  360SOL    HW2 3281   7.500   1.230   9.081 -0.0363 -0.1717  2.3609
  361SOL     OW 3282   6.664   3.011   5.042  0.3804  0.3017  0.3011
  361SOL    HW1 3283   6.618   2.944   4.991  0.8345 -0.9853  1.5021
  361SOL    HW2 3284   6.743   3.030   4.991 -0.4906  1.0908 -0.8056
  362SOL     OW 3285   7.842   4.631   8.289  0.5967 -0.3593  0.1928
  362SOL    HW1 3286   7.825   4.719   8.324  2.2427  0.2683 -0.4613
  362SOL    HW2 3287   7.886   4.586   8.361  1.2275 -0.0753  0.0015
  363SOL     OW 3288   8.869   2.633   8.998 -0.5821 -0.1621 -0.0642
  363SOL    HW1 3289   8.903   2.699   9.059 -1.7955 -0.6591  1.2002
  363SOL    HW2 3290   8.932   2.561   9.004 -0.8322 -0.3174  0.8213
  364SOL     OW 3291   1.328   8.808   7.012  0.0967 -0.1520 -0.5576
  364SOL    HW1 3292   1.326   8.721   7.053 -0.2368 -0.0683 -0.3957
  364SOL    HW2 3293   1.416   8.816   6.977  0.2089 -0.4518 -0.3433
  365SOL     OW 3294   5.750   3.510   1.387 -0.1566  0.5505  0.2279
  365SOL    HW1 3295   5.728   3.603   1.398 -1.2106  0.5283 -1.2803
  365SOL    HW2 3296   5.693   3.465   1.450 -0.1972  0.8808  0.4332
  366SOL     OW 3297   6.149   8.618   7.800 -0.4093  0.0923  0.3933
  366SOL    HW1 3298   6.074   8.562   7.778 -1.4046  1.8272 -0.8047
  366SOL    HW2 3299   6.113   8.707   7.801  1.3376  0.8182  1.2764
  367SOL     OW 3300   7.360   8.222   0.211 -0.0996 -0.2478 -0.5557
  367SOL    HW1 3301   7.366   8.170   0.131 -1.1573 -1.5438  0.1705
  367SOL    HW2 3302   7.275   8.265   0.205 -0.8397 -1.4971  0.5042
  368SOL     OW 3303   7.651   9.521   6.066 -0.8008  0.0999  0.3651
  368SOL    HW1 3304   7.582   9.489   6.008 -0.3451 -1.8324  0.8381
  368SOL    HW2 3305   7.726   9.534   6.008 -1.4135  1.9438 -0.1008
  369SOL     OW 3306   6.723   7.863   5.613  0.3597  0.1657  0.6916
  369SOL    HW1 3307   6.666   7.884   5.539 -0.5390 -1.1431  0.9914
  369SOL    HW2 3308   6.776   7.942   5.624  1.2380  0.0771 -1.9711
  370SOL     OW 3309   1.398   5.882   8.307  0.2349  0.1517  0.3937
  370SOL    HW1 3310   1.388   5.792   8.275  0.3608 -0.4887  2.0449
  370SOL    HW2 3311   1.338   5.888   8.381 -1.4906  2.1995 -1.0795
  371SOL     OW 3312   0.036   2.389   8.320  0.6657 -0.2299 -0.2025
  371SOL    HW1 3313   0.071   2.374   8.232  0.3671 -2.0180 -0.0556
  371SOL    HW2 3314   0.106   2.435   8.366  1.9894 -1.8336 -0.5421
  372SOL     OW 3315   7.235   6.739   4.920 -0.0662  0.0970 -0.2123
  372SOL    HW1 3316   7.316   6.758   4.872  0.3338 -1.1649 -0.0725
  372SOL    HW2 3317   7.245   6.787   5.002 -0.4475  1.7062 -1.0724
  373SOL     OW 3318   5.055   1.101   0.836 -0.0992  0.1738  0.0657
  373SOL    HW1 3319   5.030   1.139   0.920 -0.4337 -1.0170  0.5249
  373SOL    HW2 3320   4.979   1.114   0.780 -0.5769 -0.6310  0.5069
  374SOL     OW 3321   7.007   1.239   1.407 -0.0272  0.2577 -0.0257
  374SOL    HW1 3322   7.009   1.325   1.365 -0.0838  1.4622  2.2646
  374SOL    HW2 3323   6.991   1.258   1.499 -2.6438 -2.3716  0.2064
  375SOL     OW 3324   1.992   0.272   1.216 -0.2124  0.5931 -0.4748
  375SOL    HW1 3325   2.063   0.262   1.279  0.1307 -1.2190 -1.0815
  375SOL    HW2 3326   1.912   0.269   1.269  0.1244  1.8129  0.1227
  376SOL     OW 3327   4.895   5.541   7.880 -0.0320 -0.2981  0.1923
  376SOL    HW1 3328   4.942   5.570   7.802 -0.4571  2.9566  1.0053
  376SOL    HW2 3329   4.939   5.585   7.952 -2.4142  0.4544  1.2927
  377SOL     OW 3330   1.191   8.027   4.305  0.5467 -0.6139  0.6612
  377SOL    HW1 3331   1.283   8.027   4.333  0.5951  2.1040  0.8579
  377SOL    HW2 3332   1.161   7.938   4.318  3.5665 -1.9820 -0.8135
  378SOL     OW 3333   1.032   8.004   5.800  0.5447  0.2109 -0.9878
  378SOL    HW1 3334   1.073   8.081   5.761 -0.1228  0.6984 -0.7619
  378SOL    HW2 3335   0.979   8.040   5.872  2.2576 -0.7166  0.8118
  379SOL     OW 3336   6.627   7.318   6.758 -0.0644 -0.0362  0.1928
  379SOL    HW1 3337   6.609   7.412   6.755 -0.7117 -0.1491  0.2545
  379SOL    HW2 3338   6.665   7.298   6.672  1.9112  0.6120  0.8690
  380SOL     OW 3339   6.804   0.941   5.663  0.1962  0.2802  0.0752
  380SOL    HW1 3340   6.712   0.963   5.651 -0.2683 -1.5304  0.1313
  380SOL    HW2 3341   6.843   0.953   5.577  0.0239  1.4002  0.1284
  381SOL     OW 3342   5.762   7.221   7.998 -0.4213  0.3865  0.1895
  381SOL    HW1 3343   5.842   7.255   8.038 -1.0425  2.1689  0.0126
  381SOL    HW2 3344   5.766   7.252   7.907 -0.5392 -0.9248 -0.2837
  382SOL     OW 3345   6.249   6.791   0.734  0.3769 -0.0420 -1.1764
  382SOL    HW1 3346   6.212   6.705   0.713 -0.0018 -0.0051 -0.6806
  382SOL    HW2 3347   6.174   6.842   0.764  0.9643 -0.2927  0.8880
  383SOL     OW 3348   5.530   9.041   6.402 -0.0519  0.1107  0.5251
  383SOL    HW1 3349   5.506   8.957   6.441  2.0298 -0.6123  0.3552
  383SOL    HW2 3350   5.599   9.075   6.459  1.5820  0.0005 -1.2766
  384SOL     OW 3351   5.215   8.384   4.317 -0.3249 -0.0297 -0.7557
  384SOL    HW1 3352   5.181   8.383   4.407 -1.2709  0.9705 -1.0730
  384SOL    HW2 3353   5.206   8.294   4.287 -2.3048  0.0897 -0.6535
  385SOL     OW 3354   3.036   4.385   9.497  0.0473  0.0245  0.1668
  385SOL    HW1 3355   3.022   4.427   9.413 -0.6278  2.5736  1.4734
  385SOL    HW2 3356   2.984   4.305   9.493 -0.8296  0.6522 -1.4384
  386SOL     OW 3357   4.594   8.184   7.381 -0.2988  0.2659  0.1947
  386SOL    HW1 3358   4.597   8.221   7.292 -1.2205 -1.5509 -0.6573
  386SOL    HW2 3359   4.676   8.136   7.389 -0.5811 -0.2554 -0.0065
  387SOL     OW 3360   9.554   3.691   4.554 -0.2213  0.0830  0.3443
  387SOL    HW1 3361   9.587   3.780   4.539  1.2910 -0.2366  1.4969
  387SOL    HW2 3362   9.565   3.677   4.648 -1.2755 -1.0276  0.3287
  388SOL     OW 3363   3.334   0.328   2.547 -0.3173 -0.2000 -0.1342
  388SOL    HW1 3364   3.281   0.269   2.601 -2.2626  0.8592 -0.7639
  388SOL    HW2 3365   3.317   0.415   2.583 -0.0871  0.3140 -1.2249
  389SOL     OW 3366   6.718   2.810   9.255 -0.2834 -0.0715 -0.5667
  389SOL    HW1 3367   6.695   2.745   9.320 -0.5187  0.7927  0.2402
  389SOL    HW2 3368   6.650   2.877   9.263  1.1533  1.3571  0.1983
  390SOL     OW 3369   1.845   1.955   2.407  0.2876  0.0348 -0.5050
  390SOL    HW1 3370   1.810   2.044   2.412 -1.2726 -0.5827  0.5520
  390SOL    HW2 3371   1.767   1.899   2.395  0.7710 -1.4374  2.2337
  391SOL     OW 3372   8.725   7.457   6.763 -0.4642  0.0294 -0.5385
  391SOL    HW1 3373   8.712   7.371   6.804 -0.0371 -0.9807 -2.4116
  391SOL    HW2 3374   8.810   7.486   6.794 -2.0305  1.5173  2.9350
  392SOL     OW 3375   6.814   9.277   4.577  0.0767 -0.1230  0.5291
  392SOL    HW1 3376   6.764   9.196   4.573  2.8564 -1.9687 -0.2443
  392SOL    HW2 3377   6.768   9.338   4.519 -2.0876 -1.1059  1.1454
  393SOL     OW 3378   5.573   6.812   9.510  0.0270  0.4415 -0.2152
  393SOL    HW1 3379   5.577   6.863   9.429  0.1758  0.2361 -0.3369
  393SOL    HW2 3380   5.542   6.874   9.576  0.4784  0.7679 -0.3034
  394SOL     OW 3381   3.783   8.232   3.107 -0.0089  0.0688 -0.3807
  394SOL    HW1 3382   3.844   8.198   3.172  0.3573  0.8567 -0.3039
  394SOL    HW2 3383   3.706   8.176   3.115  0.1658 -0.0649  0.4809
  395SOL     OW 3384   0.177   0.567   4.994 -0.1852 -0.0668  0.3762
  395SOL    HW1 3385   0.133   0.641   4.952  0.4206  0.3135  0.3853
  395SOL    HW2 3386   0.106   0.510   5.024 -0.6198 -0.4059 -1.2387
  396SOL     OW 3387   7.396   0.434   6.034 -0.4615  0.0629  0.4059
  396SOL    HW1 3388   7.322   0.472   6.082 -0.1024  1.4441 -0.0711
  396SOL    HW2 3389   7.403   0.489   5.956  2.0938  1.0517  1.2384
  397SOL     OW 3390   4.371   6.114   4.727  0.7784  0.0219  0.2652
  397SOL    HW1 3391   4.367   6.058   4.805  0.5979  0.4520  0.5643
  397SOL    HW2 3392   4.424   6.189   4.754  3.0269 -1.0936 -0.8220
  398SOL     OW 3393   4.203   4.008   6.038  0.0744  0.0107  0.2526
  398SOL    HW1 3394   4.209   4.100   6.013 -0.5104  0.2610  0.9964
  398SOL    HW2 3395   4.255   3.962   5.973  0.6779  0.9083  0.0829
  399SOL     OW 3396   1.290   1.480   8.077 -0.3468 -0.6787 -0.3227
  399SOL    HW1 3397   1.287   1.421   8.153  0.1480  1.1355  1.2043
  399SOL    HW2 3398   1.308   1.423   8.003 -2.0553 -2.7105  0.7034
  400SOL     OW 3399   6.828   5.575   3.147 -0.1567  0.0729  0.4410
  400SOL    HW1 3400   6.809   5.562   3.054 -0.6986  0.3404  0.5127
  400SOL    HW2 3401   6.924   5.579   3.152 -0.0300 -1.7428  0.1334
  401SOL     OW 3402   0.509   5.712   1.717 -0.6360 -0.1713 -0.4625
  401SOL    HW1 3403   0.431   5.657   1.706 -1.0752  0.7617 -2.3056
  401SOL    HW2 3404   0.581   5.659   1.682 -0.8841  0.0081 -1.2504
  402SOL     OW 3405   4.559   6.375   3.933 -0.7647  1.1063 -0.3619
  402SOL    HW1 3406   4.467   6.399   3.920 -1.1840 -0.8138 -1.2859
  402SOL    HW2 3407   4.594   6.364   3.845 -0.2997 -0.3848 -0.0295
  403SOL     OW 3408   5.965   5.192   4.232  0.2113  0.3994  0.3466
  403SOL    HW1 3409   5.961   5.242   4.150  0.8758  0.0816  0.1078
  403SOL    HW2 3410   5.912   5.243   4.294  0.4010  1.0962 -0.0471
  404SOL     OW 3411   8.172   2.683   6.221  0.2888 -0.3227  0.2799
  404SOL    HW1 3412   8.129   2.740   6.157 -1.4730 -0.7998  0.9763
  404SOL    HW2 3413   8.250   2.652   6.177  0.1760  0.9474 -0.8907
  405SOL     OW 3414   1.015   8.538   3.361 -0.2422 -0.7170  0.1130
  405SOL    HW1 3415   1.052   8.573   3.442 -1.6168 -0.0276  0.4865
  405SOL    HW2 3416   1.023   8.443   3.369  4.1807 -0.6618 -1.2026
  406SOL     OW 3417   6.148   6.053   4.880  0.1454 -0.1361  0.2375
  406SOL    HW1 3418   6.109   6.114   4.943  1.0986  0.6439  0.0988
  406SOL    HW2 3419   6.101   5.970   4.894 -1.3724  0.6915  0.2251
  407SOL     OW 3420   4.545   6.201   5.256  0.0273 -0.4992 -0.2134
  407SOL    HW1 3421   4.507   6.288   5.243  0.4251 -0.4926 -1.4489
  407SOL    HW2 3422   4.625   6.218   5.307  0.0272 -0.1579 -0.3254
  408SOL     OW 3423   3.560   4.528   6.707  0.2083 -0.3909  0.5946
  408SOL    HW1 3424   3.504   4.500   6.780 -0.2395 -2.0120 -0.3317
  408SOL    HW2 3425   3.554   4.457   6.644 -0.2926  1.4587 -1.5529
  409SOL     OW 3426   8.226   6.324   0.979 -0.0212  0.7068 -0.3522
  409SOL    HW1 3427   8.243   6.418   0.990  0.4464  0.7680 -1.4417
  409SOL    HW2 3428   8.312   6.286   0.963 -0.1168 -0.0327  0.8205
  410SOL     OW 3429   1.181   4.101   7.042 -0.2751  0.2879 -0.1073
  410SOL    HW1 3430   1.109   4.074   7.099  0.5936 -0.9319  0.4613
  410SOL    HW2 3431   1.219   4.019   7.011  0.1163  0.9217 -1.3998
  411SOL     OW 3432   6.845   0.723   5.196  0.0247 -0.6427  0.7905
  411SOL    HW1 3433   6.775   0.762   5.249  0.1695  0.9131 -0.1055
  411SOL    HW2 3434   6.924   0.772   5.221  0.4951 -1.3150  0.6402
  412SOL     OW 3435   7.161   5.326   8.672 -0.3123 -0.4960  0.4209
  412SOL    HW1 3436   7.249   5.328   8.635  0.0527 -3.1077  0.9113
  412SOL    HW2 3437   7.175   5.315   8.766 -1.2206  1.6009  0.8568
  413SOL     OW 3438   2.745   4.241   6.710  0.2147  0.7747 -0.5247
  413SOL    HW1 3439   2.789   4.228   6.626 -0.4411  0.3054 -0.8048
  413SOL    HW2 3440   2.671   4.180   6.708  0.4730  0.4038  0.5978
  414SOL     OW 3441   7.920   4.407   5.958  0.3878 -0.2815  0.4982
  414SOL    HW1 3442   7.901   4.410   5.865  1.6861 -0.4511  0.2042
  414SOL    HW2 3443   7.855   4.464   5.999 -0.5660 -0.6806 -0.4379
  415SOL     OW 3444   1.461   0.092   8.391  0.1292 -0.2411  0.2002
  415SOL    HW1 3445   1.368   0.111   8.405  0.2738  1.6686 -1.1143
  415SOL    HW2 3446   1.498   0.175   8.361  2.0435 -1.2559 -0.3867
  416SOL     OW 3447   6.806   4.742   0.050 -0.0738  0.0512 -0.0329
  416SOL    HW1 3448   6.780   4.668   0.105  1.1361 -0.7729 -0.5074
  416SOL    HW2 3449   6.804   4.708  -0.039  1.9475  0.0786 -0.1469
  417SOL     OW 3450   0.215   2.668   1.873 -0.0404  0.4321  0.5201
  417SOL    HW1 3451   0.179   2.756   1.870  2.4200  1.5300  0.6133
  417SOL    HW2 3452   0.231   2.651   1.966  0.3023  0.2336  0.4272
  418SOL     OW 3453   7.379   1.335   2.578  0.2488 -0.3619  0.3114
  418SOL    HW1 3454   7.444   1.357   2.645  0.1409 -1.7084  0.8805
  418SOL    HW2 3455   7.431   1.301   2.505  0.2736 -0.1352  0.2222
  419SOL     OW 3456   2.464   3.698   1.773 -0.5608  0.1263 -0.1500
  419SOL    HW1 3457   2.434   3.608   1.778 -1.0943  0.3733  1.7462
  419SOL    HW2 3458   2.558   3.694   1.790 -0.4429 -0.1376 -0.8500
  420SOL     OW 3459   8.619   0.560   5.775 -0.4441  0.3283  0.2248
  420SOL    HW1 3460   8.705   0.537   5.742 -0.2447 -0.8902  1.4771
  420SOL    HW2 3461   8.564   0.569   5.697  0.1509 -1.7889 -0.5039
  421SOL     OW 3462   0.182   7.601   4.621 -0.2856  0.2940 -0.1776
  421SOL    HW1 3463   0.274   7.585   4.600  0.0110  0.2490  1.0947
  421SOL    HW2 3464   0.142   7.514   4.620 -0.0644  0.1858  0.4112
  422SOL     OW 3465   5.419   3.348   9.010  0.4637  0.1754  0.3633
  422SOL    HW1 3466   5.479   3.276   9.030 -0.0784 -0.4807 -0.3295
  422SOL    HW2 3467   5.342   3.332   9.065  0.8381  0.9264  1.1331
  423SOL     OW 3468   5.662   5.194   9.463  0.8372  0.0195  0.0071
  423SOL    HW1 3469   5.668   5.140   9.542  0.5784 -1.2146 -0.7935
  423SOL    HW2 3470   5.720   5.268   9.481  2.0914 -1.0737  0.7030
  424SOL     OW 3471   5.884   2.375   1.842 -0.2040  0.2365  0.5888
  424SOL    HW1 3472   5.934   2.457   1.846  1.0241 -0.4765  0.5004
  424SOL    HW2 3473   5.852   2.361   1.931 -0.4295  0.8066  0.6022
  425SOL     OW 3474   3.723   2.249   8.890  0.1259 -0.2081 -0.0989
  425SOL    HW1 3475   3.670   2.325   8.913 -2.2475 -1.2889 -1.5441
  425SOL    HW2 3476   3.682   2.176   8.936  1.8850 -0.7980  0.6383
  426SOL     OW 3477   9.538   1.155   4.291 -0.4519 -0.0809  0.7178
  426SOL    HW1 3478   9.590   1.079   4.266  0.8009  0.6720  0.9558
  426SOL    HW2 3479   9.520   1.142   4.384 -0.4010 -0.1834  0.7130
  427SOL     OW 3480   3.876   8.005   8.922  0.2656 -0.3633 -0.6558
  427SOL    HW1 3481   3.830   7.925   8.897 -1.2472  0.6521 -1.2899
  427SOL    HW2 3482   3.899   8.047   8.839 -0.4202  0.6339 -0.3693
  428SOL     OW 3483   2.443   9.445   1.450 -0.2980 -0.2049 -0.2106
  428SOL    HW1 3484   2.388   9.456   1.372 -0.1301  0.7530 -0.2060
  428SOL    HW2 3485   2.451   9.350   1.460 -1.1145 -0.3520 -0.7981
  429SOL     OW 3486   7.632   3.597   6.090 -0.0128  0.5854 -0.5526
  429SOL    HW1 3487   7.663   3.543   6.016  1.4079  0.5511  0.0355
  429SOL    HW2 3488   7.660   3.548   6.168 -0.1131  1.3911 -0.0039
  430SOL     OW 3489   8.865   8.481   9.152  0.2881  0.0964 -0.1982
  430SOL    HW1 3490   8.784   8.519   9.118  0.1190 -0.3486 -0.2975
  430SOL    HW2 3491   8.909   8.445   9.076  0.4091  0.0221 -0.0932
  431SOL     OW 3492   9.544   4.977   1.679  0.1827 -0.7118 -0.0150
  431SOL    HW1 3493   9.522   4.885   1.671 -0.5726 -0.3704 -3.1919
  431SOL    HW2 3494   9.517   5.016   1.595  1.5635  2.1575  0.7363
  432SOL     OW 3495   0.166   5.084   4.190  0.3538 -0.3246 -0.3351
  432SOL    HW1 3496   0.223   5.110   4.117 -0.1798  0.6262 -0.4301
  432SOL    HW2 3497   0.127   5.166   4.220 -0.1732 -0.8341  0.4005
  433SOL     OW 3498   4.485   2.571   3.532 -0.0512 -0.3686 -0.8492
  433SOL    HW1 3499   4.528   2.589   3.448  1.9118  1.2300  0.4103
  433SOL    HW2 3500   4.474   2.657   3.572 -0.8036 -1.1079  0.6115
  434SOL     OW 3501   7.084   3.647   5.348  0.1303  0.7271  0.0652
  434SOL    HW1 3502   6.997   3.670   5.317  0.0232 -0.5537 -0.6205
  434SOL    HW2 3503   7.136   3.726   5.336  0.0449  0.3910 -3.1973
  435SOL     OW 3504   4.052   2.066   2.354  0.1189 -0.1288 -0.4239
  435SOL    HW1 3505   3.981   2.063   2.289 -0.2714 -1.6954  0.0365
  435SOL    HW2 3506   4.022   2.009   2.425  1.2830  0.2200  0.3723
  436SOL     OW 3507   2.633   1.536   0.660  0.1068 -0.6784 -0.0049
  436SOL    HW1 3508   2.546   1.495   0.656 -0.3615  0.4146 -2.3733
  436SOL    HW2 3509   2.623   1.605   0.726 -1.0260 -0.1735 -0.6687
  437SOL     OW 3510   7.550   0.818   7.804 -0.2944 -0.3153 -0.0153
  437SOL    HW1 3511   7.544   0.741   7.860 -1.0523 -0.0253  0.3301
  437SOL    HW2 3512   7.602   0.881   7.855 -2.1180  0.4512  1.0183
  438SOL     OW 3513   8.859   1.116   8.548  0.4798 -0.0111  0.1778
  438SOL    HW1 3514   8.904   1.033   8.565 -0.1189 -0.4875 -0.5176
  438SOL    HW2 3515   8.907   1.154   8.474  0.8932  0.3816  0.6391
  439SOL     OW 3516   8.241   4.746   2.473  0.1423 -0.5248 -1.0481
  439SOL    HW1 3517   8.245   4.719   2.381 -0.6013 -1.2125 -0.8834
  439SOL    HW2 3518   8.321   4.710   2.512  0.0038 -1.0159 -1.2155
  440SOL     OW 3519   0.249   3.032   8.958 -0.0691  0.2122  0.0870
  440SOL    HW1 3520   0.316   3.084   8.914  1.3278 -0.6859  1.0880
  440SOL    HW2 3521   0.254   2.946   8.917 -1.0532  0.2878 -0.2368
  441SOL     OW 3522   3.943   0.448   1.159  0.0072 -0.0468  0.2164
  441SOL    HW1 3523   3.869   0.456   1.099 -0.5964  0.1575  0.9854
  441SOL    HW2 3524   3.925   0.370   1.210  1.1265 -0.9253 -0.6754
  442SOL     OW 3525   8.239   8.503   7.010 -0.6371 -0.6168 -0.0280
  442SOL    HW1 3526   8.152   8.509   7.050  0.0315 -0.0927  1.4303
  442SOL    HW2 3527   8.272   8.593   7.014  0.1380 -0.8949 -0.1912
  443SOL     OW 3528   6.596   3.171   0.739 -0.2435 -0.4698 -0.0508
  443SOL    HW1 3529   6.607   3.103   0.673 -0.3599 -1.1524  0.6182
  443SOL    HW2 3530   6.683   3.182   0.777  0.2127  1.1052 -1.4112
  444SOL     OW 3531   3.622   3.045   5.137  0.5925 -0.6771  0.2328
  444SOL    HW1 3532   3.571   3.059   5.217 -0.5538 -0.5652 -0.4902
  444SOL    HW2 3533   3.710   3.074   5.160  0.6956 -2.1457  1.9379
  445SOL     OW 3534   5.217   4.683   7.959 -0.5905 -0.8089  0.2782
  445SOL    HW1 3535   5.210   4.603   8.012  0.0921  0.7729  2.9339
  445SOL    HW2 3536   5.310   4.692   7.940 -0.6169 -0.4384  0.3133
  446SOL     OW 3537   3.376   8.635   9.332  0.2102 -0.0765 -0.0673
  446SOL    HW1 3538   3.341   8.644   9.420  1.2124 -0.3541  0.3772
  446SOL    HW2 3539   3.347   8.549   9.303  0.1418 -0.1153  0.1162
  447SOL     OW 3540   4.954   6.753   7.150 -0.3989  0.4179 -0.1890
  447SOL    HW1 3541   4.932   6.839   7.113 -1.3927 -0.0000 -0.5988
  447SOL    HW2 3542   4.949   6.693   7.076  4.6110  0.5344 -0.9806
  448SOL     OW 3543   4.761   3.261   3.517  0.1636  0.0693 -0.3990
  448SOL    HW1 3544   4.846   3.254   3.475 -0.5729 -1.6444 -1.7011
  448SOL    HW2 3545   4.704   3.204   3.466 -1.1385 -1.0022  2.0867
  449SOL     OW 3546   1.426   5.728   9.474  0.3998 -0.1596 -0.1521
  449SOL    HW1 3547   1.437   5.676   9.554  1.6882  0.9927  0.4601
  449SOL    HW2 3548   1.511   5.770   9.460  0.0248  0.1139 -1.8239
  450SOL     OW 3549   3.248   5.609   1.827  0.2321 -0.1164 -0.1114
  450SOL    HW1 3550   3.306   5.571   1.761 -2.3556 -1.1578 -1.9655
  450SOL    HW2 3551   3.179   5.543   1.837 -1.1342  1.4658  1.2663
  451SOL     OW 3552   5.409   3.987   3.207  0.6591  0.0116  0.4904
  451SOL    HW1 3553   5.342   3.973   3.140  0.9317 -0.3395  0.2860
  451SOL    HW2 3554   5.421   3.902   3.249 -1.2996  0.7436  2.7425
  452SOL     OW 3555   3.231   3.685   9.530 -0.1549  0.4226  0.0857
  452SOL    HW1 3556   3.246   3.705   9.622 -0.2027  1.4396 -0.1117
  452SOL    HW2 3557   3.318   3.677   9.492 -0.0204 -3.5394  0.8776
  453SOL     OW 3558   4.475   0.531   0.084  0.4371  0.1381 -0.5898
  453SOL    HW1 3559   4.402   0.477   0.053  0.9849 -1.4130  0.6788
  453SOL    HW2 3560   4.446   0.563   0.170  0.6052  0.8904 -0.8069
  454SOL     OW 3561   0.476   1.151   8.974  0.0414  0.1784  0.0063
  454SOL    HW1 3562   0.476   1.233   9.023 -1.0899  1.0417 -1.3711
  454SOL    HW2 3563   0.390   1.148   8.931  0.6979 -0.8956 -1.3192
  455SOL     OW 3564   4.759   5.372   6.972 -0.1079  0.6029 -0.3905
  455SOL    HW1 3565   4.777   5.370   6.878 -1.1807 -0.5879 -0.5938
  455SOL    HW2 3566   4.802   5.294   7.006 -0.1567  0.7532  0.0148
  456SOL     OW 3567   1.452   8.611   8.309  0.0443  0.9247  0.0594
  456SOL    HW1 3568   1.434   8.622   8.402 -1.0673  1.3962 -0.1887
  456SOL    HW2 3569   1.381   8.658   8.265 -0.1447 -0.3064 -1.0259
  457SOL     OW 3570   2.069   1.096   8.300 -0.3264  0.3148  0.2963
  457SOL    HW1 3571   2.041   1.162   8.237 -0.0134  1.6403  1.4909
  457SOL    HW2 3572   2.127   1.143   8.360 -0.5764 -0.9052  1.5500
  458SOL     OW 3573   0.301   3.200   0.268 -0.4618  0.2685 -0.6284
  458SOL    HW1 3574   0.347   3.167   0.345 -1.9116 -1.4652 -0.4574
  458SOL    HW2 3575   0.296   3.125   0.209 -3.8328  0.0628 -0.2475
  459SOL     OW 3576   5.309   1.142   0.949 -0.5635 -0.2414  0.0965
  459SOL    HW1 3577   5.397   1.113   0.923 -0.9436 -0.3703 -1.0978
  459SOL    HW2 3578   5.251   1.106   0.882 -1.0207  3.7455 -1.9252
  460SOL     OW 3579   9.300   0.303   2.882  0.2442  0.0146 -0.0185
  460SOL    HW1 3580   9.205   0.297   2.884  0.0476  1.1189 -2.5859
  460SOL    HW2 3581   9.318   0.385   2.836  2.4781  0.5811  1.6967
  461SOL     OW 3582   7.697   0.433   6.071 -0.5710  0.2666  0.3678
  461SOL    HW1 3583   7.722   0.389   5.990 -0.5868  1.5240 -0.3402
  461SOL    HW2 3584   7.601   0.437   6.066 -0.7739 -1.6314  1.5373
  462SOL     OW 3585   3.376   0.450   0.674 -0.1002 -0.2242 -0.0556
  462SOL    HW1 3586   3.467   0.418   0.677  0.5776  1.5962 -0.1279
  462SOL    HW2 3587   3.329   0.384   0.623  1.0685 -1.4619  0.4161
  463SOL     OW 3588   1.617   9.061   0.859 -0.6770 -0.1379  0.6681
  463SOL    HW1 3589   1.547   9.023   0.913  0.0853 -0.1123  1.7066
  463SOL    HW2 3590   1.639   9.143   0.903 -0.3695  0.1317  0.0230
  464SOL     OW 3591   4.867   8.390   1.047 -0.5500  0.5690 -0.5776
  464SOL    HW1 3592   4.771   8.388   1.047 -0.6186 -0.6072 -3.5301
  464SOL    HW2 3593   4.889   8.482   1.032 -1.2570  0.5982 -1.4733
  465SOL     OW 3594   1.312   4.126   9.046 -0.3158  0.2121  0.3261
  465SOL    HW1 3595   1.244   4.193   9.055 -0.6458 -0.0203 -0.3730
  465SOL    HW2 3596   1.327   4.095   9.136 -2.5248 -1.0796  0.3376
  466SOL     OW 3597   4.500   4.126   1.414  0.0835 -0.4426 -0.2051
  466SOL    HW1 3598   4.583   4.172   1.420 -0.6442  1.3470 -2.5562
  466SOL    HW2 3599   4.472   4.115   1.505  2.7047 -0.8607  0.6350
  467SOL     OW 3600   1.446   0.481   0.738 -0.1009  0.3279 -0.0192
  467SOL    HW1 3601   1.430   0.466   0.645  1.0903 -1.5667  0.0379
  467SOL    HW2 3602   1.459   0.394   0.775 -1.6781  0.9472  2.1746
  468SOL     OW 3603   2.986   0.883   2.416 -0.3281  0.2791  0.0086
  468SOL    HW1 3604   2.933   0.841   2.484  0.0565 -1.1124 -0.5146
  468SOL    HW2 3605   3.000   0.814   2.351  2.0029  0.6148  0.0754
  469SOL     OW 3606   6.777   4.376   7.494 -0.3152 -0.1703  0.0039
  469SOL    HW1 3607   6.792   4.299   7.549  1.3985 -0.6070 -0.9904
  469SOL    HW2 3608   6.715   4.346   7.427 -1.0542 -0.1325  0.6509
  470SOL     OW 3609   8.736   9.099   6.499  0.5239 -0.0309 -0.0115
  470SOL    HW1 3610   8.832   9.105   6.505  0.3769  1.5539  1.5483
  470SOL    HW2 3611   8.714   9.020   6.549  0.9322  0.4286  0.9117
  471SOL     OW 3612   8.264   7.713   4.034  0.1159  0.0758 -0.0829
  471SOL    HW1 3613   8.192   7.770   4.008  0.5972  0.4563 -0.5806
  471SOL    HW2 3614   8.316   7.766   4.095 -0.2336 -0.3318  0.5837
  472SOL     OW 3615   3.993   6.167   3.105 -0.1924 -0.2253  0.0110
  472SOL    HW1 3616   4.071   6.222   3.112 -0.3092  0.0908 -1.0468
  472SOL    HW2 3617   3.985   6.146   3.012 -3.0771  2.3297 -0.4894
  473SOL     OW 3618   1.759   1.653   7.444  0.1398  0.2154 -0.1391
  473SOL    HW1 3619   1.827   1.589   7.424  0.3780  0.6016 -0.5910
  473SOL    HW2 3620   1.705   1.611   7.511  1.7289  0.4768  1.4061
  474SOL     OW 3621   4.589   5.922   3.550  0.2532  0.2444 -0.4107
  474SOL    HW1 3622   4.544   6.007   3.550  0.2212  0.2288 -0.2963
  474SOL    HW2 3623   4.649   5.926   3.476 -0.2316  0.1106 -0.8119
  475SOL     OW 3624   8.136   1.360   7.158 -0.0651 -0.3381  0.5356
  475SOL    HW1 3625   8.063   1.334   7.101 -0.3078  2.5490 -0.6380
  475SOL    HW2 3626   8.141   1.291   7.223 -1.3946 -2.5618 -1.5405
  476SOL     OW 3627   6.254   8.358   1.580 -0.3600  0.6702 -0.2266
  476SOL    HW1 3628   6.173   8.408   1.589 -1.4870 -1.0163 -0.6074
  476SOL    HW2 3629   6.243   8.308   1.499  0.6109 -0.3705  0.2533
  477SOL     OW 3630   2.291   0.464   7.886 -0.1428  0.4253  0.1417
  477SOL    HW1 3631   2.383   0.490   7.889 -0.5764  2.3406 -1.1808
  477SOL    HW2 3632   2.251   0.508   7.960 -0.0340 -0.3377  0.6663
  478SOL     OW 3633   4.660   1.552   2.879  0.1615  0.3048 -0.3865
  478SOL    HW1 3634   4.711   1.616   2.929  0.9340 -0.7758  0.2606
  478SOL    HW2 3635   4.679   1.572   2.787  1.4612  0.1873 -0.1671
  479SOL     OW 3636   1.691   0.645   8.957 -0.0058  0.1274 -0.2858
  479SOL    HW1 3637   1.689   0.723   9.012 -0.4844  1.1317 -1.6619
  479SOL    HW2 3638   1.739   0.672   8.878  0.3877 -1.1611 -0.5125
  480SOL     OW 3639   6.868   7.205   9.069 -0.4524  0.1787 -0.3930
  480SOL    HW1 3640   6.810   7.187   9.144 -1.4170  0.8402 -0.9542
  480SOL    HW2 3641   6.899   7.294   9.084  0.0338  0.0087 -0.3594
  481SOL     OW 3642   8.801   6.218   8.561 -0.3882  0.5581 -0.4957
  481SOL    HW1 3643   8.719   6.169   8.565 -0.8980  1.4759  2.2457
  481SOL    HW2 3644   8.865   6.162   8.606 -0.0657  0.8566 -0.5740
  482SOL     OW 3645   3.464   7.011   5.917 -0.1804  0.0589  0.0120
  482SOL    HW1 3646   3.444   6.921   5.942  1.2355 -0.3185 -0.1744
  482SOL    HW2 3647   3.488   7.007   5.825  0.4291  0.5406  0.1440
  483SOL     OW 3648   6.787   6.431   9.453 -0.2617  0.5060  0.4421
  483SOL    HW1 3649   6.753   6.395   9.535  1.5308 -1.2768  0.4655
  483SOL    HW2 3650   6.709   6.460   9.406 -1.6937 -1.7585  1.2332
  484SOL     OW 3651   6.523   4.437   0.006  0.0809  0.2413 -0.4540
  484SOL    HW1 3652   6.590   4.434   0.075 -1.6300 -0.2744  1.2941
  484SOL    HW2 3653   6.441   4.454   0.053 -1.4700 -2.0684 -2.0910
  485SOL     OW 3654   9.342   4.568   4.441  0.4787 -0.0567 -0.5171
  485SOL    HW1 3655   9.294   4.564   4.359 -0.7291  0.6316  0.1349
  485SOL    HW2 3656   9.279   4.541   4.508  1.5270 -0.9232  0.1708
  486SOL     OW 3657   3.429   4.975   4.080  0.0695  0.0297 -0.0128
  486SOL    HW1 3658   3.419   4.924   4.000 -1.2564 -0.7844  0.6212
  486SOL    HW2 3659   3.457   4.912   4.146  0.3626  0.5243  0.3443
  487SOL     OW 3660   5.695   4.413   2.577  0.2864 -0.3395 -0.9002
  487SOL    HW1 3661   5.703   4.451   2.664 -0.2362 -1.0345 -0.5362
  487SOL    HW2 3662   5.715   4.485   2.517 -4.5657  1.8222 -0.4408
  488SOL     OW 3663   7.278   9.336   5.849  0.2615 -0.5212 -0.4416
  488SOL    HW1 3664   7.341   9.379   5.791 -0.6894  1.0026 -0.4040
  488SOL    HW2 3665   7.271   9.247   5.815  0.2446  0.1328 -2.2699
  489SOL     OW 3666   4.496   3.300   0.400 -0.0367 -0.1322  0.1082
  489SOL    HW1 3667   4.565   3.360   0.372 -0.6529  0.0560 -1.0691
  489SOL    HW2 3668   4.527   3.214   0.375  0.9915 -0.3931  2.0821
  490SOL     OW 3669   6.482   8.803   6.454  0.1690  0.7541 -0.2787
  490SOL    HW1 3670   6.431   8.768   6.381  1.1400 -0.4055 -0.4321
  490SOL    HW2 3671   6.529   8.728   6.490 -0.4569  1.2336  1.7174
  491SOL     OW 3672   7.695   0.440   4.771 -0.2984  0.5997  0.8480
  491SOL    HW1 3673   7.714   0.519   4.721 -0.7846  0.1380 -0.1127
  491SOL    HW2 3674   7.772   0.385   4.759 -0.4756  0.4281  0.4559
  492SOL     OW 3675   1.679   0.518   3.080  0.1938  0.0110  0.8725
  492SOL    HW1 3676   1.699   0.428   3.106 -1.1390 -0.7820 -0.6784
  492SOL    HW2 3677   1.584   0.519   3.068  0.2273  1.5288  0.5084
  493SOL     OW 3678   4.883   0.820   4.523  0.5765  0.7314  0.1579
  493SOL    HW1 3679   4.867   0.811   4.617  0.9466  2.1932  0.3792
  493SOL    HW2 3680   4.800   0.854   4.488  0.8083  1.2844  0.1412
  494SOL     OW 3681   3.080   6.385   3.320  0.2734 -0.0434  0.5094
  494SOL    HW1 3682   3.066   6.352   3.409 -2.0847 -0.4217  0.0648
  494SOL    HW2 3683   3.012   6.343   3.268  0.4643  1.5488 -1.1216
  495SOL     OW 3684   8.455   7.668   5.571 -0.1830 -0.3985 -0.0633
  495SOL    HW1 3685   8.392   7.706   5.632  0.7840 -0.1021  0.7758
  495SOL    HW2 3686   8.450   7.724   5.493 -0.9166 -0.3600  0.0028
  496SOL     OW 3687   8.284   2.661   4.359 -0.7178  0.1952  0.5388
  496SOL    HW1 3688   8.236   2.646   4.277  1.2603  1.0604 -0.8644
  496SOL    HW2 3689   8.327   2.577   4.378  0.6272  0.5753 -0.6220
  497SOL     OW 3690   9.514   3.463   0.656 -0.0097  0.1092  0.0620
  497SOL    HW1 3691   9.604   3.429   0.653  0.1209  0.4653 -0.0532
  497SOL    HW2 3692   9.523   3.557   0.643 -0.2372  0.4467  2.0146
  498SOL     OW 3693   0.258   4.100   2.527  0.6729 -0.0470 -0.3553
  498SOL    HW1 3694   0.289   4.052   2.451  2.5696  0.9538 -0.2831
  498SOL    HW2 3695   0.212   4.176   2.491  0.8257 -0.0162 -0.4809
  499SOL     OW 3696   0.876   6.466   9.242  0.1751 -0.2142 -0.3183
  499SOL    HW1 3697   0.925   6.403   9.296  0.8962 -0.8649 -1.6835
  499SOL    HW2 3698   0.933   6.543   9.237  0.6441 -0.6036 -1.1078
  500SOL     OW 3699   0.913   3.430   8.402  0.1796 -0.0479 -0.1682
  500SOL    HW1 3700   0.854   3.506   8.394  0.6538  0.3383 -0.0839
  500SOL    HW2 3701   0.860   3.363   8.445 -0.9042 -0.5008 -2.0985
  501SOL     OW 3702   3.243   1.891   7.880  0.0280 -0.0135 -0.2621
  501SOL    HW1 3703   3.307   1.868   7.948 -0.0534  0.3094 -0.0740
  501SOL    HW2 3704   3.288   1.871   7.797  0.0309 -0.6520 -0.1099
  502SOL     OW 3705   7.165   0.988   2.302 -0.1663 -0.2502 -0.0179
  502SOL    HW1 3706   7.255   0.977   2.272 -0.5974 -2.3211 -0.6573
  502SOL    HW2 3707   7.170   0.978   2.397  0.2732 -0.2836 -0.0450
  503SOL     OW 3708   0.460   2.125   4.854 -0.2894  0.0300 -0.1865
  503SOL    HW1 3709   0.437   2.034   4.833 -0.5045  0.0962 -0.2361
  503SOL    HW2 3710   0.509   2.118   4.936  1.5742 -0.3472 -1.2658
  504SOL     OW 3711   1.218   3.222   1.955 -0.0794  0.9569  0.0189
  504SOL    HW1 3712   1.152   3.239   2.021 -0.8711 -1.0126 -0.1956
  504SOL    HW2 3713   1.236   3.128   1.962  3.5783  1.5331  0.8470
  505SOL     OW 3714   7.437   6.857   7.893  0.4171 -0.6744 -0.1117
  505SOL    HW1 3715   7.453   6.769   7.928 -0.1910 -0.5599  0.4684
  505SOL    HW2 3716   7.343   6.870   7.905  0.4488 -0.0843 -0.5238
  506SOL     OW 3717   6.091   7.304   2.431 -0.3741  0.3791  0.1542
  506SOL    HW1 3718   5.997   7.288   2.423 -0.3291  1.0568 -2.8460
  506SOL    HW2 3719   6.098   7.398   2.450 -0.2987  0.3135  0.4559
  507SOL     OW 3720   8.396   1.618   3.359 -0.4313  0.4332  0.0478
  507SOL    HW1 3721   8.363   1.650   3.275  0.7506  0.8436 -0.2769
  507SOL    HW2 3722   8.317   1.598   3.410 -1.1583 -0.0528 -1.2342
  508SOL     OW 3723   7.046   1.311   5.704  0.5181  0.0579 -0.5761
  508SOL    HW1 3724   6.984   1.262   5.758  1.3810 -0.7820 -0.3087
  508SOL    HW2 3725   7.127   1.310   5.755  1.2098 -0.3021 -1.6458
  509SOL     OW 3726   5.697   7.702   5.753 -0.0062 -0.4141 -0.0879
  509SOL    HW1 3727   5.698   7.752   5.671 -1.1585 -1.2577 -0.6588
  509SOL    HW2 3728   5.710   7.767   5.822  4.3168 -0.0247 -0.9948
  510SOL     OW 3729   1.170   6.473   1.355  0.0858  0.1625 -0.0432
  510SOL    HW1 3730   1.085   6.452   1.316  0.6205 -1.9878 -0.1983
  510SOL    HW2 3731   1.147   6.513   1.439 -1.1864 -2.2525  0.8810
  511SOL     OW 3732   1.571   5.981   9.153 -0.1615 -0.7911  0.0777
  511SOL    HW1 3733   1.635   5.969   9.083  1.0686 -1.3049  1.2366
  511SOL    HW2 3734   1.487   5.955   9.114 -0.4743  3.2602 -2.6327
  512SOL     OW 3735   9.045   1.589   6.950  0.7159 -0.3552  0.1536
  512SOL    HW1 3736   9.009   1.511   6.907  0.4617 -0.7171  1.0018
  512SOL    HW2 3737   8.972   1.623   7.002  0.8203  0.4684 -0.2137
  513SOL     OW 3738   2.865   6.268   2.492  0.6530 -0.4257  0.4202
  513SOL    HW1 3739   2.882   6.242   2.582  1.0321  1.0048  0.7823
  513SOL    HW2 3740   2.948   6.255   2.446  0.4247 -1.2774  0.2330
  514SOL     OW 3741   0.109   7.776   3.036  0.2220 -0.0982  0.1332
  514SOL    HW1 3742   0.204   7.786   3.043  0.3751  2.1540 -2.9521
  514SOL    HW2 3743   0.097   7.705   2.972 -0.0308  1.3346 -1.4632
  515SOL     OW 3744   7.648   8.254   1.566 -0.2330  0.1865 -0.2230
  515SOL    HW1 3745   7.639   8.349   1.558  1.0416  0.3289 -0.2495
  515SOL    HW2 3746   7.717   8.243   1.631 -1.5286 -0.7661  1.0531
  516SOL     OW 3747   4.349   2.843   4.644  0.4272  0.5626 -0.5325
  516SOL    HW1 3748   4.258   2.822   4.623 -0.1895  2.5927 -0.1078
  516SOL    HW2 3749   4.358   2.822   4.737  0.5866 -0.2403 -0.7273
  517SOL     OW 3750   3.700   7.432   1.607  0.7224  0.1803 -0.4500
  517SOL    HW1 3751   3.708   7.486   1.686  0.4354 -0.6192  0.1341
  517SOL    HW2 3752   3.773   7.370   1.613  0.4966 -0.1024 -0.6464
  518SOL     OW 3753   2.703   8.526   9.224  0.2456  0.0692  0.0162
  518SOL    HW1 3754   2.659   8.590   9.168 -1.6386 -0.7475  0.4631
  518SOL    HW2 3755   2.707   8.567   9.310 -2.4870 -0.9315  0.7216
  519SOL     OW 3756   1.189   5.858   1.514  0.2240 -0.7712  0.2889
  519SOL    HW1 3757   1.282   5.859   1.488  0.0356  1.6560 -0.5114
  519SOL    HW2 3758   1.191   5.858   1.609  1.0342 -1.1249  0.2815
  520SOL     OW 3759   3.364   0.820   1.314  0.4346 -0.1080 -0.0433
  520SOL    HW1 3760   3.323   0.752   1.367 -2.1645  0.1246 -1.5484
  520SOL    HW2 3761   3.450   0.832   1.352 -0.2623 -1.8832  2.3304
  521SOL     OW 3762   0.593   6.298   9.499  0.6312  0.1267  0.2769
  521SOL    HW1 3763   0.688   6.289   9.498  0.8324  1.6502  1.9003
  521SOL    HW2 3764   0.578   6.393   9.498 -0.8348 -0.0663  1.4533
  522SOL     OW 3765   1.305   2.125   7.907  0.1039 -0.4396  0.0133
  522SOL    HW1 3766   1.305   2.040   7.951 -1.4495 -0.3625  0.2030
  522SOL    HW2 3767   1.226   2.125   7.853 -0.2770  1.1381  0.5221
  523SOL     OW 3768   0.474   3.988   0.890 -0.3385 -0.6411  0.3507
  523SOL    HW1 3769   0.408   3.928   0.926  1.4917 -2.2956  1.1314
  523SOL    HW2 3770   0.524   4.017   0.966 -0.8130  1.5044 -0.0925
  524SOL     OW 3771   8.717   6.572   0.520 -0.1152 -1.1508  0.2389
  524SOL    HW1 3772   8.782   6.569   0.590 -1.4647  0.6587  1.6585
  524SOL    HW2 3773   8.754   6.518   0.450  2.0825 -1.5835  1.6614
  525SOL     OW 3774   7.284   0.007   6.431  0.5685 -0.2085  0.0233
  525SOL    HW1 3775   7.305  -0.030   6.345  0.4439  3.6675 -1.9250
  525SOL    HW2 3776   7.367   0.041   6.464  0.2978  0.0256  0.4853
  526SOL     OW 3777   8.560   0.786   0.538 -0.5363  0.3943 -0.2297
  526SOL    HW1 3778   8.566   0.814   0.629 -1.3480 -0.9565  0.2707
  526SOL    HW2 3779   8.622   0.842   0.492  1.2186 -0.0518  1.4378
  527SOL     OW 3780   6.263   2.455   4.709 -0.2239  0.8664 -0.2366
  527SOL    HW1 3781   6.175   2.477   4.679 -1.1893 -0.8591  1.1802
  527SOL    HW2 3782   6.309   2.425   4.630 -1.5781 -0.2310 -0.6403
  528SOL     OW 3783   8.759   7.293   1.445  0.2655  0.8500 -0.3799
  528SOL    HW1 3784   8.725   7.207   1.471  1.4355 -0.1071 -1.8072
  528SOL    HW2 3785   8.684   7.338   1.407  0.2397 -0.7534 -2.4053
  529SOL     OW 3786   6.308   3.954   6.851  0.4266  0.1879  0.6181
  529SOL    HW1 3787   6.238   3.894   6.875  1.8222 -2.0168 -0.4700
  529SOL    HW2 3788   6.306   3.956   6.755 -0.1105  2.6497  0.5957
  530SOL     OW 3789   3.856   3.773   7.597  0.0092  0.1848 -0.2331
  530SOL    HW1 3790   3.898   3.756   7.681  0.4166 -0.5249 -0.5779
  530SOL    HW2 3791   3.765   3.795   7.620  0.2410  0.4890  0.4194
  531SOL     OW 3792   7.349   0.759   8.667 -0.0430  0.0417  0.1628
  531SOL    HW1 3793   7.270   0.810   8.682  0.2970  0.8855 -0.8456
  531SOL    HW2 3794   7.405   0.778   8.742 -0.2357  0.5238  0.1840
  532SOL     OW 3795   0.897   8.850   7.511 -0.2390  0.4384 -0.0410
  532SOL    HW1 3796   0.939   8.934   7.493  1.4305  0.0205  1.5323
  532SOL    HW2 3797   0.874   8.815   7.425  2.4688  0.8492 -1.0308
  533SOL     OW 3798   1.705   8.167   3.982 -0.6537  0.6503 -0.5373
  533SOL    HW1 3799   1.794   8.191   4.010 -0.3997 -0.4391 -0.3841
  533SOL    HW2 3800   1.706   8.072   3.976 -1.1258  0.7173 -2.8342
  534SOL     OW 3801   9.087   4.933   8.335  0.0196  0.2591  0.3447
  534SOL    HW1 3802   9.063   4.889   8.417  2.0640 -0.9894  0.3431
  534SOL    HW2 3803   9.064   5.025   8.350 -1.5517 -0.2848  1.5191
  535SOL     OW 3804   1.795   0.239   3.722  0.5394 -0.4867  0.0831
  535SOL    HW1 3805   1.791   0.144   3.728  1.0992 -0.4776  0.7573
  535SOL    HW2 3806   1.728   0.262   3.658 -0.0474 -1.2855  0.3951
  536SOL     OW 3807   0.714   0.622   4.712 -0.1003 -0.0188 -0.8144
  536SOL    HW1 3808   0.707   0.550   4.776  2.4508  0.6053  0.2844
  536SOL    HW2 3809   0.806   0.623   4.687  0.1985  3.4183 -0.0873
  537SOL     OW 3810   3.951   1.324   6.902 -0.0992  0.1223 -0.0310
  537SOL    HW1 3811   3.866   1.280   6.907  0.0801 -0.5608 -2.0356
  537SOL    HW2 3812   4.009   1.260   6.863  0.7061  1.4179 -1.0517
  538SOL     OW 3813   1.208   7.979   8.688  0.2952 -0.0424 -0.1484
  538SOL    HW1 3814   1.203   7.913   8.757 -1.1630  0.4188  0.2082
  538SOL    HW2 3815   1.227   8.060   8.734  2.9062 -0.2696 -0.6565
  539SOL     OW 3816   5.612   5.711   0.119 -0.0727 -0.0258 -0.5142
  539SOL    HW1 3817   5.629   5.804   0.130  1.8702 -0.5226  1.5062
  539SOL    HW2 3818   5.533   5.706   0.065  1.3050  2.7199 -3.0411
  540SOL     OW 3819   8.140   8.478   2.508 -0.3649  0.4812  0.1111
  540SOL    HW1 3820   8.226   8.511   2.535 -0.1812 -0.6022  0.9151
  540SOL    HW2 3821   8.147   8.383   2.517 -2.0910  0.4502  1.5981
  541SOL     OW 3822   7.570   5.197   0.159  0.0774  0.0552  0.3716
  541SOL    HW1 3823   7.650   5.250   0.164 -0.5597  1.0776  0.0461
  541SOL    HW2 3824   7.602   5.109   0.138  1.1128  0.4668  0.1249
  542SOL     OW 3825   3.986   0.781   3.449 -0.3267 -0.0419  0.5005
  542SOL    HW1 3826   3.915   0.720   3.428 -0.2956 -0.3369  1.2423
  542SOL    HW2 3827   3.941   0.863   3.469 -0.3309  0.4544 -1.3311
  543SOL     OW 3828   5.040   4.971   7.418 -0.6760 -0.3793  0.5228
  543SOL    HW1 3829   4.954   5.011   7.404 -0.7899 -0.1216  1.8374
  543SOL    HW2 3830   5.025   4.903   7.483  0.1175 -0.3102  0.7958
  544SOL     OW 3831   4.387   6.208   4.333 -0.1413 -0.1969 -0.7226
  544SOL    HW1 3832   4.447   6.163   4.393 -0.8784 -1.0018 -0.5867
  544SOL    HW2 3833   4.308   6.155   4.333 -0.5062  0.3246 -1.6694
  545SOL     OW 3834   3.981   4.289   9.095 -0.3595 -0.5249 -0.3004
  545SOL    HW1 3835   3.919   4.349   9.052  1.5693  1.5115 -0.4026
  545SOL    HW2 3836   4.026   4.246   9.022 -0.8416 -1.1630 -0.2322
  546SOL     OW 3837   9.176   0.893   4.333 -0.4352  0.0244  0.5053
  546SOL    HW1 3838   9.214   0.806   4.341 -1.2482 -0.2382  1.8722
  546SOL    HW2 3839   9.234   0.949   4.384 -2.1827 -0.5269  3.3489
  547SOL     OW 3840   6.396   3.537   2.688  0.5151 -0.0426 -0.1904
  547SOL    HW1 3841   6.485   3.505   2.677  0.4577 -0.6814  1.0288
  547SOL    HW2 3842   6.405   3.631   2.702  0.8478  0.1842 -1.8058
  548SOL     OW 3843   3.756   7.561   0.389  0.1707 -0.2628 -0.3521
  548SOL    HW1 3844   3.786   7.626   0.452 -0.3776 -1.5018  1.2499
  548SOL    HW2 3845   3.664   7.584   0.372  0.0988 -0.3755 -0.1134
  549SOL     OW 3846   3.169   2.437   4.651  0.1869  0.0256 -0.2009
  549SOL    HW1 3847   3.089   2.395   4.620 -0.4794 -0.8009  2.3278
  549SOL    HW2 3848   3.140   2.517   4.694  0.6748 -0.2683  0.7181
  550SOL     OW 3849   0.570   1.848   4.817  0.4871 -0.1363  0.3995
  550SOL    HW1 3850   0.660   1.864   4.843  0.6399  1.6144 -1.0090
  550SOL    HW2 3851   0.575   1.774   4.756  0.8805 -0.4201  0.7716
  551SOL     OW 3852   2.977   5.847   1.328 -0.1126  0.2112  0.0280
  551SOL    HW1 3853   3.068   5.824   1.344 -0.3050  0.6382  2.0887
  551SOL    HW2 3854   2.960   5.919   1.389 -1.4723  1.0230 -1.2405
  552SOL     OW 3855   5.762   0.428   3.225 -0.1113 -0.0241 -0.6711
  552SOL    HW1 3856   5.777   0.506   3.278  0.7789 -0.6054 -0.0242
  552SOL    HW2 3857   5.758   0.357   3.289 -0.2762 -0.5836 -1.2946
  553SOL     OW 3858   8.056   2.829   7.189 -0.1507  0.5354  0.3423
  553SOL    HW1 3859   8.043   2.922   7.211 -1.6097  0.8267 -1.5289
  553SOL    HW2 3860   7.969   2.791   7.192  0.3918 -0.7492  0.7724
  554SOL     OW 3861   8.815   9.358   2.423  0.0860  0.4469 -0.1648
  554SOL    HW1 3862   8.805   9.414   2.345 -1.1786 -0.3361 -0.5874
  554SOL    HW2 3863   8.732   9.313   2.431  0.4379  0.0077  1.2757
  555SOL     OW 3864   5.443   1.223   8.798  0.4622 -0.2688 -0.2823
  555SOL    HW1 3865   5.444   1.177   8.714  1.4270 -0.0859 -0.3842
  555SOL    HW2 3866   5.532   1.256   8.808  0.7128 -1.3418  1.4014
  556SOL     OW 3867   4.665   9.289   6.474 -0.0287 -0.1705 -0.2128
  556SOL    HW1 3868   4.584   9.284   6.525  1.5034  0.8783  2.5805
  556SOL    HW2 3869   4.638   9.321   6.388 -2.6347 -0.5616  0.3748
  557SOL     OW 3870   7.999   4.662   8.585 -0.3637 -0.1342  0.2495
  557SOL    HW1 3871   7.981   4.644   8.678 -0.5512  0.0180  0.2450
  557SOL    HW2 3872   8.043   4.747   8.586  1.6334 -1.1086  0.3725
  558SOL     OW 3873   5.373   2.759   3.592 -0.3286 -0.1178 -0.0547
  558SOL    HW1 3874   5.339   2.845   3.616 -0.3762  0.2909 -1.5114
  558SOL    HW2 3875   5.468   2.771   3.592 -0.2790 -0.4350  1.0303
  559SOL     OW 3876   5.362   3.283   9.425  0.0855 -0.3007  0.1537
  559SOL    HW1 3877   5.317   3.231   9.493 -0.3211  0.2369  0.3059
  559SOL    HW2 3878   5.294   3.301   9.361  0.2034  0.1197  0.1476
  560SOL     OW 3879   6.852   5.366   5.415  0.1759  0.8971 -0.5481
  560SOL    HW1 3880   6.817   5.293   5.363  0.5797  0.4985 -0.2693
  560SOL    HW2 3881   6.810   5.444   5.379  0.6916  0.6691 -1.6851
  561SOL     OW 3882   1.912   8.399   8.395  0.0779 -0.3782  0.7981
  561SOL    HW1 3883   1.819   8.408   8.417  0.3442 -1.0772  2.3125
  561SOL    HW2 3884   1.917   8.428   8.304 -1.7822 -1.2377  0.3659
  562SOL     OW 3885   1.304   6.512   8.158  0.0927  0.5020 -0.0124
  562SOL    HW1 3886   1.290   6.446   8.225  2.2994  0.3803  0.4074
  562SOL    HW2 3887   1.397   6.506   8.137 -0.2941  1.3258 -2.2717
  563SOL     OW 3888   6.818   3.637   8.865  0.2815 -0.1684  0.7067
  563SOL    HW1 3889   6.778   3.608   8.947  1.5154  0.0341  1.4081
  563SOL    HW2 3890   6.850   3.556   8.823  0.0784 -0.2256  0.6641
  564SOL     OW 3891   6.291   7.744   3.469 -0.1428  0.4268  0.1164
  564SOL    HW1 3892   6.300   7.654   3.437 -0.3742  0.5995 -0.4453
  564SOL    HW2 3893   6.381   7.773   3.482  0.1101  1.1202 -2.5806
  565SOL     OW 3894   1.065   5.882   6.376  0.6163  0.1300  0.0649
  565SOL    HW1 3895   1.123   5.915   6.306  0.1344  1.7577  0.3854
  565SOL    HW2 3896   1.077   5.944   6.448  0.6050 -1.1502  1.2065
  566SOL     OW 3897   0.365   3.727   0.393  0.1701 -0.2548 -0.4597
  566SOL    HW1 3898   0.339   3.683   0.474  1.2031  0.0688  0.0602
  566SOL    HW2 3899   0.461   3.729   0.396  0.2236 -0.2008 -1.6759
  567SOL     OW 3900   5.521   6.472   8.702 -0.5206  0.4075  0.0380
  567SOL    HW1 3901   5.513   6.552   8.650 -1.1940  0.1205 -0.3236
  567SOL    HW2 3902   5.573   6.413   8.647 -1.0088  0.1975 -0.2107
  568SOL     OW 3903   5.415   2.129   5.539  0.6883 -0.4958 -0.6006
  568SOL    HW1 3904   5.331   2.146   5.582  1.0930  3.8006 -1.0569
  568SOL    HW2 3905   5.480   2.148   5.606  1.3600 -1.9264 -0.8100
  569SOL     OW 3906   0.312   8.329   3.813 -0.2219 -0.0057  0.3640
  569SOL    HW1 3907   0.220   8.323   3.790 -1.1966  2.3054  3.0079
  569SOL    HW2 3908   0.314   8.392   3.886  3.6351  1.4753 -0.7848
  570SOL     OW 3909   3.721   5.814   1.322  0.7160 -0.5472  0.1471
  570SOL    HW1 3910   3.794   5.846   1.268  0.6982  0.5902  0.7643
  570SOL    HW2 3911   3.728   5.865   1.403 -0.2440 -1.0618  0.5597
  571SOL     OW 3912   7.743   3.314   3.201  0.2393  0.3786 -0.0720
  571SOL    HW1 3913   7.818   3.317   3.142  0.5655 -2.1725  0.0986
  571SOL    HW2 3914   7.667   3.310   3.142  0.4580 -0.2961 -0.3234
  572SOL     OW 3915   0.605   1.233   3.805  0.1168  0.2318 -0.0365
  572SOL    HW1 3916   0.612   1.295   3.732  3.1644 -1.6163 -1.5595
  572SOL    HW2 3917   0.680   1.252   3.860  0.6132 -1.4546 -0.0622
  573SOL     OW 3918   5.782   8.254   6.872  0.0466  0.1437 -0.0721
  573SOL    HW1 3919   5.782   8.336   6.823 -1.3072 -0.2377 -0.7750
  573SOL    HW2 3920   5.868   8.216   6.855  0.3056  0.9300 -0.5736
  574SOL     OW 3921   2.597   2.539   5.666 -0.3045 -0.6586  0.2728
  574SOL    HW1 3922   2.654   2.469   5.634 -0.2431 -1.3011  1.7207
  574SOL    HW2 3923   2.657   2.603   5.703 -0.3658  0.1682 -0.9792
  575SOL     OW 3924   6.065   7.440   7.850 -0.2145  0.6114  0.3101
  575SOL    HW1 3925   6.150   7.460   7.810  0.2829 -1.1313  0.4090
  575SOL    HW2 3926   6.006   7.428   7.776  0.3194 -0.9707  0.0971
  576SOL     OW 3927   1.652   7.784   1.533  0.5897  0.1794 -0.4751
  576SOL    HW1 3928   1.611   7.849   1.476  1.4483 -0.1568 -1.5047
  576SOL    HW2 3929   1.731   7.758   1.486  0.7031 -0.9800  0.3318
  577SOL     OW 3930   7.946   7.669   4.164  0.2034  0.0153  0.1902
  577SOL    HW1 3931   7.928   7.582   4.129  0.0681 -0.2733  0.9563
  577SOL    HW2 3932   7.889   7.727   4.114  1.0217 -0.1941 -1.0155
  578SOL     OW 3933   8.265   7.572   7.476 -0.7001  0.0298 -0.3803
  578SOL    HW1 3934   8.282   7.482   7.449 -0.9525 -0.1954  0.1961
  578SOL    HW2 3935   8.325   7.625   7.424 -0.9772 -0.4181 -1.1679
  579SOL     OW 3936   5.665   3.642   5.495 -0.2354 -0.1831 -0.4141
  579SOL    HW1 3937   5.665   3.650   5.590  0.0579  2.0652 -0.5492
  579SOL    HW2 3938   5.756   3.620   5.473 -0.2746 -0.5733 -0.2019
  580SOL     OW 3939   8.449   7.364   7.034 -0.0067 -0.4099 -0.2615
  580SOL    HW1 3940   8.527   7.397   7.079 -0.2047  0.5654 -0.6082
  580SOL    HW2 3941   8.412   7.441   6.990 -2.1907 -0.4114  1.3611
  581SOL     OW 3942   4.059   9.299   2.562  0.3363 -0.7305 -0.1331
  581SOL    HW1 3943   4.147   9.282   2.594 -0.4602 -0.7042  2.2846
  581SOL    HW2 3944   4.036   9.385   2.597  0.6528  1.1155 -3.9226
  582SOL     OW 3945   6.007   2.863   4.748 -0.5301  0.5230  0.2457
  582SOL    HW1 3946   6.086   2.810   4.763 -1.0130 -0.4905 -0.5997
  582SOL    HW2 3947   6.012   2.933   4.813  1.5889  1.0889 -0.4501
  583SOL     OW 3948   5.297   5.382   0.076  0.1909 -0.2490  0.4240
  583SOL    HW1 3949   5.315   5.420  -0.011 -0.8229  0.2862  0.4301
  583SOL    HW2 3950   5.329   5.448   0.137 -2.0990  0.9526  0.4373
  584SOL     OW 3951   3.284   5.842   3.436 -0.2880 -0.6384  0.5359
  584SOL    HW1 3952   3.306   5.927   3.397  1.5269 -1.0873  0.4948
  584SOL    HW2 3953   3.345   5.832   3.509 -0.7850 -1.7064  0.8315
  585SOL     OW 3954   9.181   4.706   8.662  0.1326 -0.1086  0.7161
  585SOL    HW1 3955   9.099   4.675   8.623  0.0382  1.8077 -0.7569
  585SOL    HW2 3956   9.164   4.798   8.682  1.2902 -0.2139  2.3280
  586SOL     OW 3957   0.719   8.555   0.056  0.5587 -0.0626 -0.8161
  586SOL    HW1 3958   0.646   8.570   0.116  1.4369  2.5669 -0.2954
  586SOL    HW2 3959   0.774   8.491   0.101 -0.1668 -0.1971 -0.0966
  587SOL     OW 3960   0.797   5.019   4.490  0.2745  0.3317 -0.4118
  587SOL    HW1 3961   0.822   5.071   4.414  1.0017  0.5731 -0.0149
  587SOL    HW2 3962   0.710   4.985   4.468  1.1664 -1.0186 -2.0739
  588SOL     OW 3963   5.706   2.821   5.048  0.0119 -0.5244  0.1851
  588SOL    HW1 3964   5.712   2.742   4.994  1.0073 -0.7395  0.5888
  588SOL    HW2 3965   5.659   2.884   4.993 -1.5150 -1.6268  0.1525
  589SOL     OW 3966   4.856   8.079   6.418 -0.5419 -0.6087 -0.2096
  589SOL    HW1 3967   4.899   8.149   6.467 -1.5027  0.2632 -0.5847
  589SOL    HW2 3968   4.920   8.055   6.351 -1.0568  1.5664 -1.5970
  590SOL     OW 3969   8.825   8.722   1.452 -0.4095  0.2398  0.3753
  590SOL    HW1 3970   8.769   8.653   1.486 -2.6782  1.0032 -1.5513
  590SOL    HW2 3971   8.822   8.791   1.517  0.2156 -0.6289  1.3559
  591SOL     OW 3972   8.726   1.261   8.898  0.2826 -0.7944 -0.1330
  591SOL    HW1 3973   8.696   1.202   8.829  1.4894 -1.1896 -0.3467
  591SOL    HW2 3974   8.776   1.205   8.957 -0.1718 -0.3349  0.7104
  592SOL     OW 3975   0.184   8.177   2.524  0.1166 -0.9094 -0.4796
  592SOL    HW1 3976   0.214   8.216   2.441 -1.0374  0.2040 -0.3957
  592SOL    HW2 3977   0.090   8.163   2.512 -0.1549 -0.3254  0.7891
  593SOL     OW 3978   0.144   8.426   0.373  0.8743  0.5382 -0.5694
  593SOL    HW1 3979   0.188   8.379   0.444  0.2675  0.1646 -0.4334
  593SOL    HW2 3980   0.197   8.406   0.295  0.5265 -0.5367 -0.5525
  594SOL     OW 3981   1.358   0.622   6.615  0.0895  0.1262  0.0923
  594SOL    HW1 3982   1.267   0.595   6.625  0.5195 -0.6223  2.9894
  594SOL    HW2 3983   1.361   0.666   6.530 -2.9620  0.2520 -0.0611
  595SOL     OW 3984   8.612   6.193   8.299 -0.1950 -0.6113  0.4834
  595SOL    HW1 3985   8.683   6.255   8.320 -0.0123 -0.8402  0.5426
  595SOL    HW2 3986   8.611   6.188   8.204  0.0904 -0.8619  0.4913
  596SOL     OW 3987   7.473   5.610   7.572  0.1037 -0.4178 -0.0647
  596SOL    HW1 3988   7.538   5.570   7.513 -0.2747 -1.2466  0.0780
  596SOL    HW2 3989   7.453   5.542   7.635 -2.1521 -0.7699 -1.0672
  597SOL     OW 3990   3.716   1.940   7.566 -0.5042  0.0815  0.4553
  597SOL    HW1 3991   3.656   1.984   7.626  0.6047  0.1073  1.5810
  597SOL    HW2 3992   3.672   1.857   7.546 -1.4180  0.5697  0.3684
  598SOL     OW 3993   3.599   3.426   4.470 -0.0073 -0.7493 -0.0203
  598SOL    HW1 3994   3.609   3.397   4.561 -0.7266 -0.0169  0.3053
  598SOL    HW2 3995   3.576   3.347   4.422 -3.3524 -0.6307  1.0854
  599SOL     OW 3996   0.020   5.078   8.397  0.3063  0.2617 -0.3169
  599SOL    HW1 3997   0.014   4.999   8.452  0.5881 -0.2581 -1.0163
  599SOL    HW2 3998  -0.030   5.056   8.319  3.4299 -0.7179 -2.2341
  600SOL     OW 3999   4.543   5.212   0.619 -0.8460 -0.3208 -0.2758
  600SOL    HW1 4000   4.564   5.150   0.690  0.1754 -1.1282 -1.2452
  600SOL    HW2 4001   4.466   5.174   0.576 -0.7033 -0.4947 -0.3775
  601SOL     OW 4002   6.866   5.352   4.898  0.4569  0.8592  0.0620
  601SOL    HW1 4003   6.808   5.428   4.901 -0.5078  0.3789 -2.7441
  601SOL    HW2 4004   6.906   5.356   4.811 -1.4128 -2.9836 -1.2107
  602SOL     OW 4005   0.399   8.778   9.416 -0.7670 -0.2832 -0.0770
  602SOL    HW1 4006   0.449   8.697   9.418  0.4367  0.4343 -0.3953
  602SOL    HW2 4007   0.348   8.773   9.335 -0.6427 -0.6865 -0.1328
  603SOL     OW 4008   4.159   4.968   2.950  1.0419  0.1354  0.3356
  603SOL    HW1 4009   4.221   4.921   3.005  0.7555 -0.3586  0.2459
  603SOL    HW2 4010   4.098   4.900   2.919 -0.1781  0.7664  1.2740
  604SOL     OW 4011   2.999   0.535   0.068  0.0849  0.2774 -0.2415
  604SOL    HW1 4012   3.041   0.471   0.010 -0.8310 -0.2659 -0.3209
  604SOL    HW2 4013   2.913   0.550   0.029  0.2507  1.5044 -0.1700
  605SOL     OW 4014   5.494   7.305   3.371  0.0602  0.0688  0.7486
  605SOL    HW1 4015   5.456   7.390   3.348  0.6930  0.6985  1.9508
  605SOL    HW2 4016   5.458   7.286   3.458 -0.4619 -1.1505  0.2896
  606SOL     OW 4017   4.338   5.845   4.884 -0.3395  0.0272 -0.1012
  606SOL    HW1 4018   4.260   5.889   4.919  0.4855  1.1936  0.3181
  606SOL    HW2 4019   4.381   5.807   4.961 -0.6453 -0.9041 -0.3704
  607SOL     OW 4020   1.324   1.874   7.501 -0.0735 -0.0819 -0.5908
  607SOL    HW1 4021   1.344   1.781   7.488 -1.5137 -0.8248  1.7358
  607SOL    HW2 4022   1.346   1.890   7.593  1.2754  2.2524 -1.2420
  608SOL     OW 4023   5.808   4.130   4.098 -0.4527  0.2454 -0.1131
  608SOL    HW1 4024   5.870   4.193   4.134  0.7246  0.4098 -2.2150
  608SOL    HW2 4025   5.730   4.138   4.152  0.3771  2.0573  0.8945
  609SOL     OW 4026   2.065   3.222   6.871  0.3584 -1.2119  0.5073
  609SOL    HW1 4027   2.048   3.129   6.861  0.8312 -1.3123  0.5982
  609SOL    HW2 4028   1.996   3.253   6.930  0.7072 -1.6870  1.1866
  610SOL     OW 4029   6.361   1.228   1.315 -0.0979  0.1711  0.1129
  610SOL    HW1 4030   6.322   1.241   1.402  0.3521  0.1041  0.3281
  610SOL    HW2 4031   6.444   1.184   1.333 -0.4711 -0.7751 -0.4313
  611SOL     OW 4032   4.396   0.853   7.275  0.2999  0.5359 -0.1341
  611SOL    HW1 4033   4.323   0.864   7.336  0.6620  0.1002  0.3841
  611SOL    HW2 4034   4.439   0.938   7.274 -0.4392  0.9137 -0.7441
  612SOL     OW 4035   5.196   2.230   0.258 -0.4314  0.2168  0.1510
  612SOL    HW1 4036   5.184   2.237   0.163  1.0165  2.8528  0.0436
  612SOL    HW2 4037   5.109   2.244   0.294 -0.7704  0.6127 -0.7795
  613SOL     OW 4038   8.587   5.579   1.470 -0.9179  0.0100 -0.2804
  613SOL    HW1 4039   8.606   5.486   1.476 -1.4978 -0.1951 -1.3926
  613SOL    HW2 4040   8.672   5.621   1.466 -0.5727 -0.2756  2.2716
  614SOL     OW 4041   1.333   8.583   9.079 -0.3758 -0.4305 -0.2304
  614SOL    HW1 4042   1.389   8.581   9.001 -1.9368  3.3131 -1.6634
  614SOL    HW2 4043   1.379   8.642   9.139 -1.5112  0.6884 -0.4213
  615SOL     OW 4044   8.449   0.907   6.065 -0.1670 -0.0695 -0.1288
  615SOL    HW1 4045   8.478   0.900   5.974  0.3553 -0.8089  0.0842
  615SOL    HW2 4046   8.423   0.819   6.089  0.6598 -0.0889  0.7420
  616SOL     OW 4047   8.302   5.456   1.301 -0.4512  0.0901  0.1118
  616SOL    HW1 4048   8.226   5.398   1.298 -2.0521  2.0986 -0.7294
  616SOL    HW2 4049   8.290   5.507   1.381 -0.0905  0.5550 -0.1285
  617SOL     OW 4050   7.161   8.537   3.494  0.3842 -0.2083  1.0236
  617SOL    HW1 4051   7.227   8.604   3.478  1.9322 -1.9316 -0.2145
  617SOL    HW2 4052   7.205   8.455   3.475 -2.2939 -1.4271 -0.5204
  618SOL     OW 4053   8.425   0.190   0.389  0.3092  0.2874  0.4708
  618SOL    HW1 4054   8.426   0.135   0.311 -1.1279  0.5828  0.2134
  618SOL    HW2 4055   8.454   0.132   0.460 -2.0245 -1.1135  0.3732
  619SOL     OW 4056   2.793   5.331   8.093 -0.8700 -0.3883 -0.5422
  619SOL    HW1 4057   2.811   5.361   8.182 -1.1608  1.0719 -0.9441
  619SOL    HW2 4058   2.871   5.281   8.068 -0.8037 -0.8441  0.5355
  620SOL     OW 4059   2.297   4.204   7.710  0.2121 -0.2544  0.0397
  620SOL    HW1 4060   2.351   4.265   7.660 -0.9348  0.3641 -0.4724
  620SOL    HW2 4061   2.294   4.125   7.656  1.8377 -0.8699  0.7813
  621SOL     OW 4062   6.468   1.225   9.018  0.6497 -0.5606 -0.0400
  621SOL    HW1 4063   6.547   1.197   9.064 -0.2506 -1.9518  0.7326
  621SOL    HW2 4064   6.442   1.148   8.967 -1.0124 -0.6438  0.8659
  622SOL     OW 4065   6.003   6.181   8.873  0.3688 -0.1323  0.0501
  622SOL    HW1 4066   6.037   6.119   8.938  0.2007 -0.4660 -0.1735
  622SOL    HW2 4067   5.909   6.160   8.868  0.5023 -0.5530 -0.7783
  623SOL     OW 4068   5.073   2.891   9.469  0.6102  0.3429 -0.2907
  623SOL    HW1 4069   5.009   2.848   9.411 -0.1427  0.6573  0.2980
  623SOL    HW2 4070   5.130   2.939   9.409 -0.2667  0.8078 -0.7751
  624SOL     OW 4071   9.156   5.744   0.399 -0.0186 -0.0434 -0.6948
  624SOL    HW1 4072   9.107   5.801   0.340 -1.5618 -0.1124  0.4592
  624SOL    HW2 4073   9.152   5.657   0.357 -1.7517 -0.2512 -0.1621
  625SOL     OW 4074   7.276   6.543   4.714  0.1909 -0.2179  0.5641
  625SOL    HW1 4075   7.243   6.607   4.778  0.4642  1.2769 -0.7447
  625SOL    HW2 4076   7.311   6.596   4.643 -0.3561 -1.8416 -0.9826
  626SOL     OW 4077   9.234   6.514   0.365  0.2871  0.6631  0.0472
  626SOL    HW1 4078   9.300   6.576   0.334  1.6997 -2.2590 -3.5980
  626SOL    HW2 4079   9.276   6.428   0.357 -2.8483 -1.1142  0.8858
  627SOL     OW 4080   4.573   7.777   0.028  0.2013  0.2237 -0.0328
  627SOL    HW1 4081   4.629   7.809  -0.043  0.7290  1.1900  0.8060
  627SOL    HW2 4082   4.540   7.856   0.071  1.0660 -0.3175  1.7155
  628SOL     OW 4083   4.255   6.202   5.420  0.0611 -0.3823 -0.2108
  628SOL    HW1 4084   4.339   6.157   5.415 -0.3348 -1.2456  0.6336
  628SOL    HW2 4085   4.225   6.207   5.330  0.2712 -1.5295 -0.3590
  629SOL     OW 4086   2.069   7.522   3.650  0.7256 -0.2438  0.0991
  629SOL    HW1 4087   2.146   7.573   3.676  0.6346  0.4434 -0.9397
  629SOL    HW2 4088   2.034   7.568   3.574 -1.1285 -0.1487  0.9513
  630SOL     OW 4089   3.493   2.856   3.995 -0.1966 -0.3364 -0.0752
  630SOL    HW1 4090   3.501   2.789   3.927 -0.6234 -1.4094  0.9001
  630SOL    HW2 4091   3.404   2.890   3.985  0.2051  0.5230 -0.9340
  631SOL     OW 4092   5.981   1.697   5.522  0.3703  0.2859 -0.4496
  631SOL    HW1 4093   5.949   1.769   5.468  0.9631  0.2491 -0.8538
  631SOL    HW2 4094   5.971   1.728   5.612  3.3859  2.1224 -0.6063
  632SOL     OW 4095   0.898   4.461   1.104 -0.0665 -0.3497  0.2749
  632SOL    HW1 4096   0.852   4.394   1.155  2.2797 -2.5399 -0.2739
  632SOL    HW2 4097   0.829   4.510   1.061 -1.9516 -1.5471  1.7538
  633SOL     OW 4098   0.444   2.747   7.581  0.4611 -0.4597  0.0074
  633SOL    HW1 4099   0.508   2.675   7.578  0.5099 -0.4701  0.9159
  633SOL    HW2 4100   0.370   2.715   7.529  0.1823 -1.4838  0.9804
  634SOL     OW 4101   1.467   7.284   3.314  0.0022  0.3331 -0.5028
  634SOL    HW1 4102   1.524   7.349   3.273  0.4187 -0.3124 -0.9689
  634SOL    HW2 4103   1.498   7.200   3.280  1.1387 -0.3633  2.0074
  635SOL     OW 4104   2.075   6.131   2.070 -0.1878 -0.2043 -0.0980
  635SOL    HW1 4105   2.083   6.129   2.165  1.7197  2.4496 -0.0964
  635SOL    HW2 4106   1.992   6.086   2.052  0.7362 -3.3866  2.5241
  636SOL     OW 4107   3.075   3.020   1.695  0.1718  0.6355  0.7756
  636SOL    HW1 4108   3.150   3.069   1.730 -1.2028  1.4505  2.8015
  636SOL    HW2 4109   3.022   3.086   1.651 -0.4843  0.5110  1.3746
  637SOL     OW 4110   1.093   7.539   5.762  0.1923  0.0101  0.2842
  637SOL    HW1 4111   1.160   7.603   5.738  0.5870 -0.7586 -0.6889
  637SOL    HW2 4112   1.139   7.455   5.761 -0.2353 -0.2781  1.8897
  638SOL     OW 4113   1.225   3.893   6.451  0.2075 -0.6210 -0.0910
  638SOL    HW1 4114   1.167   3.819   6.428 -0.0994 -0.3316 -0.2630
  638SOL    HW2 4115   1.241   3.937   6.368  2.0420 -1.6556 -0.3233
  639SOL     OW 4116   8.079   3.884   5.417  0.2309  0.0762 -0.0043
  639SOL    HW1 4117   8.034   3.803   5.439  2.2753 -1.4048 -0.9285
  639SOL    HW2 4118   8.165   3.856   5.385  1.5409  2.6862  0.9363
  640SOL     OW 4119   6.256   4.292   0.579  0.1733  0.6995  0.0427
  640SOL    HW1 4120   6.325   4.304   0.514  0.4260 -1.0986 -0.0857
  640SOL    HW2 4121   6.267   4.201   0.608 -1.4967  0.7074  0.7812
  641SOL     OW 4122   2.046   5.658   5.739  0.1995  0.4838  0.3732
  641SOL    HW1 4123   2.119   5.648   5.799  0.4546 -0.8546 -0.1315
  641SOL    HW2 4124   2.078   5.720   5.673  0.7306  0.2362  0.3935
  642SOL     OW 4125   1.740   6.952   6.550  0.1154 -0.0895  0.5433
  642SOL    HW1 4126   1.697   6.916   6.628 -0.2158 -1.2318 -0.1500
  642SOL    HW2 4127   1.723   7.046   6.555  1.1164  0.0447  2.4634
  643SOL     OW 4128   6.417   0.318   2.858 -0.5167 -0.0005  0.1812
  643SOL    HW1 4129   6.388   0.383   2.922  0.2740  1.1448 -0.5674
  643SOL    HW2 4130   6.346   0.313   2.794  0.9779  3.3340 -2.0473
  644SOL     OW 4131   7.771   8.371   0.221  0.6101 -0.7587 -0.6500
  644SOL    HW1 4132   7.708   8.303   0.246 -1.3826  0.5314 -1.9249
  644SOL    HW2 4133   7.856   8.331   0.238 -0.5052 -2.9748  0.1584
  645SOL     OW 4134   0.294   6.404   6.295  0.0026 -0.4147  0.1737
  645SOL    HW1 4135   0.317   6.447   6.377  1.6146 -0.5828 -0.1607
  645SOL    HW2 4136   0.232   6.464   6.253  0.2827  0.3633  0.8525
  646SOL     OW 4137   7.707   6.951   7.965  0.6499  0.1211 -0.2723
  646SOL    HW1 4138   7.648   6.927   7.893  0.3317 -0.3478  0.1431
  646SOL    HW2 4139   7.651   6.993   8.030  0.5271 -1.4338  0.6720
  647SOL     OW 4140   8.658   0.167   4.905 -0.1922 -0.0967  0.5305
  647SOL    HW1 4141   8.602   0.235   4.942 -1.3255 -0.5938 -0.2056
  647SOL    HW2 4142   8.658   0.184   4.811  1.8966  0.6020  0.6107
  648SOL     OW 4143   1.331   4.495   9.160  0.1876  0.1945  0.3004
  648SOL    HW1 4144   1.305   4.584   9.137  0.4699  0.3625  0.6230
  648SOL    HW2 4145   1.258   4.440   9.130  0.4556  0.4232 -0.7971
  649SOL     OW 4146   8.849   8.728   6.780 -0.2675 -0.2157  0.2782
  649SOL    HW1 4147   8.810   8.767   6.702 -0.1400 -1.2349 -0.3019
  649SOL    HW2 4148   8.816   8.638   6.782  0.9637 -0.6825  0.5235
  650SOL     OW 4149   7.702   4.911   6.403 -0.6929  0.2733  0.4210
  650SOL    HW1 4150   7.718   4.982   6.341 -3.1033  0.3649 -0.2197
  650SOL    HW2 4151   7.693   4.955   6.488 -0.3167  0.4940  0.3499
  651SOL     OW 4152   9.032   1.157   2.343  0.6893  0.2372 -0.1282
  651SOL    HW1 4153   9.026   1.246   2.380 -0.5246  1.7067 -3.4741
  651SOL    HW2 4154   9.067   1.170   2.255 -0.4463 -2.4784 -1.0783
  652SOL     OW 4155   3.663   7.424   7.837  0.6485  0.2774 -0.0442
  652SOL    HW1 4156   3.579   7.389   7.869  0.1375  1.3295 -0.1821
  652SOL    HW2 4157   3.701   7.353   7.787 -0.5135  0.0147 -0.5919
  653SOL     OW 4158   4.832   4.870   4.279  0.2786 -0.5393 -0.8037
  653SOL    HW1 4159   4.862   4.787   4.242  1.1352 -0.3344 -0.5998
  653SOL    HW2 4160   4.800   4.920   4.204 -0.5956 -1.2011 -0.8728
  654SOL     OW 4161   2.391   5.266   4.717 -0.0831  0.0468 -0.2597
  654SOL    HW1 4162   2.297   5.264   4.733 -0.0686  0.5482 -0.0984
  654SOL    HW2 4163   2.422   5.343   4.765  0.7688 -1.4124  1.7025
  655SOL     OW 4164   1.557   8.903   8.083 -0.0980 -0.2336 -0.1980
  655SOL    HW1 4165   1.556   8.808   8.094  0.8117 -0.3334 -0.9125
  655SOL    HW2 4166   1.647   8.924   8.061 -0.1658  0.8757  0.5016
  656SOL     OW 4167   8.820   0.857   8.329 -0.2968 -0.4901 -0.1107
  656SOL    HW1 4168   8.872   0.865   8.409  1.9709 -3.0210 -1.1741
  656SOL    HW2 4169   8.881   0.877   8.258 -1.1481 -2.0979 -1.3672
  657SOL     OW 4170   9.394   4.567   0.025  0.1820  0.8074  0.1120
  657SOL    HW1 4171   9.320   4.516   0.058  0.5844  1.2280  1.7850
  657SOL    HW2 4172   9.354   4.646  -0.011 -0.3311  0.0074 -1.1200
  658SOL     OW 4173   4.559   8.064   5.692  0.2210 -0.4245  0.2861
  658SOL    HW1 4174   4.643   8.020   5.679  0.0671 -0.7822  0.4700
  658SOL    HW2 4175   4.529   8.033   5.778 -0.9115 -1.6976 -0.5153
  659SOL     OW 4176   0.263   0.187   6.529 -0.2491 -0.1670 -0.4294
  659SOL    HW1 4177   0.303   0.101   6.539  0.8493  0.1616 -1.6731
  659SOL    HW2 4178   0.201   0.194   6.602 -0.1311 -1.8672 -0.1356
  660SOL     OW 4179   1.869   9.172   3.011  0.0560 -0.0551  0.2030
  660SOL    HW1 4180   1.884   9.088   3.054  0.2958  0.0917  0.4125
  660SOL    HW2 4181   1.951   9.219   3.022 -0.1395  0.2761  0.2437
  661SOL     OW 4182   3.097   5.222   2.587 -0.8388  0.5444 -0.3117
  661SOL    HW1 4183   3.074   5.185   2.502 -1.4243 -0.3562  0.2294
  661SOL    HW2 4184   3.025   5.280   2.609 -1.9696 -1.1887  0.7292
  662SOL     OW 4185   3.001   4.186   5.584  0.2851  0.1508 -0.6719
  662SOL    HW1 4186   3.010   4.278   5.561 -0.6981  0.0953 -1.3409
  662SOL    HW2 4187   2.909   4.167   5.570 -0.0440 -0.3207  1.8013
  663SOL     OW 4188   2.771   6.306   9.530  0.1882  0.7262 -0.2632
  663SOL    HW1 4189   2.831   6.381   9.539  0.5644  0.5314 -1.0978
  663SOL    HW2 4190   2.824   6.231   9.555  0.0730  0.6352 -0.2920
  664SOL     OW 4191   9.325   7.220   4.578  0.1854  0.1567 -0.3794
  664SOL    HW1 4192   9.366   7.262   4.503 -1.2768 -0.5882 -1.6367
  664SOL    HW2 4193   9.318   7.128   4.553  0.6667 -0.3274  1.1420
  665SOL     OW 4194   0.614   9.375   1.214 -0.1935  0.4235  0.1114
  665SOL    HW1 4195   0.572   9.453   1.251  1.5822  1.5405 -0.1510
  665SOL    HW2 4196   0.614   9.391   1.119  1.1017  0.6203  0.1268
  666SOL     OW 4197   0.910   2.747   0.439 -0.0156  0.2828  0.6985
  666SOL    HW1 4198   0.955   2.830   0.456 -0.2917  0.6129 -0.1654
  666SOL    HW2 4199   0.872   2.723   0.523  1.5090  0.1506  1.3870
  667SOL     OW 4200   2.715   4.695   7.650 -0.0181  0.0160 -0.1005
  667SOL    HW1 4201   2.714   4.604   7.679 -1.7242 -0.6223 -1.8936
  667SOL    HW2 4202   2.779   4.738   7.706  0.5837 -2.2064  1.0219
  668SOL     OW 4203   9.332   9.550   5.179  0.3592 -0.0590  0.1610
  668SOL    HW1 4204   9.304   9.632   5.219  1.3185  0.5841 -0.4669
  668SOL    HW2 4205   9.424   9.542   5.203  0.2486 -1.0061  0.2982
  669SOL     OW 4206   0.726   1.932   4.386 -0.2101 -0.0597  0.6922
  669SOL    HW1 4207   0.740   1.903   4.476 -1.0793 -2.2747  0.1789
  669SOL    HW2 4208   0.633   1.915   4.369  0.0368 -0.0972 -0.7424
  670SOL     OW 4209   5.326   0.560   2.597 -0.1599 -0.2070 -0.1247
  670SOL    HW1 4210   5.374   0.516   2.667  0.1101 -0.6060 -0.5548
  670SOL    HW2 4211   5.279   0.631   2.641 -0.9301 -1.1682  0.6482
  671SOL     OW 4212   3.048   0.469   6.523 -0.0450  0.0201 -0.0285
  671SOL    HW1 4213   2.961   0.487   6.488  0.1687  0.1635 -0.4893
  671SOL    HW2 4214   3.102   0.454   6.446  0.5693  0.9576  0.1975
  672SOL     OW 4215   8.158   0.204   7.785  0.2049  0.4429 -0.0170
  672SOL    HW1 4216   8.190   0.289   7.755  0.9890  0.2368  0.2176
  672SOL    HW2 4217   8.198   0.141   7.725  1.5152  0.0557  1.2027
  673SOL     OW 4218   5.033   7.799   9.368  0.1014  0.4740  0.0944
  673SOL    HW1 4219   4.991   7.875   9.408  1.9431  1.3860  0.3973
  673SOL    HW2 4220   5.073   7.753   9.442  0.1235 -0.0706 -0.2508
  674SOL     OW 4221   2.505   5.777   0.297  0.2275  0.2196 -0.1841
  674SOL    HW1 4222   2.437   5.754   0.360 -0.6372 -1.0594 -1.5290
  674SOL    HW2 4223   2.584   5.789   0.351 -0.7952  0.6653  1.2755
  675SOL     OW 4224   0.346   7.450   2.953  0.0420  0.2403  0.1882
  675SOL    HW1 4225   0.378   7.446   2.862 -1.2755 -0.4627 -0.2735
  675SOL    HW2 4226   0.408   7.508   2.997 -0.0640  1.7466 -1.5035
  676SOL     OW 4227   6.822   6.306   8.321  0.1196  0.2165 -1.3254
  676SOL    HW1 4228   6.874   6.345   8.250  0.9403 -1.8089 -1.9081
  676SOL    HW2 4229   6.871   6.326   8.400 -0.4753  1.9537 -1.3435
  677SOL     OW 4230   5.328   8.410   5.660  0.0571  0.3170  0.3272
  677SOL    HW1 4231   5.350   8.405   5.753  0.0255  1.9853  0.4652
  677SOL    HW2 4232   5.242   8.371   5.653  0.2632 -0.2520  0.9223
  678SOL     OW 4233   0.813   6.778   6.510  0.7883 -0.0777  0.0903
  678SOL    HW1 4234   0.899   6.773   6.469  1.0748  0.8075  0.5673
  678SOL    HW2 4235   0.764   6.842   6.457  1.7850  2.5530  2.1471
  679SOL     OW 4236   4.299   1.442   2.639 -0.0770  0.3538 -0.1123
  679SOL    HW1 4237   4.231   1.389   2.598 -0.0309  1.1521 -1.2754
  679SOL    HW2 4238   4.378   1.422   2.589  0.4265 -0.1093  0.8378
  680SOL     OW 4239   4.159   3.977   1.702  0.0835  0.4866  0.3470
  680SOL    HW1 4240   4.206   3.899   1.671 -1.7409  0.2269 -1.9776
  680SOL    HW2 4241   4.090   3.991   1.638 -0.6772  3.0908  1.6076
  681SOL     OW 4242   9.304   3.473   2.771 -0.2219 -0.4395 -0.1566
  681SOL    HW1 4243   9.395   3.503   2.770  0.1400 -1.3764 -2.3112
  681SOL    HW2 4244   9.263   3.523   2.841  0.6022  4.1960 -2.5539
  682SOL     OW 4245   8.617   7.017   9.552 -0.0983  0.6125  0.4357
  682SOL    HW1 4246   8.654   6.958   9.487 -0.8232  1.4142 -0.7533
  682SOL    HW2 4247   8.528   6.985   9.566 -0.5480  1.4719 -0.3318
  683SOL     OW 4248   4.276   0.972   1.132 -0.0223 -0.4317 -0.2603
  683SOL    HW1 4249   4.270   1.025   1.052  1.4298  0.0588 -0.0813
  683SOL    HW2 4250   4.216   1.014   1.193 -0.3594 -0.1839 -0.7518
  684SOL     OW 4251   1.886   2.951   5.005  0.2008 -0.0330 -0.4820
  684SOL    HW1 4252   1.868   2.857   4.999  1.1775 -0.5738  2.8653
  684SOL    HW2 4253   1.977   2.956   5.034  0.0663  1.9573 -0.2730
  685SOL     OW 4254   7.086   8.927   8.287 -0.4272 -0.1031  0.1452
  685SOL    HW1 4255   7.067   8.955   8.197 -0.9757 -0.8213  0.0283
  685SOL    HW2 4256   7.050   8.997   8.342  0.4457  0.6414 -0.1915
  686SOL     OW 4257   3.316   9.092   5.486 -0.5992  0.7819 -0.6428
  686SOL    HW1 4258   3.228   9.054   5.481 -0.5413  0.7539 -1.5700
  686SOL    HW2 4259   3.303   9.178   5.527 -1.1468  1.0489 -1.3605
  687SOL     OW 4260   3.260   8.147   3.360 -0.4600 -0.1240 -0.4105
  687SOL    HW1 4261   3.173   8.140   3.398 -0.9439  0.8526 -1.2714
  687SOL    HW2 4262   3.320   8.140   3.434 -1.1449 -2.7985 -0.0065
  688SOL     OW 4263   3.188   3.456   7.515 -0.2153  0.0519 -0.4185
  688SOL    HW1 4264   3.113   3.465   7.456  0.1206  2.1608 -0.6126
  688SOL    HW2 4265   3.227   3.544   7.517  0.0248 -0.0316  2.6411
  689SOL     OW 4266   8.241   4.420   1.215  0.1738  0.4968 -1.0457
  689SOL    HW1 4267   8.266   4.512   1.205 -0.6592  1.3024  2.6680
  689SOL    HW2 4268   8.321   4.377   1.244 -0.2532  0.9955  1.0886
  690SOL     OW 4269   0.486   6.969   8.476  0.7267 -0.4370 -0.3212
  690SOL    HW1 4270   0.420   6.963   8.546  0.6763  1.3160 -0.1598
  690SOL    HW2 4271   0.555   6.909   8.502 -0.1306 -1.1813  0.2852
  691SOL     OW 4272   0.471   1.354   8.677 -0.2320 -0.5668 -0.4945
  691SOL    HW1 4273   0.498   1.413   8.606 -0.4975  0.0097 -0.1291
  691SOL    HW2 4274   0.453   1.413   8.751 -1.1513 -1.0482 -0.3182
  692SOL     OW 4275   1.906   5.858   1.566 -0.2997 -0.3705  0.0684
  692SOL    HW1 4276   1.811   5.861   1.578 -0.3095 -1.8567  0.5919
  692SOL    HW2 4277   1.941   5.889   1.650 -0.3392 -0.4129  0.1012
  693SOL     OW 4278   8.661   1.583   6.233  0.1186 -0.5100 -0.5017
  693SOL    HW1 4279   8.700   1.593   6.146 -1.5268  1.6397 -1.0594
  693SOL    HW2 4280   8.709   1.645   6.287 -2.1200  1.9204 -1.1201
  694SOL     OW 4281   1.027   9.269   3.785 -0.3497  0.3460 -0.3497
  694SOL    HW1 4282   0.963   9.201   3.762 -0.9574  0.9281 -0.4013
  694SOL    HW2 4283   1.054   9.306   3.700 -1.9292  1.8915 -0.2261
  695SOL     OW 4284   4.181   1.369   5.735  0.1340  0.0507 -0.4333
  695SOL    HW1 4285   4.221   1.321   5.808  0.3976 -0.7331 -1.0814
  695SOL    HW2 4286   4.191   1.461   5.759 -1.0358 -0.2012  1.1773
  696SOL     OW 4287   4.598   2.342   5.824 -0.0171  0.1941  0.1173
  696SOL    HW1 4288   4.588   2.296   5.741 -0.0547 -1.1702  0.8638
  696SOL    HW2 4289   4.509   2.359   5.854 -0.0678 -1.5269  1.0571
  697SOL     OW 4290   2.926   6.340   5.721  0.2175  0.5479 -0.7991
  697SOL    HW1 4291   2.975   6.258   5.714 -1.9490 -0.8452 -0.3858
  697SOL    HW2 4292   2.969   6.387   5.792  0.5351 -0.9342  0.0243
  698SOL     OW 4293   0.865   1.077   8.122  0.0010  0.7874  0.8049
  698SOL    HW1 4294   0.936   1.138   8.105 -0.3135  1.0344  0.3552
  698SOL    HW2 4295   0.785   1.127   8.102 -0.3801  0.9540  2.5178
  699SOL     OW 4296   5.434   0.927   5.226 -0.1880  0.1507  0.3703
  699SOL    HW1 4297   5.351   0.949   5.184 -0.1385 -0.9865 -0.3733
  699SOL    HW2 4298   5.426   0.835   5.248 -0.1507  0.6666  2.7996
  700SOL     OW 4299   3.900   6.300   5.408  0.1762 -0.1338  0.3399
  700SOL    HW1 4300   3.981   6.280   5.453  0.2517 -0.7360 -0.0621
  700SOL    HW2 4301   3.834   6.244   5.449  0.1927 -0.4876 -0.1119
  701SOL     OW 4302   0.643   6.565   0.488  0.2188 -0.2186 -0.5620
  701SOL    HW1 4303   0.660   6.526   0.402  1.2593 -1.5579  0.2131
  701SOL    HW2 4304   0.653   6.659   0.473 -0.9547 -0.2893 -2.1797
  702SOL     OW 4305   6.699   5.839   3.165  0.3697  0.1997  0.1313
  702SOL    HW1 4306   6.671   5.906   3.102 -0.4170 -1.5221 -1.4387
  702SOL    HW2 4307   6.794   5.851   3.171  0.3524  0.9316 -0.7528
  703SOL     OW 4308   4.270   8.007   5.282 -0.2321 -0.7627 -0.8506
  703SOL    HW1 4309   4.258   7.912   5.287 -0.9908 -0.6128  1.1638
  703SOL    HW2 4310   4.190   8.038   5.238 -0.7322 -0.9379 -0.0828
  704SOL     OW 4311   3.202   6.395   5.254 -0.2138 -0.1472 -0.8428
  704SOL    HW1 4312   3.292   6.364   5.255 -0.0336  0.3330  1.2776
  704SOL    HW2 4313   3.160   6.345   5.184  1.0684 -2.2229 -0.1951
  705SOL     OW 4314   0.791   6.695   0.785  0.2282  0.1067 -0.6273
  705SOL    HW1 4315   0.721   6.743   0.741 -0.9294 -0.0975  0.8935
  705SOL    HW2 4316   0.750   6.613   0.813  0.9551  0.1223  0.5851
  706SOL     OW 4317   0.133   5.485   9.473 -0.3666  0.3135 -0.5600
  706SOL    HW1 4318   0.175   5.447   9.396  0.8660  1.2247 -0.3639
  706SOL    HW2 4319   0.049   5.439   9.479 -0.9035  0.8454 -2.9724
  707SOL     OW 4320   0.910   9.044   2.396 -0.4610  0.3456 -0.3960
  707SOL    HW1 4321   0.861   8.973   2.353  0.7396 -0.7245 -0.0690
  707SOL    HW2 4322   0.916   9.112   2.329 -1.2280 -0.0565 -0.8931
  708SOL     OW 4323   4.680   3.805   8.159 -0.0748 -0.3918  0.8530
  708SOL    HW1 4324   4.622   3.846   8.095 -0.5956 -0.3486  1.3443
  708SOL    HW2 4325   4.760   3.859   8.158 -0.0903 -0.3809  0.2605
  709SOL     OW 4326   3.728   4.421   7.617 -0.4298  0.0004 -0.1027
  709SOL    HW1 4327   3.718   4.370   7.698 -0.4066 -0.3790 -0.3366
  709SOL    HW2 4328   3.704   4.510   7.642  3.5233  0.8414  1.3815
  710SOL     OW 4329   4.890   4.032   8.084 -0.2120  0.2082  0.0675
  710SOL    HW1 4330   4.881   4.089   8.161  0.2709  0.2538  0.0920
  710SOL    HW2 4331   4.982   4.007   8.084 -0.2731 -0.0167 -0.3405
  711SOL     OW 4332   4.159   5.474   3.680  0.6369  0.3882 -0.3478
  711SOL    HW1 4333   4.208   5.392   3.669  1.0997  0.6220 -0.0462
  711SOL    HW2 4334   4.111   5.484   3.598 -0.7712 -1.0665  0.2374
  712SOL     OW 4335   3.357   2.231   4.581  0.4307  0.0501 -0.1775
  712SOL    HW1 4336   3.328   2.322   4.583  3.1127  0.9760  0.1052
  712SOL    HW2 4337   3.385   2.217   4.490  1.5520  0.0556  0.1569
  713SOL     OW 4338   4.966   5.839   1.966 -0.1021 -0.0975  0.2168
  713SOL    HW1 4339   4.985   5.927   1.996  0.3854 -0.1094 -0.0368
  713SOL    HW2 4340   4.870   5.831   1.972 -0.0586  0.0507  1.2987
  714SOL     OW 4341   5.142   5.610   6.395 -0.4088  0.6055  0.0120
  714SOL    HW1 4342   5.079   5.614   6.323 -2.1003  0.6854  1.4311
  714SOL    HW2 4343   5.122   5.687   6.448 -0.3372 -0.3250  1.4415
  715SOL     OW 4344   7.283   4.397   9.528  0.4486 -0.4203 -0.3117
  715SOL    HW1 4345   7.258   4.392   9.435  1.0595 -0.0620 -0.5039
  715SOL    HW2 4346   7.280   4.490   9.549 -0.0869 -0.5388  0.1487
  716SOL     OW 4347   7.523   7.102   6.306  0.3471 -0.4584  1.1468
  716SOL    HW1 4348   7.583   7.030   6.286  3.1998  2.1109 -0.3866
  716SOL    HW2 4349   7.460   7.102   6.235  1.4411 -0.3936  0.1449
  717SOL     OW 4350   0.133   1.970   3.716  0.2541 -0.3786 -0.3674
  717SOL    HW1 4351   0.223   1.946   3.694  0.9670  0.8045  1.1173
  717SOL    HW2 4352   0.079   1.913   3.661  1.8979 -0.7468 -1.6745
  718SOL     OW 4353   8.686   4.062   1.832 -0.6970 -0.0675 -0.0216
  718SOL    HW1 4354   8.680   4.153   1.859  2.0587  0.3996 -0.7531
  718SOL    HW2 4355   8.659   4.062   1.740  1.3285  0.4241 -0.6485
  719SOL     OW 4356   5.232   4.574   4.519  0.5312 -0.1782 -0.4452
  719SOL    HW1 4357   5.322   4.604   4.533  0.0758  1.6385 -1.1872
  719SOL    HW2 4358   5.196   4.634   4.454 -1.0629 -1.2141 -0.5740
  720SOL     OW 4359   0.955   2.225   8.113  0.3656 -0.3660 -0.1203
  720SOL    HW1 4360   0.997   2.245   8.029 -3.0585  3.4905 -1.2438
  720SOL    HW2 4361   0.865   2.201   8.089 -0.5522  0.3211  2.3818
  721SOL     OW 4362   5.386   0.197   7.583 -0.0379  0.5379 -0.6778
  721SOL    HW1 4363   5.301   0.160   7.603 -0.1372  0.3382 -1.4598
  721SOL    HW2 4364   5.367   0.288   7.558 -0.1680  0.1319 -2.0982
  722SOL     OW 4365   3.540   2.522   5.810  0.2387 -0.3037 -0.4464
  722SOL    HW1 4366   3.579   2.576   5.741 -0.9305 -0.0548 -0.9420
  722SOL    HW2 4367   3.450   2.555   5.818  0.7265  0.6317  2.1924
  723SOL     OW 4368   3.045   4.555   5.360 -0.6253 -0.4110  0.3309
  723SOL    HW1 4369   3.100   4.633   5.350  2.9488 -2.8733 -1.6016
  723SOL    HW2 4370   3.013   4.537   5.272  0.0360 -1.9963  0.3857
  724SOL     OW 4371   1.425   6.660   5.443  0.0918  0.5464 -0.0120
  724SOL    HW1 4372   1.503   6.715   5.444  1.6458 -1.4822 -1.4108
  724SOL    HW2 4373   1.421   6.624   5.531  0.3864  1.1183  0.2437
  725SOL     OW 4374   4.234   0.479   1.151  0.2883 -0.4506  0.3550
  725SOL    HW1 4375   4.261   0.392   1.182  0.0360 -0.0252  1.8334
  725SOL    HW2 4376   4.139   0.478   1.158  0.0916 -0.8577 -1.8841
  726SOL     OW 4377   6.513   7.260   6.034  0.0136  0.1669  0.0161
  726SOL    HW1 4378   6.540   7.175   5.998  1.3043  0.4703  0.2083
  726SOL    HW2 4379   6.482   7.309   5.958 -1.2501 -0.6516 -0.0151
  727SOL     OW 4380   9.314   8.442   8.256 -0.1783 -0.2926  0.3311
  727SOL    HW1 4381   9.285   8.353   8.237  1.7389 -1.1811  1.2606
  727SOL    HW2 4382   9.318   8.485   8.170  0.6221 -1.7054 -0.3778
  728SOL     OW 4383   6.229   7.614   8.122  0.4403  0.3358  0.0274
  728SOL    HW1 4384   6.217   7.629   8.028 -3.6510  3.6434  0.8046
  728SOL    HW2 4385   6.311   7.659   8.142 -0.2211  2.3879 -1.5274
  729SOL     OW 4386   6.119   9.123   7.558 -0.0929 -0.4022 -0.4654
  729SOL    HW1 4387   6.033   9.154   7.527 -0.9979 -1.0662  1.2648
  729SOL    HW2 4388   6.154   9.073   7.484  0.3543  2.6051 -2.4649
  730SOL     OW 4389   1.565   9.343   4.127 -0.7809 -0.1887 -0.7201
  730SOL    HW1 4390   1.582   9.255   4.160 -2.1460 -0.8567 -1.7218
  730SOL    HW2 4391   1.478   9.365   4.162  0.0157  1.2585  0.4750
  731SOL     OW 4392   9.318   2.196   0.041  0.2747 -0.4288  0.4627
  731SOL    HW1 4393   9.281   2.202  -0.047 -1.5396  0.6396  1.2498
  731SOL    HW2 4394   9.406   2.234   0.033  0.7504 -1.7353 -1.1626
  732SOL     OW 4395   9.215   7.226   0.782 -0.1439 -0.1457 -0.3201
  732SOL    HW1 4396   9.253   7.298   0.732  0.5237 -0.0344  0.3355
  732SOL    HW2 4397   9.169   7.268   0.854  1.8338 -0.3975  1.1669
  733SOL     OW 4398   4.729   5.011   2.788  0.5747 -0.1919 -0.8209
  733SOL    HW1 4399   4.798   4.945   2.776  1.4825  0.2926  1.3301
  733SOL    HW2 4400   4.662   4.986   2.725  0.4842 -3.7252  0.4461
  734SOL     OW 4401   7.334   8.723   2.826 -0.4773  0.1345 -0.1520
  734SOL    HW1 4402   7.255   8.773   2.801 -0.7880 -0.4176 -0.2861
  734SOL    HW2 4403   7.346   8.660   2.755  1.2784  1.5268 -1.1764
  735SOL     OW 4404   2.892   7.718   1.595 -0.2394  0.4466 -0.2024
  735SOL    HW1 4405   2.811   7.749   1.637  0.6142 -0.1188  2.0147
  735SOL    HW2 4406   2.961   7.769   1.637  0.7588 -0.8916 -0.1846
  736SOL     OW 4407   7.240   6.825   2.058  0.4663  0.0788 -0.4017
  736SOL    HW1 4408   7.261   6.868   1.975  0.6483  1.4774  0.3487
  736SOL    HW2 4409   7.169   6.877   2.095 -0.0273 -0.8856  0.0696
  737SOL     OW 4410   6.402   8.250   6.704  0.2097 -0.6418 -0.4640
  737SOL    HW1 4411   6.479   8.280   6.656 -1.8513  2.3333 -2.2541
  737SOL    HW2 4412   6.343   8.326   6.704 -1.7936 -1.9792  2.9213
  738SOL     OW 4413   2.466   6.336   3.744  0.1785  0.3940 -0.4342
  738SOL    HW1 4414   2.533   6.294   3.799  0.1899 -2.9278 -2.6858
  738SOL    HW2 4415   2.383   6.301   3.776 -0.0688  0.6713 -0.7648
  739SOL     OW 4416   5.555   8.202   2.773  0.3659  0.4368  0.0734
  739SOL    HW1 4417   5.610   8.206   2.695 -0.8485  0.9353 -0.7903
  739SOL    HW2 4418   5.546   8.293   2.800 -0.8773  0.4777 -0.4281
  740SOL     OW 4419   3.037   2.235   5.974  0.6642  0.1923  0.3036
  740SOL    HW1 4420   2.960   2.255   6.027 -0.0596 -0.2988 -0.5320
  740SOL    HW2 4421   3.022   2.145   5.943  2.1747 -0.3789  1.1538
  741SOL     OW 4422   0.307   9.525   9.096 -0.6709  0.6405 -0.3606
  741SOL    HW1 4423   0.375   9.584   9.131  0.2508 -1.5058  1.7940
  741SOL    HW2 4424   0.225   9.559   9.132 -0.1864  0.7705  0.6661
  742SOL     OW 4425   5.723   4.147   1.690 -0.0812  0.0089 -0.0945
  742SOL    HW1 4426   5.648   4.166   1.747  0.2868 -0.6491  0.6237
  742SOL    HW2 4427   5.687   4.091   1.621 -0.3558  0.1248 -0.0462
  743SOL     OW 4428   0.541   4.096   6.092 -0.3303  0.1653 -0.2356
  743SOL    HW1 4429   0.605   4.043   6.140 -0.8810  0.8915  1.3854
  743SOL    HW2 4430   0.494   4.034   6.038 -0.8800 -1.0349  1.5246
  744SOL     OW 4431   4.335   6.455   2.517 -0.0950  0.3580  0.1573
  744SOL    HW1 4432   4.381   6.511   2.580 -0.4250  0.8201 -0.0087
  744SOL    HW2 4433   4.271   6.513   2.476 -0.1017 -0.0226 -0.3745
  745SOL     OW 4434   4.001   6.400   6.960 -0.4579  0.0303  0.3672
  745SOL    HW1 4435   4.059   6.468   6.927  0.2432 -0.5336  0.4101
  745SOL    HW2 4436   3.983   6.425   7.051  1.0452 -0.6217  0.8776
  746SOL     OW 4437   0.267   9.484   6.959  0.0062 -0.1380 -0.3896
  746SOL    HW1 4438   0.184   9.518   6.926  0.6425 -0.6515 -2.6898
  746SOL    HW2 4439   0.267   9.392   6.936  0.0684 -0.8311  2.1051
  747SOL     OW 4440   4.062   9.115   8.097 -0.0266 -0.2676 -0.3727
  747SOL    HW1 4441   4.124   9.082   8.032 -0.2369  0.4879 -0.9781
  747SOL    HW2 4442   4.070   9.055   8.171 -0.1767 -1.4831 -1.3035
  748SOL     OW 4443   2.499   4.839   5.320 -0.0437  0.3761 -0.5492
  748SOL    HW1 4444   2.481   4.865   5.230  0.4197  0.4829 -0.6161
  748SOL    HW2 4445   2.511   4.744   5.316 -0.3268  0.3392 -0.5460
  749SOL     OW 4446   9.086   0.037   6.139  0.2478 -0.2731 -0.0881
  749SOL    HW1 4447   9.107   0.108   6.079 -1.1541 -0.3101 -0.6422
  749SOL    HW2 4448   9.143   0.053   6.215  1.2847  0.3598 -0.9642
  750SOL     OW 4449   2.302   4.486   7.181 -0.4555  0.3943 -0.2335
  750SOL    HW1 4450   2.232   4.420   7.180 -1.1170  1.0291  1.0721
  750SOL    HW2 4451   2.382   4.435   7.196 -0.8199 -0.2054 -0.2673
  751SOL     OW 4452   0.188   5.050   2.850  0.0018 -0.6242 -0.5050
  751SOL    HW1 4453   0.264   5.103   2.824  0.5293 -0.6321  0.9366
  751SOL    HW2 4454   0.133   5.111   2.900  0.5439 -1.3624  1.0504
  752SOL     OW 4455   1.534   0.427   3.340 -0.6402 -0.1334 -0.6290
  752SOL    HW1 4456   1.619   0.384   3.344  0.0448  1.2512  0.5705
  752SOL    HW2 4457   1.545   0.507   3.391 -2.8925 -0.3219  0.2711
  753SOL     OW 4458   6.732   7.561   0.683 -0.1904 -0.4003 -0.2062
  753SOL    HW1 4459   6.819   7.522   0.691  0.3657  0.7721 -0.2549
  753SOL    HW2 4460   6.730   7.629   0.751 -0.8849 -0.1112 -0.5090
  754SOL     OW 4461   6.653   8.363   1.541 -0.6876 -0.4812 -0.9413
  754SOL    HW1 4462   6.743   8.333   1.525 -0.9475 -1.4953 -0.6067
  754SOL    HW2 4463   6.621   8.386   1.454  0.1092  0.5415 -0.9823
  755SOL     OW 4464   5.021   0.215   1.118  0.4388  0.1703  0.0306
  755SOL    HW1 4465   4.992   0.136   1.163  0.1876 -0.8758 -1.8644
  755SOL    HW2 4466   5.116   0.205   1.111  0.2664 -0.6625 -1.4032
  756SOL     OW 4467   1.419   8.622   3.486  0.7731 -0.4364 -0.3091
  756SOL    HW1 4468   1.492   8.671   3.449 -0.6435  1.3874 -0.8600
  756SOL    HW2 4469   1.342   8.655   3.440 -0.5718 -1.2814  1.2002
  757SOL     OW 4470   2.516   2.538   1.640 -0.2424 -0.2062 -0.1197
  757SOL    HW1 4471   2.600   2.579   1.620 -0.7642  0.7779 -0.3352
  757SOL    HW2 4472   2.506   2.470   1.572  1.8876 -2.6635  1.8082
  758SOL     OW 4473   6.728   7.497   2.794  0.7208  1.1265  0.4700
  758SOL    HW1 4474   6.665   7.569   2.803 -1.1620 -0.4264  0.4064
  758SOL    HW2 4475   6.758   7.502   2.703 -2.0634 -0.1916 -0.6089
  759SOL     OW 4476   3.393   2.987   4.815  0.5664 -0.3271  0.1686
  759SOL    HW1 4477   3.474   2.936   4.810  1.1668  0.6394 -0.2152
  759SOL    HW2 4478   3.375   3.013   4.725  1.8906  2.5549  0.6148
  760SOL     OW 4479   7.388   3.902   7.898 -0.3356  0.0465 -0.4410
  760SOL    HW1 4480   7.477   3.900   7.933 -0.9732 -0.8851  1.2365
  760SOL    HW2 4481   7.363   3.810   7.890 -0.8777  0.2795 -1.6460
  761SOL     OW 4482   1.122   4.013   3.668 -0.3038  0.1883  0.2595
  761SOL    HW1 4483   1.132   4.088   3.610 -0.9477  0.1284  0.0627
  761SOL    HW2 4484   1.042   4.032   3.717 -0.0764 -0.0311  0.7202
  762SOL     OW 4485   1.997   9.247   3.497  0.2062  0.1616 -0.0449
  762SOL    HW1 4486   2.090   9.234   3.513  0.6214  0.7440 -1.7472
  762SOL    HW2 4487   1.956   9.235   3.582  2.0293  1.8484  1.1727
  763SOL     OW 4488   4.889   6.147   9.127  0.4606  0.0763 -0.4259
  763SOL    HW1 4489   4.870   6.097   9.207 -1.0475 -0.2190 -0.9399
  763SOL    HW2 4490   4.854   6.234   9.144 -0.1780 -0.0838 -0.8770
  764SOL     OW 4491   2.777   6.215   0.272 -0.0727 -0.2093 -0.0815
  764SOL    HW1 4492   2.813   6.127   0.282  0.5679  0.0562 -0.0579
  764SOL    HW2 4493   2.829   6.269   0.331  0.1886  0.3781 -0.8417
  765SOL     OW 4494   0.713   8.960   7.108 -0.2608  0.6978 -0.1741
  765SOL    HW1 4495   0.666   8.895   7.056  0.7695  1.7588 -2.6109
  765SOL    HW2 4496   0.651   9.033   7.117  0.4084  1.6506 -2.4479
  766SOL     OW 4497   6.563   5.929   0.574 -0.3423 -0.4827  0.0608
  766SOL    HW1 4498   6.475   5.891   0.576 -0.7428  0.4214  0.5909
  766SOL    HW2 4499   6.559   6.001   0.637 -0.0444  1.3266 -1.8731
  767SOL     OW 4500   6.315   2.355   6.332 -0.0669 -0.0386  0.0258
  767SOL    HW1 4501   6.284   2.291   6.396  0.8845 -1.5073 -0.9035
  767SOL    HW2 4502   6.247   2.422   6.329 -0.8338 -0.7179  1.4495
  768SOL     OW 4503   6.474   0.474   4.894  0.4249  0.2902  0.0042
  768SOL    HW1 4504   6.519   0.496   4.976  1.0025 -0.4601 -0.1132
  768SOL    HW2 4505   6.536   0.421   4.845 -0.5820 -0.7987 -0.1460
  769SOL     OW 4506   0.710   3.489   6.863  0.0097 -0.2589  0.0799
  769SOL    HW1 4507   0.692   3.397   6.880 -2.8292  0.4148  1.2789
  769SOL    HW2 4508   0.806   3.496   6.867  0.3733 -3.2842 -1.0785
  770SOL     OW 4509   6.980   0.152   1.946 -0.2030 -0.5810 -0.0629
  770SOL    HW1 4510   7.033   0.074   1.931  3.0191  1.5698 -1.1151
  770SOL    HW2 4511   6.983   0.166   2.040  0.0690 -1.1779  0.0203
  771SOL     OW 4512   7.962   5.239   3.202  0.0413  0.4311 -0.4423
  771SOL    HW1 4513   7.875   5.256   3.237  0.1546  0.4010 -0.1456
  771SOL    HW2 4514   8.008   5.323   3.210  0.6546 -0.0194  1.1777
  772SOL     OW 4515   3.235   8.662   4.002 -0.4399  0.0088  1.1550
  772SOL    HW1 4516   3.314   8.703   4.037  0.3747 -0.1167 -0.4343
  772SOL    HW2 4517   3.258   8.569   3.993  0.2057  0.3362 -1.6293
  773SOL     OW 4518   5.271   4.183   3.462  0.4758  0.5618  0.4906
  773SOL    HW1 4519   5.209   4.213   3.528  1.0095  0.6972  0.9380
  773SOL    HW2 4520   5.217   4.141   3.395  0.0139 -0.8135  1.6600
  774SOL     OW 4521   2.762   6.189   5.175 -0.3740 -0.6164 -0.0409
  774SOL    HW1 4522   2.816   6.250   5.225 -1.1274  1.0483 -1.1386
  774SOL    HW2 4523   2.809   6.106   5.179 -0.4141 -0.5814  3.3447
  775SOL     OW 4524   4.479   2.236   3.386 -0.2929  0.0796 -0.2399
  775SOL    HW1 4525   4.503   2.322   3.350 -1.8773  0.9584  0.6846
  775SOL    HW2 4526   4.501   2.174   3.316  0.1549  1.3199 -1.2396
  776SOL     OW 4527   1.742   8.507   4.024  0.2033 -0.2858  0.4812
  776SOL    HW1 4528   1.661   8.456   4.023  1.1405 -1.8459 -0.4288
  776SOL    HW2 4529   1.811   8.442   4.033  1.3456  1.0790  2.0888
  777SOL     OW 4530   4.110   7.050   4.742  0.0157 -0.7644  0.1622
  777SOL    HW1 4531   4.123   6.956   4.752 -1.2578 -1.0115 -0.2901
  777SOL    HW2 4532   4.022   7.058   4.704  0.5277  0.5524 -0.8357
  778SOL     OW 4533   6.870   6.699   9.089  0.0196 -0.2067 -0.0600
  778SOL    HW1 4534   6.896   6.607   9.097  1.1143  0.1724  1.1533
  778SOL    HW2 4535   6.921   6.731   9.015  0.1677 -0.4050 -0.0476
  779SOL     OW 4536   4.858   1.422   9.014  0.5616 -0.2952 -0.1228
  779SOL    HW1 4537   4.858   1.475   8.934 -1.5456  1.7290  1.0797
  779SOL    HW2 4538   4.937   1.448   9.061 -0.6412  2.3233  0.6514
  780SOL     OW 4539   3.979   2.833   0.709  0.0973 -0.4086 -0.0917
  780SOL    HW1 4540   3.938   2.912   0.744  0.6906 -0.0721 -0.1417
  780SOL    HW2 4541   4.028   2.864   0.632 -1.1974 -1.1337 -1.2418
  781SOL     OW 4542   7.936   8.947   1.606 -0.2025  0.4738  0.4098
  781SOL    HW1 4543   8.028   8.973   1.611  0.1756 -0.4843 -0.8462
  781SOL    HW2 4544   7.923   8.889   1.681 -0.1292  1.5320  1.2674
  782SOL     OW 4545   3.514   9.212   5.676  0.2598  0.0157 -0.5904
  782SOL    HW1 4546   3.482   9.130   5.637 -0.3819  0.5343 -1.1725
  782SOL    HW2 4547   3.597   9.228   5.631 -0.3882  0.5161 -1.6470
  783SOL     OW 4548   7.680   4.712   5.643 -0.1807  0.0074 -0.4444
  783SOL    HW1 4549   7.678   4.632   5.694  0.7719 -0.6933 -1.4678
  783SOL    HW2 4550   7.588   4.731   5.624 -0.3569 -1.7517 -1.5461
  784SOL     OW 4551   8.188   0.756   6.356  0.2222 -0.7144 -0.4652
  784SOL    HW1 4552   8.255   0.728   6.294  0.3101  0.5427 -0.9701
  784SOL    HW2 4553   8.166   0.677   6.405  0.7437 -1.5447 -1.5336
  785SOL     OW 4554   5.867   4.809   1.771 -0.0411 -0.0885 -0.3842
  785SOL    HW1 4555   5.776   4.804   1.739  0.3117  0.5273 -1.5600
  785SOL    HW2 4556   5.914   4.743   1.720 -0.3509 -2.6432  2.3775
  786SOL     OW 4557   8.940   3.422   1.495 -0.0831 -0.4751 -0.0735
  786SOL    HW1 4558   8.991   3.493   1.533  0.2143 -1.1608  0.8722
  786SOL    HW2 4559   8.872   3.404   1.561 -1.6329  0.4931 -1.3568
  787SOL     OW 4560   5.765   6.265   1.770  0.1539  0.5140 -0.1775
  787SOL    HW1 4561   5.810   6.188   1.804  1.9241  1.7132  0.3607
  787SOL    HW2 4562   5.676   6.236   1.754  0.9001 -1.7825 -0.5147
  788SOL     OW 4563   3.776   0.401   3.582 -0.7010 -0.0497 -0.3883
  788SOL    HW1 4564   3.683   0.419   3.597 -0.5430  0.5277 -0.0607
  788SOL    HW2 4565   3.814   0.398   3.670 -0.1619  1.0974 -0.5682
  789SOL     OW 4566   2.893   8.065   3.233  0.5008 -0.1347 -0.3283
  789SOL    HW1 4567   2.904   8.092   3.324  0.6941 -0.6094 -0.2082
  789SOL    HW2 4568   2.822   8.000   3.235  1.0495 -0.7427 -0.3985
  790SOL     OW 4569   9.532   5.126   1.431  1.0238  0.1326  0.6608
  790SOL    HW1 4570   9.585   5.147   1.354 -0.0657 -1.8716 -0.7356
  790SOL    HW2 4571   9.476   5.202   1.443  0.5196  0.1032 -1.1798
  791SOL     OW 4572   1.482   8.644   6.709 -0.0653 -0.0472  0.3962
  791SOL    HW1 4573   1.461   8.575   6.772  0.5628  0.4614  1.1768
  791SOL    HW2 4574   1.574   8.663   6.724  0.6932 -1.3170 -2.0606
  792SOL     OW 4575   2.181   3.346   5.889  0.3437 -0.0827 -0.1195
  792SOL    HW1 4576   2.214   3.265   5.926 -1.4911 -1.4550 -1.3281
  792SOL    HW2 4577   2.251   3.377   5.832  1.4505 -0.2594  1.1010
  793SOL     OW 4578   8.495   4.756   0.704 -0.0875  0.6088 -0.4153
  793SOL    HW1 4579   8.403   4.756   0.729 -0.2405  0.5394 -0.9817
  793SOL    HW2 4580   8.496   4.782   0.612  0.4626  0.6632 -0.4008
  794SOL     OW 4581   8.417   5.021   6.722  0.1958 -0.6084  0.0863
  794SOL    HW1 4582   8.472   4.963   6.776 -1.1780 -1.6591  0.3891
  794SOL    HW2 4583   8.434   4.993   6.632 -0.4914 -1.5197  0.2335
  795SOL     OW 4584   1.424   4.974   9.303 -0.0220 -0.1339 -0.0401
  795SOL    HW1 4585   1.519   4.969   9.307  0.0357 -1.2455 -1.7010
  795SOL    HW2 4586   1.401   4.935   9.218 -1.8442  1.5603 -0.4233
  796SOL     OW 4587   2.839   4.729   0.062 -0.1816 -0.0831 -0.2523
  796SOL    HW1 4588   2.869   4.638   0.059  2.6863  0.7151  0.3455
  796SOL    HW2 4589   2.766   4.733   0.001  1.1403 -2.2976 -2.1381
  797SOL     OW 4590   5.193   3.812   1.115  0.5681 -0.2925  0.1798
  797SOL    HW1 4591   5.144   3.764   1.049  1.0613 -1.3666  0.5755
  797SOL    HW2 4592   5.141   3.891   1.131 -0.3128 -0.7414 -0.3988
  798SOL     OW 4593   1.481   8.583   5.122 -0.4152 -0.4020 -0.1121
  798SOL    HW1 4594   1.392   8.618   5.120 -0.2514  0.0861  0.7215
  798SOL    HW2 4595   1.521   8.624   5.198  0.4897 -0.7124 -0.4091
  799SOL     OW 4596   2.917   5.342   6.273 -0.3650 -0.0833  0.2667
  799SOL    HW1 4597   2.967   5.261   6.286  0.3452 -0.0959 -2.1242
  799SOL    HW2 4598   2.827   5.312   6.260 -0.2885 -0.3884  0.4025
  800SOL     OW 4599   4.257   5.244   6.154  0.6207  0.0637 -0.1382
  800SOL    HW1 4600   4.257   5.157   6.194  0.0909 -0.0206 -0.3127
  800SOL    HW2 4601   4.346   5.254   6.119  0.2661 -1.0344 -1.4618
  801SOL     OW 4602   2.626   0.216   2.966  0.5436 -0.1442  0.4016
  801SOL    HW1 4603   2.623   0.261   3.051  1.1121  0.9667 -0.1520
  801SOL    HW2 4604   2.714   0.179   2.962  1.0358  1.0823 -0.3363
  802SOL     OW 4605   7.658   2.174   4.917 -0.0537  1.0177  0.1452
  802SOL    HW1 4606   7.567   2.170   4.947 -0.1271 -0.5514 -0.2009
  802SOL    HW2 4607   7.707   2.202   4.994 -0.4592 -1.2987  1.3423
  803SOL     OW 4608   4.377   9.277   6.564  0.1524 -0.3151 -0.1403
  803SOL    HW1 4609   4.329   9.350   6.525  0.4861 -1.1802 -2.3101
  803SOL    HW2 4610   4.395   9.305   6.654  0.2533  2.2583 -0.8842
  804SOL     OW 4611   1.143   7.290   3.080  0.1458  0.0693 -0.6908
  804SOL    HW1 4612   1.187   7.269   2.998  1.1650 -2.7557  0.4531
  804SOL    HW2 4613   1.054   7.314   3.054  0.6373 -0.0197 -2.6368
  805SOL     OW 4614   4.065   9.408   1.655  0.3857 -0.1478  0.4439
  805SOL    HW1 4615   4.015   9.489   1.640  1.1326 -0.0267 -1.8252
  805SOL    HW2 4616   4.000   9.344   1.682 -0.8305  0.3327 -1.1919
  806SOL     OW 4617   3.586   7.611   4.808 -0.2233  0.1251  0.0283
  806SOL    HW1 4618   3.528   7.539   4.784  0.1409 -0.3001  0.4181
  806SOL    HW2 4619   3.656   7.608   4.742 -1.4371  1.6357 -1.4310
  807SOL     OW 4620   3.306   5.483   4.254  0.4452  0.0529  0.4811
  807SOL    HW1 4621   3.250   5.444   4.321 -0.2327  1.2439  0.6415
  807SOL    HW2 4622   3.268   5.457   4.171 -1.1500  1.8468  0.5748
  808SOL     OW 4623   7.020   8.786   2.973  0.2202  0.1008  1.0473
  808SOL    HW1 4624   7.073   8.823   2.902  0.6518 -3.0217 -0.4121
  808SOL    HW2 4625   6.978   8.863   3.013  1.7717  2.2159 -1.0516
  809SOL     OW 4626   3.698   3.800   7.149  0.0477 -0.3271 -0.5324
  809SOL    HW1 4627   3.753   3.724   7.130  1.2128  0.1153  0.9013
  809SOL    HW2 4628   3.723   3.864   7.082 -0.0416 -0.7532 -0.9829
  810SOL     OW 4629   3.337   9.575   2.358  0.1096  0.2447 -0.2805
  810SOL    HW1 4630   3.264   9.596   2.416 -0.8552 -0.4563 -1.2025
  810SOL    HW2 4631   3.333   9.643   2.290 -0.8741 -0.8580 -1.3634
  811SOL     OW 4632   0.292   2.271   1.354 -0.5315  0.5240 -0.2951
  811SOL    HW1 4633   0.257   2.219   1.282  0.7650 -0.2217 -0.4180
  811SOL    HW2 4634   0.295   2.361   1.320 -0.5052  0.2758 -0.9571
  812SOL     OW 4635   3.441   5.466   1.657  0.4933  0.9114  0.2473
  812SOL    HW1 4636   3.486   5.433   1.579 -0.1047 -0.0802  0.3145
  812SOL    HW2 4637   3.502   5.450   1.728 -0.6615 -2.3831  0.6905
  813SOL     OW 4638   1.497   3.611   7.446 -0.1922  0.2945  0.6268
  813SOL    HW1 4639   1.508   3.647   7.358 -0.8168 -0.3625  0.2695
  813SOL    HW2 4640   1.434   3.671   7.488 -0.8645 -0.0906  0.1939
  814SOL     OW 4641   6.469   2.354   0.011 -0.3643 -0.1623 -0.0586
  814SOL    HW1 4642   6.506   2.267   0.026 -3.6903 -1.5691  1.0957
  814SOL    HW2 4643   6.499   2.406   0.086  1.1488 -0.4711 -0.4244
  815SOL     OW 4644   1.845   3.388   9.436  0.0237  0.4157  0.4469
  815SOL    HW1 4645   1.801   3.445   9.499 -2.8424 -1.3522  0.2556
  815SOL    HW2 4646   1.877   3.314   9.489  0.5884  0.5086  0.2424
  816SOL     OW 4647   5.262   4.923   7.282 -0.1369 -0.2801 -0.2823
  816SOL    HW1 4648   5.176   4.957   7.306 -1.5239 -2.4659 -1.8143
  816SOL    HW2 4649   5.268   4.838   7.325 -0.0143 -1.4161 -2.3845
  817SOL     OW 4650   7.505   2.758   7.600  0.1609  0.1487  0.0006
  817SOL    HW1 4651   7.417   2.794   7.607 -0.5699 -1.7061  1.2414
  817SOL    HW2 4652   7.493   2.671   7.562  1.2440 -0.7680  1.6332
  818SOL     OW 4653   7.205   4.288   9.220  0.3823  0.0747 -0.4510
  818SOL    HW1 4654   7.300   4.292   9.210  0.2758 -0.7724 -2.0670
  818SOL    HW2 4655   7.172   4.360   9.166  0.0135 -1.1767 -1.9433
  819SOL     OW 4656   7.206   9.222   2.716  0.2835 -0.0195 -0.8536
  819SOL    HW1 4657   7.137   9.283   2.690 -0.8995 -1.4252 -1.1447
  819SOL    HW2 4658   7.210   9.229   2.811  1.3149  1.6723 -0.9796
  820SOL     OW 4659   7.758   0.308   8.202 -0.7540  0.0068 -0.1774
  820SOL    HW1 4660   7.837   0.355   8.229 -1.1000  0.4368  0.0972
  820SOL    HW2 4661   7.755   0.231   8.259 -0.5479  0.0000 -0.1744
  821SOL     OW 4662   0.169   2.627   2.163  0.3063  0.0061 -0.4752
  821SOL    HW1 4663   0.090   2.666   2.200  0.0371 -0.3126 -0.7026
  821SOL    HW2 4664   0.199   2.565   2.230  0.5380  0.3562 -0.2583
  822SOL     OW 4665   5.263   3.744   5.328  0.1070  0.2748  0.1724
  822SOL    HW1 4666   5.194   3.683   5.352 -0.1255  0.6477  0.4632
  822SOL    HW2 4667   5.275   3.731   5.234  2.3394 -2.5518  0.7192
  823SOL     OW 4668   8.828   7.143   3.320  0.1703 -0.0010 -0.1132
  823SOL    HW1 4669   8.855   7.178   3.235  0.6832  1.7968  0.7502
  823SOL    HW2 4670   8.871   7.198   3.384 -1.2539 -0.4780  1.3320
  824SOL     OW 4671   4.102   5.116   8.486  0.0630 -0.9054 -0.2779
  824SOL    HW1 4672   4.095   5.148   8.397  2.1404 -0.8982 -0.4805
  824SOL    HW2 4673   4.190   5.078   8.492  0.8977  1.1278  2.4054
  825SOL     OW 4674   0.823   3.157   4.057 -0.1762  0.5339 -0.3851
  825SOL    HW1 4675   0.860   3.091   4.115  1.1136  0.9177 -0.7261
  825SOL    HW2 4676   0.794   3.108   3.980  1.6944  0.4245 -1.0752
  826SOL     OW 4677   6.957   0.168   7.690  0.3059  0.2634  0.1979
  826SOL    HW1 4678   6.958   0.167   7.786 -0.4705  0.4862  0.2164
  826SOL    HW2 4679   6.925   0.081   7.666  0.5314  0.1965  0.1414
  827SOL     OW 4680   4.807   7.762   4.572  0.2382  0.5453  0.0570
  827SOL    HW1 4681   4.779   7.849   4.599 -1.1395  0.2150 -0.2754
  827SOL    HW2 4682   4.903   7.769   4.565  0.1787  1.9079  0.4131
  828SOL     OW 4683   5.824   6.998   7.721  0.4482 -0.2101 -0.7100
  828SOL    HW1 4684   5.913   6.981   7.691  0.8304 -0.3631  0.4469
  828SOL    HW2 4685   5.817   6.952   7.805 -0.2092  1.0397 -0.0433
  829SOL     OW 4686   6.755   3.481   7.306  0.2664 -0.3701  0.7373
  829SOL    HW1 4687   6.661   3.477   7.291  0.5676  1.0354 -2.1966
  829SOL    HW2 4688   6.771   3.419   7.378 -2.4930 -2.7920 -0.5502
  830SOL     OW 4689   4.577   4.200   5.185 -0.4319  0.3033 -0.0509
  830SOL    HW1 4690   4.557   4.109   5.202  1.7005 -0.4047 -0.9292
  830SOL    HW2 4691   4.669   4.200   5.158 -0.7046  2.5526 -1.2873
  831SOL     OW 4692   5.898   9.091   1.451 -0.6903 -0.7395  0.0831
  831SOL    HW1 4693   5.897   9.154   1.380  0.8826 -1.8808 -1.0006
  831SOL    HW2 4694   5.906   9.144   1.530 -0.0225  0.4391 -0.7508
  832SOL     OW 4695   9.226   3.247   8.150 -0.1875 -0.0964  0.2673
  832SOL    HW1 4696   9.164   3.319   8.145 -0.3279 -0.1273  1.3109
  832SOL    HW2 4697   9.183   3.182   8.206  0.9089  0.0278  1.3046
  833SOL     OW 4698   3.700   5.222   8.809  0.3841 -0.2968 -0.0983
  833SOL    HW1 4699   3.741   5.136   8.801  2.0941  0.6848 -3.7102
  833SOL    HW2 4700   3.731   5.271   8.733  0.1165  3.8244  2.1614
  834SOL     OW 4701   2.053   3.960   1.064 -0.3132  0.5187 -0.3661
  834SOL    HW1 4702   2.102   3.883   1.092 -1.5278 -0.5072 -0.9813
  834SOL    HW2 4703   1.996   3.981   1.139 -0.2436  0.6055 -0.3368
  835SOL     OW 4704   6.355   6.246   5.046  0.4380  0.0460 -0.4415
  835SOL    HW1 4705   6.339   6.333   5.008  1.6194  0.0738 -0.8974
  835SOL    HW2 4706   6.310   6.248   5.130 -0.8123  0.5734 -1.0940
  836SOL     OW 4707   3.850   1.255   4.230 -0.1603  0.0321  0.0530
  836SOL    HW1 4708   3.821   1.183   4.174  0.5449  1.0836 -1.7412
  836SOL    HW2 4709   3.945   1.250   4.229 -0.1242  0.5701  0.4912
  837SOL     OW 4710   6.175   1.175   7.955 -0.0113  0.0253  0.1116
  837SOL    HW1 4711   6.179   1.091   8.001 -1.5873 -1.1949 -1.7982
  837SOL    HW2 4712   6.265   1.192   7.929  0.1435 -2.0120 -0.9245
  838SOL     OW 4713   9.506   9.533   6.061 -0.1734  0.3854  0.2424
  838SOL    HW1 4714   9.487   9.548   6.153  0.9461  0.8492  0.4126
  838SOL    HW2 4715   9.582   9.475   6.061 -0.4049  0.0735 -0.3952
  839SOL     OW 4716   6.942   1.331   3.514 -0.2087  0.6203  0.1505
  839SOL    HW1 4717   7.023   1.342   3.464 -0.7057 -0.2779 -0.9056
  839SOL    HW2 4718   6.888   1.405   3.488  0.1905  1.1129  0.7062
  840SOL     OW 4719   9.390   0.605   6.002  0.1818 -0.2496  0.0509
  840SOL    HW1 4720   9.386   0.643   6.089  1.1372  0.1808 -0.0748
  840SOL    HW2 4721   9.349   0.670   5.945 -1.7065 -1.1248  0.3291
  841SOL     OW 4722   3.771   5.129   7.410 -0.3319 -0.2122  0.0647
  841SOL    HW1 4723   3.791   5.215   7.447  0.3625 -0.3856  0.1035
  841SOL    HW2 4724   3.795   5.136   7.318  1.6148 -0.9512  0.4760
  842SOL     OW 4725   4.762   5.542   8.542 -0.0529  0.7197  0.3965
  842SOL    HW1 4726   4.763   5.456   8.584 -2.5618  1.4015  2.0453
  842SOL    HW2 4727   4.765   5.524   8.449 -1.2454 -1.2241  0.6919
  843SOL     OW 4728   8.207   6.133   0.721  0.0578 -0.0345  0.4037
  843SOL    HW1 4729   8.287   6.179   0.746  1.4652 -2.2818  0.3675
  843SOL    HW2 4730   8.181   6.085   0.800 -0.0920 -0.8543 -0.1259
  844SOL     OW 4731   2.759   7.888   2.776 -0.5780  0.3813 -0.0401
  844SOL    HW1 4732   2.810   7.966   2.794 -0.5057  0.1427  0.8545
  844SOL    HW2 4733   2.810   7.839   2.712  2.1473 -1.5361  3.2775
  845SOL     OW 4734   2.891   9.045   0.263  0.4056  0.4033  0.4048
  845SOL    HW1 4735   2.876   8.951   0.270  0.8301  0.2519 -0.5336
  845SOL    HW2 4736   2.868   9.066   0.172  0.6394  1.1402  0.5068
  846SOL     OW 4737   4.062   9.408   3.084  0.0562 -0.7547 -0.4388
  846SOL    HW1 4738   4.088   9.437   2.997 -1.2157  1.6978 -0.0821
  846SOL    HW2 4739   4.101   9.471   3.144  0.2787 -1.9625  0.7549
  847SOL     OW 4740   1.510   2.920   2.656  0.3048 -0.0397  0.4438
  847SOL    HW1 4741   1.464   3.003   2.645  0.1180 -0.0457  1.1555
  847SOL    HW2 4742   1.583   2.924   2.594 -0.2791  0.2385 -0.2350
  848SOL     OW 4743   7.549   7.908   6.889  0.3419  0.2804 -0.0787
  848SOL    HW1 4744   7.456   7.932   6.883  0.7095  1.5804 -1.5151
  848SOL    HW2 4745   7.578   7.905   6.798  1.5253 -0.9622  0.3129
  849SOL     OW 4746   0.081   8.300   3.683 -0.2558 -0.6504 -0.0303
  849SOL    HW1 4747   0.051   8.233   3.621 -1.2308 -0.4447  0.2007
  849SOL    HW2 4748   0.035   8.379   3.657 -0.3586 -0.4622  0.7094
  850SOL     OW 4749   6.596   4.283   7.313 -0.2297 -0.3980  0.3500
  850SOL    HW1 4750   6.581   4.228   7.236 -2.0496  1.7264 -0.9237
  850SOL    HW2 4751   6.531   4.253   7.376 -1.0345  0.0412 -0.2402
  851SOL     OW 4752   7.220   5.046   0.235  0.8482  0.0927  0.4031
  851SOL    HW1 4753   7.138   5.046   0.285  0.1426 -2.5425 -0.5485
  851SOL    HW2 4754   7.195   5.079   0.148  0.9851  0.1352  0.3807
  852SOL     OW 4755   2.312   3.629   1.511  0.0815  0.0230 -0.1123
  852SOL    HW1 4756   2.243   3.563   1.510 -0.5772  0.7079 -1.0596
  852SOL    HW2 4757   2.389   3.584   1.476 -0.5712 -0.0391 -1.5041
  853SOL     OW 4758   0.045   8.295   5.269  0.0432  0.3571  0.0107
  853SOL    HW1 4759  -0.043   8.320   5.297  0.6941  3.3749 -0.2260
  853SOL    HW2 4760   0.041   8.302   5.173  0.5739  0.7769  0.0148
  854SOL     OW 4761   2.538   7.502   8.917  0.1156 -0.1563  0.6666
  854SOL    HW1 4762   2.474   7.551   8.968 -0.9275 -0.2455 -0.5026
  854SOL    HW2 4763   2.486   7.443   8.863  1.1533  0.0468 -0.6249
  855SOL     OW 4764   3.996   8.901   6.397 -0.1379 -0.8150 -0.5256
  855SOL    HW1 4765   4.088   8.890   6.374  0.0084 -1.0638  0.1474
  855SOL    HW2 4766   3.991   8.989   6.435  0.6911 -2.1951  3.2557
  856SOL     OW 4767   8.601   4.882   6.891 -0.3718 -0.7023  0.0528
  856SOL    HW1 4768   8.600   4.850   6.981  0.7942 -1.5234 -0.2066
  856SOL    HW2 4769   8.675   4.943   6.888 -2.3492  1.8984  0.4545
  857SOL     OW 4770   8.462   6.999   7.338 -0.1587 -0.0116  0.2256
  857SOL    HW1 4771   8.452   7.061   7.266  1.2906  0.9200  0.7870
  857SOL    HW2 4772   8.472   6.914   7.295 -2.0580  0.1166 -0.5533
  858SOL     OW 4773   6.281   1.526   9.429 -0.8183 -0.0861  0.7154
  858SOL    HW1 4774   6.209   1.515   9.366 -0.5499  1.1113  0.1656
  858SOL    HW2 4775   6.327   1.442   9.428 -0.7975 -0.0823 -0.7303
  859SOL     OW 4776   3.671   2.158   3.150 -0.1346 -0.1217 -0.1855
  859SOL    HW1 4777   3.755   2.126   3.118 -0.1714  0.3503 -0.7748
  859SOL    HW2 4778   3.669   2.134   3.242  0.6353 -0.1543 -0.1761
  860SOL     OW 4779   2.632   6.639   3.980 -0.3014  0.2532 -0.0635
  860SOL    HW1 4780   2.579   6.710   4.016  0.2074  1.5287 -1.6759
  860SOL    HW2 4781   2.573   6.563   3.979 -0.7149  0.4841  2.0946
  861SOL     OW 4782   9.542   1.868   4.465  0.3139  0.0739 -0.6887
  861SOL    HW1 4783   9.627   1.887   4.425 -0.0056  0.5331 -1.1604
  861SOL    HW2 4784   9.550   1.901   4.555  0.4142  0.7017 -0.9254
  862SOL     OW 4785   2.208   7.946   2.716  0.4667  0.2425  0.1887
  862SOL    HW1 4786   2.210   7.972   2.624  1.8703  0.9833  0.4049
  862SOL    HW2 4787   2.299   7.930   2.739  0.1763  0.4155  1.5499
  863SOL     OW 4788   3.474   8.013   8.554  0.3790 -0.0435  0.0191
  863SOL    HW1 4789   3.491   8.083   8.491 -0.1382  1.1291  1.1366
  863SOL    HW2 4790   3.495   7.932   8.507 -3.2899  0.4531 -2.9342
  864SOL     OW 4791   7.772   6.570   4.293  0.2671  0.1938 -0.7703
  864SOL    HW1 4792   7.837   6.639   4.281  0.3587  0.3073  0.2462
  864SOL    HW2 4793   7.824   6.490   4.299  0.2585  0.1943 -0.6930
  865SOL     OW 4794   4.254   0.479   3.229 -0.2245  0.1920  0.5075
  865SOL    HW1 4795   4.264   0.537   3.305  1.9836  0.2026  0.2762
  865SOL    HW2 4796   4.274   0.534   3.154  0.5251 -0.4936  0.1823
  866SOL     OW 4797   0.431   4.952   3.918  0.0276  0.0564 -0.7940
  866SOL    HW1 4798   0.394   4.865   3.903  0.5174 -0.1431 -0.8654
  866SOL    HW2 4799   0.510   4.954   3.864 -0.1780  0.6821 -1.0756
  867SOL     OW 4800   4.918   9.121   6.075 -0.3127 -0.1804 -0.3105
  867SOL    HW1 4801   4.854   9.063   6.115 -1.8889  2.0075  0.5053
  867SOL    HW2 4802   4.955   9.170   6.148  2.6924 -1.5878 -0.6860
  868SOL     OW 4803   7.126   2.762   4.448  0.1769 -0.2727 -0.6318
  868SOL    HW1 4804   7.061   2.825   4.415 -0.4077 -0.8021 -0.5060
  868SOL    HW2 4805   7.187   2.816   4.500  0.3219  0.3553 -1.4341
  869SOL     OW 4806   5.841   6.605   6.040 -0.6205  0.0386 -0.4951
  869SOL    HW1 4807   5.754   6.572   6.061 -0.4961 -0.9735 -1.4712
  869SOL    HW2 4808   5.899   6.529   6.054  0.2324  0.8882  0.8673
  870SOL     OW 4809   5.833   6.807   5.517 -0.5710  0.2977  0.0246
  870SOL    HW1 4810   5.842   6.867   5.443  0.4894  0.1750  0.0498
  870SOL    HW2 4811   5.807   6.863   5.591 -0.8021  0.5367 -0.2333
  871SOL     OW 4812   2.723   2.088   0.017 -0.2138  0.3374  0.4905
  871SOL    HW1 4813   2.665   2.025   0.060 -0.4597  1.9501  2.6961
  871SOL    HW2 4814   2.809   2.046   0.018 -0.7143 -0.7229  0.1965
  872SOL     OW 4815   2.080   2.695   9.513  0.2220  0.5008 -0.3159
  872SOL    HW1 4816   2.116   2.612   9.484 -0.8320 -0.0186 -0.2013
  872SOL    HW2 4817   1.998   2.672   9.557 -0.9825  1.6982 -1.7711
  873SOL     OW 4818   2.127   6.104   9.146  0.1124  0.0456 -0.7515
  873SOL    HW1 4819   2.142   6.022   9.193  0.5316  0.8167  0.5012
  873SOL    HW2 4820   2.215   6.134   9.121  0.2293  1.3352  0.9887
  874SOL     OW 4821   3.394   3.431   7.845  0.0787 -0.2996 -0.0386
  874SOL    HW1 4822   3.459   3.407   7.911 -0.2498  3.6268  1.9892
  874SOL    HW2 4823   3.440   3.422   7.761  2.2932 -0.3175  1.1133
  875SOL     OW 4824   2.769   1.204   1.843 -0.4561 -0.1354 -0.0480
  875SOL    HW1 4825   2.742   1.202   1.935 -2.4732  0.5899 -0.5642
  875SOL    HW2 4826   2.862   1.183   1.845  0.6125  3.7309  2.5488
  876SOL     OW 4827   3.389   1.465   0.708 -0.0121  0.4934  0.1399
  876SOL    HW1 4828   3.373   1.507   0.623 -4.4303 -0.1238  0.4262
  876SOL    HW2 4829   3.424   1.378   0.685  0.0654  0.8008 -0.9747
  877SOL     OW 4830   3.058   8.092   0.900 -0.2732 -0.5661  0.1041
  877SOL    HW1 4831   2.969   8.058   0.901 -0.7014  0.4431 -1.0317
  877SOL    HW2 4832   3.106   8.036   0.961 -0.7492 -3.5929 -2.0552
  878SOL     OW 4833   6.013   6.328   9.464  0.2056  0.1142  0.1953
  878SOL    HW1 4834   5.999   6.286   9.379 -0.7040  1.8293 -0.5369
  878SOL    HW2 4835   5.958   6.406   9.462  0.9279  0.7189  1.9831
  879SOL     OW 4836   8.398   4.107   0.750 -0.0140 -0.3171 -0.1812
  879SOL    HW1 4837   8.386   4.107   0.845  0.4177 -0.3315 -0.1265
  879SOL    HW2 4838   8.460   4.178   0.733 -1.5141  0.9444 -0.6474
  880SOL     OW 4839   0.040   3.949   9.573 -0.4871 -0.3618  0.3122
  880SOL    HW1 4840   0.087   3.867   9.557 -1.4249 -0.9577  0.5823
  880SOL    HW2 4841   0.110   4.012   9.593  0.1667 -1.5156  1.9708
  881SOL     OW 4842   7.488   6.410   0.665 -0.3412 -0.0404  0.2025
  881SOL    HW1 4843   7.505   6.468   0.590  0.1505 -0.4116  0.0198
  881SOL    HW2 4844   7.434   6.462   0.724  0.2229  0.6693  0.1101
  882SOL     OW 4845   3.351   8.874   0.849  0.2418  0.0209  0.1088
  882SOL    HW1 4846   3.315   8.802   0.900  1.7338 -0.7558  0.1500
  882SOL    HW2 4847   3.355   8.948   0.909 -1.4597  0.2067  0.0181
  883SOL     OW 4848   4.667   0.476   3.646 -0.4580 -0.4077  0.1304
  883SOL    HW1 4849   4.636   0.553   3.694  2.8749  1.4872 -0.4740
  883SOL    HW2 4850   4.634   0.490   3.557  2.2363  1.8602 -0.6376
  884SOL     OW 4851   1.141   5.027   9.355 -0.1235 -0.3000 -0.2064
  884SOL    HW1 4852   1.236   5.038   9.347  0.3607 -2.1806  1.9077
  884SOL    HW2 4853   1.109   5.114   9.378  1.3344  0.0601  0.6159
  885SOL     OW 4854   7.390   2.473   4.880  0.2017  0.1515 -0.1655
  885SOL    HW1 4855   7.425   2.384   4.874  0.9768  0.2955  1.6219
  885SOL    HW2 4856   7.346   2.476   4.965 -2.6020  0.5586 -1.5201
  886SOL     OW 4857   0.336   0.880   7.869 -0.3212  0.3715 -0.2215
  886SOL    HW1 4858   0.286   0.947   7.914 -1.0295  1.0463 -1.9485
  886SOL    HW2 4859   0.275   0.807   7.859 -0.1157  0.1625  0.0046
  887SOL     OW 4860   2.351   7.940   1.829  0.8403  0.3049  0.2226
  887SOL    HW1 4861   2.348   7.867   1.890  0.6584 -0.1776 -0.3543
  887SOL    HW2 4862   2.367   7.900   1.743  2.0609  1.0388  0.0757
  888SOL     OW 4863   1.492   2.258   4.792  0.3938 -0.3160  0.0157
  888SOL    HW1 4864   1.563   2.208   4.832  0.6870  2.4572  3.3966
  888SOL    HW2 4865   1.516   2.263   4.700  2.9732 -1.9869  0.4862
  889SOL     OW 4866   3.292   1.034   1.560 -0.1770 -0.1209  0.1673
  889SOL    HW1 4867   3.205   1.000   1.543  0.3247 -1.1138 -0.5407
  889SOL    HW2 4868   3.334   0.967   1.613  0.4902 -0.1459 -0.3758
  890SOL     OW 4869   6.864   3.011   4.830 -0.3595  0.2113 -0.3303
  890SOL    HW1 4870   6.898   2.924   4.847  0.6531  0.7708  0.6863
  890SOL    HW2 4871   6.939   3.069   4.842 -0.7590  1.1416 -2.0496
  891SOL     OW 4872   7.357   2.766   5.906 -0.3494 -0.1010  0.0950
  891SOL    HW1 4873   7.440   2.790   5.947 -0.8608  1.0773  0.4505
  891SOL    HW2 4874   7.331   2.685   5.951  0.6059 -0.5037 -0.0410
  892SOL     OW 4875   0.801   8.314   5.799 -0.1633 -0.1531  0.0502
  892SOL    HW1 4876   0.743   8.241   5.776 -1.4671  0.3816  1.4309
  892SOL    HW2 4877   0.815   8.360   5.716  3.1140 -3.4903 -1.5244
  893SOL     OW 4878   4.427   2.816   9.477  0.5101 -0.4850 -0.6589
  893SOL    HW1 4879   4.372   2.738   9.480 -1.7823  1.0222  0.6458
  893SOL    HW2 4880   4.407   2.857   9.393 -0.5273  0.0866 -0.1669
  894SOL     OW 4881   0.485   2.669   1.907 -0.0565 -0.1364  0.0787
  894SOL    HW1 4882   0.398   2.643   1.875  0.6717 -1.5085 -0.8806
  894SOL    HW2 4883   0.467   2.718   1.987 -1.7167 -0.3609 -0.1130
  895SOL     OW 4884   6.945   5.207   6.203 -0.6807  0.1891  0.1099
  895SOL    HW1 4885   6.939   5.252   6.287  1.3432  0.4000  0.1840
  895SOL    HW2 4886   7.009   5.256   6.153 -1.4600 -0.2465 -1.3934
  896SOL     OW 4887   1.152   4.121   4.008 -0.1694 -0.2291  0.0076
  896SOL    HW1 4888   1.229   4.177   4.005 -1.2993  1.5696  1.9136
  896SOL    HW2 4889   1.187   4.032   4.016  1.6796  0.4344 -0.2799
  897SOL     OW 4890   9.494   5.807   3.221 -0.0184 -0.7695 -0.4800
  897SOL    HW1 4891   9.464   5.858   3.296  2.4924  1.0836 -0.5924
  897SOL    HW2 4892   9.443   5.840   3.147  1.0071  1.0954 -0.4048
  898SOL     OW 4893   6.832   6.046   7.545 -0.3105 -0.4218 -0.0924
  898SOL    HW1 4894   6.882   6.005   7.475  0.3197 -1.2059  0.7803
  898SOL    HW2 4895   6.842   6.140   7.531 -0.4953 -0.5631 -1.2426
  899SOL     OW 4896   1.089   3.738   3.383 -0.5987  0.3221  0.2947
  899SOL    HW1 4897   1.093   3.772   3.293  0.7752  2.1843  0.9995
  899SOL    HW2 4898   1.101   3.815   3.438 -0.6111 -0.9012  2.0759
  900SOL     OW 4899   3.174   0.716   7.076  0.5093  0.1587 -0.2380
  900SOL    HW1 4900   3.168   0.631   7.031 -0.9254  0.2763 -0.3026
  900SOL    HW2 4901   3.262   0.748   7.055  1.7612 -2.0703  1.1629
  901SOL     OW 4902   8.399   1.564   5.729  0.0747  0.3107 -0.5800
  901SOL    HW1 4903   8.456   1.637   5.752  1.1736 -0.8232  0.4149
  901SOL    HW2 4904   8.332   1.564   5.798  0.3463  0.1013 -0.3136
  902SOL     OW 4905   0.368   0.151   1.609 -0.3211 -0.0322  0.8563
  902SOL    HW1 4906   0.320   0.079   1.568 -1.2126  1.2846 -0.5546
  902SOL    HW2 4907   0.407   0.198   1.535  0.9171  0.4786  1.8015
  903SOL     OW 4908   8.925   1.093   0.139  0.1196 -0.4233 -0.3056
  903SOL    HW1 4909   8.959   1.096   0.049  0.2039  2.3396 -0.2919
  903SOL    HW2 4910   9.000   1.066   0.192  0.7464  0.1373 -0.8727
  904SOL     OW 4911   0.592   8.418   7.177  0.3905 -0.3457  0.2734
  904SOL    HW1 4912   0.519   8.359   7.161 -1.0002  1.4020 -0.0988
  904SOL    HW2 4913   0.555   8.490   7.228  1.8463  0.5667  0.1264
  905SOL     OW 4914   6.203   7.317   6.485  0.9133 -0.1888 -0.0914
  905SOL    HW1 4915   6.156   7.254   6.431  0.0004 -0.4482  0.9769
  905SOL    HW2 4916   6.277   7.268   6.521  0.9001 -0.3100 -0.2279
  906SOL     OW 4917   2.316   5.437   3.719 -0.0508 -0.7864  0.7663
  906SOL    HW1 4918   2.275   5.503   3.775  0.3545 -0.5854  0.8353
  906SOL    HW2 4919   2.291   5.354   3.758 -1.0693 -0.6948  0.3216
  907SOL     OW 4920   5.443   4.137   3.879  0.4028  0.1294 -0.2552
  907SOL    HW1 4921   5.451   4.088   3.798 -1.4287 -0.3668 -0.1892
  907SOL    HW2 4922   5.408   4.074   3.942  0.3553  0.8899  0.5019
  908SOL     OW 4923   1.046   7.748   8.199  0.4365  0.2865  0.2987
  908SOL    HW1 4924   0.992   7.819   8.163 -2.6573 -2.3323 -0.7957
  908SOL    HW2 4925   1.111   7.730   8.131 -0.9077 -0.0200 -0.9697
  909SOL     OW 4926   8.483   5.484   5.686 -0.0714 -0.2598  0.0242
  909SOL    HW1 4927   8.399   5.514   5.722  0.1305  0.5657 -0.1708
  909SOL    HW2 4928   8.460   5.450   5.599 -0.3865 -1.2017  0.4621
  910SOL     OW 4929   7.226   2.296   9.241 -0.0918 -0.2177 -0.3075
  910SOL    HW1 4930   7.144   2.310   9.194  0.0319  4.0235  0.3666
  910SOL    HW2 4931   7.199   2.251   9.322 -1.1765 -1.8242 -1.4851
  911SOL     OW 4932   3.568   8.930   9.050  0.4090  0.7196  0.4653
  911SOL    HW1 4933   3.631   8.873   9.096  2.9563  2.8193 -0.1634
  911SOL    HW2 4934   3.541   8.993   9.117 -0.1440  0.5090  0.4405
  912SOL     OW 4935   2.544   1.166   4.396 -0.1491 -0.2522 -0.3280
  912SOL    HW1 4936   2.587   1.224   4.459 -1.8058  0.3817  0.2998
  912SOL    HW2 4937   2.508   1.226   4.331 -1.9572 -0.5134  0.3709
  913SOL     OW 4938   3.957   1.419   2.205  0.3624  0.3223 -0.5419
  913SOL    HW1 4939   3.931   1.366   2.130 -1.2703 -0.0457  0.2305
  913SOL    HW2 4940   3.899   1.390   2.276  0.9540  1.5917  0.5110
  914SOL     OW 4941   7.090   6.623   8.267 -0.1801  0.5274 -0.3120
  914SOL    HW1 4942   7.096   6.532   8.238  0.3643  0.5983 -0.4340
  914SOL    HW2 4943   6.996   6.641   8.268 -0.3254 -0.1879  0.2082
  915SOL     OW 4944   0.046   7.768   2.488  0.0424  0.1624 -0.1551
  915SOL    HW1 4945   0.077   7.859   2.485  0.5067 -0.0177 -2.3860
  915SOL    HW2 4946   0.113   7.722   2.539  0.6864  0.7607 -0.4412
  916SOL     OW 4947   5.845   5.082   8.888  0.4088  0.3868  0.0236
  916SOL    HW1 4948   5.903   5.110   8.817  0.5210  1.2978  0.4599
  916SOL    HW2 4949   5.902   5.080   8.965  0.0778  0.3206  0.2661
  917SOL     OW 4950   2.917   3.560   0.583 -0.6418 -0.0687  0.2293
  917SOL    HW1 4951   2.848   3.519   0.636  0.4034  0.3921  2.0573
  917SOL    HW2 4952   2.912   3.653   0.605  0.5666 -0.0278  0.4286
  918SOL     OW 4953   3.640   6.768   5.673 -0.4386  0.0064 -0.0802
  918SOL    HW1 4954   3.681   6.725   5.747 -0.0757 -0.5410 -0.5926
  918SOL    HW2 4955   3.546   6.753   5.685 -0.6931  2.4592  1.8557
  919SOL     OW 4956   4.663   3.871   2.180 -0.1670  0.5707 -0.1339
  919SOL    HW1 4957   4.652   3.843   2.089  1.0354  0.0584 -0.1328
  919SOL    HW2 4958   4.757   3.876   2.193 -0.3089  0.2534  1.1984
  920SOL     OW 4959   0.604   2.488   4.019  0.5930 -0.2439  0.3562
  920SOL    HW1 4960   0.676   2.505   4.080 -0.1349  0.3401  1.0768
  920SOL    HW2 4961   0.525   2.500   4.072 -0.0341 -1.0701 -0.3706
  921SOL     OW 4962   0.149   6.140   7.804 -0.2845  0.3720  0.2618
  921SOL    HW1 4963   0.151   6.047   7.829  2.6149 -0.0330 -0.9777
  921SOL    HW2 4964   0.176   6.187   7.883  0.1598 -0.0376  0.3564
  922SOL     OW 4965   8.440   5.973   8.123  0.3366  0.3055 -0.4263
  922SOL    HW1 4966   8.471   5.890   8.087  1.3333  0.4713  0.0006
  922SOL    HW2 4967   8.508   6.036   8.099 -0.1360  0.8804 -0.2688
  923SOL     OW 4968   4.682   8.317   3.657 -0.3062 -0.6218  0.3750
  923SOL    HW1 4969   4.769   8.305   3.693  0.5457  1.4313 -0.8504
  923SOL    HW2 4970   4.671   8.244   3.596  1.5262  0.3021 -1.1524
  924SOL     OW 4971   8.583   3.026   2.028 -0.4582  0.6931  0.6181
  924SOL    HW1 4972   8.497   3.060   2.002  0.0076  1.1073 -0.4115
  924SOL    HW2 4973   8.573   2.931   2.021 -0.2636  0.7857 -1.4491
  925SOL     OW 4974   1.798   0.073   2.822  0.9236  0.3281  0.6990
  925SOL    HW1 4975   1.792   0.048   2.730  0.2165  1.1519  0.5088
  925SOL    HW2 4976   1.890   0.061   2.844  0.7997 -1.5617  0.3853
  926SOL     OW 4977   3.887   2.669   3.229  0.4438  0.0384  0.3088
  926SOL    HW1 4978   3.897   2.670   3.134 -1.9426 -1.0003 -0.0211
  926SOL    HW2 4979   3.971   2.637   3.261  1.6933  1.4673 -1.3323
  927SOL     OW 4980   6.916   6.890   5.452 -0.7285  0.1199 -0.4573
  927SOL    HW1 4981   6.887   6.947   5.522 -0.7485 -0.5459  0.0872
  927SOL    HW2 4982   6.842   6.832   5.436 -0.7913  0.3859 -1.1608
  928SOL     OW 4983   9.510   8.944   0.537 -0.0397 -0.2615  0.2225
  928SOL    HW1 4984   9.428   8.936   0.488  1.0532 -1.5149 -1.5089
  928SOL    HW2 4985   9.550   8.857   0.532  1.6284  0.4453  0.5706
  929SOL     OW 4986   8.194   4.304   5.706  0.4653 -1.3813  0.4694
  929SOL    HW1 4987   8.266   4.324   5.646 -0.7439 -2.5183 -1.4852
  929SOL    HW2 4988   8.127   4.369   5.684  0.1098 -1.6459  0.7746
  930SOL     OW 4989   8.950   6.369   8.006 -0.0638  0.0961 -0.3428
  930SOL    HW1 4990   8.971   6.288   7.959  0.3832 -0.1414  0.2501
  930SOL    HW2 4991   8.959   6.438   7.941  1.8322 -0.0817 -0.3241
  931SOL     OW 4992   8.742   9.033   0.618 -0.1994  0.0455 -0.1751
  931SOL    HW1 4993   8.682   9.037   0.543 -0.0210 -0.1480 -0.3316
  931SOL    HW2 4994   8.747   8.940   0.640 -0.9703  0.1894  0.6682
  932SOL     OW 4995   3.748   4.998   8.202 -0.2758  0.1327  0.2257
  932SOL    HW1 4996   3.829   5.028   8.160  0.3947  0.6329  1.7816
  932SOL    HW2 4997   3.735   4.909   8.169 -0.9381  1.1716 -2.5841
  933SOL     OW 4998   7.708   7.118   7.651 -0.2265 -0.3196  0.1944
  933SOL    HW1 4999   7.738   7.027   7.650 -1.1956 -0.6564 -1.1430
  933SOL    HW2 5000   7.662   7.128   7.734  0.6186 -0.7939  0.7262
  934SOL     OW 5001   5.964   9.222   9.452 -0.1513  0.1479 -0.0507
  934SOL    HW1 5002   5.903   9.172   9.400 -0.1955  0.0441  0.1008
  934SOL    HW2 5003   5.933   9.313   9.446  0.1981  0.2297 -0.7043
  935SOL     OW 5004   1.510   8.913   6.598  0.2184  0.2050  0.4990
  935SOL    HW1 5005   1.478   8.828   6.629  0.8613  0.3731  1.6845
  935SOL    HW2 5006   1.596   8.922   6.639 -1.1244  2.8803  3.1678
  936SOL     OW 5007   8.497   6.196   6.332  0.4865 -0.1079 -0.5356
  936SOL    HW1 5008   8.454   6.227   6.252  0.3077  1.2017  0.0456
  936SOL    HW2 5009   8.435   6.133   6.370  0.7865 -1.1221 -1.6560
  937SOL     OW 5010   5.614   8.549   2.655 -0.1571  0.4049  0.3151
  937SOL    HW1 5011   5.650   8.637   2.645  0.7968 -0.0862 -0.8751
  937SOL    HW2 5012   5.598   8.519   2.565  1.4438 -1.3642  0.5319
  938SOL     OW 5013   5.097   9.129   5.866  0.5785  0.4322  0.0385
  938SOL    HW1 5014   5.039   9.140   5.942  0.8195  2.3262 -0.0141
  938SOL    HW2 5015   5.166   9.071   5.898  0.6740  1.1947  1.2766
  939SOL     OW 5016   8.905   1.834   8.332  0.0527 -0.0597  0.1787
  939SOL    HW1 5017   8.989   1.834   8.377 -0.4938 -0.7898  1.2708
  939SOL    HW2 5018   8.846   1.790   8.393 -0.5929 -1.7188 -1.5233
  940SOL     OW 5019   2.753   6.406   5.506 -0.9947 -0.0931 -0.2344
  940SOL    HW1 5020   2.795   6.417   5.591 -1.1496  0.7361 -0.2531
  940SOL    HW2 5021   2.753   6.312   5.490 -0.6494 -0.2213  0.5231
  941SOL     OW 5022   3.543   6.483   1.459 -0.4620 -0.0332  0.6922
  941SOL    HW1 5023   3.573   6.531   1.536 -0.4912  0.2586  0.5240
  941SOL    HW2 5024   3.452   6.460   1.478 -1.0112  1.5145  0.0511
  942SOL     OW 5025   3.495   4.830   1.322  0.3915  0.1716 -0.1739
  942SOL    HW1 5026   3.438   4.829   1.399 -1.4317 -0.6943 -1.4583
  942SOL    HW2 5027   3.505   4.738   1.299  2.4587  0.2944  0.0669
  943SOL     OW 5028   7.953   5.603   4.915 -0.3016  0.2691 -0.2177
  943SOL    HW1 5029   7.908   5.565   4.991  1.3847 -0.8577  0.2789
  943SOL    HW2 5030   7.891   5.593   4.843 -0.5334 -2.0929  0.2255
  944SOL     OW 5031   3.788   5.257   3.490  0.0980 -0.1204  0.4008
  944SOL    HW1 5032   3.756   5.194   3.426  0.1596 -0.5784  0.8157
  944SOL    HW2 5033   3.881   5.267   3.471  0.0716 -0.0917  0.2861
  945SOL     OW 5034   1.817   1.056   2.083 -0.0950  0.6589  0.8334
  945SOL    HW1 5035   1.771   0.975   2.059  0.1228  0.7401  0.1077
  945SOL    HW2 5036   1.833   1.099   1.999  2.7049 -0.1087  0.8846
  946SOL     OW 5037   7.561   3.439   5.125 -0.4134  0.6104  0.0902
  946SOL    HW1 5038   7.532   3.351   5.148  0.9317  0.4402  1.2582
  946SOL    HW2 5039   7.575   3.482   5.210  2.3730  0.7598 -0.3590
  947SOL     OW 5040   1.079   5.555   0.067  0.4061  0.0887  0.1303
  947SOL    HW1 5041   1.120   5.555   0.153  1.3389 -1.3905 -0.2781
  947SOL    HW2 5042   0.998   5.506   0.079  0.2782  0.3301  0.2666
  948SOL     OW 5043   4.248   0.683   0.622 -0.1293  0.0073  0.0766
  948SOL    HW1 5044   4.304   0.620   0.667 -0.9113 -0.1775  0.8212
  948SOL    HW2 5045   4.308   0.745   0.582  0.6135 -0.4489  0.4680
  949SOL     OW 5046   6.021   2.579   4.676 -0.4921  0.0683 -0.0159
  949SOL    HW1 5047   5.951   2.520   4.647 -1.3643 -0.5805  2.9976
  949SOL    HW2 5048   5.976   2.660   4.699 -0.1854 -0.0526  1.1004
  950SOL     OW 5049   3.662   2.982   2.745 -0.3003  0.8964 -0.2774
  950SOL    HW1 5050   3.664   2.959   2.652  0.9021 -2.8950  0.5279
  950SOL    HW2 5051   3.753   2.999   2.768 -0.1405 -1.1092  0.7558
  951SOL     OW 5052   3.287   2.206   1.342  0.5067  0.3978  0.2407
  951SOL    HW1 5053   3.319   2.239   1.426  0.5380  0.0996  0.3457
  951SOL    HW2 5054   3.218   2.268   1.316 -0.7433 -0.4721  1.3400
  952SOL     OW 5055   3.334   6.072   1.292 -0.4829 -0.1607 -0.7785
  952SOL    HW1 5056   3.328   6.167   1.280 -0.0143  0.0649  0.5876
  952SOL    HW2 5057   3.408   6.046   1.237  1.1570  0.7270  0.8756
  953SOL     OW 5058   7.003   6.841   1.845 -0.3720  0.1408 -0.3241
  953SOL    HW1 5059   6.992   6.842   1.940 -2.3961  0.8106 -0.5139
  953SOL    HW2 5060   6.960   6.760   1.818 -0.1541  0.1558 -0.7128
  954SOL     OW 5061   7.548   5.938   8.215  0.4557 -0.2475  0.1971
  954SOL    HW1 5062   7.498   5.992   8.153 -1.1061 -2.0055 -0.1744
  954SOL    HW2 5063   7.493   5.862   8.229  1.7923 -0.9216  2.0845
  955SOL     OW 5064   5.482   8.204   8.474  0.3065  0.5887  0.4678
  955SOL    HW1 5065   5.461   8.111   8.483 -0.0397  0.6156 -0.0028
  955SOL    HW2 5066   5.453   8.243   8.557  0.3163  0.3009  0.6090
  956SOL     OW 5067   1.998   6.666   0.453  0.0813 -0.0501 -0.3723
  956SOL    HW1 5068   1.970   6.629   0.369 -0.7647 -1.3171  0.4325
  956SOL    HW2 5069   1.917   6.677   0.503  0.7366 -1.4552  1.1013
  957SOL     OW 5070   1.204   0.242   6.807 -0.1791  0.4989  0.3437
  957SOL    HW1 5071   1.129   0.272   6.859 -0.4836  0.6287 -0.1658
  957SOL    HW2 5072   1.275   0.233   6.871 -0.9491 -0.8234  1.0570
  958SOL     OW 5073   6.866   4.315   6.436  0.3171 -0.6334 -0.2251
  958SOL    HW1 5074   6.849   4.262   6.358  0.4529 -1.1429  0.0849
  958SOL    HW2 5075   6.833   4.261   6.508 -0.8724  0.3255 -0.0255
  959SOL     OW 5076   4.704   4.286   6.631  0.2202  0.0956  0.8499
  959SOL    HW1 5077   4.737   4.214   6.577 -1.1734  0.6127 -0.8002
  959SOL    HW2 5078   4.677   4.245   6.713 -2.0813 -1.6450 -0.6557
  960SOL     OW 5079   5.083   3.298   0.506  0.0200 -0.1355 -0.4763
  960SOL    HW1 5080   5.123   3.353   0.574  4.3010 -1.0614 -1.8983
  960SOL    HW2 5081   5.082   3.354   0.428 -0.0674 -0.6165 -0.8223
  961SOL     OW 5082   6.745   5.187   7.087  0.3051  0.3878  0.2250
  961SOL    HW1 5083   6.785   5.129   7.152  0.0098 -1.3334 -1.0667
  961SOL    HW2 5084   6.803   5.180   7.010 -1.8275 -1.3873 -1.3479
  962SOL     OW 5085   9.542   1.913   8.040 -0.2661  0.3379  0.2517
  962SOL    HW1 5086   9.573   1.841   7.986  2.4089  0.5086  1.4357
  962SOL    HW2 5087   9.548   1.990   7.983 -1.8321 -0.0809 -0.5685
  963SOL     OW 5088   8.655   2.570   0.446  0.6547 -0.1012  0.3358
  963SOL    HW1 5089   8.697   2.605   0.525 -1.7901  0.3144  1.5396
  963SOL    HW2 5090   8.663   2.640   0.381  1.0895  0.2753  0.7878
  964SOL     OW 5091   5.464   6.808   7.760  0.0382 -0.3905 -0.0295
  964SOL    HW1 5092   5.465   6.899   7.788  0.0439 -0.5107  0.3666
  964SOL    HW2 5093   5.463   6.757   7.841  0.5997 -0.7505 -0.2333
  965SOL     OW 5094   5.215   1.502   3.835 -0.0591  0.3938  0.1297
  965SOL    HW1 5095   5.206   1.476   3.926 -0.9364 -1.7254 -0.5006
  965SOL    HW2 5096   5.256   1.589   3.838  0.4142  0.1410  2.4935
  966SOL     OW 5097   2.337   1.891   0.780  0.7195  0.2504  0.4702
  966SOL    HW1 5098   2.254   1.922   0.817  0.6137 -1.8574  2.1848
  966SOL    HW2 5099   2.312   1.842   0.702  0.6160  1.6611 -0.4161
  967SOL     OW 5100   8.113   0.287   8.789 -0.3071 -0.7204  0.4142
  967SOL    HW1 5101   8.045   0.332   8.840  0.8544  1.6604  0.0156
  967SOL    HW2 5102   8.177   0.261   8.855  1.5217  2.9441  0.3469
  968SOL     OW 5103   7.978   7.698   8.812 -0.5692  0.7827  0.1103
  968SOL    HW1 5104   7.991   7.766   8.878 -1.0961  2.1979 -1.1668
  968SOL    HW2 5105   8.066   7.684   8.776 -0.0631 -0.8501  1.8417
  969SOL     OW 5106   7.526   2.997   6.389  0.3087  0.3046  0.5520
  969SOL    HW1 5107   7.510   3.012   6.296  0.9414  2.1122  0.6830
  969SOL    HW2 5108   7.476   2.919   6.410  0.5949 -0.4672 -1.4175
  970SOL     OW 5109   3.741   6.225   6.875 -0.5001  0.3055  0.3604
  970SOL    HW1 5110   3.791   6.152   6.838 -1.8553 -0.7807  0.5353
  970SOL    HW2 5111   3.744   6.210   6.970 -1.1451  0.2158  0.3720
  971SOL     OW 5112   0.217   5.622   2.105  0.0712 -0.3367  0.7250
  971SOL    HW1 5113   0.235   5.708   2.142 -1.2361  0.5093 -0.5143
  971SOL    HW2 5114   0.303   5.589   2.076  0.3130  1.6201 -0.9933
  972SOL     OW 5115   2.298   1.733   9.483 -0.3165 -0.1914  0.1328
  972SOL    HW1 5116   2.378   1.757   9.437  0.9719 -0.3495  2.1503
  972SOL    HW2 5117   2.269   1.653   9.439  0.7033 -0.1991 -0.5798
  973SOL     OW 5118   6.859   4.816   8.968  1.0182  0.4175 -0.0291
  973SOL    HW1 5119   6.795   4.746   8.978  0.0899  1.3098  0.3664
  973SOL    HW2 5120   6.941   4.777   8.999  0.7577 -0.8299 -0.8284
  974SOL     OW 5121   7.024   2.450   8.706 -0.6115  0.7603  0.2683
  974SOL    HW1 5122   7.080   2.518   8.744  1.0757  0.3839 -1.3873
  974SOL    HW2 5123   6.969   2.496   8.643  1.0799  0.5711 -1.4343
  975SOL     OW 5124   0.973   8.770   6.184 -0.2138  0.5480  0.7243
  975SOL    HW1 5125   1.041   8.706   6.205  0.9326  1.0680 -1.1490
  975SOL    HW2 5126   0.894   8.736   6.225  0.0743 -2.6755 -1.0392
  976SOL     OW 5127   1.658   8.657   4.905  0.2959  0.2459  0.0013
  976SOL    HW1 5128   1.617   8.625   4.986  0.8476 -0.0646  0.1668
  976SOL    HW2 5129   1.601   8.727   4.875  0.4528  0.8329  1.0403
  977SOL     OW 5130   2.874   5.891   6.135  0.0993 -0.2077  0.0213
  977SOL    HW1 5131   2.922   5.861   6.213 -0.3098 -1.7560 -0.2900
  977SOL    HW2 5132   2.910   5.839   6.063 -0.5837  0.1095 -0.5649
  978SOL     OW 5133   3.866   1.602   2.760  0.1489 -0.5682 -0.1385
  978SOL    HW1 5134   3.829   1.596   2.672 -0.0412  0.8198 -0.1858
  978SOL    HW2 5135   3.816   1.673   2.801  2.3802  1.0432 -0.0461
  979SOL     OW 5136   3.553   5.412   8.483  0.0904 -0.0955 -0.2421
  979SOL    HW1 5137   3.511   5.486   8.526  1.4390  0.2519  0.5528
  979SOL    HW2 5138   3.482   5.363   8.443 -0.8083  1.7369 -0.9618
  980SOL     OW 5139   1.393   9.379   0.399  0.2497 -0.0689 -0.0807
  980SOL    HW1 5140   1.433   9.315   0.341  0.0380 -0.9734  0.7425
  980SOL    HW2 5141   1.437   9.366   0.483  0.6221  1.2759 -0.0415
  981SOL     OW 5142   5.339   5.225   8.247 -0.6380  0.2984 -0.0983
  981SOL    HW1 5143   5.327   5.134   8.275 -0.8886  0.3675  0.0218
  981SOL    HW2 5144   5.298   5.276   8.317  2.0418  0.6348  1.3665
  982SOL     OW 5145   1.276   7.433   3.950 -0.3549 -0.1411 -0.2675
  982SOL    HW1 5146   1.295   7.497   4.019 -0.6373  0.0111 -0.3265
  982SOL    HW2 5147   1.208   7.377   3.988 -0.0029 -0.4991 -0.1620
  983SOL     OW 5148   6.014   6.845   2.628 -0.2799  0.9270 -0.4437
  983SOL    HW1 5149   5.967   6.835   2.711 -0.3961  1.6079 -0.4231
  983SOL    HW2 5150   6.061   6.928   2.637 -2.6017  2.5477 -2.1783
  984SOL     OW 5151   4.039   3.753   9.137  0.3077 -0.0067  0.2854
  984SOL    HW1 5152   4.065   3.729   9.048 -0.7927  0.2591 -0.1244
  984SOL    HW2 5153   3.969   3.817   9.126 -1.1626 -1.3357  1.2823
  985SOL     OW 5154   3.343   8.489   6.239 -0.7137 -0.1558  0.0522
  985SOL    HW1 5155   3.277   8.499   6.307 -0.0225 -0.2258  0.7400
  985SOL    HW2 5156   3.370   8.578   6.217  1.4759 -0.1757  2.2771
  986SOL     OW 5157   7.600   5.741   4.885  0.3202 -0.2082  0.0500
  986SOL    HW1 5158   7.599   5.813   4.822  0.2840 -0.3314 -0.0900
  986SOL    HW2 5159   7.684   5.697   4.871  0.6234  0.1866  0.5692
  987SOL     OW 5160   3.019   3.927   1.343  0.1867  0.1906 -0.1716
  987SOL    HW1 5161   2.958   3.869   1.297  0.2242 -0.5073  0.6276
  987SOL    HW2 5162   2.983   4.015   1.331 -1.2946 -0.2602  0.7360
  988SOL     OW 5163   1.738   7.948   8.533 -0.1609  0.0150  0.3518
  988SOL    HW1 5164   1.832   7.959   8.521 -0.0945  1.2904  1.7840
  988SOL    HW2 5165   1.729   7.898   8.614 -0.7149 -0.7261 -0.1550
  989SOL     OW 5166   8.529   5.346   3.832 -0.3074 -0.9045 -0.1699
  989SOL    HW1 5167   8.533   5.251   3.846 -0.9944 -0.9968 -0.5672
  989SOL    HW2 5168   8.620   5.372   3.817 -0.0985 -1.4788  0.0561
  990SOL     OW 5169   4.528   5.264   4.120  0.1750 -0.0079 -0.0736
  990SOL    HW1 5170   4.453   5.267   4.178  0.8245  0.2614  0.7781
  990SOL    HW2 5171   4.493   5.282   4.033 -0.5447  1.5121  0.5098
  991SOL     OW 5172   3.800   1.038   7.184  0.0405 -0.6307 -0.5532
  991SOL    HW1 5173   3.887   1.039   7.224  0.0105  0.8395 -0.4859
  991SOL    HW2 5174   3.742   1.007   7.254  0.2449  0.2276  0.0060
  992SOL     OW 5175   4.714   2.854   2.485 -0.0539 -0.4766 -0.3786
  992SOL    HW1 5176   4.771   2.929   2.466 -0.0568 -0.7412 -1.4983
  992SOL    HW2 5177   4.774   2.782   2.501 -0.0507 -0.7132 -1.3811
  993SOL     OW 5178   3.577   8.001   7.189  0.0409 -0.0993  0.4779
  993SOL    HW1 5179   3.547   7.937   7.125 -0.5676  0.2011  0.4527
  993SOL    HW2 5180   3.535   8.083   7.162 -0.2306  0.0318  1.2517
  994SOL     OW 5181   7.634   0.769   2.765  0.5918 -0.3672  0.1713
  994SOL    HW1 5182   7.568   0.784   2.833  0.8839 -0.1099  0.4011
  994SOL    HW2 5183   7.586   0.727   2.694  0.2186 -0.3579  0.4141
  995SOL     OW 5184   2.993   7.889   6.095 -0.3222 -0.0802  0.1490
  995SOL    HW1 5185   2.909   7.927   6.071 -0.0960 -0.4929 -1.3618
  995SOL    HW2 5186   2.997   7.806   6.048  1.7565  0.8311 -1.4463
  996SOL     OW 5187   5.269   8.312   5.930  0.3425  0.3162 -0.0336
  996SOL    HW1 5188   5.291   8.325   6.022  0.8308  1.6472 -0.3223
  996SOL    HW2 5189   5.190   8.257   5.932  0.8405 -0.3980  1.1399
  997SOL     OW 5190   3.006   7.507   5.265  0.2694  0.3886  0.5704
  997SOL    HW1 5191   3.090   7.465   5.279 -0.4204 -0.5973  1.9982
  997SOL    HW2 5192   3.015   7.552   5.181  1.6127 -1.1793 -0.1816
  998SOL     OW 5193   5.219   7.299   3.076  0.5157 -0.1828 -0.3563
  998SOL    HW1 5194   5.274   7.321   3.000  0.6878  0.2022 -0.1220
  998SOL    HW2 5195   5.220   7.378   3.130 -0.1665 -0.2239 -0.2835
  999SOL     OW 5196   2.428   7.754   7.693 -0.3039 -0.0495 -0.3513
  999SOL    HW1 5197   2.407   7.693   7.763 -1.7704  1.6741  0.8184
  999SOL    HW2 5198   2.343   7.791   7.667  0.4056  0.6394 -1.8167
 1000SOL     OW 5199   3.396   7.343   7.828 -0.1143  0.6243 -0.4344
 1000SOL    HW1 5200   3.304   7.320   7.820 -0.1305  0.9528 -1.2489
 1000SOL    HW2 5201   3.442   7.258   7.831 -0.3985  0.4657 -0.5617
 1001SOL     OW 5202   1.516   9.113   7.636  0.3478  0.5182 -0.4366
 1001SOL    HW1 5203   1.499   9.018   7.631 -0.3136  0.6238 -0.2717
 1001SOL    HW2 5204   1.516   9.132   7.730  1.6718  0.4808 -0.4121
 1002SOL     OW 5205   5.807   9.403   5.559  0.0381 -0.3382 -0.1799
 1002SOL    HW1 5206   5.741   9.333   5.566  0.5210 -0.7060  0.7802
 1002SOL    HW2 5207   5.843   9.393   5.470 -1.9626  0.5774 -1.1697
 1003SOL     OW 5208   2.171   7.172   1.404  0.2373 -0.2955  0.3584
 1003SOL    HW1 5209   2.096   7.115   1.420  0.6750 -1.0594 -0.2592
 1003SOL    HW2 5210   2.159   7.245   1.465 -0.2004 -1.1664  1.3500
 1004SOL     OW 5211   7.784   4.039   2.416 -0.0740 -0.6024  0.2347
 1004SOL    HW1 5212   7.844   4.024   2.488  0.4141 -2.0686 -0.4394
 1004SOL    HW2 5213   7.701   4.061   2.458  0.1445 -1.6543  1.2607
 1005SOL     OW 5214   9.532   8.643   2.516 -0.3031  0.9189  0.4696
 1005SOL    HW1 5215   9.468   8.710   2.539  1.1973  2.2185  1.0440
 1005SOL    HW2 5216   9.497   8.603   2.436 -2.2665  0.9222  1.2603
 1006SOL     OW 5217   0.560   1.691   2.182  0.1231 -0.1565 -0.1354
 1006SOL    HW1 5218   0.471   1.656   2.175 -0.0855  0.1788  0.6907
 1006SOL    HW2 5219   0.555   1.753   2.255  1.1873 -0.6153  0.3414
 1007SOL     OW 5220   1.606   4.087   2.102  0.3626 -0.1871 -0.2388
 1007SOL    HW1 5221   1.570   3.999   2.087  0.7255 -0.9227  2.6068
 1007SOL    HW2 5222   1.654   4.107   2.021  0.3176 -2.6222 -0.9679
 1008SOL     OW 5223   2.560   4.024   0.061  1.2384  0.1785 -0.1819
 1008SOL    HW1 5224   2.488   3.968   0.092  1.3575  0.6319  0.9558
 1008SOL    HW2 5225   2.637   3.991   0.107  1.8720 -0.5678 -1.6929
 1009SOL     OW 5226   3.612   9.181   7.012  0.4635  0.1269  0.8016
 1009SOL    HW1 5227   3.518   9.162   7.005  0.6669 -1.0483  0.9783
 1009SOL    HW2 5228   3.616   9.267   7.053 -0.5369 -0.0461  1.2993
 1010SOL     OW 5229   4.713   9.427   2.643 -0.0855  0.0656 -0.2189
 1010SOL    HW1 5230   4.770   9.357   2.673  0.7466  0.2094 -1.3883
 1010SOL    HW2 5231   4.684   9.399   2.556 -1.2639  0.3056  0.0860
 1011SOL     OW 5232   0.713   6.787   5.581 -0.0263 -0.0576 -0.2058
 1011SOL    HW1 5233   0.723   6.791   5.676 -0.9631  0.4532 -0.1196
 1011SOL    HW2 5234   0.708   6.878   5.553 -1.1608 -0.2269 -0.5846
 1012SOL     OW 5235   0.823   7.046   1.088 -0.6162 -0.4243  0.3865
 1012SOL    HW1 5236   0.818   7.029   0.994 -2.0098  1.2686  0.1032
 1012SOL    HW2 5237   0.916   7.045   1.108 -0.2401  0.1665 -1.2036
 1013SOL     OW 5238   2.669   4.019   7.804  0.3031 -0.3951  0.6369
 1013SOL    HW1 5239   2.688   3.927   7.789  2.1521  0.1191 -0.4610
 1013SOL    HW2 5240   2.673   4.059   7.717 -0.0597  0.7787  1.1430
 1014SOL     OW 5241   5.788   2.417   7.153 -0.3650  0.1563 -0.0274
 1014SOL    HW1 5242   5.704   2.380   7.125 -0.3605 -0.5309  0.8356
 1014SOL    HW2 5243   5.777   2.511   7.147 -1.0565  0.0592 -0.3102
 1015SOL     OW 5244   1.815   9.010   4.324 -0.0484  0.0710  0.0453
 1015SOL    HW1 5245   1.866   9.025   4.245 -1.3957 -2.0113 -1.3065
 1015SOL    HW2 5246   1.739   8.959   4.295 -1.9347  1.3879  2.2626
 1016SOL     OW 5247   8.826   4.365   2.094 -0.0118  0.2578 -0.0414
 1016SOL    HW1 5248   8.866   4.437   2.142  0.6378 -0.2637  0.2111
 1016SOL    HW2 5249   8.751   4.339   2.147 -0.6973  1.2285 -0.5064
 1017SOL     OW 5250   0.009   8.829   7.732 -0.0144  0.0200 -0.4129
 1017SOL    HW1 5251   0.031   8.791   7.818  0.0445 -1.9739 -1.2448
 1017SOL    HW2 5252   0.091   8.863   7.699  0.1496 -0.0296 -0.0651
 1018SOL     OW 5253   3.325   7.038   3.399  0.8319 -0.0794  0.1094
 1018SOL    HW1 5254   3.345   7.123   3.359  0.0546  0.1767  0.2408
 1018SOL    HW2 5255   3.409   6.992   3.401  1.1587  0.4712 -0.4704
 1019SOL     OW 5256   7.411   3.739   1.177 -0.2534 -0.1934 -0.3283
 1019SOL    HW1 5257   7.328   3.724   1.222  0.7975 -2.2528  1.1158
 1019SOL    HW2 5258   7.434   3.829   1.197 -1.9722  0.3169 -0.5220
 1020SOL     OW 5259   7.135   4.222   1.442 -0.2639 -0.3741 -0.3906
 1020SOL    HW1 5260   7.151   4.298   1.385  1.7966  0.0600  0.6792
 1020SOL    HW2 5261   7.211   4.218   1.499 -1.5561 -1.7063  1.3568
 1021SOL     OW 5262   4.963   2.050   4.160 -0.0412  0.1619 -0.0743
 1021SOL    HW1 5263   4.984   2.124   4.104  1.0181  0.8335  1.1350
 1021SOL    HW2 5264   5.038   2.044   4.220 -1.1734 -0.4226  1.3386
 1022SOL     OW 5265   7.863   1.236   0.477  0.1076  0.2528  0.0205
 1022SOL    HW1 5266   7.944   1.192   0.502 -1.0085 -1.3127  1.0764
 1022SOL    HW2 5267   7.851   1.214   0.385  1.9373  2.3147 -0.8087
 1023SOL     OW 5268   6.213   8.631   1.719  0.1291 -0.1742  0.2241
 1023SOL    HW1 5269   6.157   8.602   1.647  1.0822  1.3884 -1.1949
 1023SOL    HW2 5270   6.184   8.578   1.794 -1.6212 -1.0781 -1.0178
 1024SOL     OW 5271   8.839   2.486   7.116  0.5354  0.4314 -0.2298
 1024SOL    HW1 5272   8.892   2.482   7.036  0.9761 -0.7067  0.1037
 1024SOL    HW2 5273   8.753   2.452   7.090 -0.2484  2.7522 -0.8969
 1025SOL     OW 5274   7.588   4.481   8.959  0.3503  0.1282 -0.3916
 1025SOL    HW1 5275   7.540   4.557   8.928 -1.5702 -0.7909  0.2075
 1025SOL    HW2 5276   7.528   4.437   9.019  1.4269 -1.8278 -0.6711
 1026SOL     OW 5277   6.155   6.086   4.543  0.0098 -0.0126 -0.6701
 1026SOL    HW1 5278   6.083   6.128   4.496 -1.5011 -2.3313 -0.5347
 1026SOL    HW2 5279   6.140   6.108   4.635 -0.2684 -0.1476 -0.6843
 1027SOL     OW 5280   1.077   2.761   1.593 -0.1628 -0.1942 -0.1835
 1027SOL    HW1 5281   1.072   2.826   1.663  1.6307 -0.3206  0.1094
 1027SOL    HW2 5282   1.134   2.692   1.627 -0.6357 -1.0921 -1.1397
 1028SOL     OW 5283   7.974   3.158   7.457  0.1376  0.5199 -0.0514
 1028SOL    HW1 5284   8.016   3.178   7.373 -0.9476  0.1301 -0.7141
 1028SOL    HW2 5285   7.948   3.066   7.449  0.0528  0.4705  0.7330
 1029SOL     OW 5286   6.642   1.865   9.225 -0.2588 -0.3599  0.7026
 1029SOL    HW1 5287   6.720   1.811   9.214 -0.8671 -0.7037 -3.3238
 1029SOL    HW2 5288   6.578   1.808   9.266  1.3598 -0.1160  3.9498
 1030SOL     OW 5289   7.325   2.963   8.594 -0.4051  0.1923 -0.8189
 1030SOL    HW1 5290   7.370   2.935   8.674 -0.4099 -0.7447 -1.1352
 1030SOL    HW2 5291   7.286   3.047   8.617 -0.9244 -0.3424  0.3589
 1031SOL     OW 5292   3.333   4.795   7.559  0.0474  0.7711  0.1063
 1031SOL    HW1 5293   3.343   4.701   7.545  4.2904  0.8643  1.1015
 1031SOL    HW2 5294   3.403   4.835   7.507 -1.1736  3.3714  0.2876
 1032SOL     OW 5295   5.556   3.682   2.862 -0.4216 -0.0805 -0.1916
 1032SOL    HW1 5296   5.635   3.671   2.914  1.3383  2.4082 -2.0541
 1032SOL    HW2 5297   5.557   3.609   2.800 -0.0651 -0.5493  0.3651
 1033SOL     OW 5298   4.006   4.263   7.690  0.6603  0.2380 -0.2845
 1033SOL    HW1 5299   4.024   4.326   7.620  0.2348  1.5409  0.7294
 1033SOL    HW2 5300   4.085   4.209   7.696  1.4737  1.3778 -0.4816
 1034SOL     OW 5301   0.409   7.834   3.438 -0.0354 -0.7626  0.2442
 1034SOL    HW1 5302   0.462   7.863   3.363  0.3881 -1.3049  0.3225
 1034SOL    HW2 5303   0.456   7.757   3.471 -0.9161 -1.2890  0.2836
 1035SOL     OW 5304   2.926   6.948   1.671 -0.0793  0.7716 -0.1613
 1035SOL    HW1 5305   2.931   7.015   1.603 -0.4671  0.4714 -0.4920
 1035SOL    HW2 5306   3.012   6.907   1.672 -0.5260 -0.2648 -1.5551
 1036SOL     OW 5307   1.502   1.879   8.719 -0.2342  0.1737  0.0046
 1036SOL    HW1 5308   1.439   1.950   8.708  0.4613  0.4580 -2.8171
 1036SOL    HW2 5309   1.569   1.917   8.777 -0.2626  1.5871 -0.8307
 1037SOL     OW 5310   4.664   8.139   0.444  0.0252 -0.8651  0.2872
 1037SOL    HW1 5311   4.647   8.129   0.538  1.2315 -3.1101  0.3456
 1037SOL    HW2 5312   4.593   8.091   0.401  0.5509 -1.5656  0.1678
 1038SOL     OW 5313   4.751   3.980   5.029 -0.1173  0.2815 -0.9813
 1038SOL    HW1 5314   4.769   3.977   4.935 -4.9689  0.0896 -2.2068
 1038SOL    HW2 5315   4.757   3.889   5.058 -1.6667 -0.2023 -2.0093
 1039SOL     OW 5316   2.382   2.503   2.773 -0.5806 -0.0430 -0.1576
 1039SOL    HW1 5317   2.468   2.543   2.772 -0.5560 -0.0500 -2.0912
 1039SOL    HW2 5318   2.395   2.418   2.814  0.4801 -0.3007 -0.9887
 1040SOL     OW 5319   8.432   2.681   1.525 -0.3219 -0.4602  0.0243
 1040SOL    HW1 5320   8.383   2.751   1.568  0.0084 -0.5589  0.5704
 1040SOL    HW2 5321   8.385   2.666   1.442  0.3450  1.2977 -0.7265
 1041SOL     OW 5322   9.216   7.678   5.158 -0.4251 -0.8392  0.6085
 1041SOL    HW1 5323   9.240   7.642   5.073  0.1695  2.1402 -0.6074
 1041SOL    HW2 5324   9.129   7.715   5.145  0.3277  1.1000  0.7320
 1042SOL     OW 5325   7.772   7.101   5.770 -0.6872 -0.6353  0.4211
 1042SOL    HW1 5326   7.770   7.101   5.866 -2.3296 -2.6484  0.4751
 1042SOL    HW2 5327   7.778   7.009   5.747 -0.9519 -0.2231 -1.4041
 1043SOL     OW 5328   4.791   5.806   7.673 -0.2594  0.1885 -0.4162
 1043SOL    HW1 5329   4.815   5.873   7.737 -1.1409 -0.7227  0.9345
 1043SOL    HW2 5330   4.729   5.749   7.720 -0.1368 -1.1153 -1.7491
 1044SOL     OW 5331   2.865   8.425   2.442 -0.1813  0.1964  0.0831
 1044SOL    HW1 5332   2.907   8.492   2.497  0.7564 -0.1757 -0.1501
 1044SOL    HW2 5333   2.902   8.440   2.355  2.5842 -2.5629  0.5951
 1045SOL     OW 5334   9.468   1.800   2.598 -0.0409  1.1871 -0.5339
 1045SOL    HW1 5335   9.532   1.851   2.648 -0.7387 -0.0290  1.7705
 1045SOL    HW2 5336   9.387   1.850   2.606  0.2802  2.0530 -2.3205
 1046SOL     OW 5337   5.114   6.915   5.804  0.0446 -1.1631  0.0844
 1046SOL    HW1 5338   5.048   6.923   5.873 -0.3462 -0.0719 -0.3892
 1046SOL    HW2 5339   5.187   6.970   5.834 -0.4476 -0.0340 -0.7103
 1047SOL     OW 5340   6.661   1.198   6.459 -0.2148  0.2758  0.0976
 1047SOL    HW1 5341   6.735   1.250   6.491 -1.7467  3.0694 -0.5259
 1047SOL    HW2 5342   6.699   1.141   6.392  1.4870  1.0630  0.3334
 1048SOL     OW 5343   9.107   1.244   5.279 -0.2135  0.4853  0.4456
 1048SOL    HW1 5344   9.022   1.287   5.288  0.8955  2.6824  1.2074
 1048SOL    HW2 5345   9.168   1.315   5.257  1.1610 -1.2740 -1.9775
 1049SOL     OW 5346   4.133   8.107   6.749 -0.0341  0.2938 -0.3795
 1049SOL    HW1 5347   4.141   8.202   6.743  1.5553  0.1508 -0.9683
 1049SOL    HW2 5348   4.187   8.073   6.678  3.3362 -1.0977  2.4807
 1050SOL     OW 5349   2.663   3.958   2.619 -0.5067  0.3125  0.4527
 1050SOL    HW1 5350   2.674   3.910   2.537  1.5477  0.0109  0.8439
 1050SOL    HW2 5351   2.743   4.011   2.626 -0.0032 -0.6475  2.8683
 1051SOL     OW 5352   3.729   7.587   1.850  0.0142 -0.2358 -0.5099
 1051SOL    HW1 5353   3.796   7.570   1.916  0.7404  0.8055 -0.9552
 1051SOL    HW2 5354   3.737   7.680   1.831 -0.3710 -0.4575 -1.8461
 1052SOL     OW 5355   3.644   6.475   2.774 -0.7626  0.1919 -0.1586
 1052SOL    HW1 5356   3.720   6.424   2.745  0.3921  1.9033 -0.2996
 1052SOL    HW2 5357   3.671   6.566   2.762 -2.7671  0.8512  0.0289
 1053SOL     OW 5358   5.293   2.021   5.907  0.0585  0.4640  0.0797
 1053SOL    HW1 5359   5.249   2.082   5.848 -2.4670  1.6295  2.8996
 1053SOL    HW2 5360   5.375   2.064   5.929  0.4881  0.5615 -1.5825
 1054SOL     OW 5361   0.893   5.237   7.343 -0.1496 -0.1359  0.0942
 1054SOL    HW1 5362   0.810   5.283   7.353 -0.0696  0.1250 -0.4043
 1054SOL    HW2 5363   0.873   5.146   7.363 -0.5382 -0.0582  0.0609
 1055SOL     OW 5364   5.228   4.821   5.099 -0.1031 -0.1551 -0.1228
 1055SOL    HW1 5365   5.136   4.800   5.118 -0.0556 -0.6094 -0.4002
 1055SOL    HW2 5366   5.246   4.779   5.015  0.8226 -1.4062  0.6807
 1056SOL     OW 5367   0.398   5.423   0.488  0.1209  0.0381 -0.3832
 1056SOL    HW1 5368   0.450   5.359   0.439 -0.9091 -1.5302  0.4607
 1056SOL    HW2 5369   0.310   5.385   0.490 -0.2830  0.9743  1.0351
 1057SOL     OW 5370   1.652   8.731   1.706  0.6643 -0.0988 -0.1877
 1057SOL    HW1 5371   1.583   8.738   1.640  1.1984  0.6876 -0.6779
 1057SOL    HW2 5372   1.614   8.675   1.774 -0.0758 -0.5159 -0.9210
 1058SOL     OW 5373   2.347   0.161   5.792  0.0069 -0.0476 -0.0673
 1058SOL    HW1 5374   2.331   0.071   5.764  2.0426 -0.0165 -1.5768
 1058SOL    HW2 5375   2.417   0.153   5.858  1.7293  0.4818 -1.7205
 1059SOL     OW 5376   9.329   2.164   6.347 -0.6036 -0.0628  0.1260
 1059SOL    HW1 5377   9.327   2.081   6.395 -0.0425 -0.1340  0.0268
 1059SOL    HW2 5378   9.388   2.220   6.397 -1.8377  0.6691  0.8087
 1060SOL     OW 5379   0.183   3.941   5.994 -0.4032  0.3157  0.0810
 1060SOL    HW1 5380   0.190   4.025   6.039  1.2557 -0.2376  0.9435
 1060SOL    HW2 5381   0.273   3.922   5.965 -0.9098 -0.7403 -0.8808
 1061SOL     OW 5382   3.088   3.528   6.132  0.1818  0.3728  0.0322
 1061SOL    HW1 5383   3.090   3.608   6.080 -1.0473 -0.9568 -2.2323
 1061SOL    HW2 5384   2.997   3.522   6.162 -0.0849 -0.7598 -0.9151
 1062SOL     OW 5385   1.789   8.861   2.815  0.2284  0.1364 -0.0385
 1062SOL    HW1 5386   1.822   8.947   2.841 -0.0793  0.5897 -1.0743
 1062SOL    HW2 5387   1.701   8.857   2.853  0.8309 -0.4168  1.3784
 1063SOL     OW 5388   8.546   5.270   2.368  0.1489 -0.4850  0.4336
 1063SOL    HW1 5389   8.626   5.318   2.347 -0.0846 -0.2708  0.0153
 1063SOL    HW2 5390   8.533   5.212   2.292 -0.4752 -0.0111  0.1731
 1064SOL     OW 5391   8.112   0.278   1.070 -0.4404 -0.1549  0.1435
 1064SOL    HW1 5392   8.141   0.268   0.979 -0.4268 -1.0533  0.2397
 1064SOL    HW2 5393   8.058   0.357   1.069 -1.2295 -0.6856 -0.8445
 1065SOL     OW 5394   8.964   0.405   5.251  0.4320  0.1718  0.1747
 1065SOL    HW1 5395   9.020   0.456   5.310  1.1942 -1.3468  0.8280
 1065SOL    HW2 5396   9.003   0.420   5.164 -0.3351  1.9400  0.0862
 1066SOL     OW 5397   0.817   1.106   5.505  0.8982 -0.0801 -0.0041
 1066SOL    HW1 5398   0.850   1.177   5.451  0.1107  0.7734  0.5971
 1066SOL    HW2 5399   0.726   1.131   5.524  0.2558 -1.7678 -0.6572
 1067SOL     OW 5400   1.404   0.098   9.090 -0.1316  0.3290  0.0664
 1067SOL    HW1 5401   1.374   0.187   9.107 -2.9456 -0.1644 -1.5501
 1067SOL    HW2 5402   1.327   0.054   9.052  1.8493 -2.0830 -1.4768
 1068SOL     OW 5403   0.846   9.413   5.058 -0.3637 -0.1451  0.1133
 1068SOL    HW1 5404   0.754   9.419   5.084 -0.5848 -0.0797 -0.6552
 1068SOL    HW2 5405   0.846   9.348   4.987  0.5047 -1.8105  1.5635
 1069SOL     OW 5406   0.299   6.345   8.474  0.0463 -0.3232 -0.3096
 1069SOL    HW1 5407   0.232   6.305   8.529 -1.9082 -0.6141 -2.7458
 1069SOL    HW2 5408   0.290   6.302   8.389  2.1035  0.9244 -1.2311
 1070SOL     OW 5409   4.665   8.131   8.087  0.0527  0.5996  0.4439
 1070SOL    HW1 5410   4.712   8.070   8.145  0.9694  1.4061  0.5659
 1070SOL    HW2 5411   4.576   8.132   8.122  0.0583 -0.5283  0.5547
 1071SOL     OW 5412   1.537   0.507   7.175  0.3965  0.6518  0.2431
 1071SOL    HW1 5413   1.506   0.492   7.264 -1.9534 -0.4435 -0.6778
 1071SOL    HW2 5414   1.588   0.588   7.180  0.1510  0.7118  2.5222
 1072SOL     OW 5415   0.063   5.743   7.442 -0.1943 -0.5507  0.1218
 1072SOL    HW1 5416   0.007   5.720   7.368 -0.8116  1.1311  0.0121
 1072SOL    HW2 5417   0.129   5.674   7.446 -0.6042 -1.0642 -1.5278
 1073SOL     OW 5418   4.515   1.676   6.317  0.5428  0.2383 -0.3910
 1073SOL    HW1 5419   4.496   1.697   6.226 -2.0751 -2.3812 -0.5741
 1073SOL    HW2 5420   4.556   1.590   6.314  0.1064 -0.0375  0.8962
 1074SOL     OW 5421   6.931   7.048   3.363 -0.0605 -0.4112  0.4030
 1074SOL    HW1 5422   6.876   7.078   3.290 -1.4748 -1.3835  1.0159
 1074SOL    HW2 5423   6.922   7.115   3.430 -0.9215 -0.7827  0.6789
 1075SOL     OW 5424   5.626   1.626   2.225  0.7359  0.0020  0.1177
 1075SOL    HW1 5425   5.653   1.612   2.316  1.2441 -1.3317 -0.2200
 1075SOL    HW2 5426   5.686   1.572   2.174 -0.1800 -0.0389 -0.9432
 1076SOL     OW 5427   0.662   5.007   7.622  0.8237  0.4294 -0.0626
 1076SOL    HW1 5428   0.710   5.031   7.543 -0.3392  1.5279 -0.4530
 1076SOL    HW2 5429   0.598   5.077   7.634 -0.9050 -1.1421  0.2773
 1077SOL     OW 5430   4.629   5.348   1.638  0.4277  0.1492 -0.4339
 1077SOL    HW1 5431   4.629   5.305   1.553 -1.2260  0.7693 -0.7685
 1077SOL    HW2 5432   4.649   5.439   1.619 -2.0801  0.7504 -0.4570
 1078SOL     OW 5433   5.557   6.705   3.359 -0.3909  0.1630  0.6594
 1078SOL    HW1 5434   5.545   6.794   3.393  0.9122  1.3956 -1.8483
 1078SOL    HW2 5435   5.649   6.702   3.333 -0.6729 -1.5710 -0.2683
 1079SOL     OW 5436   6.519   6.705   4.924 -0.2793  0.0556 -0.0652
 1079SOL    HW1 5437   6.513   6.701   4.829 -0.1409  0.7886 -0.1112
 1079SOL    HW2 5438   6.433   6.680   4.955 -0.1609 -0.7549 -0.3613
 1080SOL     OW 5439   4.559   3.960   7.943  0.6358  0.3266 -0.6508
 1080SOL    HW1 5440   4.492   3.910   7.896  0.2067 -1.0553  1.3231
 1080SOL    HW2 5441   4.511   4.031   7.984  0.7415  0.5947 -0.9910
 1081SOL     OW 5442   3.537   6.827   4.045  0.1032 -0.2807  0.1572
 1081SOL    HW1 5443   3.538   6.917   4.078  1.3198  0.2065 -1.0707
 1081SOL    HW2 5444   3.580   6.776   4.113 -0.8084  0.0127  0.9725
 1082SOL     OW 5445   1.702   0.765   2.986 -0.0637  0.3619  0.9795
 1082SOL    HW1 5446   1.702   0.679   3.028 -0.6798 -1.0847 -1.7906
 1082SOL    HW2 5447   1.609   0.785   2.973  0.0535 -0.5176 -1.9500
 1083SOL     OW 5448   6.061   9.074   0.334 -0.0977  0.0579  0.2669
 1083SOL    HW1 5449   6.097   9.103   0.250  0.4683 -0.3759  0.3477
 1083SOL    HW2 5450   5.966   9.076   0.322 -0.0630  1.3246  0.0723
 1084SOL     OW 5451   8.301   1.785   2.811  0.3211 -0.2644 -0.2305
 1084SOL    HW1 5452   8.382   1.751   2.775 -0.4001 -0.6132 -1.5943
 1084SOL    HW2 5453   8.240   1.785   2.737 -1.1884 -0.8621  0.9607
 1085SOL     OW 5454   2.354   5.321   6.523 -0.6375 -0.5403  0.1165
 1085SOL    HW1 5455   2.411   5.362   6.458 -0.9675  0.7125  0.5866
 1085SOL    HW2 5456   2.412   5.302   6.597 -0.4455 -1.1073 -0.1772
 1086SOL     OW 5457   5.928   6.407   0.644 -0.2713  0.0562 -0.1731
 1086SOL    HW1 5458   5.861   6.384   0.580 -1.6435 -1.2207  1.6051
 1086SOL    HW2 5459   5.895   6.370   0.726  1.0120  2.2715  1.4359
 1087SOL     OW 5460   1.626   3.424   0.554  0.1955  0.6455 -0.0442
 1087SOL    HW1 5461   1.661   3.459   0.636 -0.3256  0.0486  0.4348
 1087SOL    HW2 5462   1.560   3.489   0.527  0.3343  0.8197  0.0309
 1088SOL     OW 5463   8.793   6.794   5.840  0.0039 -0.2833 -0.3555
 1088SOL    HW1 5464   8.811   6.865   5.901 -1.1571 -0.8500  0.7058
 1088SOL    HW2 5465   8.708   6.759   5.869  0.8029 -2.4690 -0.4637
 1089SOL     OW 5466   3.748   4.846   1.138  0.2985  0.2663 -0.0299
 1089SOL    HW1 5467   3.764   4.940   1.134  0.1149  0.3339  0.6555
 1089SOL    HW2 5468   3.658   4.835   1.108  1.0183  0.0611 -2.2615
 1090SOL     OW 5469   2.576   0.183   7.438  0.1402  0.0890  0.1702
 1090SOL    HW1 5470   2.505   0.246   7.425  0.4643  0.4185 -0.0162
 1090SOL    HW2 5471   2.615   0.208   7.521  0.8317  0.6974 -0.3211
 1091SOL     OW 5472   3.663   0.400   6.486 -0.3360 -0.7800 -0.0753
 1091SOL    HW1 5473   3.714   0.406   6.405  0.5434 -2.7260  0.2765
 1091SOL    HW2 5474   3.608   0.323   6.474 -2.0487  0.3530  0.2158
 1092SOL     OW 5475   0.385   2.683   2.376  0.0111 -0.2038 -0.5283
 1092SOL    HW1 5476   0.330   2.753   2.340  0.2961 -0.6363 -1.8584
 1092SOL    HW2 5477   0.333   2.645   2.446 -0.5740  0.6646 -0.4801
 1093SOL     OW 5478   6.203   2.773   3.527  0.1364  0.3034  0.0808
 1093SOL    HW1 5479   6.232   2.727   3.606 -0.6201 -0.9434 -0.3465
 1093SOL    HW2 5480   6.284   2.788   3.477  0.4389 -0.2545  0.3936
 1094SOL     OW 5481   3.491   3.962   8.954 -0.4145  0.0764  0.3577
 1094SOL    HW1 5482   3.480   4.052   8.986 -0.8191  0.6991 -1.4651
 1094SOL    HW2 5483   3.409   3.942   8.909  0.2513 -0.6565 -0.5542
 1095SOL     OW 5484   5.163   5.515   7.682  0.6535  0.3345 -0.2934
 1095SOL    HW1 5485   5.108   5.497   7.605  0.0161 -0.9253  0.4189
 1095SOL    HW2 5486   5.187   5.607   7.673 -0.0257  0.4130 -1.6133
 1096SOL     OW 5487   0.910   8.969   0.952  0.0864 -0.4684 -0.1946
 1096SOL    HW1 5488   0.903   8.889   0.900  0.0160 -1.1967  0.9123
 1096SOL    HW2 5489   0.919   8.939   1.042  3.1719  0.6507  0.0089
 1097SOL     OW 5490   2.813   8.714   2.336  0.2090  0.0667  0.2237
 1097SOL    HW1 5491   2.739   8.656   2.322  0.7530 -0.7928  0.7926
 1097SOL    HW2 5492   2.810   8.734   2.430  0.1950  0.7270  0.0864
 1098SOL     OW 5493   9.326   6.180   5.208  0.7911  0.0566  0.6089
 1098SOL    HW1 5494   9.247   6.170   5.155 -0.0055  2.5060  1.2169
 1098SOL    HW2 5495   9.301   6.240   5.278  2.2486 -1.8000  2.8845
 1099SOL     OW 5496   6.875   4.616   2.647  0.1347 -0.3638 -0.4404
 1099SOL    HW1 5497   6.966   4.603   2.674  0.0118 -1.1326 -0.3746
 1099SOL    HW2 5498   6.873   4.705   2.612  0.7102 -0.0178  0.3733
 1100SOL     OW 5499   6.934   5.947   9.256 -1.0733 -0.1756  0.0040
 1100SOL    HW1 5500   7.016   5.901   9.277 -0.3474  1.0891  0.0589
 1100SOL    HW2 5501   6.899   5.973   9.341  0.5091  2.6500 -0.0962
 1101SOL     OW 5502   5.977   2.299   6.562  0.4647 -0.0218 -0.0519
 1101SOL    HW1 5503   6.058   2.249   6.552  1.1603  0.8110  1.1578
 1101SOL    HW2 5504   5.982   2.366   6.494  0.5045 -0.3340 -0.3584
 1102SOL     OW 5505   6.377   2.464   7.828  0.0995 -0.1381  0.1445
 1102SOL    HW1 5506   6.349   2.537   7.773  0.0576  1.2213  1.8696
 1102SOL    HW2 5507   6.375   2.388   7.771 -0.0459  1.1779 -1.6699
 1103SOL     OW 5508   0.550   0.124   2.498 -0.7441  0.5896 -0.4770
 1103SOL    HW1 5509   0.464   0.082   2.495 -0.4680  0.0170 -0.5359
 1103SOL    HW2 5510   0.546   0.191   2.430 -1.0249  0.3368 -0.7147
 1104SOL     OW 5511   7.163   9.508   1.239 -0.1381  0.1037  0.1634
 1104SOL    HW1 5512   7.205   9.591   1.263  1.6261 -0.5187 -0.5918
 1104SOL    HW2 5513   7.232   9.458   1.195 -1.4198 -1.4056 -0.2290
 1105SOL     OW 5514   2.092   5.343   0.287  0.1260  0.0093 -0.0112
 1105SOL    HW1 5515   2.155   5.330   0.215  1.2641 -1.5633  1.2008
 1105SOL    HW2 5516   2.141   5.319   0.366 -1.3161  1.0091  1.2385
 1106SOL     OW 5517   4.030   8.714   8.793  0.2070  0.4047 -0.4055
 1106SOL    HW1 5518   3.966   8.644   8.812 -1.9710  2.4043  0.1208
 1106SOL    HW2 5519   4.102   8.697   8.853 -0.3975 -1.2071 -0.0681
 1107SOL     OW 5520   5.231   7.807   1.811 -0.0583 -0.3173 -0.3856
 1107SOL    HW1 5521   5.201   7.890   1.849 -0.7454 -0.1561 -1.2417
 1107SOL    HW2 5522   5.286   7.768   1.879  1.7713  1.6808 -0.6137
 1108SOL     OW 5523   2.388   7.446   8.289 -0.5761 -0.4272  0.2730
 1108SOL    HW1 5524   2.457   7.509   8.267  1.1226 -1.9728  0.9866
 1108SOL    HW2 5525   2.353   7.477   8.372  0.2339 -0.3951  0.6117
 1109SOL     OW 5526   3.716   7.899   8.314 -0.4023  0.0541 -0.7753
 1109SOL    HW1 5527   3.742   7.969   8.373 -1.1413 -1.6762  1.7892
 1109SOL    HW2 5528   3.666   7.942   8.244 -0.4065  2.0881  0.4272
 1110SOL     OW 5529   5.093   5.191   4.100 -0.3914 -0.0719  0.1628
 1110SOL    HW1 5530   5.004   5.208   4.132 -0.8846  1.2114 -1.7473
 1110SOL    HW2 5531   5.081   5.140   4.020  0.7758 -2.3649  1.3455
 1111SOL     OW 5532   7.253   2.678   6.965 -0.5012 -0.0458  0.2126
 1111SOL    HW1 5533   7.229   2.770   6.978  0.6655  0.3170 -0.1603
 1111SOL    HW2 5534   7.239   2.638   7.051 -0.8283  0.5168  0.4275
 1112SOL     OW 5535   8.963   4.581   8.038  0.3809 -0.3062 -0.1730
 1112SOL    HW1 5536   8.914   4.655   8.000 -1.8230 -0.9179  1.2767
 1112SOL    HW2 5537   9.040   4.621   8.078 -0.8558  1.2725  0.7313
 1113SOL     OW 5538   0.652   0.115   9.004  0.3955 -0.2552  0.0974
 1113SOL    HW1 5539   0.600   0.134   9.082  0.3733  1.2198 -0.2535
 1113SOL    HW2 5540   0.681   0.025   9.016 -0.1061 -0.2472  1.5180
 1114SOL     OW 5541   3.850   5.505   8.838  0.1844  0.4157  0.3117
 1114SOL    HW1 5542   3.917   5.551   8.788 -0.3858  0.5869 -0.3068
 1114SOL    HW2 5543   3.819   5.436   8.779 -0.1695  0.3298  0.5955
 1115SOL     OW 5544   9.239   8.012   9.379  0.2503  0.3423 -0.1631
 1115SOL    HW1 5545   9.230   7.928   9.334  0.1041  1.2614 -1.9335
 1115SOL    HW2 5546   9.325   8.044   9.352 -0.2109  1.3127 -0.5199
 1116SOL     OW 5547   7.596   4.489   7.472  0.0221 -0.7801 -0.8351
 1116SOL    HW1 5548   7.548   4.435   7.535 -1.2225 -0.2465 -1.2916
 1116SOL    HW2 5549   7.674   4.517   7.519 -1.3177  0.3700  0.8259
 1117SOL     OW 5550   9.120   8.810   1.584  0.4301 -0.5375  0.2118
 1117SOL    HW1 5551   9.161   8.760   1.656  0.9922 -0.2689  0.0847
 1117SOL    HW2 5552   9.044   8.851   1.624  0.6246 -0.5558  0.6054
 1118SOL     OW 5553   4.831   6.218   0.602 -0.1815  0.1275  0.2304
 1118SOL    HW1 5554   4.855   6.215   0.695  2.0341  1.8030 -0.2005
 1118SOL    HW2 5555   4.788   6.303   0.591 -1.3432 -0.4771 -0.1425
 1119SOL     OW 5556   2.562   0.617   0.688  0.2982  0.3497  0.3618
 1119SOL    HW1 5557   2.627   0.679   0.721  1.0549  0.0591 -0.5598
 1119SOL    HW2 5558   2.569   0.622   0.593 -0.0631 -0.6929  0.2674
 1120SOL     OW 5559   0.701   0.479   4.065 -0.2180 -0.0702 -0.1479
 1120SOL    HW1 5560   0.677   0.401   4.115 -0.8482  0.7002  0.7987
 1120SOL    HW2 5561   0.791   0.464   4.038  0.0779 -0.6235  1.0616
 1121SOL     OW 5562   0.585   6.163   5.400  0.1651  0.2741 -0.4200
 1121SOL    HW1 5563   0.618   6.223   5.468 -3.5562  2.3575 -0.1802
 1121SOL    HW2 5564   0.558   6.085   5.448  1.9914 -0.3095 -0.2690
 1122SOL     OW 5565   3.872   5.231   2.338  0.1806  0.5563  0.1740
 1122SOL    HW1 5566   3.917   5.226   2.422  0.5721  3.4858  0.2485
 1122SOL    HW2 5567   3.942   5.248   2.275 -0.1840 -0.9728 -0.6812
 1123SOL     OW 5568   4.643   1.435   6.276  0.1167 -0.6020  0.3915
 1123SOL    HW1 5569   4.728   1.473   6.255 -0.8485  1.9316  0.7017
 1123SOL    HW2 5570   4.641   1.353   6.228  2.1286 -0.0094 -0.8363
 1124SOL     OW 5571   7.309   8.228   4.461  0.0498  0.2584  0.2625
 1124SOL    HW1 5572   7.242   8.223   4.393  0.0366  1.5119  0.1592
 1124SOL    HW2 5573   7.355   8.310   4.443  1.5956 -0.5571  0.3467
 1125SOL     OW 5574   9.216   3.994   7.155 -0.2150 -0.1625  0.4412
 1125SOL    HW1 5575   9.180   3.978   7.242 -2.5725  1.3823 -0.1558
 1125SOL    HW2 5576   9.216   4.089   7.146  1.9650 -0.1879 -0.5268
 1126SOL     OW 5577   6.262   1.707   3.732  0.7418  0.6807 -0.0679
 1126SOL    HW1 5578   6.225   1.619   3.727  1.3111  0.3928  0.5885
 1126SOL    HW2 5579   6.323   1.703   3.806 -0.7577  2.2043  1.3158
 1127SOL     OW 5580   5.236   7.476   3.747  0.2464  0.1826 -0.3756
 1127SOL    HW1 5581   5.165   7.475   3.811  0.1422  1.5892 -0.4379
 1127SOL    HW2 5582   5.192   7.487   3.663  0.5152  1.0315 -0.4165
 1128SOL     OW 5583   1.455   3.318   4.341 -0.5383  0.2055 -0.2582
 1128SOL    HW1 5584   1.414   3.344   4.259 -0.5407  1.3498  0.0825
 1128SOL    HW2 5585   1.478   3.401   4.383 -2.0155 -0.2630  1.6519
 1129SOL     OW 5586   5.461   7.233   2.627 -0.1842  0.1604  0.1466
 1129SOL    HW1 5587   5.375   7.200   2.601  0.4707 -0.2890 -1.5742
 1129SOL    HW2 5588   5.479   7.190   2.711 -0.8646 -1.1674 -0.3515
 1130SOL     OW 5589   0.619   2.369   9.522  0.1240 -0.0533 -0.5970
 1130SOL    HW1 5590   0.615   2.397   9.430 -1.9753  2.0975  0.0540
 1130SOL    HW2 5591   0.644   2.448   9.570  0.7205 -1.0302  0.7627
 1131SOL     OW 5592   7.424   2.705   6.451  0.2809  0.0851 -0.0698
 1131SOL    HW1 5593   7.382   2.710   6.537  2.1598  0.9984  0.8473
 1131SOL    HW2 5594   7.508   2.662   6.468  0.5306 -0.0417 -1.5161
 1132SOL     OW 5595   4.396   6.448   1.528 -0.4168 -0.2466  0.0592
 1132SOL    HW1 5596   4.416   6.401   1.608  1.9565 -1.6738 -1.2648
 1132SOL    HW2 5597   4.446   6.530   1.535  1.4701 -1.2649 -0.7502
 1133SOL     OW 5598   4.641   7.674   4.936 -0.3724 -0.5650 -0.2229
 1133SOL    HW1 5599   4.705   7.633   4.879  0.4104  1.4090 -0.8664
 1133SOL    HW2 5600   4.647   7.626   5.018  2.4213 -0.0610 -0.0480
 1134SOL     OW 5601   7.023   2.350   0.585 -0.0622 -0.5138 -0.0146
 1134SOL    HW1 5602   6.982   2.288   0.525 -0.4225  0.4240 -0.7692
 1134SOL    HW2 5603   6.956   2.416   0.601 -0.3242 -1.2746  2.2656
 1135SOL     OW 5604   6.714   0.511   6.973  0.1244  0.2575 -0.2205
 1135SOL    HW1 5605   6.741   0.592   7.016  2.7794 -0.3707 -0.5292
 1135SOL    HW2 5606   6.722   0.444   7.040 -1.0637  0.0641 -0.2496
 1136SOL     OW 5607   0.844   3.590   0.349 -0.0653  0.3316  0.1494
 1136SOL    HW1 5608   0.830   3.598   0.443  0.1729 -0.6324  0.2827
 1136SOL    HW2 5609   0.814   3.502   0.328  0.1547  0.4333 -0.6256
 1137SOL     OW 5610   5.464   7.961   8.603 -0.0648  0.3228 -0.6977
 1137SOL    HW1 5611   5.437   7.965   8.695 -0.1775 -1.0286 -0.6564
 1137SOL    HW2 5612   5.553   7.996   8.603  0.8568 -1.8139  0.3480
 1138SOL     OW 5613   2.506   8.907   4.246  0.1005 -0.1522 -1.0257
 1138SOL    HW1 5614   2.535   8.904   4.155 -1.4563 -0.2302 -1.5574
 1138SOL    HW2 5615   2.503   9.001   4.267  2.0037 -0.1745 -0.4912
 1139SOL     OW 5616   4.114   7.589   4.845  0.0732 -0.2658  0.3550
 1139SOL    HW1 5617   4.071   7.620   4.766 -0.2434 -0.1864  0.5580
 1139SOL    HW2 5618   4.157   7.508   4.819 -0.7558 -0.7019  0.3151
 1140SOL     OW 5619   8.635   7.739   2.781 -0.2239 -0.1705  0.1243
 1140SOL    HW1 5620   8.611   7.720   2.691 -0.5925  0.0167  0.1854
 1140SOL    HW2 5621   8.552   7.746   2.828 -0.0342 -1.9938  0.8363
 1141SOL     OW 5622   7.242   5.321   1.897 -0.2184 -0.6041  0.1909
 1141SOL    HW1 5623   7.168   5.321   1.958  0.9243  1.3295  1.7164
 1141SOL    HW2 5624   7.301   5.255   1.932 -0.3793 -0.7801  0.1269
 1142SOL     OW 5625   3.455   1.494   5.553 -0.1380 -0.3290 -0.1188
 1142SOL    HW1 5626   3.415   1.408   5.547 -1.6020  0.2850  0.2499
 1142SOL    HW2 5627   3.400   1.550   5.498 -0.8449  0.8913  1.7235
 1143SOL     OW 5628   5.674   6.601   7.887  0.0015  0.3541  0.4232
 1143SOL    HW1 5629   5.688   6.695   7.904  1.8046  0.1554  0.2359
 1143SOL    HW2 5630   5.751   6.558   7.924 -0.5262 -1.0055 -0.0002
 1144SOL     OW 5631   2.864   7.373   8.387 -0.0472  0.0980  0.2758
 1144SOL    HW1 5632   2.835   7.294   8.431  0.6719 -0.4558 -0.2159
 1144SOL    HW2 5633   2.960   7.373   8.397 -0.0980  1.4053  1.0929
 1145SOL     OW 5634   8.812   1.323   7.797 -0.4291  0.1775 -0.0585
 1145SOL    HW1 5635   8.875   1.395   7.789  0.2120 -0.0959  1.9739
 1145SOL    HW2 5636   8.844   1.256   7.737 -0.6280  1.2685 -1.4430
 1146SOL     OW 5637   6.269   4.284   5.357  0.1006  0.0006  0.0562
 1146SOL    HW1 5638   6.242   4.375   5.344  1.9483  0.3298 -2.0901
 1146SOL    HW2 5639   6.214   4.234   5.297 -0.2780 -0.2153  0.5693
 1147SOL     OW 5640   4.935   4.149   0.715  0.5082 -0.3601  0.0444
 1147SOL    HW1 5641   4.919   4.208   0.789  0.2714  0.1237 -0.3854
 1147SOL    HW2 5642   4.908   4.063   0.746 -2.3999  0.2968 -0.4214
 1148SOL     OW 5643   3.362   6.772   5.690  0.2251  0.0309 -0.5764
 1148SOL    HW1 5644   3.290   6.765   5.752 -1.1106  0.5812 -2.0032
 1148SOL    HW2 5645   3.330   6.728   5.611  2.1485 -1.3004 -0.6980
 1149SOL     OW 5646   0.796   8.766   9.254 -0.1977  0.3283  0.3234
 1149SOL    HW1 5647   0.887   8.758   9.282  0.5451 -0.9071 -2.2139
 1149SOL    HW2 5648   0.783   8.859   9.239  0.2989  0.6369  1.6853
 1150SOL     OW 5649   5.882   0.548   5.254 -0.1455  0.2760 -0.0797
 1150SOL    HW1 5650   5.938   0.598   5.313  0.6345 -0.5299 -0.1161
 1150SOL    HW2 5651   5.931   0.543   5.173  0.0578 -1.0311  0.1045
 1151SOL     OW 5652   4.439   2.828   3.631  0.0919  0.3017  0.3714
 1151SOL    HW1 5653   4.392   2.906   3.602 -0.9188 -0.3218  0.2750
 1151SOL    HW2 5654   4.429   2.827   3.726 -0.8301 -0.2757  0.2784
 1152SOL     OW 5655   0.327   0.758   0.908  0.4623 -0.0338 -0.0959
 1152SOL    HW1 5656   0.363   0.842   0.881 -2.8252  1.2012 -1.2467
 1152SOL    HW2 5657   0.326   0.705   0.828  2.1055 -1.0844  0.5267
 1153SOL     OW 5658   0.622   2.997   5.043  0.0632 -0.5317 -0.3014
 1153SOL    HW1 5659   0.707   3.004   4.999  0.1636  1.4041  0.1333
 1153SOL    HW2 5660   0.643   3.005   5.136 -0.6426  0.5172 -0.2213
 1154SOL     OW 5661   8.694   4.530   8.154 -0.0216  0.7362 -0.6964
 1154SOL    HW1 5662   8.782   4.518   8.118 -0.3123  0.4459 -1.3209
 1154SOL    HW2 5663   8.696   4.617   8.194 -0.1275  1.7364 -2.7275
 1155SOL     OW 5664   2.937   6.908   7.452  0.1210 -0.2860  0.3499
 1155SOL    HW1 5665   3.008   6.952   7.500  0.0586 -0.1038  0.2768
 1155SOL    HW2 5666   2.940   6.946   7.365 -0.8034  0.5787  0.6725
 1156SOL     OW 5667   5.549   7.484   6.369 -0.3469 -0.3275 -0.8124
 1156SOL    HW1 5668   5.613   7.523   6.429 -1.3372 -0.2784  0.2368
 1156SOL    HW2 5669   5.506   7.417   6.421 -2.4224  0.8759 -0.8846
 1157SOL     OW 5670   1.022   4.669   3.153  0.0685 -0.3863 -0.2815
 1157SOL    HW1 5671   1.021   4.763   3.137  0.1784 -0.2290  0.5776
 1157SOL    HW2 5672   1.069   4.659   3.236 -3.6964 -0.7604  2.0513
 1158SOL     OW 5673   4.798   3.921   4.731  0.5936 -0.3129  0.0662
 1158SOL    HW1 5674   4.744   3.994   4.703 -2.1899 -1.3471  2.2634
 1158SOL    HW2 5675   4.786   3.854   4.664  0.9525  0.2187 -0.5463
 1159SOL     OW 5676   6.797   5.774   5.979  0.5975 -0.2167 -0.5097
 1159SOL    HW1 5677   6.752   5.746   5.899  1.1088 -1.4470 -0.3887
 1159SOL    HW2 5678   6.890   5.771   5.956  0.7403 -0.4424  0.0850
 1160SOL     OW 5679   6.500   7.971   8.329  0.6185  0.2801 -0.3178
 1160SOL    HW1 5680   6.588   8.004   8.346  0.8800  0.2500 -1.4903
 1160SOL    HW2 5681   6.444   8.049   8.334  0.8574  0.4680 -0.5386
 1161SOL     OW 5682   3.663   2.997   7.166 -0.1846 -0.0121 -0.2165
 1161SOL    HW1 5683   3.745   2.962   7.199  0.3466  0.2877 -1.1784
 1161SOL    HW2 5684   3.685   3.087   7.139 -0.9594  0.2610  0.0280
 1162SOL     OW 5685   2.350   5.392   5.615 -0.2355  0.4066 -0.4195
 1162SOL    HW1 5686   2.319   5.366   5.701 -1.4701  0.7383 -0.7494
 1162SOL    HW2 5687   2.364   5.486   5.622  0.3155  0.3257 -0.3942
 1163SOL     OW 5688   7.083   4.699   8.655 -0.4157  0.0346 -0.8611
 1163SOL    HW1 5689   7.174   4.681   8.680  0.2565  0.5761 -2.7698
 1163SOL    HW2 5690   7.079   4.795   8.650 -0.9751 -0.0038 -1.1889
 1164SOL     OW 5691   6.727   3.297   3.199  0.1737 -0.4356  0.2725
 1164SOL    HW1 5692   6.738   3.392   3.199  0.5543 -0.4775 -0.3958
 1164SOL    HW2 5693   6.633   3.283   3.193  0.1986 -0.0984 -1.2873
 1165SOL     OW 5694   9.219   8.399   7.458 -0.8635 -0.6415  0.2159
 1165SOL    HW1 5695   9.196   8.307   7.465 -2.1834 -0.3885 -0.4868
 1165SOL    HW2 5696   9.150   8.445   7.507  0.5934 -0.0807  1.8683
 1166SOL     OW 5697   5.222   0.264   2.578 -0.4056  0.0483 -0.4187
 1166SOL    HW1 5698   5.132   0.279   2.609 -0.0437  0.1758  0.6191
 1166SOL    HW2 5699   5.270   0.341   2.609 -0.1428  0.5002 -1.8789
 1167SOL     OW 5700   6.335   7.822   7.360 -1.0278 -0.4105  0.2717
 1167SOL    HW1 5701   6.338   7.739   7.409 -2.9299 -1.5125 -1.2957
 1167SOL    HW2 5702   6.420   7.827   7.316 -0.9628 -1.6881  0.2035
 1168SOL     OW 5703   3.882   8.897   0.219 -0.0774 -0.1575 -0.1554
 1168SOL    HW1 5704   3.945   8.836   0.180 -0.0074  1.5592 -2.9473
 1168SOL    HW2 5705   3.799   8.848   0.221  0.0115 -0.4560 -2.1962
 1169SOL     OW 5706   7.258   3.313   6.695 -0.3697 -0.3859 -0.2015
 1169SOL    HW1 5707   7.212   3.236   6.727  1.4251 -0.4041  2.7451
 1169SOL    HW2 5708   7.321   3.280   6.632 -1.1693 -0.9474 -0.7321
 1170SOL     OW 5709   3.522   8.314   6.445  0.1337 -0.2163  0.1765
 1170SOL    HW1 5710   3.476   8.393   6.470  1.2578  0.9142 -1.1819
 1170SOL    HW2 5711   3.453   8.252   6.422 -0.7442  0.9446 -0.4078
 1171SOL     OW 5712   8.323   1.959   4.150  0.5494  0.5242  0.6117
 1171SOL    HW1 5713   8.283   2.026   4.205 -1.0289  0.3399 -0.2436
 1171SOL    HW2 5714   8.311   1.877   4.199 -2.4607  0.0777 -0.6688
 1172SOL     OW 5715   5.821   4.648   7.922  0.0334 -0.1034  0.1495
 1172SOL    HW1 5716   5.891   4.641   7.857 -0.6475  0.8209 -0.7033
 1172SOL    HW2 5717   5.854   4.709   7.987  0.0795  0.2085 -0.1689
 1173SOL     OW 5718   4.230   0.177   0.816  0.0755 -0.0914 -0.5722
 1173SOL    HW1 5719   4.154   0.210   0.864  0.2164  1.3991 -1.3263
 1173SOL    HW2 5720   4.194   0.141   0.735  0.1986  1.4190 -1.3427
 1174SOL     OW 5721   6.416   5.882   3.624 -0.0338 -0.5158  0.0085
 1174SOL    HW1 5722   6.321   5.881   3.639  0.0299 -0.3297  0.4378
 1174SOL    HW2 5723   6.454   5.848   3.705  0.2885 -0.0710  0.0517
 1175SOL     OW 5724   6.327   8.857   9.058  0.3822  0.0069 -0.0509
 1175SOL    HW1 5725   6.255   8.807   9.096  1.0930 -0.9713  0.0430
 1175SOL    HW2 5726   6.316   8.849   8.964 -0.5649  1.2440 -0.0653
 1176SOL     OW 5727   7.814   2.718   6.052  0.4185  0.0009 -0.1242
 1176SOL    HW1 5728   7.834   2.764   6.134  1.5881  0.7888 -0.8146
 1176SOL    HW2 5729   7.733   2.758   6.021 -1.0171 -1.4964  1.4733
 1177SOL     OW 5730   8.536   7.445   5.712 -0.1538  0.9197  0.2798
 1177SOL    HW1 5731   8.526   7.532   5.675 -0.2059  1.1680  0.8671
 1177SOL    HW2 5732   8.474   7.390   5.663 -0.4540  1.3087  0.2212
 1178SOL     OW 5733   6.169   3.123   8.133  0.3083 -0.0209  0.1583
 1178SOL    HW1 5734   6.109   3.165   8.195 -0.0741 -0.2537 -0.0508
 1178SOL    HW2 5735   6.112   3.067   8.079  0.1766  2.2353 -2.2299
 1179SOL     OW 5736   1.650   0.686   0.292  0.3182  0.0852  0.2041
 1179SOL    HW1 5737   1.570   0.728   0.263  1.2346  1.2595 -0.7458
 1179SOL    HW2 5738   1.660   0.610   0.234  0.7120  0.8530 -0.7490
 1180SOL     OW 5739   3.294   8.399   0.069 -0.5839  0.5779  0.5274
 1180SOL    HW1 5740   3.223   8.354   0.024  0.5855  0.4066 -1.2268
 1180SOL    HW2 5741   3.294   8.487   0.032  1.4266 -0.0394 -1.1459
 1181SOL     OW 5742   7.513   3.272   5.665 -0.2737  0.3925  0.5925
 1181SOL    HW1 5743   7.527   3.211   5.737  1.9014  0.1632  0.0430
 1181SOL    HW2 5744   7.601   3.292   5.633 -1.0924  1.7669 -0.9409
 1182SOL     OW 5745   3.430   4.332   1.589 -0.9670  0.2607 -0.1069
 1182SOL    HW1 5746   3.379   4.257   1.618 -1.0940  0.3731 -0.0397
 1182SOL    HW2 5747   3.470   4.367   1.669  1.7600 -1.6717 -0.4859
 1183SOL     OW 5748   9.206   6.334   5.396 -0.4100 -0.1862 -0.5988
 1183SOL    HW1 5749   9.121   6.301   5.424  0.4103 -1.2842  0.7740
 1183SOL    HW2 5750   9.247   6.367   5.476  0.6982 -0.2648 -1.1102
 1184SOL     OW 5751   8.519   9.433   9.231 -0.2536 -0.3103  0.0084
 1184SOL    HW1 5752   8.593   9.417   9.289  1.1242  1.2288 -1.2201
 1184SOL    HW2 5753   8.511   9.352   9.180 -2.1736 -2.1250  2.8670
 1185SOL     OW 5754   5.554   3.841   8.105  0.2644  0.0535  0.8639
 1185SOL    HW1 5755   5.528   3.930   8.131 -3.1705 -0.1829 -1.1500
 1185SOL    HW2 5756   5.630   3.854   8.048 -1.5053  2.0567 -1.2387
 1186SOL     OW 5757   9.507   4.706   4.852  0.1552  0.1035 -0.4318
 1186SOL    HW1 5758   9.511   4.612   4.869 -0.2598  0.0905 -0.3995
 1186SOL    HW2 5759   9.526   4.714   4.759 -0.9152 -0.1111 -0.6790
 1187SOL     OW 5760   7.450   0.372   6.585  0.0143  0.4732 -0.0066
 1187SOL    HW1 5761   7.366   0.370   6.633 -0.0294  1.5151 -0.0209
 1187SOL    HW2 5762   7.425   0.379   6.493  0.1125  0.9435 -0.0001
 1188SOL     OW 5763   5.312   0.593   5.638 -0.2980 -0.2956 -0.6259
 1188SOL    HW1 5764   5.355   0.673   5.608  0.2301 -0.5076 -0.4401
 1188SOL    HW2 5765   5.384   0.536   5.666 -0.7787 -0.0010  1.3342
 1189SOL     OW 5766   6.544   9.114   6.217 -0.5221 -0.4258 -0.7033
 1189SOL    HW1 5767   6.616   9.082   6.163 -0.8557 -0.0116 -1.4132
 1189SOL    HW2 5768   6.493   9.171   6.158  0.2724  1.7433  0.5958
 1190SOL     OW 5769   0.766   9.114   3.757  0.5572 -0.4827 -0.6858
 1190SOL    HW1 5770   0.728   9.156   3.835  1.6481 -0.4685 -0.1432
 1190SOL    HW2 5771   0.692   9.070   3.715 -0.2258  0.3141 -0.1639
 1191SOL     OW 5772   4.884   0.913   7.286  0.2823  0.4783  0.5135
 1191SOL    HW1 5773   4.900   0.946   7.375 -1.6551  0.5641  0.8580
 1191SOL    HW2 5774   4.826   0.977   7.246  0.9946  0.3423 -0.7780
 1192SOL     OW 5775   4.035   7.713   7.622  0.1852 -0.1381 -0.0846
 1192SOL    HW1 5776   3.980   7.764   7.562  0.3128 -0.7187 -0.7123
 1192SOL    HW2 5777   3.974   7.653   7.665 -0.0894  1.0243  1.2139
 1193SOL     OW 5778   1.503   4.867   1.147  0.4125 -0.9655 -0.0174
 1193SOL    HW1 5779   1.442   4.877   1.219  0.7340 -1.6724  0.3676
 1193SOL    HW2 5780   1.567   4.937   1.160  0.2187 -0.8159  0.1290
 1194SOL     OW 5781   6.585   5.449   1.143  0.0748 -0.4011 -0.2664
 1194SOL    HW1 5782   6.577   5.357   1.120 -0.1989 -0.5216  0.2941
 1194SOL    HW2 5783   6.509   5.467   1.199 -0.1497  0.2885 -0.7731
 1195SOL     OW 5784   1.680   3.912   2.385 -0.2051 -0.2787 -0.5259
 1195SOL    HW1 5785   1.646   3.984   2.333 -3.3733 -1.2074  0.0808
 1195SOL    HW2 5786   1.631   3.916   2.467  2.0993 -1.0172  0.9958
 1196SOL     OW 5787   5.336   5.738   8.165 -0.0776  0.2239 -0.5086
 1196SOL    HW1 5788   5.414   5.775   8.122  0.3162  0.2204  0.1733
 1196SOL    HW2 5789   5.342   5.770   8.255  0.5717 -1.9130  0.2716
 1197SOL     OW 5790   6.918   4.378   7.789 -0.0415  0.0626  0.8643
 1197SOL    HW1 5791   6.921   4.469   7.762 -3.7794  0.2478  0.6638
 1197SOL    HW2 5792   6.971   4.332   7.724  1.8281  1.9769  0.9198
 1198SOL     OW 5793   7.646   4.768   2.884 -0.3450  0.3346 -0.1884
 1198SOL    HW1 5794   7.699   4.801   2.811  0.7060 -0.1796  0.3217
 1198SOL    HW2 5795   7.643   4.673   2.871  0.6036  0.1347  0.8999
 1199SOL     OW 5796   6.028   3.175   4.508 -0.0536 -0.0552  0.0815
 1199SOL    HW1 5797   5.967   3.198   4.579 -0.2658 -1.2385  0.3056
 1199SOL    HW2 5798   6.082   3.106   4.545 -0.1344 -0.6598 -0.8977
 1200SOL     OW 5799   3.903   0.796   8.067 -0.0532 -0.0724  0.2456
 1200SOL    HW1 5800   3.866   0.737   8.133 -2.0210  0.6325 -0.1573
 1200SOL    HW2 5801   3.863   0.768   7.985  1.0529  0.1437 -0.3837
 1201SOL     OW 5802   2.003   6.144   4.124  0.3645 -0.5542  0.1223
 1201SOL    HW1 5803   2.082   6.106   4.085  0.5647 -1.5578  1.4335
 1201SOL    HW2 5804   2.032   6.178   4.209 -0.4722 -0.2459  0.2972
 1202SOL     OW 5805   7.558   3.204   2.128 -0.0298  0.0034 -0.5986
 1202SOL    HW1 5806   7.640   3.159   2.108  2.5692  3.4331  1.3321
 1202SOL    HW2 5807   7.549   3.198   2.223 -0.7351  1.6306 -0.5229
 1203SOL     OW 5808   1.022   4.793   2.276 -0.4165 -0.2859 -0.1774
 1203SOL    HW1 5809   1.066   4.712   2.250 -0.1516 -1.0029  2.2317
 1203SOL    HW2 5810   1.094   4.856   2.287 -0.6557  0.4569 -2.4282
 1204SOL     OW 5811   6.517   8.206   2.972  0.2057  0.3170 -0.1328
 1204SOL    HW1 5812   6.515   8.286   2.920 -0.0732  0.3889 -0.0133
 1204SOL    HW2 5813   6.577   8.148   2.925  0.6990  0.7307 -0.0215
 1205SOL     OW 5814   6.361   6.658   9.064  0.3678 -0.2291 -0.0065
 1205SOL    HW1 5815   6.446   6.682   9.100  0.6379  0.5285 -1.1037
 1205SOL    HW2 5816   6.313   6.741   9.059  0.3348 -0.3041 -1.3375
 1206SOL     OW 5817   4.502   6.802   5.905 -0.5641  0.5161  0.3707
 1206SOL    HW1 5818   4.458   6.719   5.888 -3.4460  1.8791  0.7036
 1206SOL    HW2 5819   4.516   6.841   5.819 -3.9556  1.8974  0.2991
 1207SOL     OW 5820   6.393   0.942   1.588  0.3460 -0.2347 -0.2802
 1207SOL    HW1 5821   6.406   1.032   1.619  0.9912 -0.3739 -0.1232
 1207SOL    HW2 5822   6.356   0.952   1.500 -0.3650  0.1745  0.0565
 1208SOL     OW 5823   3.327   4.762   3.356 -0.2929  0.5529  0.2166
 1208SOL    HW1 5824   3.295   4.699   3.420  0.6021 -0.1242  0.0189
 1208SOL    HW2 5825   3.291   4.846   3.385  0.7637  0.4165  2.1339
 1209SOL     OW 5826   5.112   2.706   7.302 -0.6701  0.3203  0.7748
 1209SOL    HW1 5827   5.043   2.771   7.296 -1.1138 -0.2787 -1.1863
 1209SOL    HW2 5828   5.141   2.710   7.394 -3.7461  0.0826  1.8433
 1210SOL     OW 5829   7.286   0.499   7.752 -0.2928 -0.3357  0.3715
 1210SOL    HW1 5830   7.266   0.538   7.667  1.8366  1.6651  0.6752
 1210SOL    HW2 5831   7.213   0.524   7.808 -1.2280 -0.8164 -0.6099
 1211SOL     OW 5832   3.015   4.146   7.119 -0.2105  0.4248 -0.3233
 1211SOL    HW1 5833   2.951   4.192   7.064 -0.5116 -0.0743 -0.3931
 1211SOL    HW2 5834   3.087   4.125   7.060  0.5544  1.9814 -0.0097
 1212SOL     OW 5835   1.241   0.475   7.855  0.0656  0.2680  0.2971
 1212SOL    HW1 5836   1.257   0.543   7.921  3.5372 -1.6988  1.7158
 1212SOL    HW2 5837   1.305   0.493   7.786  0.5437 -1.1150  0.3583
 1213SOL     OW 5838   2.875   5.207   0.786  0.1246  0.0112 -0.1849
 1213SOL    HW1 5839   2.860   5.153   0.864  2.1154 -1.0335 -0.4785
 1213SOL    HW2 5840   2.927   5.281   0.818  0.0274  0.1536 -0.3546
 1214SOL     OW 5841   3.366   6.336   1.258 -0.5901  0.0184 -0.2969
 1214SOL    HW1 5842   3.433   6.381   1.207  1.0464  1.1529  2.5937
 1214SOL    HW2 5843   3.290   6.394   1.253  0.6107  1.8331  1.0959
 1215SOL     OW 5844   1.665   2.419   3.408 -0.2653  0.0212 -0.3089
 1215SOL    HW1 5845   1.714   2.371   3.475  0.6882  1.8833  0.3922
 1215SOL    HW2 5846   1.730   2.442   3.342 -0.8451 -0.2354 -0.9857
 1216SOL     OW 5847   3.909   3.877   5.803  0.1114 -0.2905 -0.3856
 1216SOL    HW1 5848   3.943   3.880   5.714  2.8096  1.3667  0.5819
 1216SOL    HW2 5849   3.873   3.965   5.818  3.2467  0.8850  1.2835
 1217SOL     OW 5850   8.585   3.883   8.652  0.3470 -0.4597  0.0275
 1217SOL    HW1 5851   8.632   3.801   8.663  1.2530  0.0567  0.1089
 1217SOL    HW2 5852   8.650   3.951   8.671 -0.7006  0.2639  1.1780
 1218SOL     OW 5853   3.502   4.897   5.056  0.0170  0.4493  0.8668
 1218SOL    HW1 5854   3.565   4.835   5.092 -0.1444  0.5803  1.3876
 1218SOL    HW2 5855   3.488   4.868   4.966  1.3179  0.7940  0.5248
 1219SOL     OW 5856   9.016   6.473   0.567 -0.5289 -0.3804 -0.3362
 1219SOL    HW1 5857   9.076   6.499   0.496  1.4855 -0.8600  1.0802
 1219SOL    HW2 5858   9.073   6.429   0.631 -2.2670 -0.0008  1.5677
 1220SOL     OW 5859   1.905   5.834   7.452  0.0964  0.2132 -0.5239
 1220SOL    HW1 5860   1.881   5.753   7.407  0.9422 -0.5888  0.4427
 1220SOL    HW2 5861   1.834   5.849   7.515  0.3617 -0.2422 -0.1141
 1221SOL     OW 5862   4.546   7.298   7.889  0.1750 -0.2162  0.0094
 1221SOL    HW1 5863   4.594   7.226   7.931 -0.2530 -0.3302  0.3143
 1221SOL    HW2 5864   4.479   7.254   7.837  1.6946 -0.1521 -2.1108
 1222SOL     OW 5865   1.606   4.252   2.665  0.1946  0.0822 -0.3915
 1222SOL    HW1 5866   1.638   4.220   2.750  1.5077  0.6644 -0.6453
 1222SOL    HW2 5867   1.588   4.345   2.680 -2.1389 -0.3483 -0.0729
 1223SOL     OW 5868   6.946   2.368   1.366 -0.2444 -0.0967  0.0650
 1223SOL    HW1 5869   6.929   2.335   1.278 -0.1631  0.8744 -0.3281
 1223SOL    HW2 5870   6.872   2.336   1.418 -1.7365  1.5113 -0.9444
 1224SOL     OW 5871   1.097   4.821   2.640  0.5050 -0.3994 -0.0018
 1224SOL    HW1 5872   1.073   4.811   2.733 -2.6660 -0.6649 -0.7298
 1224SOL    HW2 5873   1.122   4.732   2.613  0.3375 -0.5466  0.3169
 1225SOL     OW 5874   7.003   3.610   5.633 -0.2653  0.0503 -0.1325
 1225SOL    HW1 5875   6.967   3.695   5.609  2.0261  0.5133 -2.3322
 1225SOL    HW2 5876   7.052   3.581   5.556  0.9127 -2.2108  1.3277
 1226SOL     OW 5877   0.891   5.446   8.749  0.6604 -0.3862 -0.2420
 1226SOL    HW1 5878   0.825   5.509   8.779 -0.6674 -0.3614 -2.9126
 1226SOL    HW2 5879   0.845   5.362   8.749  1.3316 -0.7608 -0.0439
 1227SOL     OW 5880   7.224   8.973   6.133 -0.1657  0.2366 -0.5164
 1227SOL    HW1 5881   7.313   9.008   6.124  0.2421 -0.5050  0.5210
 1227SOL    HW2 5882   7.168   9.046   6.106  0.7530  0.5372 -1.7456
 1228SOL     OW 5883   2.741   7.286   1.943  0.6227  0.2452 -0.0365
 1228SOL    HW1 5884   2.777   7.198   1.931  1.7037  0.6566  0.1037
 1228SOL    HW2 5885   2.716   7.314   1.855 -2.6475 -1.3620  0.2375
 1229SOL     OW 5886   9.059   0.860   5.289 -0.0847  0.8404 -0.7936
 1229SOL    HW1 5887   9.069   0.859   5.194 -0.2843  0.1846 -0.8070
 1229SOL    HW2 5888   9.143   0.893   5.321  1.0849 -1.6558 -1.0589
 1230SOL     OW 5889   6.581   3.326   6.794 -0.4130 -0.5195 -0.0304
 1230SOL    HW1 5890   6.523   3.311   6.719 -1.4780  1.4594  0.3192
 1230SOL    HW2 5891   6.644   3.391   6.763 -0.0301 -0.6930  0.3808
 1231SOL     OW 5892   4.132   6.317   1.463 -0.0681 -0.0074  0.3837
 1231SOL    HW1 5893   4.213   6.366   1.472 -0.3941  0.7767 -0.6964
 1231SOL    HW2 5894   4.151   6.230   1.499  2.5431 -1.2621 -3.4415
 1232SOL     OW 5895   8.681   6.636   3.624 -0.4246 -0.5531 -0.6434
 1232SOL    HW1 5896   8.635   6.554   3.606 -0.8821  0.0232 -2.2180
 1232SOL    HW2 5897   8.612   6.701   3.636 -0.2049 -0.8185  3.4745
 1233SOL     OW 5898   2.460   5.276   1.469 -0.0973 -0.3765  0.3625
 1233SOL    HW1 5899   2.489   5.361   1.436 -0.0993 -0.3966  0.3081
 1233SOL    HW2 5900   2.411   5.297   1.549 -1.7792 -0.1490 -0.6839
 1234SOL     OW 5901   3.569   0.138   1.500  0.3785 -0.3043  0.0712
 1234SOL    HW1 5902   3.607   0.067   1.447  0.2286  0.7875 -1.5906
 1234SOL    HW2 5903   3.626   0.144   1.576  1.2697 -1.2285 -0.4894
 1235SOL     OW 5904   5.660   7.068   0.308  0.5622 -0.1968 -0.5766
 1235SOL    HW1 5905   5.713   6.989   0.321  1.0473  0.5113  2.8424
 1235SOL    HW2 5906   5.719   7.140   0.331 -0.6722  0.9406 -0.8813
 1236SOL     OW 5907   7.155   7.854   3.625  0.0005  0.2297  0.2870
 1236SOL    HW1 5908   7.128   7.773   3.583  0.9094 -0.2361  0.5823
 1236SOL    HW2 5909   7.250   7.849   3.629 -0.0047  0.7213  1.4890
 1237SOL     OW 5910   3.947   1.167   3.221 -0.3900  0.3874 -0.7868
 1237SOL    HW1 5911   3.916   1.216   3.145 -1.8507 -1.6106 -1.5534
 1237SOL    HW2 5912   3.882   1.098   3.234  1.0783 -0.7940  0.8124
 1238SOL     OW 5913   8.051   6.502   6.796 -0.4470 -0.0796  0.7019
 1238SOL    HW1 5914   8.086   6.581   6.756  0.4203 -1.3830 -1.3110
 1238SOL    HW2 5915   8.017   6.530   6.881 -0.4290  2.4745 -0.0565
 1239SOL     OW 5916   8.254   0.622   6.107 -0.1068 -0.3992 -0.0718
 1239SOL    HW1 5917   8.333   0.605   6.056  0.2296 -0.0943  0.3417
 1239SOL    HW2 5918   8.237   0.715   6.095 -0.8792 -0.6229 -0.8214
 1240SOL     OW 5919   0.473   3.545   7.880  0.3201 -0.1962  0.5162
 1240SOL    HW1 5920   0.531   3.621   7.888  0.4519 -0.0039 -1.7638
 1240SOL    HW2 5921   0.476   3.503   7.967  0.4486  2.2170  1.7611
 1241SOL     OW 5922   0.332   3.212   0.736 -0.1858 -0.5726 -0.0301
 1241SOL    HW1 5923   0.421   3.215   0.771 -0.0524  1.0981 -0.4447
 1241SOL    HW2 5924   0.295   3.131   0.773  1.1822 -0.8267  0.8816
 1242SOL     OW 5925   1.057   5.353   7.163 -0.0709 -0.5676 -0.1446
 1242SOL    HW1 5926   1.023   5.442   7.171  0.4465 -0.2295 -1.4895
 1242SOL    HW2 5927   1.006   5.302   7.227 -0.2427  0.7123  0.7640
 1243SOL     OW 5928   3.018   9.292   3.725 -0.0774  0.0550 -0.5259
 1243SOL    HW1 5929   3.065   9.342   3.792  0.2902  0.9288 -1.4165
 1243SOL    HW2 5930   2.982   9.217   3.773  0.1046  0.6941  0.6648
 1244SOL     OW 5931   6.996   8.410   9.255 -0.3316 -0.5979 -0.5540
 1244SOL    HW1 5932   6.961   8.382   9.170 -0.8326 -0.1976 -0.4822
 1244SOL    HW2 5933   6.983   8.505   9.256 -0.8985 -0.6775  0.2272
 1245SOL     OW 5934   2.079   2.938   0.623 -0.5319  0.0096  0.0951
 1245SOL    HW1 5935   2.079   2.848   0.590 -0.1727 -0.5934  1.6535
 1245SOL    HW2 5936   2.037   2.931   0.709 -0.3432  1.3044  0.3042
 1246SOL     OW 5937   8.368   1.748   4.567 -0.1046 -0.1204  0.4117
 1246SOL    HW1 5938   8.282   1.785   4.543 -0.1596 -0.0482  0.7140
 1246SOL    HW2 5939   8.369   1.751   4.662 -0.9129 -2.6684  0.5867
 1247SOL     OW 5940   6.991   2.379   6.113 -0.4981  0.4055 -0.0854
 1247SOL    HW1 5941   6.979   2.413   6.024 -0.4418  2.0017  0.4743
 1247SOL    HW2 5942   6.910   2.403   6.158 -0.2765  0.1522  0.4478
 1248SOL     OW 5943   3.575   6.863   8.776 -0.1203 -0.3815 -0.1558
 1248SOL    HW1 5944   3.558   6.789   8.834 -1.3602 -0.6916 -0.8800
 1248SOL    HW2 5945   3.658   6.841   8.733 -0.1254 -1.0128  0.1507
 1249SOL     OW 5946   5.011   9.197   8.045  0.0100 -0.0640 -0.6045
 1249SOL    HW1 5947   5.095   9.168   8.010  0.1548  0.5852 -0.8070
 1249SOL    HW2 5948   5.008   9.159   8.133 -0.5417 -2.0531 -1.4323
 1250SOL     OW 5949   1.116   0.378   2.889  0.0429 -0.4121  0.0482
 1250SOL    HW1 5950   1.071   0.462   2.892  0.5147 -0.1906  2.0408
 1250SOL    HW2 5951   1.200   0.398   2.847 -1.0526 -0.5645 -2.4019
 1251SOL     OW 5952   2.937   4.320   5.860 -0.5187  0.1879 -0.2252
 1251SOL    HW1 5953   2.958   4.269   5.939  0.9141  0.6590 -0.2818
 1251SOL    HW2 5954   2.973   4.269   5.788  0.2973  0.9107 -0.3457
 1252SOL     OW 5955   8.374   8.956   3.414  0.3140  0.7117 -0.5379
 1252SOL    HW1 5956   8.326   8.878   3.441  0.9705  0.2252 -0.7392
 1252SOL    HW2 5957   8.345   9.024   3.474 -0.7806  0.4873 -0.7909
 1253SOL     OW 5958   0.887   8.763   5.825 -0.2899 -0.7718  0.6335
 1253SOL    HW1 5959   0.855   8.687   5.874  0.4101 -0.5929  1.3917
 1253SOL    HW2 5960   0.979   8.770   5.849 -0.2349  0.0561  0.2209
 1254SOL     OW 5961   5.425   6.466   1.090  0.1763  0.2803 -0.5139
 1254SOL    HW1 5962   5.513   6.505   1.096 -0.8450  2.5667  0.7895
 1254SOL    HW2 5963   5.370   6.536   1.056 -1.6755 -0.1461  1.4150
 1255SOL     OW 5964   7.505   3.003   5.361  0.7302 -0.1356  0.5088
 1255SOL    HW1 5965   7.493   3.098   5.368  2.3571  0.0215  1.4766
 1255SOL    HW2 5966   7.426   2.966   5.401  0.0867  0.7842  0.1378
 1256SOL     OW 5967   4.180   4.213   4.668 -0.1428  0.3127  0.4146
 1256SOL    HW1 5968   4.179   4.186   4.576 -1.7058  2.2677 -0.2091
 1256SOL    HW2 5969   4.256   4.272   4.674 -0.7134  1.1025  0.0565
 1257SOL     OW 5970   2.388   0.578   2.536 -0.6469 -0.0488 -0.7341
 1257SOL    HW1 5971   2.304   0.623   2.533 -0.1969  0.8455 -0.1241
 1257SOL    HW2 5972   2.435   0.608   2.458  0.1746  1.6201  0.3525
 1258SOL     OW 5973   6.005   1.478   2.677 -0.1633  0.0486 -1.1412
 1258SOL    HW1 5974   6.071   1.496   2.610  1.0787 -0.6480 -0.1457
 1258SOL    HW2 5975   6.034   1.526   2.754 -0.3345 -0.9621 -0.4233
 1259SOL     OW 5976   4.334   6.241   7.255 -0.0433 -0.1589  0.4972
 1259SOL    HW1 5977   4.262   6.180   7.243  0.0250  0.1002 -1.5831
 1259SOL    HW2 5978   4.400   6.192   7.304 -0.7727 -1.0884  0.5743
 1260SOL     OW 5979   3.355   2.333   6.357  0.2154  0.4532 -0.2888
 1260SOL    HW1 5980   3.299   2.403   6.324 -0.4118 -0.1536 -0.5564
 1260SOL    HW2 5981   3.359   2.270   6.284 -2.1983 -1.5074  1.0925
 1261SOL     OW 5982   0.108   6.930   9.545 -0.4096  0.5242 -1.0274
 1261SOL    HW1 5983   0.035   6.877   9.513 -0.3060 -0.4326  0.2312
 1261SOL    HW2 5984   0.150   6.963   9.466 -1.8180  0.5715 -1.7863
 1262SOL     OW 5985   7.749   0.629   7.762  0.5755  0.5572  0.0173
 1262SOL    HW1 5986   7.662   0.612   7.797  0.2832  1.0820 -0.4387
 1262SOL    HW2 5987   7.749   0.722   7.741  1.4291  0.6780  0.5173
 1263SOL     OW 5988   5.980   7.828   5.926  0.2358 -0.2259 -0.1712
 1263SOL    HW1 5989   6.063   7.861   5.892  0.4091 -0.4966 -0.0113
 1263SOL    HW2 5990   5.998   7.806   6.017 -0.4436  1.3046  0.3629
 1264SOL     OW 5991   2.340   8.364   7.622 -0.1431 -0.3250 -0.5186
 1264SOL    HW1 5992   2.286   8.443   7.616 -0.0431 -0.0010  2.0147
 1264SOL    HW2 5993   2.363   8.357   7.714  3.2110 -1.1161 -1.2923
 1265SOL     OW 5994   4.587   1.229   5.731  0.3966  0.3854 -0.1999
 1265SOL    HW1 5995   4.606   1.282   5.808  1.3444 -0.4797  0.1772
 1265SOL    HW2 5996   4.557   1.145   5.767  1.0462 -0.0936 -0.7678
 1266SOL     OW 5997   0.872   4.523   4.794 -0.1166  0.9385 -0.3363
 1266SOL    HW1 5998   0.855   4.574   4.873 -0.9458 -0.0450  0.1613
 1266SOL    HW2 5999   0.933   4.455   4.823 -2.3609 -1.0065  0.1980
 1267SOL     OW 6000   1.624   1.073   0.916  0.1227  0.0378 -0.0302
 1267SOL    HW1 6001   1.549   1.117   0.958 -0.0441  0.3805 -0.6693
 1267SOL    HW2 6002   1.584   1.010   0.857  0.3683 -1.1910  1.0794
 1268SOL     OW 6003   8.906   2.996   3.049  0.2316 -0.4135 -0.8473
 1268SOL    HW1 6004   8.878   2.963   3.134  0.2607 -0.8739 -1.0153
 1268SOL    HW2 6005   8.824   3.015   3.003  0.2182  0.2101 -0.5736
 1269SOL     OW 6006   7.148   4.754   9.024 -0.5462 -0.4544 -0.5046
 1269SOL    HW1 6007   7.208   4.758   9.098  0.6824 -1.5608 -1.4134
 1269SOL    HW2 6008   7.174   4.828   8.968 -0.2373 -0.7226 -0.7230
 1270SOL     OW 6009   3.817   9.360   5.361 -0.5216  0.5601 -0.1255
 1270SOL    HW1 6010   3.830   9.278   5.312 -2.2639  0.6384 -0.7948
 1270SOL    HW2 6011   3.750   9.407   5.311 -0.6926  1.6906  1.1157
 1271SOL     OW 6012   6.843   4.088   4.065 -0.3331 -0.2498  0.2672
 1271SOL    HW1 6013   6.793   4.169   4.052  0.4201  0.0002 -1.2489
 1271SOL    HW2 6014   6.834   4.069   4.159 -1.6679  0.8214  0.3855
 1272SOL     OW 6015   5.649   5.199   3.236 -0.0757  0.1777  0.2525
 1272SOL    HW1 6016   5.611   5.145   3.306  1.2127 -0.4521  0.4887
 1272SOL    HW2 6017   5.607   5.284   3.246  0.5840  0.3212  2.2506
 1273SOL     OW 6018   6.200   8.901   7.731  0.7562  0.5947  0.2776
 1273SOL    HW1 6019   6.281   8.952   7.733  0.1003  1.6729 -0.1123
 1273SOL    HW2 6020   6.132   8.965   7.714 -0.1830 -0.3134  0.5435
 1274SOL     OW 6021   0.830   5.455   0.059  0.0855  0.3928 -0.5857
 1274SOL    HW1 6022   0.797   5.375   0.017 -2.6218  2.4830 -2.8915
 1274SOL    HW2 6023   0.772   5.467   0.134  0.8037 -0.0134  0.0456
 1275SOL     OW 6024   8.191   1.630   8.689  0.2937 -0.5101  0.0799
 1275SOL    HW1 6025   8.191   1.721   8.718  3.7603 -0.3918  0.2384
 1275SOL    HW2 6026   8.143   1.583   8.757  1.3038  0.8282  1.8402
 1276SOL     OW 6027   0.205   5.346   9.197 -0.3978  0.0754  0.8521
 1276SOL    HW1 6028   0.239   5.267   9.239 -0.6260 -0.9723 -0.8680
 1276SOL    HW2 6029   0.118   5.322   9.167 -0.5599  1.0596  0.4808
 1277SOL     OW 6030   5.777   8.028   0.891 -0.0188  0.0263 -0.2661
 1277SOL    HW1 6031   5.741   8.079   0.819  0.6179  0.5801 -0.1979
 1277SOL    HW2 6032   5.741   8.069   0.970  0.2314  0.1549 -0.2213
 1278SOL     OW 6033   5.754   0.921   4.934  0.1544  0.1210  0.1365
 1278SOL    HW1 6034   5.675   0.957   4.974 -0.2610  0.8743 -1.3018
 1278SOL    HW2 6035   5.826   0.954   4.987 -0.3138  1.9183 -0.2979
 1279SOL     OW 6036   3.044   2.749   2.074 -0.5289  0.7629  0.1559
 1279SOL    HW1 6037   3.004   2.760   1.987 -0.6418 -0.7164 -0.0117
 1279SOL    HW2 6038   2.980   2.784   2.135 -1.1426  0.3798 -0.2601
 1280SOL     OW 6039   5.255   3.631   2.603  0.4721  0.5328 -0.2460
 1280SOL    HW1 6040   5.317   3.658   2.535  1.7296 -2.5386 -0.4616
 1280SOL    HW2 6041   5.169   3.654   2.567  1.1388 -0.3213 -2.5772
 1281SOL     OW 6042   1.616   5.908   4.233 -0.3928 -0.3827 -0.1331
 1281SOL    HW1 6043   1.606   5.815   4.212 -1.6214 -0.3019 -0.0102
 1281SOL    HW2 6044   1.551   5.951   4.177 -0.2864  0.3266  0.2853
 1282SOL     OW 6045   2.313   1.461   8.851 -0.1881  0.3054  0.2197
 1282SOL    HW1 6046   2.240   1.523   8.843 -0.3408  0.2219  0.8680
 1282SOL    HW2 6047   2.279   1.392   8.908  1.3051  1.7078  3.0129
 1283SOL     OW 6048   8.204   3.471   6.602  0.6390  0.7379 -0.0858
 1283SOL    HW1 6049   8.262   3.448   6.529  1.5407 -0.3121  0.9316
 1283SOL    HW2 6050   8.254   3.534   6.654 -0.3645  2.2237 -0.8154
 1284SOL     OW 6051   0.536   1.057   9.551 -0.1949 -0.3370  0.1844
 1284SOL    HW1 6052   0.593   1.090   9.482  1.4912 -0.2746  1.5370
 1284SOL    HW2 6053   0.465   1.122   9.555  0.1531  0.1392 -0.8588
 1285SOL     OW 6054   4.720   7.816   9.372 -0.0162  0.1376 -0.3184
 1285SOL    HW1 6055   4.778   7.883   9.410 -0.1917  0.6219 -0.9007
 1285SOL    HW2 6056   4.780   7.752   9.334  0.1462  0.1087 -0.0223
 1286SOL     OW 6057   1.300   7.922   9.345  0.3964 -0.0435  0.5294
 1286SOL    HW1 6058   1.311   7.874   9.263  0.1952 -0.9391  1.0241
 1286SOL    HW2 6059   1.386   7.961   9.361  0.2941  0.6046 -0.3794
 1287SOL     OW 6060   8.479   4.622   1.204  0.1606  0.0387 -0.1719
 1287SOL    HW1 6061   8.573   4.611   1.216  0.0286 -1.0685 -0.0445
 1287SOL    HW2 6062   8.471   4.666   1.119  0.7514 -1.9965 -1.3554
 1288SOL     OW 6063   3.320   8.606   0.599 -0.0725  0.2860 -0.3302
 1288SOL    HW1 6064   3.241   8.596   0.651 -0.9811 -0.1991 -1.7451
 1288SOL    HW2 6065   3.294   8.660   0.525  1.5352  2.1731  0.3838
 1289SOL     OW 6066   8.291   8.430   8.357  0.5519 -0.2895 -0.4179
 1289SOL    HW1 6067   8.382   8.409   8.375  0.4359 -0.2296  0.2543
 1289SOL    HW2 6068   8.273   8.507   8.411  0.3894  0.3197 -1.3134
 1290SOL     OW 6069   7.632   5.344   1.178 -0.4010  0.0353 -0.0295
 1290SOL    HW1 6070   7.624   5.436   1.201  2.8201  0.1454  1.2101
 1290SOL    HW2 6071   7.587   5.297   1.248  0.1679  0.6416  0.7599
 1291SOL     OW 6072   7.568   2.663   9.222  0.0384  0.1726 -0.1081
 1291SOL    HW1 6073   7.587   2.580   9.265  0.2793  0.9931  1.4316
 1291SOL    HW2 6074   7.654   2.701   9.205 -0.0931  0.5507  0.0829
 1292SOL     OW 6075   1.317   0.575   6.243 -0.3894  0.2177  0.1302
 1292SOL    HW1 6076   1.364   0.652   6.274 -0.0287  0.4915 -1.0249
 1292SOL    HW2 6077   1.361   0.552   6.161 -2.3145  0.5515 -1.0695
 1293SOL     OW 6078   8.999   5.457   3.668  0.2351 -0.4237  0.0217
 1293SOL    HW1 6079   8.919   5.493   3.706  0.9198  1.7801 -0.4644
 1293SOL    HW2 6080   9.047   5.423   3.744 -0.0846  0.4859  0.6579
 1294SOL     OW 6081   0.181   9.373   4.447 -0.0883  0.3395  0.3231
 1294SOL    HW1 6082   0.254   9.330   4.491 -1.2331  0.0464  2.0497
 1294SOL    HW2 6083   0.107   9.314   4.460 -1.5201  2.3619  2.0472
 1295SOL     OW 6084   3.014   7.989   9.040  0.5024 -0.2739  0.0738
 1295SOL    HW1 6085   2.938   7.930   9.047 -0.0354  0.3508 -0.4310
 1295SOL    HW2 6086   3.061   7.958   8.963  0.5607 -0.4199  0.1661
 1296SOL     OW 6087   1.656   3.220   6.008 -0.1846 -0.1087  0.0938
 1296SOL    HW1 6088   1.696   3.192   5.926  0.4162 -1.2465  0.7381
 1296SOL    HW2 6089   1.609   3.142   6.040 -0.6657  0.4040  0.6702
 1297SOL     OW 6090   7.043   3.942   8.647 -0.2263  0.6482 -0.3454
 1297SOL    HW1 6091   6.987   3.903   8.714 -1.0215 -1.3354 -2.0396
 1297SOL    HW2 6092   7.132   3.932   8.682 -0.6051 -0.4641  0.3742
 1298SOL     OW 6093   8.121   1.595   5.545 -0.2036 -0.3267  0.0174
 1298SOL    HW1 6094   8.132   1.501   5.556  0.0202 -0.6490 -2.4367
 1298SOL    HW2 6095   8.200   1.624   5.500  1.0900  1.6359  3.1810
 1299SOL     OW 6096   9.401   4.534   3.124  0.4006  0.4220  0.1740
 1299SOL    HW1 6097   9.493   4.509   3.117  0.3318  0.1572  0.2383
 1299SOL    HW2 6098   9.359   4.462   3.171  0.4258  1.1957  1.4228
 1300SOL     OW 6099   6.416   5.394   6.801  0.0339 -0.5537 -0.0465
 1300SOL    HW1 6100   6.438   5.411   6.893  0.3137 -1.7390  0.1266
 1300SOL    HW2 6101   6.499   5.401   6.755  0.2050 -1.6337  0.0706
 1301SOL     OW 6102   5.817   8.547   2.436 -0.1655 -0.5121 -0.3289
 1301SOL    HW1 6103   5.819   8.613   2.505  1.1031  2.6809 -3.1416
 1301SOL    HW2 6104   5.888   8.487   2.459 -1.3777 -1.0738  2.3361
 1302SOL     OW 6105   5.015   1.785   5.395 -0.2305  0.5204 -0.1750
 1302SOL    HW1 6106   5.007   1.791   5.300  1.4983  1.9808 -0.2653
 1302SOL    HW2 6107   5.078   1.853   5.418  0.6396 -0.8923  1.8457
 1303SOL     OW 6108   4.624   0.379   4.104 -0.8082  0.1517 -0.7750
 1303SOL    HW1 6109   4.554   0.441   4.126  0.1403  1.0040 -0.0751
 1303SOL    HW2 6110   4.685   0.384   4.178  0.6237  0.3644 -1.9271
 1304SOL     OW 6111   4.822   1.319   8.162  0.1735  0.7367 -0.3320
 1304SOL    HW1 6112   4.820   1.366   8.245  0.1891  0.1340  0.0183
 1304SOL    HW2 6113   4.916   1.309   8.142  0.1727  0.6129 -0.2693
 1305SOL     OW 6114   8.405   3.364   5.132 -0.1356 -0.1136  0.2312
 1305SOL    HW1 6115   8.498   3.361   5.108 -0.0375 -0.2553  0.6169
 1305SOL    HW2 6116   8.396   3.298   5.201 -0.4447  0.1622  0.4578
 1306SOL     OW 6117   5.281   2.614   3.071  0.0362  0.0655 -0.5980
 1306SOL    HW1 6118   5.261   2.675   3.142  1.4057  0.2595 -0.3608
 1306SOL    HW2 6119   5.221   2.540   3.086  0.2186  0.1554  0.6912
 1307SOL     OW 6120   9.158   1.295   1.287  0.0257 -0.0060  0.6482
 1307SOL    HW1 6121   9.235   1.346   1.262  0.6545 -1.1187  0.2445
 1307SOL    HW2 6122   9.097   1.305   1.213  1.1302 -1.7687 -0.5790
 1308SOL     OW 6123   2.142   7.969   9.285  0.8126 -0.1650 -0.1076
 1308SOL    HW1 6124   2.059   8.016   9.287  0.2783 -1.0602 -0.5544
 1308SOL    HW2 6125   2.191   8.009   9.214  0.9983  0.7320  0.5072
 1309SOL     OW 6126   4.626   2.181   4.368  0.3957 -0.1087  0.2970
 1309SOL    HW1 6127   4.708   2.228   4.387  2.6248 -2.9760 -1.3162
 1309SOL    HW2 6128   4.598   2.217   4.284 -0.3649  1.2435  1.0949
 1310SOL     OW 6129   1.898   6.734   8.057 -0.3321  0.6754 -0.2007
 1310SOL    HW1 6130   1.938   6.791   7.991 -1.5491  0.3690 -1.2434
 1310SOL    HW2 6131   1.971   6.682   8.091  0.2179  0.3121 -1.8413
 1311SOL     OW 6132   3.716   1.685   4.500  0.3634 -0.0860  0.0595
 1311SOL    HW1 6133   3.704   1.745   4.426 -1.2394 -1.0790 -0.5470
 1311SOL    HW2 6134   3.628   1.671   4.534  0.8437 -1.1498  0.9497
 1312SOL     OW 6135   6.678   3.081   6.977 -0.0548 -0.1847 -0.2995
 1312SOL    HW1 6136   6.639   3.099   7.062  1.5068  0.7660  0.2658
 1312SOL    HW2 6137   6.615   3.116   6.913 -0.6086  0.3470  0.5206
 1313SOL     OW 6138   9.132   5.533   7.918 -0.1330  0.0608  0.3224
 1313SOL    HW1 6139   9.046   5.494   7.932  0.5075 -1.6487 -0.1773
 1313SOL    HW2 6140   9.114   5.622   7.889 -1.7989 -0.7986 -1.4684
 1314SOL     OW 6141   6.397   7.590   9.468  0.1052  0.0689  0.1144
 1314SOL    HW1 6142   6.403   7.620   9.377  1.3940 -1.1046 -0.2185
 1314SOL    HW2 6143   6.308   7.615   9.495  0.3336  2.1069 -0.8319
 1315SOL     OW 6144   0.427   1.528   0.040 -1.0143 -0.2842 -0.1962
 1315SOL    HW1 6145   0.376   1.588   0.094 -0.9406  0.3572 -0.8306
 1315SOL    HW2 6146   0.506   1.511   0.092 -1.3411 -0.3911  0.2842
 1316SOL     OW 6147   0.139   7.818   0.927 -0.2136  0.4555 -0.1737
 1316SOL    HW1 6148   0.182   7.751   0.981 -0.0992  1.4144  0.9826
 1316SOL    HW2 6149   0.171   7.802   0.838  0.3734 -0.5650  0.2046
 1317SOL     OW 6150   3.114   2.275   4.287 -0.6833 -0.3827  0.0284
 1317SOL    HW1 6151   3.095   2.269   4.193  1.7621 -1.2923 -0.4879
 1317SOL    HW2 6152   3.108   2.369   4.306  0.2629  0.0201 -1.4341
 1318SOL     OW 6153   6.809   5.432   1.324 -0.1037 -0.2370 -0.1703
 1318SOL    HW1 6154   6.757   5.442   1.244  0.0150  1.5169 -0.0620
 1318SOL    HW2 6155   6.899   5.450   1.297  0.0955 -0.7216  0.1513
 1319SOL     OW 6156   7.437   3.918   7.601 -0.1461  0.0238  0.5829
 1319SOL    HW1 6157   7.390   3.899   7.683  0.0074 -1.3720  0.3815
 1319SOL    HW2 6158   7.376   3.971   7.550 -1.3701 -1.3652  0.5168
 1320SOL     OW 6159   3.301   8.828   7.514 -0.2284 -0.1450  0.3848
 1320SOL    HW1 6160   3.325   8.735   7.513 -0.9601 -0.3544  1.1611
 1320SOL    HW2 6161   3.256   8.840   7.598 -1.1947  0.6499 -0.2267
 1321SOL     OW 6162   3.398   5.864   7.058  0.9526 -0.1947  0.3120
 1321SOL    HW1 6163   3.456   5.794   7.027  1.6651  0.8994 -0.9045
 1321SOL    HW2 6164   3.440   5.897   7.137  2.1178  0.6931 -0.6432
 1322SOL     OW 6165   0.761   9.131   7.718  0.2096  0.3447  0.0305
 1322SOL    HW1 6166   0.845   9.167   7.746  1.0494 -0.5135 -1.3223
 1322SOL    HW2 6167   0.717   9.204   7.673  1.1065  0.2300 -1.0557
 1323SOL     OW 6168   7.925   1.251   8.026  0.0687  0.2529 -0.5114
 1323SOL    HW1 6169   7.899   1.342   8.045  1.6756  0.8052 -0.7812
 1323SOL    HW2 6170   7.874   1.199   8.087 -1.1572  1.3087 -0.5943
 1324SOL     OW 6171   7.270   2.429   3.338  0.3843  0.1498 -0.2114
 1324SOL    HW1 6172   7.333   2.361   3.359 -0.0434 -0.5431 -1.1485
 1324SOL    HW2 6173   7.254   2.472   3.422  1.5410 -0.1251  0.1718
 1325SOL     OW 6174   4.579   8.606   8.250  0.2036 -0.4129 -0.7055
 1325SOL    HW1 6175   4.533   8.677   8.207 -0.7058 -0.4061  0.2287
 1325SOL    HW2 6176   4.525   8.529   8.234 -0.5424 -0.2819  0.9658
 1326SOL     OW 6177   5.673   3.523   2.369  0.2414 -0.1487  0.3954
 1326SOL    HW1 6178   5.595   3.578   2.370  1.0220  1.0001  0.4961
 1326SOL    HW2 6179   5.744   3.581   2.398  1.0544 -1.2835  0.7682
 1327SOL     OW 6180   6.044   5.394   9.175  0.0877 -0.6168 -0.2142
 1327SOL    HW1 6181   6.054   5.306   9.211 -1.3924 -0.8823 -0.3912
 1327SOL    HW2 6182   6.134   5.422   9.154  0.7183 -1.5136  1.1442
 1328SOL     OW 6183   3.607   2.038   3.391  0.5704 -0.2776  0.1867
 1328SOL    HW1 6184   3.590   2.078   3.477  0.3745 -1.5153  0.7361
 1328SOL    HW2 6185   3.633   1.949   3.411  1.3472 -0.3289 -1.0172
 1329SOL     OW 6186   5.434   4.590   6.036 -0.0501  0.2111 -0.1629
 1329SOL    HW1 6187   5.422   4.515   5.978  0.1007 -0.2564  0.3989
 1329SOL    HW2 6188   5.477   4.656   5.982 -2.0750  0.7067 -1.3023
 1330SOL     OW 6189   3.108   2.993   5.331  0.1970  0.5318 -0.2214
 1330SOL    HW1 6190   3.130   3.041   5.251 -0.5630  0.3072 -0.5738
 1330SOL    HW2 6191   3.073   2.910   5.300 -0.1060  0.4441  0.3451
 1331SOL     OW 6192   4.366   7.292   4.206 -0.6467 -0.0301  0.0750
 1331SOL    HW1 6193   4.370   7.288   4.302  0.1594 -0.1840  0.0473
 1331SOL    HW2 6194   4.304   7.223   4.182 -1.2379  0.3361  0.5017
 1332SOL     OW 6195   8.112   5.643   2.818 -0.5161  0.7282 -0.3439
 1332SOL    HW1 6196   8.030   5.689   2.799 -0.0661  1.3716 -0.7940
 1332SOL    HW2 6197   8.105   5.561   2.770  0.4251  2.1435 -3.0708
 1333SOL     OW 6198   2.969   5.596   7.813 -0.1337  0.1947  0.0827
 1333SOL    HW1 6199   3.063   5.580   7.820  0.1559  1.4684 -0.6003
 1333SOL    HW2 6200   2.933   5.511   7.786  0.7337 -0.4395  0.8393
 1334SOL     OW 6201   0.477   8.150   8.703  0.0966  0.5918  0.4871
 1334SOL    HW1 6202   0.495   8.147   8.797  0.6750 -2.0052  0.3608
 1334SOL    HW2 6203   0.563   8.139   8.661 -0.4021 -0.5589 -0.2828
 1335SOL     OW 6204   8.884   1.688   2.231 -0.1871 -0.3868 -0.2442
 1335SOL    HW1 6205   8.949   1.740   2.280  0.9630 -2.8677  1.0439
 1335SOL    HW2 6206   8.928   1.665   2.149 -0.9429  1.1310 -1.1151
 1336SOL     OW 6207   5.140   4.828   7.047 -0.0072  0.5781 -0.3561
 1336SOL    HW1 6208   5.192   4.850   7.124 -2.1076  1.2676  0.9708
 1336SOL    HW2 6209   5.148   4.733   7.038  3.0689  0.8371 -1.5028
 1337SOL     OW 6210   8.409   0.417   3.433 -0.0376  0.1197 -0.1699
 1337SOL    HW1 6211   8.455   0.498   3.455 -0.7317  0.4059  0.2515
 1337SOL    HW2 6212   8.331   0.417   3.488  1.5418 -2.4289  2.3521
 1338SOL     OW 6213   9.350   9.092   1.698 -0.2951 -0.2926 -0.5834
 1338SOL    HW1 6214   9.361   9.047   1.614  1.3525 -0.9886 -0.0390
 1338SOL    HW2 6215   9.277   9.152   1.684 -0.2052 -0.5615 -2.4356
 1339SOL     OW 6216   1.788   4.093   1.899 -0.2737 -0.1302 -0.6118
 1339SOL    HW1 6217   1.869   4.129   1.936 -0.4581  0.6081 -0.9173
 1339SOL    HW2 6218   1.797   3.998   1.908  0.3076 -0.0168  0.0233
 1340SOL     OW 6219   1.161   8.190   2.349  0.3434  0.2525  0.1888
 1340SOL    HW1 6220   1.249   8.221   2.372  0.1389  0.6462  0.4665
 1340SOL    HW2 6221   1.116   8.268   2.317 -0.4255  0.4455  1.6256
 1341SOL     OW 6222   7.211   3.569   3.459  0.3550 -0.0081  0.0649
 1341SOL    HW1 6223   7.127   3.581   3.502 -0.6569 -3.5936 -0.5664
 1341SOL    HW2 6224   7.189   3.554   3.367  1.9673  1.6413 -0.6553
 1342SOL     OW 6225   5.080   0.556   5.993 -0.0615 -0.1177  0.1536
 1342SOL    HW1 6226   5.147   0.503   6.036  1.5141  1.7714  0.1602
 1342SOL    HW2 6227   5.010   0.494   5.972  1.1855 -1.9552  1.1542
 1343SOL     OW 6228   0.098   6.387   1.723  0.0369  0.3942 -0.2999
 1343SOL    HW1 6229   0.073   6.362   1.812 -0.5342 -0.6478 -0.7429
 1343SOL    HW2 6230   0.129   6.477   1.732 -1.7487  0.9526  0.6486
 1344SOL     OW 6231   6.874   3.255   6.304 -0.0921  0.0486 -0.2113
 1344SOL    HW1 6232   6.840   3.165   6.305 -2.2443  0.8185 -0.0175
 1344SOL    HW2 6233   6.842   3.293   6.386  2.3234  0.5105  0.6029
 1345SOL     OW 6234   3.338   5.106   6.921 -0.0315 -0.2670  0.5576
 1345SOL    HW1 6235   3.376   5.193   6.908 -0.9937  0.0057 -0.6740
 1345SOL    HW2 6236   3.402   5.046   6.884  0.0303  0.0287  0.1835
 1346SOL     OW 6237   0.967   4.484   1.694  0.1962 -0.1588 -0.2135
 1346SOL    HW1 6238   0.967   4.579   1.683  0.1468 -0.0138  0.8975
 1346SOL    HW2 6239   0.964   4.449   1.605 -1.2310  0.8771 -0.5948
 1347SOL     OW 6240   0.872   2.729   3.454 -0.2808 -0.2074 -0.0834
 1347SOL    HW1 6241   0.932   2.781   3.400  0.4395 -2.5288 -1.6332
 1347SOL    HW2 6242   0.787   2.737   3.411  0.3671 -2.3534 -1.8927
 1348SOL     OW 6243   6.018   7.907   4.117 -0.3720 -0.0512  0.0349
 1348SOL    HW1 6244   6.098   7.958   4.129 -1.4417  2.0282 -1.0810
 1348SOL    HW2 6245   6.047   7.816   4.119  1.6333  0.5266  2.1525
 1349SOL     OW 6246   7.478   9.136   6.477 -0.0264  0.3513  0.1503
 1349SOL    HW1 6247   7.485   9.065   6.541 -0.5076  0.9629  0.8983
 1349SOL    HW2 6248   7.403   9.111   6.422  0.0262  0.1135  0.1841
 1350SOL     OW 6249   0.066   6.014   8.649 -0.4095  0.5711 -0.3118
 1350SOL    HW1 6250  -0.013   5.986   8.696  0.7155  0.0776  1.3799
 1350SOL    HW2 6251   0.122   5.937   8.649  0.7933  1.4223  0.1227
 1351SOL     OW 6252   0.679   2.736   5.488 -0.7358 -0.1744 -0.2374
 1351SOL    HW1 6253   0.640   2.659   5.529 -1.7452  0.1851 -0.4798
 1351SOL    HW2 6254   0.773   2.728   5.506 -1.0945 -0.2080  1.7894
 1352SOL     OW 6255   3.683   4.857   7.918 -0.0614 -0.0231  0.2184
 1352SOL    HW1 6256   3.730   4.877   7.837 -0.7575 -0.3616 -0.2852
 1352SOL    HW2 6257   3.601   4.906   7.910 -0.1579 -0.1032  0.6963
 1353SOL     OW 6258   7.649   3.031   4.746 -0.1369  0.2504  0.1644
 1353SOL    HW1 6259   7.687   2.966   4.805  0.5392  1.0284  0.6023
 1353SOL    HW2 6260   7.588   2.981   4.691 -0.5401 -0.5525  1.3007
 1354SOL     OW 6261   1.101   8.389   6.629 -0.0603 -0.2246 -0.6054
 1354SOL    HW1 6262   1.135   8.427   6.549  0.9133 -2.9755 -1.6237
 1354SOL    HW2 6263   1.014   8.357   6.605 -0.2891  0.0735 -0.1835
 1355SOL     OW 6264   5.748   8.954   0.546  0.1843  0.4306  0.1513
 1355SOL    HW1 6265   5.692   8.985   0.475  1.6365 -0.0863 -1.2781
 1355SOL    HW2 6266   5.746   9.024   0.611 -1.3635  0.8084 -0.2725
 1356SOL     OW 6267   4.568   3.548   3.373 -0.2123 -0.0501  0.2256
 1356SOL    HW1 6268   4.487   3.498   3.364 -1.3148  1.4280  1.5294
 1356SOL    HW2 6269   4.573   3.570   3.466  2.0802 -0.6963  0.3283
 1357SOL     OW 6270   8.922   5.126   1.945  0.2334  0.4076 -0.3740
 1357SOL    HW1 6271   8.904   5.214   1.978  2.1341  0.4091  0.8164
 1357SOL    HW2 6272   8.962   5.140   1.859  0.3506  0.7012 -0.2708
 1358SOL     OW 6273   7.744   2.168   3.809 -0.2689 -0.0326 -0.0825
 1358SOL    HW1 6274   7.753   2.227   3.883  0.6732 -0.0069 -0.2077
 1358SOL    HW2 6275   7.730   2.082   3.849  2.0015 -0.3239  0.1945
 1359SOL     OW 6276   6.441   6.953   6.531 -0.2946 -0.1490  0.9692
 1359SOL    HW1 6277   6.406   7.039   6.553 -0.1818 -0.1523  1.1629
 1359SOL    HW2 6278   6.413   6.896   6.602 -0.8856 -0.4064  0.5330
 1360SOL     OW 6279   2.332   6.581   6.193 -0.2939  0.0797  1.0135
 1360SOL    HW1 6280   2.348   6.529   6.271 -1.1583 -0.8251  0.5965
 1360SOL    HW2 6281   2.248   6.624   6.209 -1.3522 -1.4651 -0.0925
 1361SOL     OW 6282   0.234   0.138   5.629 -0.6079  0.2145 -0.1386
 1361SOL    HW1 6283   0.250   0.131   5.535  0.6383  1.1321 -0.0131
 1361SOL    HW2 6284   0.176   0.064   5.649  0.4159 -0.9641 -1.3295
 1362SOL     OW 6285   0.949   5.985   7.166  0.0363 -0.1781  0.5786
 1362SOL    HW1 6286   0.881   6.007   7.230 -1.0756 -1.4975 -0.1202
 1362SOL    HW2 6287   1.019   5.946   7.219 -0.3664 -0.1781  1.1175
 1363SOL     OW 6288   6.491   3.200   6.324 -0.8503  0.4622 -0.2457
 1363SOL    HW1 6289   6.443   3.277   6.354 -1.0750 -0.1425  1.0205
 1363SOL    HW2 6290   6.562   3.190   6.388  0.3782  0.7413 -1.5027
 1364SOL     OW 6291   6.483   6.653   4.179 -0.9802  0.4085  0.0618
 1364SOL    HW1 6292   6.465   6.599   4.103  2.4580  1.4592 -1.6654
 1364SOL    HW2 6293   6.547   6.604   4.230 -1.8265  0.5618  1.3138
 1365SOL     OW 6294   5.282   4.596   2.436  0.0345 -0.5586 -0.5097
 1365SOL    HW1 6295   5.307   4.503   2.434  0.9440 -0.3598  0.7247
 1365SOL    HW2 6296   5.342   4.636   2.498 -0.2886  0.8955 -1.0909
 1366SOL     OW 6297   7.805   1.418   4.551 -0.0691  0.3704 -0.0333
 1366SOL    HW1 6298   7.781   1.497   4.502  0.6871  1.6190  1.5043
 1366SOL    HW2 6299   7.865   1.450   4.619  2.1231 -1.8810 -0.7612
 1367SOL     OW 6300   4.796   2.720   4.942  0.0687 -0.0491  0.1375
 1367SOL    HW1 6301   4.800   2.736   5.036  4.1696 -0.2831  0.1765
 1367SOL    HW2 6302   4.810   2.806   4.902  0.3724 -0.2456 -0.1885
 1368SOL     OW 6303   8.337   1.274   9.157 -0.9987  0.5600 -0.8066
 1368SOL    HW1 6304   8.409   1.233   9.204 -0.6554 -1.2549 -2.7711
 1368SOL    HW2 6305   8.379   1.325   9.088 -1.5443 -0.1120 -1.6610
 1369SOL     OW 6306   7.129   6.141   5.780  0.0790 -0.2642  0.0325
 1369SOL    HW1 6307   7.123   6.231   5.814  0.9427 -0.3239  0.3585
 1369SOL    HW2 6308   7.038   6.113   5.773 -0.1602 -0.1100  1.9444
 1370SOL     OW 6309   2.602   1.883   0.173 -0.4343 -0.1239 -0.5837
 1370SOL    HW1 6310   2.531   1.826   0.204 -1.7286  1.5199 -0.3876
 1370SOL    HW2 6311   2.653   1.902   0.252  1.9261 -3.4203 -1.1290
 1371SOL     OW 6312   1.682   9.259   7.462  0.3596  0.4114 -0.0537
 1371SOL    HW1 6313   1.687   9.214   7.377 -2.5727  0.1649 -0.2055
 1371SOL    HW2 6314   1.616   9.210   7.511 -0.8456  2.7923  0.8736
 1372SOL     OW 6315   3.261   5.871   4.579  0.0354 -0.2115  0.0492
 1372SOL    HW1 6316   3.242   5.907   4.666  2.0273 -0.5065  0.6595
 1372SOL    HW2 6317   3.325   5.932   4.542  2.4279 -2.2575  0.5414
 1373SOL     OW 6318   7.808   0.820   6.710 -0.5909 -0.6494 -0.1420
 1373SOL    HW1 6319   7.867   0.835   6.636 -1.5745 -0.8729 -0.9944
 1373SOL    HW2 6320   7.841   0.740   6.751 -1.2018 -1.6504 -1.5452
 1374SOL     OW 6321   5.551   7.586   1.646 -0.0805 -0.1484 -0.1719
 1374SOL    HW1 6322   5.580   7.499   1.621 -1.2489 -0.3004 -1.0786
 1374SOL    HW2 6323   5.631   7.632   1.672  1.0315 -0.4575 -2.7509
 1375SOL     OW 6324   5.271   4.052   2.336  0.7383 -0.4938  0.2121
 1375SOL    HW1 6325   5.340   3.985   2.337  0.9793 -0.2446  0.3191
 1375SOL    HW2 6326   5.214   4.025   2.264 -0.4492 -2.1001  1.6672
 1376SOL     OW 6327   7.909   8.328   3.429 -0.5100  0.0114  0.3803
 1376SOL    HW1 6328   7.963   8.341   3.351 -1.6832  2.0254 -0.1755
 1376SOL    HW2 6329   7.947   8.386   3.495 -1.0536  0.2405  0.4927
 1377SOL     OW 6330   5.281   4.965   8.303 -0.1145  0.8909  0.4230
 1377SOL    HW1 6331   5.284   4.884   8.353 -1.5049  0.2986 -0.4070
 1377SOL    HW2 6332   5.201   4.959   8.251  0.4634  2.1847 -0.6908
 1378SOL     OW 6333   2.212   6.612   3.050 -0.2845  0.2766  0.5907
 1378SOL    HW1 6334   2.275   6.638   2.982  0.3626  0.0694  1.0995
 1378SOL    HW2 6335   2.214   6.684   3.113 -0.5892  0.2864  0.5889
 1379SOL     OW 6336   7.981   7.199   3.671  0.1917  0.2016  0.2860
 1379SOL    HW1 6337   8.012   7.239   3.752  0.4103  1.2049 -0.2835
 1379SOL    HW2 6338   7.994   7.266   3.604 -0.8085 -0.2911 -0.4281
 1380SOL     OW 6339   5.356   5.831   4.246 -0.0604 -0.0242  0.2676
 1380SOL    HW1 6340   5.372   5.763   4.311 -1.1746  1.5190  2.2997
 1380SOL    HW2 6341   5.264   5.819   4.221 -0.5847  1.2333  1.4020
 1381SOL     OW 6342   0.992   7.846   7.524 -0.3786  0.1786  0.2259
 1381SOL    HW1 6343   0.901   7.867   7.544  0.1941  3.5405 -0.2201
 1381SOL    HW2 6344   1.036   7.848   7.609 -0.0716  2.6036  0.0710
 1382SOL     OW 6345   0.337   3.799   5.514 -0.5762  0.1570  0.0638
 1382SOL    HW1 6346   0.381   3.883   5.526 -0.9975  0.3460  0.3050
 1382SOL    HW2 6347   0.291   3.784   5.596 -1.2237  0.1255 -0.2928
 1383SOL     OW 6348   3.837   6.788   2.993  0.6185 -0.2832 -0.0246
 1383SOL    HW1 6349   3.876   6.863   2.948  0.7982 -1.2542 -1.5672
 1383SOL    HW2 6350   3.863   6.712   2.940 -1.0229 -1.2543  0.4860
 1384SOL     OW 6351   1.986   6.165   0.751  0.0758 -0.4870 -0.1573
 1384SOL    HW1 6352   1.909   6.118   0.718  0.0165 -1.7482  1.6440
 1384SOL    HW2 6353   1.993   6.241   0.694 -1.5058 -1.2151 -1.4250
 1385SOL     OW 6354   5.067   1.231   3.421  0.0005 -0.0483 -0.1089
 1385SOL    HW1 6355   5.069   1.292   3.495 -1.4588 -0.4914  0.3275
 1385SOL    HW2 6356   5.115   1.276   3.352  1.3338  0.4126  1.0594
 1386SOL     OW 6357   7.844   0.036   7.417 -0.4001 -0.3708 -0.0282
 1386SOL    HW1 6358   7.880   0.124   7.408 -1.4966  0.1359  0.2636
 1386SOL    HW2 6359   7.863   0.011   7.507  0.8425 -0.8879 -0.4127
 1387SOL     OW 6360   2.556   0.807   3.825  0.0968  0.2579 -0.8627
 1387SOL    HW1 6361   2.586   0.751   3.897 -3.6069  0.7422  1.3033
 1387SOL    HW2 6362   2.625   0.873   3.815  1.6201 -0.9684  0.8911
 1388SOL     OW 6363   5.288   3.126   3.874 -0.1274  0.4274  0.1578
 1388SOL    HW1 6364   5.320   3.216   3.884  1.5000  0.2275 -2.2713
 1388SOL    HW2 6365   5.355   3.072   3.915  0.7400  0.2119 -1.4409
 1389SOL     OW 6366   7.848   6.853   5.772 -0.3977 -0.3232 -0.0601
 1389SOL    HW1 6367   7.822   6.807   5.692 -0.5048 -0.0289 -0.1984
 1389SOL    HW2 6368   7.815   6.798   5.843 -1.3362 -0.0143 -0.2323
 1390SOL     OW 6369   8.041   1.710   5.930 -0.3297 -0.4328 -0.0098
 1390SOL    HW1 6370   7.959   1.759   5.940 -0.7191 -0.9131 -0.7871
 1390SOL    HW2 6371   8.100   1.772   5.886  0.1120  0.3060  1.5566
 1391SOL     OW 6372   1.390   6.704   7.004 -0.0328  0.1398 -0.4392
 1391SOL    HW1 6373   1.420   6.642   6.938 -0.8066 -0.8221  0.0893
 1391SOL    HW2 6374   1.309   6.739   6.968 -0.3870 -0.2888 -0.0687
 1392SOL     OW 6375   4.757   6.620   8.534 -0.5102  0.3978 -0.5965
 1392SOL    HW1 6376   4.769   6.684   8.604 -1.2269 -0.2137  0.1005
 1392SOL    HW2 6377   4.685   6.565   8.564  0.5909 -1.2317 -0.8170
 1393SOL     OW 6378   7.006   1.533   6.707 -0.8269 -0.4823 -0.5056
 1393SOL    HW1 6379   7.028   1.507   6.617 -0.2703 -2.2390  0.1036
 1393SOL    HW2 6380   7.084   1.579   6.739 -0.7586 -0.4760 -0.6796
 1394SOL     OW 6381   0.838   8.173   3.769  0.2390  0.2118 -0.2820
 1394SOL    HW1 6382   0.760   8.228   3.764  0.6013  0.8935  0.9867
 1394SOL    HW2 6383   0.814   8.101   3.827  0.5598  0.4574  0.1630
 1395SOL     OW 6384   6.004   4.349   0.670  0.1976  0.5630  0.2892
 1395SOL    HW1 6385   6.015   4.444   0.670  1.4604  0.4442  0.9570
 1395SOL    HW2 6386   6.085   4.316   0.632  0.6532 -0.2993  1.9335
 1396SOL     OW 6387   3.881   7.330   2.263 -0.0592 -0.1440 -0.9854
 1396SOL    HW1 6388   3.789   7.333   2.236  0.2374 -0.2468 -2.0613
 1396SOL    HW2 6389   3.921   7.265   2.204  1.0304  1.0609 -1.6285
 1397SOL     OW 6390   4.457   5.927   8.298 -0.5697  0.4024  0.0966
 1397SOL    HW1 6391   4.491   6.016   8.281 -1.2791  0.6565 -0.0256
 1397SOL    HW2 6392   4.442   5.890   8.211  0.4059 -0.1134  0.1370
 1398SOL     OW 6393   7.708   1.385   9.346 -0.2534  0.4607  0.0919
 1398SOL    HW1 6394   7.803   1.388   9.351 -0.2205 -1.2249  2.5303
 1398SOL    HW2 6395   7.679   1.468   9.383  0.1923  1.4978 -1.7409
 1399SOL     OW 6396   0.431   5.038   7.922  0.4964 -0.2225  0.4633
 1399SOL    HW1 6397   0.429   4.977   7.996 -0.6279 -1.7514 -0.7434
 1399SOL    HW2 6398   0.388   5.117   7.954 -1.6992 -1.5363  0.9322
 1400SOL     OW 6399   5.669   5.539   9.051 -0.3232  0.5841 -0.0256
 1400SOL    HW1 6400   5.675   5.480   8.976 -1.3899  0.0155  0.3152
 1400SOL    HW2 6401   5.585   5.518   9.092 -0.5219  2.0312  0.3700
 1401SOL     OW 6402   7.722   0.637   1.741 -0.1980  0.3325 -0.0677
 1401SOL    HW1 6403   7.728   0.664   1.649  1.4219 -0.0359 -0.0901
 1401SOL    HW2 6404   7.691   0.715   1.787  1.1777  1.2307 -0.6170
 1402SOL     OW 6405   6.648   8.427   5.750 -0.4144 -0.1502  0.2512
 1402SOL    HW1 6406   6.719   8.468   5.800  0.2294 -1.0249  0.0794
 1402SOL    HW2 6407   6.678   8.337   5.735 -1.2355 -0.3180 -0.4643
 1403SOL     OW 6408   5.986   0.881   9.109 -0.0469  0.2260 -0.8138
 1403SOL    HW1 6409   5.934   0.808   9.078 -1.1141  1.0958 -1.1256
 1403SOL    HW2 6410   5.931   0.924   9.174  0.2030  1.2650 -1.2713
 1404SOL     OW 6411   0.309   8.047   0.075 -0.0075 -0.0592  0.1675
 1404SOL    HW1 6412   0.302   8.133   0.035 -2.5854 -0.4957 -0.4714
 1404SOL    HW2 6413   0.403   8.034   0.087  0.5256  2.2309 -1.0032
 1405SOL     OW 6414   2.927   6.703   4.935 -0.6247  0.1118 -0.0392
 1405SOL    HW1 6415   2.933   6.748   5.019  0.3188 -2.2592  1.2619
 1405SOL    HW2 6416   2.903   6.613   4.957  1.8916 -1.1934 -2.0599
 1406SOL     OW 6417   8.613   7.575   7.609  0.1341  0.4277  0.3573
 1406SOL    HW1 6418   8.574   7.661   7.595  0.8260  0.6422 -0.3399
 1406SOL    HW2 6419   8.539   7.518   7.630 -0.3538  1.1465  0.6382
 1407SOL     OW 6420   6.080   8.420   1.872 -0.7980  0.1961  0.2573
 1407SOL    HW1 6421   6.091   8.339   1.823 -0.3651 -0.3625  1.2481
 1407SOL    HW2 6422   6.041   8.393   1.955  0.1180  0.8860  0.9368
 1408SOL     OW 6423   5.934   3.542   9.452 -0.1670 -0.0760 -0.1335
 1408SOL    HW1 6424   5.931   3.623   9.402 -3.0431 -0.0302 -0.0709
 1408SOL    HW2 6425   5.896   3.565   9.537  2.0178 -0.7973  1.1296
 1409SOL     OW 6426   8.377   8.226   9.445 -0.1620  0.1380 -0.1617
 1409SOL    HW1 6427   8.316   8.196   9.378 -0.4353  1.0143 -0.3203
 1409SOL    HW2 6428   8.463   8.212   9.407 -0.2874 -0.2234 -0.3189
 1410SOL     OW 6429   8.715   4.478   3.978  0.3186  0.1513 -0.2501
 1410SOL    HW1 6430   8.674   4.547   3.926  0.2639 -0.9396 -1.6987
 1410SOL    HW2 6431   8.720   4.402   3.919 -1.2116 -1.6635  1.7565
 1411SOL     OW 6432   4.707   4.904   3.688 -0.3450  0.4401  0.5645
 1411SOL    HW1 6433   4.775   4.840   3.709 -0.4093 -0.1338 -0.8753
 1411SOL    HW2 6434   4.734   4.983   3.733  1.2011  0.1724  0.1637
 1412SOL     OW 6435   9.250   1.865   2.061 -0.2460 -0.3285  0.2885
 1412SOL    HW1 6436   9.295   1.781   2.059 -0.9450 -0.7088  0.3527
 1412SOL    HW2 6437   9.316   1.928   2.032  0.0063 -1.0232 -0.7027
 1413SOL     OW 6438   8.447   1.326   2.723 -0.2633 -0.6044  0.3611
 1413SOL    HW1 6439   8.381   1.345   2.789 -0.0673  1.3829  0.0357
 1413SOL    HW2 6440   8.427   1.386   2.651  0.3592 -1.7568 -0.8147
 1414SOL     OW 6441   1.884   6.675   3.093  0.1665 -0.5080 -0.0581
 1414SOL    HW1 6442   1.871   6.694   3.000 -0.7632  0.0731  0.1812
 1414SOL    HW2 6443   1.978   6.685   3.106  0.1508  0.5619 -0.6814
 1415SOL     OW 6444   2.994   3.911   1.609 -0.3694  0.8579  0.1057
 1415SOL    HW1 6445   2.965   4.000   1.629  0.5809  1.4379 -1.0412
 1415SOL    HW2 6446   3.032   3.916   1.522  2.7022  0.0383  1.2663
 1416SOL     OW 6447   4.129   6.076   4.344 -0.4907 -0.0744 -0.0775
 1416SOL    HW1 6448   4.088   6.110   4.423 -0.0892  0.5381 -0.1278
 1416SOL    HW2 6449   4.058   6.070   4.280 -0.5826  0.5714 -0.0347
 1417SOL     OW 6450   1.652   3.668   8.141 -0.4133 -0.4664  0.0109
 1417SOL    HW1 6451   1.656   3.716   8.224  0.7068 -0.9547  0.2546
 1417SOL    HW2 6452   1.725   3.704   8.090  1.2872 -2.7705  0.6893
 1418SOL     OW 6453   2.258   1.611   3.646  0.0805 -0.3245 -0.0923
 1418SOL    HW1 6454   2.234   1.701   3.622  0.2079 -0.1994  0.2386
 1418SOL    HW2 6455   2.338   1.594   3.596 -0.7285 -0.7775 -1.2688
 1419SOL     OW 6456   0.802   4.290   7.470 -0.3148  0.5026 -0.0703
 1419SOL    HW1 6457   0.820   4.384   7.463  0.5337  0.2156 -2.2017
 1419SOL    HW2 6458   0.707   4.284   7.462 -0.6742  1.3001  2.4446
 1420SOL     OW 6459   6.756   3.573   0.372 -0.3725  0.2597  0.1579
 1420SOL    HW1 6460   6.671   3.536   0.396  0.0186 -0.0080  1.1949
 1420SOL    HW2 6461   6.742   3.612   0.286 -0.9081 -1.9782 -0.8425
 1421SOL     OW 6462   8.250   6.389   6.498  0.0154 -0.2912  0.1442
 1421SOL    HW1 6463   8.275   6.445   6.425  2.3026 -0.1697  0.9558
 1421SOL    HW2 6464   8.162   6.418   6.521 -0.3403  0.3719 -1.8539
 1422SOL     OW 6465   3.571   3.240   4.956  0.2764 -0.2553  0.4046
 1422SOL    HW1 6466   3.564   3.169   5.020 -1.6020 -1.7470 -1.2992
 1422SOL    HW2 6467   3.582   3.319   5.009  2.1081 -1.7300  2.4027
 1423SOL     OW 6468   8.078   8.722   6.259  0.3506 -0.3988  0.0232
 1423SOL    HW1 6469   8.048   8.734   6.169 -1.4764  2.0757  0.8340
 1423SOL    HW2 6470   8.141   8.793   6.273  1.7002 -1.6099  0.3268
 1424SOL     OW 6471   5.159   3.977   8.148 -0.0919  0.6969 -0.3508
 1424SOL    HW1 6472   5.170   3.992   8.242  0.6855  1.6920 -0.5861
 1424SOL    HW2 6473   5.169   3.882   8.137 -1.4175  0.3987  0.7141
 1425SOL     OW 6474   2.033   2.624   4.492 -0.0831 -0.2307  0.1156
 1425SOL    HW1 6475   2.041   2.619   4.397 -2.9857 -1.1712 -0.2009
 1425SOL    HW2 6476   2.083   2.549   4.524  0.0901 -0.4966 -0.7514
 1426SOL     OW 6477   2.406   9.411   6.088  0.2405 -0.3897 -0.5493
 1426SOL    HW1 6478   2.337   9.478   6.086  0.2440 -0.3851 -2.5255
 1426SOL    HW2 6479   2.372   9.343   6.147 -1.5090 -0.4258 -1.5179
 1427SOL     OW 6480   8.403   8.926   9.059 -0.3032  0.2695 -0.0741
 1427SOL    HW1 6481   8.492   8.919   9.024  0.1992 -1.5003  1.3638
 1427SOL    HW2 6482   8.402   8.865   9.133 -2.1339  1.7220  1.1971
 1428SOL     OW 6483   0.312   1.731   6.556  0.3340 -0.0887 -0.2025
 1428SOL    HW1 6484   0.395   1.699   6.591  0.5951  0.0753 -0.6582
 1428SOL    HW2 6485   0.258   1.747   6.633  1.1345  0.9259  0.1809
 1429SOL     OW 6486   1.322   1.477   2.164  0.0224  0.2778  0.3826
 1429SOL    HW1 6487   1.404   1.458   2.209 -0.2051 -0.4983  0.4839
 1429SOL    HW2 6488   1.330   1.569   2.137  1.0785  0.1010  0.0520
 1430SOL     OW 6489   1.822   4.829   5.026  0.1125 -0.1937  0.3857
 1430SOL    HW1 6490   1.873   4.761   5.070  1.4209 -0.1738 -1.0267
 1430SOL    HW2 6491   1.883   4.902   5.015 -0.0898 -0.2784 -1.5892
 1431SOL     OW 6492   4.122   3.850   3.274  0.3973  0.0030  0.2643
 1431SOL    HW1 6493   4.154   3.763   3.250  4.0593  1.3903 -0.5153
 1431SOL    HW2 6494   4.124   3.852   3.369 -2.3098 -1.5174  0.4486
 1432SOL     OW 6495   8.432   1.980   0.464 -0.0169 -0.7844 -0.0517
 1432SOL    HW1 6496   8.436   1.894   0.422 -1.3274 -1.7329  1.6128
 1432SOL    HW2 6497   8.502   1.979   0.529 -0.8617 -1.1728  0.8900
 1433SOL     OW 6498   4.995   6.687   4.217 -0.5071 -0.2105  0.0399
 1433SOL    HW1 6499   5.013   6.748   4.145 -0.0571  0.1489  0.4569
 1433SOL    HW2 6500   4.957   6.610   4.173  0.2509 -0.2108 -0.6394
 1434SOL     OW 6501   1.456   0.428   6.069  0.0587 -0.1091 -0.3577
 1434SOL    HW1 6502   1.417   0.343   6.046  0.0335 -0.0184 -0.6601
 1434SOL    HW2 6503   1.470   0.471   5.984 -0.4303  0.4097 -0.1823
 1435SOL     OW 6504   0.407   1.708   4.986 -0.7805 -0.1249 -0.6334
 1435SOL    HW1 6505   0.351   1.659   4.927 -1.0657  0.2334 -0.6666
 1435SOL    HW2 6506   0.480   1.737   4.931 -0.2604 -1.0733 -0.4607
 1436SOL     OW 6507   6.115   0.918   4.998 -0.2861  0.7148  0.4265
 1436SOL    HW1 6508   6.041   0.910   5.058 -2.6400  1.3504 -2.2277
 1436SOL    HW2 6509   6.087   0.984   4.934  2.5448  0.8894 -0.7702
 1437SOL     OW 6510   2.970   0.577   5.218 -0.8256 -0.0763  0.1067
 1437SOL    HW1 6511   2.951   0.564   5.311 -1.1242 -0.4915 -0.0112
 1437SOL    HW2 6512   2.889   0.553   5.173 -0.8499  0.6244 -0.2300
 1438SOL     OW 6513   0.993   2.533   6.345  0.3736 -0.5095  0.3863
 1438SOL    HW1 6514   0.979   2.596   6.415 -1.1458 -0.9310  0.4964
 1438SOL    HW2 6515   1.018   2.452   6.389  2.7141  0.0459  0.2264
 1439SOL     OW 6516   0.108   7.273   5.901 -0.5245  0.1379 -0.7222
 1439SOL    HW1 6517   0.201   7.258   5.915 -0.4896  0.7684 -0.2402
 1439SOL    HW2 6518   0.090   7.231   5.817  0.3839  0.7509 -1.2422
 1440SOL     OW 6519   1.880   4.966   0.024  0.1775  0.3432  0.5481
 1440SOL    HW1 6520   1.901   4.877   0.052 -1.4114 -0.0213  0.6681
 1440SOL    HW2 6521   1.937   5.022   0.077 -0.0261 -0.5292  1.7321
 1441SOL     OW 6522   3.898   5.642   0.846 -0.3635 -0.4571 -0.4787
 1441SOL    HW1 6523   3.917   5.553   0.878  0.8166  0.5021  1.7577
 1441SOL    HW2 6524   3.805   5.640   0.824 -0.2500 -2.3679 -0.9761
 1442SOL     OW 6525   7.773   8.663   0.801  0.2617  0.0629 -0.3631
 1442SOL    HW1 6526   7.807   8.668   0.712  2.3608 -3.9002 -0.0116
 1442SOL    HW2 6527   7.684   8.629   0.792 -0.3822  1.7945 -0.9417
 1443SOL     OW 6528   8.038   1.085   8.982  0.3611 -0.0889  0.0682
 1443SOL    HW1 6529   8.095   1.031   9.037  1.4727  0.9152 -0.0641
 1443SOL    HW2 6530   8.095   1.153   8.947 -0.4935 -0.2319 -1.7189
 1444SOL     OW 6531   1.480   9.554   8.797 -0.5649 -0.4772 -0.3790
 1444SOL    HW1 6532   1.400   9.519   8.837  0.3306  0.3344  2.2759
 1444SOL    HW2 6533   1.498   9.635   8.845  1.1998  0.0166 -1.7555
 1445SOL     OW 6534   6.856   3.493   6.856  0.4620 -0.1926  0.0731
 1445SOL    HW1 6535   6.898   3.449   6.930  0.4344  0.5834  0.5552
 1445SOL    HW2 6536   6.926   3.504   6.792  1.2553  1.8722  1.2152
 1446SOL     OW 6537   2.291   3.127   0.675  0.1870  0.5082 -0.1816
 1446SOL    HW1 6538   2.228   3.057   0.660  0.9252  0.0425 -1.2651
 1446SOL    HW2 6539   2.372   3.083   0.698  0.5851  1.0109 -0.5856
 1447SOL     OW 6540   2.585   7.405   1.374  0.0033  0.5237  0.2014
 1447SOL    HW1 6541   2.511   7.439   1.424  0.8395  1.4635  0.8284
 1447SOL    HW2 6542   2.551   7.395   1.285 -0.8597  0.9929  0.4639
 1448SOL     OW 6543   5.235   2.229   4.133  0.0348 -0.3075 -0.0199
 1448SOL    HW1 6544   5.234   2.140   4.097 -0.9303  0.3736 -1.7727
 1448SOL    HW2 6545   5.186   2.281   4.070  0.5975  1.4919  0.9650
 1449SOL     OW 6546   5.868   1.535   8.916  0.2466 -0.4553 -0.1011
 1449SOL    HW1 6547   5.838   1.595   8.849  1.0533  0.3823  0.2715
 1449SOL    HW2 6548   5.837   1.449   8.887  0.3108 -0.0687 -1.3781
 1450SOL     OW 6549   0.211   3.472   1.777  0.0438  0.5237  0.1785
 1450SOL    HW1 6550   0.181   3.474   1.686  2.5416  0.6476 -0.7068
 1450SOL    HW2 6551   0.210   3.564   1.804  1.2305  0.7457 -0.4505
 1451SOL     OW 6552   9.311   3.999   0.729 -0.0332 -0.4921 -0.0144
 1451SOL    HW1 6553   9.220   3.986   0.702  0.0533 -1.8576  0.2891
 1451SOL    HW2 6554   9.358   4.017   0.648 -0.5716  0.2592 -0.1694
 1452SOL     OW 6555   5.959   6.562   5.452  0.3321  0.3601  0.1646
 1452SOL    HW1 6556   5.901   6.628   5.492  2.9920  2.5541  0.6825
 1452SOL    HW2 6557   6.017   6.613   5.395 -0.2627 -2.1451 -2.9580
 1453SOL     OW 6558   7.990   3.214   1.942 -0.6249 -0.1672 -0.2054
 1453SOL    HW1 6559   8.085   3.203   1.940 -0.5756  0.2269 -0.1788
 1453SOL    HW2 6560   7.976   3.292   1.997 -1.0140 -0.8120  0.6306
 1454SOL     OW 6561   7.391   6.233   3.833  0.0953 -0.5943 -0.3552
 1454SOL    HW1 6562   7.340   6.221   3.913 -1.4004 -0.1924 -1.2042
 1454SOL    HW2 6563   7.468   6.179   3.845 -0.5109 -1.1998  1.0105
 1455SOL     OW 6564   2.805   0.420   3.172 -0.5119  0.1918 -0.0754
 1455SOL    HW1 6565   2.732   0.359   3.180 -1.1541  0.8709 -0.7124
 1455SOL    HW2 6566   2.771   0.494   3.123  0.7823  0.2369 -0.9647
 1456SOL     OW 6567   2.763   4.085   1.945  0.1799 -0.0854 -0.2230
 1456SOL    HW1 6568   2.715   4.011   1.981  0.0506 -0.1141 -0.4492
 1456SOL    HW2 6569   2.770   4.147   2.017 -1.1328  0.3816 -0.4727
 1457SOL     OW 6570   4.757   3.159   8.403  0.3260  0.3562  0.0203
 1457SOL    HW1 6571   4.688   3.188   8.464 -1.9728 -0.5339 -1.9979
 1457SOL    HW2 6572   4.838   3.190   8.443 -1.2585  1.9727  2.2613
 1458SOL     OW 6573   4.141   1.247   3.855 -0.2796  0.1407  0.0251
 1458SOL    HW1 6574   4.053   1.271   3.829 -0.3207  2.4346  1.9304
 1458SOL    HW2 6575   4.197   1.311   3.812  0.3963 -0.6958 -0.3807
 1459SOL     OW 6576   0.743   5.940   2.242 -0.5052  0.0679 -0.1028
 1459SOL    HW1 6577   0.813   5.991   2.284 -2.2371  2.3625  0.1802
 1459SOL    HW2 6578   0.716   5.878   2.309 -0.7565  1.2331  0.9241
 1460SOL     OW 6579   6.568   6.755   3.482 -0.1964 -0.0827  0.1925
 1460SOL    HW1 6580   6.548   6.722   3.570  2.0357 -1.1220  0.3617
 1460SOL    HW2 6581   6.618   6.685   3.441 -0.6733  0.6419 -1.7291
 1461SOL     OW 6582   0.578   2.291   1.217  0.4469 -0.5800  0.3388
 1461SOL    HW1 6583   0.501   2.312   1.270  0.9531 -0.7248  1.1597
 1461SOL    HW2 6584   0.642   2.359   1.238  1.0965 -1.3340  0.8823
 1462SOL     OW 6585   1.097   5.463   2.462  0.2995  0.2145 -0.0592
 1462SOL    HW1 6586   1.048   5.382   2.445 -0.2569  0.8117 -1.4822
 1462SOL    HW2 6587   1.188   5.435   2.467  0.2199 -0.3922 -1.5439
 1463SOL     OW 6588   1.640   2.127   6.532 -0.0041  0.4214 -0.0952
 1463SOL    HW1 6589   1.583   2.141   6.456  0.9315 -1.0108 -1.1182
 1463SOL    HW2 6590   1.705   2.064   6.501  0.4424 -0.1613  1.9006
 1464SOL     OW 6591   8.892   1.287   7.449 -0.1599  0.6939  0.7038
 1464SOL    HW1 6592   8.916   1.202   7.486  0.3664 -0.1183 -1.3246
 1464SOL    HW2 6593   8.827   1.265   7.381  2.2129  1.4512 -2.0157
 1465SOL     OW 6594   0.677   5.064   9.362  0.0983  0.5147 -0.9133
 1465SOL    HW1 6595   0.719   4.988   9.321 -0.4282 -0.5386  0.4278
 1465SOL    HW2 6596   0.585   5.056   9.339 -0.3033 -0.4075  0.8664
 1466SOL     OW 6597   1.705   4.806   9.433  0.0426 -0.5423  0.0359
 1466SOL    HW1 6598   1.779   4.840   9.483  0.1204 -1.4194  0.5316
 1466SOL    HW2 6599   1.628   4.830   9.485 -0.1136  1.0817 -0.8782
 1467SOL     OW 6600   5.859   8.834   4.670  0.2217 -0.4016 -0.1442
 1467SOL    HW1 6601   5.933   8.803   4.619 -0.1416 -1.7760  0.1289
 1467SOL    HW2 6602   5.788   8.774   4.650 -0.6107  0.4307  0.1914
 1468SOL     OW 6603   5.671   6.150   4.577  0.2926  0.3014  0.0312
 1468SOL    HW1 6604   5.639   6.087   4.642 -0.6035  0.8031  0.0926
 1468SOL    HW2 6605   5.667   6.235   4.621  0.7570  0.5018 -0.3049
 1469SOL     OW 6606   6.596   5.729   2.504  0.5183  0.1568  0.0411
 1469SOL    HW1 6607   6.689   5.749   2.516  0.7672 -1.1879  0.5035
 1469SOL    HW2 6608   6.581   5.739   2.410  1.2800 -0.2410 -0.1276
 1470SOL     OW 6609   7.257   1.964   6.332  0.4201  0.3806 -0.1046
 1470SOL    HW1 6610   7.185   2.004   6.285 -0.7373 -1.0509  0.3508
 1470SOL    HW2 6611   7.306   2.037   6.369 -0.5856  1.3956 -0.7247
 1471SOL     OW 6612   3.168   1.676   2.273 -0.5248 -0.4119 -0.5467
 1471SOL    HW1 6613   3.196   1.590   2.241 -0.9420 -0.0849 -1.8112
 1471SOL    HW2 6614   3.166   1.665   2.369  0.5411 -1.4579 -0.6210
 1472SOL     OW 6615   1.583   7.625   0.524  0.1219 -0.0624 -0.0180
 1472SOL    HW1 6616   1.556   7.662   0.440 -0.1118  1.4414  0.6710
 1472SOL    HW2 6617   1.560   7.533   0.519 -0.8765  0.2292 -1.1937
 1473SOL     OW 6618   4.622   8.655   7.765  0.1027  0.6733 -0.0654
 1473SOL    HW1 6619   4.591   8.663   7.675  0.9140 -0.1577 -0.4259
 1473SOL    HW2 6620   4.693   8.591   7.761 -1.0143 -0.7559  1.4387
 1474SOL     OW 6621   8.495   4.692   8.435 -0.2580  0.3523  0.3647
 1474SOL    HW1 6622   8.430   4.682   8.366  1.2158 -1.0613 -0.9171
 1474SOL    HW2 6623   8.472   4.773   8.479 -1.8467  0.7733 -1.1532
 1475SOL     OW 6624   3.955   8.338   3.717  0.1807  0.3451  0.1565
 1475SOL    HW1 6625   3.896   8.382   3.779  0.4037  0.4997  0.2631
 1475SOL    HW2 6626   3.930   8.371   3.631  1.5771  2.1675  0.3808
 1476SOL     OW 6627   3.085   3.772   8.858  0.2933 -0.1918  0.6441
 1476SOL    HW1 6628   3.026   3.763   8.783  2.0890 -0.9411 -0.7578
 1476SOL    HW2 6629   3.028   3.799   8.930 -1.3095  2.2574 -1.3467
 1477SOL     OW 6630   7.698   0.563   6.308 -0.4444  0.0747 -0.2790
 1477SOL    HW1 6631   7.749   0.500   6.257  0.3622  1.9278 -1.8577
 1477SOL    HW2 6632   7.607   0.541   6.288 -0.1763 -0.3839 -1.0586
 1478SOL     OW 6633   5.818   4.680   8.289  0.4383 -0.5639  0.1349
 1478SOL    HW1 6634   5.809   4.744   8.359 -0.1495 -0.1076 -0.3419
 1478SOL    HW2 6635   5.772   4.602   8.321  1.6029 -0.9507  0.9334
 1479SOL     OW 6636   1.834   9.405   9.343 -0.1733 -0.0080 -0.4309
 1479SOL    HW1 6637   1.869   9.384   9.429  2.6477  0.9662 -1.2462
 1479SOL    HW2 6638   1.814   9.499   9.348 -0.0735  0.0356 -0.8149
 1480SOL     OW 6639   5.524   1.409   9.488  0.2035  0.2085 -0.5425
 1480SOL    HW1 6640   5.446   1.396   9.541 -0.7090  5.4697 -0.0064
 1480SOL    HW2 6641   5.595   1.415   9.551  0.5339 -1.2187 -0.7401
 1481SOL     OW 6642   2.102   9.467   8.051 -0.7428 -0.2948 -0.4168
 1481SOL    HW1 6643   2.028   9.431   8.101 -0.3435 -1.8385 -0.8872
 1481SOL    HW2 6644   2.063   9.530   7.992 -1.1337  2.5143  2.5411
 1482SOL     OW 6645   8.060   4.161   9.525 -0.2671 -0.3240 -0.3990
 1482SOL    HW1 6646   8.093   4.250   9.536  1.1470 -0.8565 -0.0646
 1482SOL    HW2 6647   8.132   4.105   9.554 -1.0314 -1.5831 -0.8399
 1483SOL     OW 6648   1.288   5.223   8.068 -0.1525  0.1116 -0.1324
 1483SOL    HW1 6649   1.325   5.207   8.154 -0.7669 -0.3476  0.0546
 1483SOL    HW2 6650   1.314   5.146   8.016 -1.1039 -0.3702  0.0922
 1484SOL     OW 6651   2.733   0.887   9.466  0.4579  0.2201  0.6927
 1484SOL    HW1 6652   2.775   0.959   9.513 -0.0747  0.0174  1.5112
 1484SOL    HW2 6653   2.674   0.930   9.403  0.6238  0.4972  0.7257
 1485SOL     OW 6654   4.396   6.788   6.337 -0.2354 -0.5379 -0.6773
 1485SOL    HW1 6655   4.399   6.728   6.412  0.1206 -0.9749 -1.0423
 1485SOL    HW2 6656   4.487   6.806   6.316 -0.3367 -0.2410 -0.8724
 1486SOL     OW 6657   2.278   3.155   1.492 -0.5179  0.1561  0.0189
 1486SOL    HW1 6658   2.233   3.117   1.417  1.2494  2.2941 -2.3007
 1486SOL    HW2 6659   2.213   3.155   1.562 -1.9081 -2.9196 -1.0962
 1487SOL     OW 6660   4.139   4.500   2.720  0.1710 -0.4784  0.1529
 1487SOL    HW1 6661   4.156   4.446   2.643 -0.4016 -0.0795 -0.2575
 1487SOL    HW2 6662   4.077   4.448   2.772  0.0897 -0.4776  0.0555
 1488SOL     OW 6663   1.237   6.128   7.118  0.7289 -0.0852 -0.3266
 1488SOL    HW1 6664   1.284   6.190   7.174 -1.6238  1.0055  0.5521
 1488SOL    HW2 6665   1.205   6.061   7.178  1.2621 -0.9252 -0.9468
 1489SOL     OW 6666   1.204   7.582   3.682  0.4931  0.4092 -0.7498
 1489SOL    HW1 6667   1.280   7.609   3.630  0.5167  0.3761 -0.7327
 1489SOL    HW2 6668   1.238   7.516   3.742  0.1078 -0.8964 -1.9133
 1490SOL     OW 6669   8.966   7.891   6.925 -0.0028 -0.1895  0.5250
 1490SOL    HW1 6670   8.977   7.914   7.018  1.1149  1.4675  0.0307
 1490SOL    HW2 6671   9.055   7.888   6.891 -0.4289 -0.1670 -0.6356
 1491SOL     OW 6672   5.288   7.791   2.581 -0.0442  0.6184 -0.0514
 1491SOL    HW1 6673   5.238   7.814   2.659 -1.3873  1.8422 -1.1980
 1491SOL    HW2 6674   5.369   7.841   2.589  0.3757 -0.2019  1.1039
 1492SOL     OW 6675   9.269   8.769   0.774 -0.3389 -0.5067  0.1121
 1492SOL    HW1 6676   9.255   8.712   0.850  0.8490 -1.5802 -0.4431
 1492SOL    HW2 6677   9.235   8.719   0.700 -0.4933  0.0659 -0.2042
 1493SOL     OW 6678   7.729   4.415   8.711  0.2492  0.2606  0.6288
 1493SOL    HW1 6679   7.685   4.413   8.796 -0.7800 -0.9435  0.0966
 1493SOL    HW2 6680   7.725   4.507   8.685 -0.4663  0.4548  1.3657
 1494SOL     OW 6681   4.530   0.030   3.586  0.0061  0.4753 -0.2417
 1494SOL    HW1 6682   4.489  -0.054   3.564  0.2404  0.1048  0.6932
 1494SOL    HW2 6683   4.457   0.089   3.604 -0.2433  1.0177 -2.6250
 1495SOL     OW 6684   2.930   1.263   5.441  0.3467  0.0196 -0.4802
 1495SOL    HW1 6685   2.978   1.339   5.408 -0.1172 -0.4471 -2.2927
 1495SOL    HW2 6686   2.980   1.235   5.518 -0.0518  2.7657  0.9066
 1496SOL     OW 6687   3.533   0.092   0.481  0.0630 -0.5027 -0.1544
 1496SOL    HW1 6688   3.483   0.016   0.508  0.4422 -0.4404  0.7560
 1496SOL    HW2 6689   3.607   0.095   0.541 -0.8538  1.5628  0.9815
 1497SOL     OW 6690   2.715   7.425   2.858 -0.5840  0.1575  0.7162
 1497SOL    HW1 6691   2.795   7.446   2.810 -0.5817  0.1326  0.7096
 1497SOL    HW2 6692   2.691   7.507   2.901 -1.4787  0.6489 -0.6501
 1498SOL     OW 6693   7.235   0.644   4.184  0.2047 -0.4121 -0.2075
 1498SOL    HW1 6694   7.140   0.653   4.183  0.1190 -1.2796 -0.2130
 1498SOL    HW2 6695   7.267   0.733   4.168 -0.6011 -0.1558 -0.4489
 1499SOL     OW 6696   0.273   7.627   3.795  0.0816 -0.2409  0.4728
 1499SOL    HW1 6697   0.302   7.542   3.762  0.3152 -0.0437  0.1800
 1499SOL    HW2 6698   0.336   7.690   3.762 -0.1652  0.0693  0.5808
 1500SOL     OW 6699   7.735   2.221   7.090 -0.3669  0.0556 -0.2626
 1500SOL    HW1 6700   7.797   2.184   7.027 -1.0225 -0.2340 -0.7539
 1500SOL    HW2 6701   7.657   2.240   7.038 -0.6484  0.5340  0.3203
 1501SOL     OW 6702   4.519   4.720   2.646 -0.4610 -0.5977  0.0074
 1501SOL    HW1 6703   4.427   4.697   2.632 -0.6884  0.9872 -1.3617
 1501SOL    HW2 6704   4.568   4.653   2.598 -1.0557  0.6411 -2.4857
 1502SOL     OW 6705   1.649   9.035   5.060  0.0170 -0.0871 -0.1449
 1502SOL    HW1 6706   1.591   8.965   5.032 -0.7947  0.4423  0.1737
 1502SOL    HW2 6707   1.607   9.115   5.029  1.1007  0.2596 -0.8044
 1503SOL     OW 6708   4.013   0.828   7.019  0.2488 -0.5456 -0.1419
 1503SOL    HW1 6709   4.013   0.767   7.093  2.2512 -1.1378 -0.5580
 1503SOL    HW2 6710   4.001   0.914   7.058 -0.3892 -1.0023  0.6888
 1504SOL     OW 6711   6.664   1.164   8.476  0.5050 -0.3203 -0.4737
 1504SOL    HW1 6712   6.666   1.118   8.559  1.0628  0.5770  0.0238
 1504SOL    HW2 6713   6.700   1.251   8.495 -1.4458  0.6921 -1.1646
 1505SOL     OW 6714   1.668   4.293   0.194 -0.4622 -0.8856  0.3105
 1505SOL    HW1 6715   1.719   4.239   0.134  1.3538 -0.1680  1.1584
 1505SOL    HW2 6716   1.693   4.383   0.174 -1.8286 -0.4625  0.3775
 1506SOL     OW 6717   0.271   2.939   7.140  0.5574  0.1131 -0.2424
 1506SOL    HW1 6718   0.326   2.965   7.067  1.2308 -0.0501  0.1905
 1506SOL    HW2 6719   0.300   2.994   7.213  0.9336 -0.7510  0.2779
 1507SOL     OW 6720   6.053   3.271   3.845 -0.2524  0.1880  0.0785
 1507SOL    HW1 6721   6.112   3.225   3.906  0.0575  0.3870 -0.0663
 1507SOL    HW2 6722   6.093   3.257   3.759 -0.0459  0.8913  0.0558
 1508SOL     OW 6723   6.239   8.447   2.349 -0.3425 -0.2003 -0.3703
 1508SOL    HW1 6724   6.315   8.504   2.351 -0.3872 -0.1264  1.9561
 1508SOL    HW2 6725   6.179   8.489   2.287  0.3050  1.3602  0.0199
 1509SOL     OW 6726   2.521   8.710   7.384  0.6476 -0.1833 -0.1761
 1509SOL    HW1 6727   2.464   8.670   7.318 -0.8724  3.0168 -1.0564
 1509SOL    HW2 6728   2.592   8.749   7.333  0.0409  1.3949  0.1199
 1510SOL     OW 6729   7.425   7.789   2.609  0.5742 -0.3749  0.1886
 1510SOL    HW1 6730   7.337   7.788   2.647 -1.4034 -1.5373 -3.8362
 1510SOL    HW2 6731   7.464   7.706   2.637 -0.3649 -0.7421  0.4394
 1511SOL     OW 6732   1.015   7.380   6.057 -0.1422  0.0934  0.2468
 1511SOL    HW1 6733   1.016   7.299   6.006  0.0416 -0.2581  0.8048
 1511SOL    HW2 6734   0.927   7.416   6.042  0.3161  0.6356 -1.2947
 1512SOL     OW 6735   5.883   7.679   4.341  0.1440  0.3862 -0.0669
 1512SOL    HW1 6736   5.940   7.751   4.313  0.2915 -0.2748 -1.5394
 1512SOL    HW2 6737   5.941   7.620   4.390  0.7254 -0.1919 -1.4018
 1513SOL     OW 6738   7.757   4.199   8.909 -0.2319 -0.0064 -0.4500
 1513SOL    HW1 6739   7.725   4.199   8.999  0.9952 -0.4539  0.0038
 1513SOL    HW2 6740   7.689   4.153   8.859 -1.3125  0.9779  0.0885
 1514SOL     OW 6741   8.353   3.584   3.581 -0.2188  0.3617  0.2888
 1514SOL    HW1 6742   8.328   3.500   3.620  0.0624  0.5118  0.7927
 1514SOL    HW2 6743   8.405   3.560   3.504 -0.1268  0.0760  0.4386
 1515SOL     OW 6744   8.970   6.103   2.568  0.9275 -0.0923  0.6985
 1515SOL    HW1 6745   8.989   6.114   2.475 -0.2479  0.3265  0.4854
 1515SOL    HW2 6746   8.985   6.190   2.605 -0.7021  0.3188  0.4763
 1516SOL     OW 6747   9.579   5.370   7.300 -0.1043 -0.1448  0.0694
 1516SOL    HW1 6748   9.529   5.310   7.245 -0.3801 -0.3714  0.5545
 1516SOL    HW2 6749   9.513   5.429   7.338  0.0463 -0.1634  0.3671
 1517SOL     OW 6750   3.636   9.043   2.983  0.8374 -0.1623  0.5573
 1517SOL    HW1 6751   3.710   8.988   2.958  0.3940  0.0462 -1.4422
 1517SOL    HW2 6752   3.665   9.132   2.965 -0.6292 -0.2018 -2.6904
 1518SOL     OW 6753   1.501   1.925   3.884  0.3572  0.1846  0.1401
 1518SOL    HW1 6754   1.471   1.952   3.797  1.3817 -1.1405 -0.6727
 1518SOL    HW2 6755   1.536   1.837   3.870 -0.5365 -0.5312  2.1481
 1519SOL     OW 6756   4.007   8.960   8.682  0.1640 -0.4828  0.7303
 1519SOL    HW1 6757   4.018   8.945   8.588  1.0802  1.5266  0.4480
 1519SOL    HW2 6758   4.002   8.873   8.720  3.4886 -1.5246 -0.7965
 1520SOL     OW 6759   2.696   1.499   6.553 -0.4688 -0.1286 -0.0669
 1520SOL    HW1 6760   2.774   1.475   6.602 -0.6909 -0.7543 -0.0030
 1520SOL    HW2 6761   2.728   1.552   6.480 -0.2550  1.7676  1.3570
 1521SOL     OW 6762   1.755   3.391   4.236 -0.1815 -0.5303  0.1662
 1521SOL    HW1 6763   1.829   3.388   4.297  0.6375  1.4806 -0.6226
 1521SOL    HW2 6764   1.689   3.443   4.282 -1.0891 -2.1470  0.7837
 1522SOL     OW 6765   1.469   7.936   1.383  0.2105 -0.2204 -0.0837
 1522SOL    HW1 6766   1.402   7.870   1.398 -0.8302  0.6814 -0.6482
 1522SOL    HW2 6767   1.514   7.907   1.303  0.8163 -1.0550  0.5347
 1523SOL     OW 6768   5.425   8.906   6.796 -0.2277  0.4033  0.3573
 1523SOL    HW1 6769   5.337   8.931   6.768 -0.0688  1.9300  1.0644
 1523SOL    HW2 6770   5.479   8.983   6.776  0.1698  1.0370  3.3010
 1524SOL     OW 6771   5.488   6.671   1.453  0.1644 -0.3324  0.5292
 1524SOL    HW1 6772   5.400   6.703   1.435  0.5244  1.0294  1.0725
 1524SOL    HW2 6773   5.541   6.705   1.381  0.9110  2.0330  2.0726
 1525SOL     OW 6774   9.485   5.778   7.186 -0.4838 -0.0088 -0.1056
 1525SOL    HW1 6775   9.558   5.763   7.126  0.7672 -0.2318  1.4305
 1525SOL    HW2 6776   9.420   5.826   7.133  1.1215  0.9702 -1.2655
 1526SOL     OW 6777   7.417   0.800   2.957  0.0479 -1.0703  0.8546
 1526SOL    HW1 6778   7.323   0.810   2.941  0.4670 -1.1083 -2.1674
 1526SOL    HW2 6779   7.443   0.881   2.999 -1.0588 -0.2971  0.1154
 1527SOL     OW 6780   9.493   1.103   1.177  0.8507  0.0774  0.1613
 1527SOL    HW1 6781   9.448   1.117   1.094 -0.0695 -1.1899  0.4330
 1527SOL    HW2 6782   9.441   1.038   1.223  1.5416  0.5009  1.5988
 1528SOL     OW 6783   0.546   7.809   4.242  0.0263  0.2169  0.0793
 1528SOL    HW1 6784   0.527   7.837   4.152 -0.9811 -1.5021 -0.2945
 1528SOL    HW2 6785   0.468   7.833   4.292 -0.0441 -0.1542  0.1556
 1529SOL     OW 6786   7.389   3.452   4.736 -0.2025 -0.6691  0.4201
 1529SOL    HW1 6787   7.412   3.367   4.699 -0.2352 -0.2328 -0.6511
 1529SOL    HW2 6788   7.473   3.493   4.758  0.0399  0.2449 -1.9341
 1530SOL     OW 6789   0.266   1.123   3.175 -0.4044  0.5290  0.3217
 1530SOL    HW1 6790   0.178   1.106   3.141 -0.7216  2.3990  0.1352
 1530SOL    HW2 6791   0.320   1.131   3.097 -0.0505 -0.5858  0.4366
 1531SOL     OW 6792   0.062   3.265   1.880 -0.0550 -0.5377  0.0065
 1531SOL    HW1 6793   0.102   3.334   1.827 -0.2851 -1.0954 -0.9288
 1531SOL    HW2 6794   0.132   3.235   1.937 -0.4787  1.8421  1.9311
 1532SOL     OW 6795   6.486   1.070   9.373  0.1120 -0.0495  0.0308
 1532SOL    HW1 6796   6.481   1.006   9.302 -1.0581 -2.0831  1.7994
 1532SOL    HW2 6797   6.542   1.028   9.439 -1.9957 -0.0430  1.9280
 1533SOL     OW 6798   5.022   6.112   3.305 -0.0840  0.2644 -0.0089
 1533SOL    HW1 6799   4.956   6.067   3.251  1.2615 -1.5331 -0.2376
 1533SOL    HW2 6800   4.985   6.112   3.393 -1.3491  1.2873 -0.5065
 1534SOL     OW 6801   7.727   7.409   4.399  0.1381 -0.6752  0.1006
 1534SOL    HW1 6802   7.707   7.340   4.462  1.5503  0.0272  1.3777
 1534SOL    HW2 6803   7.706   7.490   4.445  2.4371 -0.0779  0.2250
 1535SOL     OW 6804   9.399   1.378   7.206  0.1784 -0.1365 -0.3788
 1535SOL    HW1 6805   9.312   1.404   7.236  0.5427 -0.4865  1.0990
 1535SOL    HW2 6806   9.391   1.283   7.191  0.6567 -0.4594  1.2275
 1536SOL     OW 6807   9.049   4.253   3.020  0.1025 -0.2170 -0.0513
 1536SOL    HW1 6808   9.118   4.188   3.011  1.5962  1.2707  0.1867
 1536SOL    HW2 6809   8.978   4.206   3.065  1.8836 -1.1990  1.9438
 1537SOL     OW 6810   7.399   1.597   7.116  0.0765 -0.0650 -0.2953
 1537SOL    HW1 6811   7.475   1.551   7.080  0.4882 -1.8082  2.5217
 1537SOL    HW2 6812   7.325   1.538   7.101 -0.1799  0.2802 -0.4092
 1538SOL     OW 6813   7.565   1.825   6.302  0.2145 -0.2772 -0.0440
 1538SOL    HW1 6814   7.583   1.749   6.247  1.2716  0.5048 -0.8137
 1538SOL    HW2 6815   7.486   1.864   6.263  1.6611  0.9919 -1.8661
 1539SOL     OW 6816   8.168   9.165   5.207  0.3060 -0.2653 -0.3899
 1539SOL    HW1 6817   8.198   9.128   5.290  3.7937  1.1146 -0.8674
 1539SOL    HW2 6818   8.164   9.089   5.148  2.6178 -0.6785 -0.1304
 1540SOL     OW 6819   2.860   0.358   2.527  0.3387  0.0334  0.2862
 1540SOL    HW1 6820   2.817   0.341   2.610  0.0591  1.5734  0.4828
 1540SOL    HW2 6821   2.879   0.271   2.492  1.5735 -0.6651  2.5035
 1541SOL     OW 6822   2.937   8.944   7.843  0.0568  0.5258  0.2721
 1541SOL    HW1 6823   2.849   8.976   7.863  1.1700  5.1443 -0.9373
 1541SOL    HW2 6824   2.941   8.941   7.748  0.3859 -2.7976  0.2857
 1542SOL     OW 6825   0.912   1.775   0.329 -0.3324 -0.3829 -0.2254
 1542SOL    HW1 6826   0.861   1.708   0.374 -0.2528  0.9973  2.0869
 1542SOL    HW2 6827   0.997   1.734   0.314 -0.1596 -0.7163  1.4828
 1543SOL     OW 6828   6.982   3.453   4.642  0.3482 -0.0350 -0.0471
 1543SOL    HW1 6829   6.985   3.445   4.737  0.0186  1.3051  0.0972
 1543SOL    HW2 6830   6.999   3.545   4.625  0.1482 -0.2027 -1.2762
 1544SOL     OW 6831   0.475   7.514   5.715  0.3756  0.0832 -0.1005
 1544SOL    HW1 6832   0.516   7.534   5.799 -1.4248 -0.1526  0.8833
 1544SOL    HW2 6833   0.399   7.573   5.710 -0.4342 -0.9711 -0.8200
 1545SOL     OW 6834   6.134   1.056   8.941  0.1700 -0.0302  0.5379
 1545SOL    HW1 6835   6.092   1.002   9.008  1.0345 -1.3159  0.0631
 1545SOL    HW2 6836   6.216   1.011   8.920 -1.7633 -1.9770 -4.2627
 1546SOL     OW 6837   6.843   9.080   5.271  0.0784  0.5060  0.6612
 1546SOL    HW1 6838   6.853   9.071   5.177 -0.8277 -2.4854  0.7446
 1546SOL    HW2 6839   6.766   9.136   5.283 -0.5634 -0.1287 -0.4064
 1547SOL     OW 6840   2.519   4.517   0.704  0.5255 -0.0570 -0.3143
 1547SOL    HW1 6841   2.469   4.550   0.629 -1.2236  0.7850  1.1704
 1547SOL    HW2 6842   2.609   4.547   0.687  0.1811  0.1523 -2.0243
 1548SOL     OW 6843   2.527   3.381   5.944 -0.0327 -0.1942  0.2073
 1548SOL    HW1 6844   2.534   3.292   5.912 -1.3215 -0.3588  0.3668
 1548SOL    HW2 6845   2.468   3.425   5.884 -1.0039 -0.0069  1.2623
 1549SOL     OW 6846   9.208   7.961   8.003  0.0978 -0.1633  0.4046
 1549SOL    HW1 6847   9.245   8.005   7.927 -2.1396  0.7162 -0.2467
 1549SOL    HW2 6848   9.285   7.930   8.052  1.6504  1.2618 -0.9807
 1550SOL     OW 6849   2.097   8.350   8.583  0.1961  0.3299  0.3581
 1550SOL    HW1 6850   2.052   8.395   8.654 -0.9499 -0.2756  0.0306
 1550SOL    HW2 6851   2.046   8.371   8.505  1.5881  1.2151 -0.3687
 1551SOL     OW 6852   8.306   6.502   7.795  0.0699  0.6019  0.1988
 1551SOL    HW1 6853   8.346   6.506   7.882  0.0451  0.7941  0.2020
 1551SOL    HW2 6854   8.329   6.416   7.761 -0.1789  0.4101  0.5190
 1552SOL     OW 6855   2.355   7.516   2.260  0.4099  0.1131  0.8338
 1552SOL    HW1 6856   2.406   7.482   2.187 -0.4204 -0.2952  0.4318
 1552SOL    HW2 6857   2.393   7.474   2.337 -0.3868 -1.5560  0.3826
 1553SOL     OW 6858   7.437   5.285   0.924 -0.3505 -0.0927  0.3431
 1553SOL    HW1 6859   7.429   5.365   0.872  0.6504  0.3802  0.9031
 1553SOL    HW2 6860   7.482   5.312   1.004  1.6668 -1.5367 -0.2269
 1554SOL     OW 6861   8.781   2.402   5.547 -0.2274 -0.4033 -0.2672
 1554SOL    HW1 6862   8.731   2.482   5.532 -0.4824 -0.4071  0.5291
 1554SOL    HW2 6863   8.774   2.386   5.641  0.5759 -0.8640 -0.2724
 1555SOL     OW 6864   6.078   7.141   4.879  0.0748 -0.1100 -0.5588
 1555SOL    HW1 6865   6.076   7.156   4.784  0.1835  0.3135 -0.4937
 1555SOL    HW2 6866   5.986   7.149   4.906  0.2466  1.5092 -0.3643
 1556SOL     OW 6867   3.359   7.269   2.200  0.3806 -0.0529 -0.1222
 1556SOL    HW1 6868   3.315   7.215   2.265  1.9494  0.0480  1.0780
 1556SOL    HW2 6869   3.297   7.339   2.180 -1.1637 -1.5425 -0.7475
 1557SOL     OW 6870   4.357   0.740   6.849 -0.2496  0.4220  0.4976
 1557SOL    HW1 6871   4.353   0.663   6.792 -1.5293  1.0545 -0.3210
 1557SOL    HW2 6872   4.306   0.715   6.926  2.1962 -0.7517  1.8745
 1558SOL     OW 6873   3.267   3.127   0.462 -0.5538 -0.1094 -0.7472
 1558SOL    HW1 6874   3.181   3.165   0.441 -0.5174  0.8570  0.7158
 1558SOL    HW2 6875   3.247   3.055   0.522 -0.3188  0.1859 -0.3205
 1559SOL     OW 6876   1.871   1.799   4.044 -0.1252 -0.8808  0.2111
 1559SOL    HW1 6877   1.786   1.777   4.082 -0.9551  0.7048 -0.6213
 1559SOL    HW2 6878   1.930   1.804   4.119 -1.1200 -0.4634  0.9956
 1560SOL     OW 6879   2.895   8.609   1.233  0.4011 -0.3698 -0.2628
 1560SOL    HW1 6880   2.865   8.646   1.150 -1.6915  0.2127  0.6830
 1560SOL    HW2 6881   2.817   8.565   1.268  1.4402 -1.2058  1.0653
 1561SOL     OW 6882   0.940   1.120   5.077 -0.0339 -0.0077  0.3966
 1561SOL    HW1 6883   0.851   1.155   5.077 -0.5460 -1.2541 -0.5635
 1561SOL    HW2 6884   0.964   1.117   5.170  0.0858  2.8859  0.5538
 1562SOL     OW 6885   3.935   4.783   4.443  0.5700  0.7644  0.5163
 1562SOL    HW1 6886   3.940   4.709   4.504 -0.4362 -0.8564 -1.2605
 1562SOL    HW2 6887   4.013   4.835   4.463  1.1061 -0.5358  2.1021
 1563SOL     OW 6888   0.265   4.743   3.926 -0.4470  0.1455  0.0623
 1563SOL    HW1 6889   0.184   4.744   3.874  0.3167  0.8926 -1.1417
 1563SOL    HW2 6890   0.246   4.682   3.998 -2.3366  0.8674  0.2289
 1564SOL     OW 6891   9.353   6.331   6.018 -0.1320 -0.2012 -0.0820
 1564SOL    HW1 6892   9.336   6.265   5.950 -2.0746 -1.4635  1.5000
 1564SOL    HW2 6893   9.443   6.359   6.002 -0.1811 -1.1887 -2.5261
 1565SOL     OW 6894   0.393   1.251   7.527 -0.3598  0.0105  0.2144
 1565SOL    HW1 6895   0.319   1.191   7.533 -0.2100 -0.2595 -0.5215
 1565SOL    HW2 6896   0.443   1.221   7.451  0.2033  0.5275  0.3637
 1566SOL     OW 6897   6.264   5.475   0.223  0.2004 -0.1578 -0.0633
 1566SOL    HW1 6898   6.284   5.493   0.315  1.1247 -1.3257 -0.0145
 1566SOL    HW2 6899   6.300   5.388   0.207 -2.6680 -1.3660 -0.6897
 1567SOL     OW 6900   6.896   9.305   3.655 -0.5404 -0.2683 -0.6422
 1567SOL    HW1 6901   6.886   9.391   3.615  0.4168  0.5840  0.8455
 1567SOL    HW2 6902   6.813   9.260   3.637 -2.1899  1.9672  0.7960
 1568SOL     OW 6903   4.815   1.855   1.453 -0.2130 -0.7960  0.0660
 1568SOL    HW1 6904   4.891   1.797   1.449  1.3320  0.6421  3.8070
 1568SOL    HW2 6905   4.748   1.804   1.497 -1.1627 -1.6946 -2.2636
 1569SOL     OW 6906   2.679   2.835   2.072 -0.3975 -0.0106  0.3615
 1569SOL    HW1 6907   2.704   2.784   2.149 -0.8433 -0.9693 -0.1099
 1569SOL    HW2 6908   2.585   2.846   2.080 -0.9875 -2.6922 -1.4739
 1570SOL     OW 6909   0.094   5.763   4.353  0.2909 -0.3052 -0.1283
 1570SOL    HW1 6910   0.107   5.844   4.403 -2.0288 -0.1276  0.2731
 1570SOL    HW2 6911   0.103   5.789   4.262 -0.1080  0.3533  0.0163
 1571SOL     OW 6912   7.647   0.044   8.110  0.4193  0.1005  0.0701
 1571SOL    HW1 6913   7.714   0.021   8.174  0.5717 -0.6123 -0.3416
 1571SOL    HW2 6914   7.694   0.095   8.044  0.5831 -0.4650 -0.2588
 1572SOL     OW 6915   3.937   8.893   4.658  0.0556 -0.6565  0.2675
 1572SOL    HW1 6916   3.947   8.798   4.651  1.7391 -0.4591 -0.4445
 1572SOL    HW2 6917   3.898   8.906   4.744  0.3066 -1.9667  0.6147
 1573SOL     OW 6918   8.862   5.709   7.524 -0.1415  0.4897 -0.3178
 1573SOL    HW1 6919   8.827   5.668   7.603  0.4152  0.4598 -0.0799
 1573SOL    HW2 6920   8.806   5.677   7.453 -1.3689  1.4312  0.2029
 1574SOL     OW 6921   4.557   7.994   0.684  0.0663  0.1098 -0.1666
 1574SOL    HW1 6922   4.473   8.037   0.701  0.8854  2.5698 -1.7086
 1574SOL    HW2 6923   4.536   7.921   0.627 -1.1505 -0.1244  0.5529
 1575SOL     OW 6924   9.502   2.349   4.298  0.0315  0.2224 -0.0128
 1575SOL    HW1 6925   9.490   2.298   4.379  0.7878  2.1347  1.3846
 1575SOL    HW2 6926   9.482   2.439   4.324  0.4032  0.9121 -1.9677
 1576SOL     OW 6927   8.875   8.408   5.349 -0.2483 -0.1887 -0.8877
 1576SOL    HW1 6928   8.824   8.490   5.345  1.7056  1.2863  1.4838
 1576SOL    HW2 6929   8.838   8.362   5.425  0.6315 -0.0075 -0.3353
 1577SOL     OW 6930   1.261   8.072   6.776 -0.4019  0.0152  0.0642
 1577SOL    HW1 6931   1.175   8.066   6.734 -1.0807  0.6132  1.3137
 1577SOL    HW2 6932   1.296   8.156   6.746  1.4524 -1.7866 -3.4272
 1578SOL     OW 6933   0.024   5.802   2.522 -0.6073  0.1023 -0.7566
 1578SOL    HW1 6934   0.016   5.891   2.486  0.2194  0.8228  0.7330
 1578SOL    HW2 6935   0.056   5.749   2.450 -0.6248  1.1303 -1.5352
 1579SOL     OW 6936   0.333   7.575   3.371  0.0716  0.6450 -0.0499
 1579SOL    HW1 6937   0.266   7.629   3.329  0.4067  1.4057  0.3698
 1579SOL    HW2 6938   0.407   7.577   3.311  0.3204  1.2044  0.2689
 1580SOL     OW 6939   2.236   4.877   4.273 -0.0733  0.5555  0.1937
 1580SOL    HW1 6940   2.163   4.881   4.336 -0.9090 -1.7890 -0.5113
 1580SOL    HW2 6941   2.312   4.854   4.326 -0.7768 -1.4239  0.4026
 1581SOL     OW 6942   8.350   5.413   5.988 -0.6700 -0.4266 -0.4239
 1581SOL    HW1 6943   8.433   5.452   6.017 -0.0961 -1.0649 -1.1701
 1581SOL    HW2 6944   8.329   5.459   5.907  0.0991 -1.7270 -1.4018
 1582SOL     OW 6945   6.851   3.214   0.836  0.1906  0.2776 -0.5710
 1582SOL    HW1 6946   6.877   3.146   0.898 -0.1110  1.0547  0.4356
 1582SOL    HW2 6947   6.934   3.249   0.803  0.3552 -1.1411 -1.7747
 1583SOL     OW 6948   7.076   3.337   1.897  0.3127  0.3643  0.0056
 1583SOL    HW1 6949   7.164   3.339   1.934  0.2452  0.3805  0.1679
 1583SOL    HW2 6950   7.020   3.370   1.968 -0.2368 -2.6080  1.0912
 1584SOL     OW 6951   4.786   4.848   5.477  1.0149  0.3130 -0.3849
 1584SOL    HW1 6952   4.822   4.761   5.496  0.2241  0.2393  0.9445
 1584SOL    HW2 6953   4.754   4.842   5.388 -2.7714 -2.1655  0.9028
 1585SOL     OW 6954   4.822   2.648   0.084 -0.0677 -0.4738  0.1681
 1585SOL    HW1 6955   4.835   2.588   0.010 -1.0112 -0.8990  0.3271
 1585SOL    HW2 6956   4.776   2.723   0.046 -0.0828 -0.4585  0.2163
 1586SOL     OW 6957   1.616   5.539   6.532  0.0268 -0.6002  0.6575
 1586SOL    HW1 6958   1.536   5.562   6.485  0.5102  2.4963  1.1154
 1586SOL    HW2 6959   1.590   5.469   6.592 -1.9946 -0.5858 -0.1317
 1587SOL     OW 6960   3.446   6.056   6.278 -0.1615 -0.1785 -0.2488
 1587SOL    HW1 6961   3.528   6.080   6.322 -1.2598  1.1856  1.1539
 1587SOL    HW2 6962   3.399   6.003   6.342 -1.2165  0.7136 -0.2588
 1588SOL     OW 6963   7.235   1.188   7.125 -0.0454 -0.5057 -0.5627
 1588SOL    HW1 6964   7.198   1.272   7.152  0.4714 -0.4607  0.0280
 1588SOL    HW2 6965   7.300   1.210   7.058 -0.9762 -0.5740 -1.5083
 1589SOL     OW 6966   9.361   3.268   0.190  0.1703  0.0608  0.3302
 1589SOL    HW1 6967   9.424   3.305   0.252 -0.8329  0.1603  1.3403
 1589SOL    HW2 6968   9.278   3.310   0.213 -0.4698 -0.8341 -0.2633
 1590SOL     OW 6969   6.925   4.397   2.343 -0.4315 -0.3165  0.2314
 1590SOL    HW1 6970   6.919   4.493   2.348  0.1937 -0.2716  0.1274
 1590SOL    HW2 6971   6.910   4.377   2.251  2.1703 -0.1005 -0.3117
 1591SOL     OW 6972   5.905   0.410   6.809  0.1732 -0.7411  0.3157
 1591SOL    HW1 6973   5.942   0.335   6.762  1.8305  0.8200 -1.0066
 1591SOL    HW2 6974   5.977   0.441   6.864  0.7547  1.9076 -1.7447
 1592SOL     OW 6975   7.820   2.476   2.415 -0.0748  0.1467 -0.1881
 1592SOL    HW1 6976   7.832   2.565   2.383  0.2930 -0.1701 -0.9556
 1592SOL    HW2 6977   7.893   2.427   2.376  0.1648 -0.3351  0.8245
 1593SOL     OW 6978   7.873   6.483   1.429 -0.1716  0.1459  0.7745
 1593SOL    HW1 6979   7.779   6.499   1.429 -0.2880 -0.3917  2.2764
 1593SOL    HW2 6980   7.906   6.532   1.354 -1.8659 -1.0253 -0.7979
 1594SOL     OW 6981   3.314   9.449   4.390 -0.0198 -0.2705  0.0377
 1594SOL    HW1 6982   3.263   9.371   4.409  0.6631 -0.6230  0.4625
 1594SOL    HW2 6983   3.405   9.423   4.406  0.1598  0.8387  1.0425
 1595SOL     OW 6984   5.465   3.538   8.101 -0.3077  0.4427  0.2064
 1595SOL    HW1 6985   5.429   3.489   8.026 -0.5072  1.9024 -0.6883
 1595SOL    HW2 6986   5.540   3.585   8.065  1.7138 -1.4129  1.7240
 1596SOL     OW 6987   7.082   7.986   6.304 -0.0657  0.0966  0.1229
 1596SOL    HW1 6988   7.080   7.976   6.209 -0.4932 -1.3845  0.2617
 1596SOL    HW2 6989   7.100   8.079   6.318  2.0208 -0.0082 -1.4003
 1597SOL     OW 6990   6.643   0.443   3.762  0.4738 -0.1566  0.3107
 1597SOL    HW1 6991   6.620   0.402   3.679  1.0173  1.4846 -0.6979
 1597SOL    HW2 6992   6.613   0.381   3.829 -1.7074 -0.6666 -1.0397
 1598SOL     OW 6993   7.654   2.420   6.697  0.4095 -0.0325  0.4725
 1598SOL    HW1 6994   7.588   2.469   6.747  0.2063  0.0191  0.1580
 1598SOL    HW2 6995   7.714   2.487   6.665  0.8380 -0.1154  1.0748
 1599SOL     OW 6996   1.194   3.705   8.224 -0.2071  0.3389 -0.2232
 1599SOL    HW1 6997   1.205   3.710   8.318  0.4707  1.1463 -0.3398
 1599SOL    HW2 6998   1.188   3.611   8.205 -3.1317  0.2021  0.9118
 1600SOL     OW 6999   4.769   5.460   6.705  0.0058 -0.3590  0.2027
 1600SOL    HW1 7000   4.843   5.450   6.645 -1.4362 -0.0773 -1.7334
 1600SOL    HW2 7001   4.716   5.528   6.666 -1.0884 -0.2594  1.7731
 1601SOL     OW 7002   5.119   7.061   2.794  0.3815 -0.2355  0.1301
 1601SOL    HW1 7003   5.033   7.020   2.810  0.4556 -0.2989  0.3692
 1601SOL    HW2 7004   5.105   7.153   2.817  0.4569 -0.3040  0.4560
 1602SOL     OW 7005   8.307   6.895   0.188  0.0353 -0.1895  0.8886
 1602SOL    HW1 7006   8.273   6.825   0.243  2.2703 -1.9307  0.2087
 1602SOL    HW2 7007   8.320   6.854   0.103 -1.6938  1.9837 -0.5589
 1603SOL     OW 7008   6.432   5.647   5.847  0.2234 -0.3423 -0.1420
 1603SOL    HW1 7009   6.509   5.609   5.804  2.3389  0.4924  2.6195
 1603SOL    HW2 7010   6.409   5.583   5.915 -0.4459  0.2239  0.1756
 1604SOL     OW 7011   8.094   3.122   7.198  0.6320 -0.1515 -0.1195
 1604SOL    HW1 7012   8.049   3.200   7.165 -0.1761 -1.0064 -1.0977
 1604SOL    HW2 7013   8.185   3.134   7.171  0.4991  0.4260 -0.3176
 1605SOL     OW 7014   2.946   8.146   4.364  0.2458  0.2494  0.4217
 1605SOL    HW1 7015   2.890   8.157   4.441  1.0396  0.9456  0.9064
 1605SOL    HW2 7016   2.884   8.130   4.292 -0.5588  0.5941  1.0241
 1606SOL     OW 7017   6.395   1.245   5.861 -0.5932  0.3990  0.2199
 1606SOL    HW1 7018   6.310   1.202   5.865  0.2335 -1.2783  0.6475
 1606SOL    HW2 7019   6.390   1.313   5.929 -1.4965  0.1455  0.4240
 1607SOL     OW 7020   6.915   1.011   8.164 -0.1230  0.0737 -0.0429
 1607SOL    HW1 7021   6.839   1.027   8.219  0.3986  1.5969  0.2602
 1607SOL    HW2 7022   6.926   1.092   8.114  1.4889 -0.0062  0.1554
 1608SOL     OW 7023   0.636   7.288   5.835 -0.2579  0.4934  0.2057
 1608SOL    HW1 7024   0.695   7.324   5.900  0.4607 -0.5031  0.1311
 1608SOL    HW2 7025   0.624   7.357   5.770 -0.1819  1.1347  0.8712
 1609SOL     OW 7026   8.373   7.538   9.359  0.3462 -0.0341  0.3267
 1609SOL    HW1 7027   8.443   7.580   9.409  0.0097  0.9981 -0.0534
 1609SOL    HW2 7028   8.366   7.589   9.278 -0.4327 -0.4971  0.0869
 1610SOL     OW 7029   1.071   2.158   4.442 -0.0417  0.2056  0.5174
 1610SOL    HW1 7030   1.090   2.084   4.500 -0.2389  1.5720  2.3925
 1610SOL    HW2 7031   0.989   2.195   4.476 -0.6335  0.5432 -1.1825
 1611SOL     OW 7032   1.347   6.068   7.512  0.2339  0.3089  0.2741
 1611SOL    HW1 7033   1.413   6.096   7.576  0.1886 -0.0181  0.4671
 1611SOL    HW2 7034   1.295   6.147   7.496  0.0408  0.3125  0.8903
 1612SOL     OW 7035   0.589   4.202   4.715 -0.3472  1.1542 -0.7351
 1612SOL    HW1 7036   0.589   4.275   4.652  0.8146  0.6580 -1.3458
 1612SOL    HW2 7037   0.642   4.234   4.788 -0.6328  1.2639 -0.5743
 1613SOL     OW 7038   2.577   8.578   3.508  0.5012  0.2909  0.3367
 1613SOL    HW1 7039   2.527   8.528   3.443  1.5818  1.1119 -1.1981
 1613SOL    HW2 7040   2.650   8.520   3.530  1.6629  1.0432 -1.3184
 1614SOL     OW 7041   1.988   4.981   6.874 -0.3419 -0.3520 -0.4031
 1614SOL    HW1 7042   2.058   4.920   6.898 -2.4581 -2.0577  2.0655
 1614SOL    HW2 7043   1.910   4.926   6.869 -1.9958  1.8541 -0.1467
 1615SOL     OW 7044   8.481   7.061   2.997 -0.0116  0.0366  0.1211
 1615SOL    HW1 7045   8.490   6.980   2.947  0.6150 -0.8966  1.7060
 1615SOL    HW2 7046   8.395   7.095   2.971  0.1919 -0.5252 -1.3964
 1616SOL     OW 7047   0.318   0.347   1.786 -0.1890  0.1782  0.2570
 1616SOL    HW1 7048   0.352   0.433   1.758  2.2587 -0.5454  0.7547
 1616SOL    HW2 7049   0.348   0.287   1.718 -1.5090 -0.3725  0.1409
 1617SOL     OW 7050   4.678   7.681   3.283 -0.1372 -0.6210 -0.0921
 1617SOL    HW1 7051   4.741   7.632   3.336 -0.9938  0.1096  1.7192
 1617SOL    HW2 7052   4.643   7.747   3.343  0.4674  1.8036 -2.2294
 1618SOL     OW 7053   3.165   6.985   2.721  0.5118  0.2621  0.0213
 1618SOL    HW1 7054   3.234   7.039   2.760  0.6462  0.9365 -1.0909
 1618SOL    HW2 7055   3.083   7.026   2.748  0.6132  1.1008 -0.8579
 1619SOL     OW 7056   3.187   6.032   0.390 -0.1016 -0.0978  0.6393
 1619SOL    HW1 7057   3.152   6.092   0.456  0.4838  0.0686  0.8082
 1619SOL    HW2 7058   3.282   6.035   0.403  0.1724  1.1479 -1.2391
 1620SOL     OW 7059   3.853   5.619   1.624  0.0261  0.0019  0.4349
 1620SOL    HW1 7060   3.852   5.685   1.555  0.5435 -1.0182 -0.5830
 1620SOL    HW2 7061   3.938   5.575   1.614  0.7667  0.8042  2.6843
 1621SOL     OW 7062   4.988   6.586   8.403  0.4859  0.3107  0.5898
 1621SOL    HW1 7063   4.906   6.601   8.451  1.2629  1.4724  1.6196
 1621SOL    HW2 7064   4.967   6.517   8.340 -1.2979  0.6336  0.7860
 1622SOL     OW 7065   6.601   4.315   9.084 -0.8707 -0.3517 -0.1690
 1622SOL    HW1 7066   6.630   4.347   8.999 -1.2669 -0.1653 -0.2356
 1622SOL    HW2 7067   6.569   4.392   9.129  0.2776 -0.2641  0.5536
 1623SOL     OW 7068   5.978   5.873   5.675 -0.2374  0.4794 -0.0275
 1623SOL    HW1 7069   6.034   5.834   5.741 -0.9026  1.1131  0.9433
 1623SOL    HW2 7070   5.908   5.915   5.725  0.0732  2.3069 -1.0404
 1624SOL     OW 7071   2.138   2.700   9.103 -0.2341  0.4302 -0.1253
 1624SOL    HW1 7072   2.158   2.765   9.171 -0.2196  0.6271 -0.3167
 1624SOL    HW2 7073   2.068   2.739   9.052 -2.1752 -0.8641  1.4020
 1625SOL     OW 7074   2.351   4.425   8.418  0.6855  0.3304  0.5426
 1625SOL    HW1 7075   2.381   4.380   8.498 -0.9770 -2.3626 -0.2203
 1625SOL    HW2 7076   2.256   4.430   8.428  0.3400 -0.8505 -1.5746
 1626SOL     OW 7077   1.433   2.092   6.719 -0.2128  0.0171  0.5263
 1626SOL    HW1 7078   1.419   2.009   6.765  0.2728 -0.0949  0.4779
 1626SOL    HW2 7079   1.513   2.077   6.667  0.2771  0.7421  1.0556
 1627SOL     OW 7080   5.702   1.916   2.253  0.2055 -0.3106 -0.5601
 1627SOL    HW1 7081   5.687   1.822   2.247  0.4130 -0.4206  0.5575
 1627SOL    HW2 7082   5.639   1.954   2.191  0.0935 -1.1697 -0.9889
 1628SOL     OW 7083   9.446   5.736   7.667 -0.1120 -0.0933  0.9155
 1628SOL    HW1 7084   9.407   5.660   7.710 -2.6567 -1.0007 -2.5881
 1628SOL    HW2 7085   9.501   5.699   7.597  1.0696  1.3129  1.0475
 1629SOL     OW 7086   8.129   4.982   3.651  0.6342  0.3529  0.9418
 1629SOL    HW1 7087   8.218   5.003   3.679  0.2140  2.2523  0.9653
 1629SOL    HW2 7088   8.089   4.941   3.727  1.6719 -1.1827  0.7045
 1630SOL     OW 7089   1.825   0.937   8.347  0.2780 -0.3092  0.0806
 1630SOL    HW1 7090   1.790   0.926   8.259 -1.3201  0.6825  0.5402
 1630SOL    HW2 7091   1.904   0.989   8.336  0.0744 -0.1651 -0.7598
 1631SOL     OW 7092   8.584   4.997   7.499  0.3922 -0.1071 -0.3492
 1631SOL    HW1 7093   8.633   4.992   7.417  1.3888 -1.8437  0.2986
 1631SOL    HW2 7094   8.609   5.081   7.537  1.0210  0.0860 -1.1615
 1632SOL     OW 7095   9.463   7.021   1.910  0.0972 -0.2361 -0.5436
 1632SOL    HW1 7096   9.390   7.025   1.971  0.4325  0.0156 -0.1546
 1632SOL    HW2 7097   9.426   7.048   1.826 -0.1453  0.3691 -0.2484
 1633SOL     OW 7098   1.321   2.236   4.515  0.0476  0.1293 -0.0147
 1633SOL    HW1 7099   1.314   2.181   4.593  0.3430 -1.0929 -0.8205
 1633SOL    HW2 7100   1.233   2.232   4.475 -0.5953  2.0902  1.0878
 1634SOL     OW 7101   4.021   1.788   7.963 -0.3511 -0.3202  0.2170
 1634SOL    HW1 7102   4.066   1.739   7.894  0.2972  1.3973 -0.6463
 1634SOL    HW2 7103   4.060   1.756   8.044  2.0428  0.6158 -0.4698
 1635SOL     OW 7104   3.434   2.851   3.689 -0.3011  0.6892 -0.0968
 1635SOL    HW1 7105   3.353   2.801   3.697 -0.1649  0.3112 -0.8848
 1635SOL    HW2 7106   3.407   2.938   3.661 -0.4131  0.4298 -0.8106
 1636SOL     OW 7107   5.050   6.080   2.074  0.3473 -0.2789  0.1490
 1636SOL    HW1 7108   4.986   6.148   2.052 -0.8763 -0.8785  1.6628
 1636SOL    HW2 7109   5.106   6.075   1.997  0.0443  1.9307 -0.3044
 1637SOL     OW 7110   0.748   0.724   9.104  0.6007 -0.4018 -0.0931
 1637SOL    HW1 7111   0.671   0.715   9.160  0.7151  0.4216  0.2245
 1637SOL    HW2 7112   0.721   0.786   9.035  1.0333  0.0656  0.1462
 1638SOL     OW 7113   1.162   3.414   5.005 -0.0585  0.3155 -0.3591
 1638SOL    HW1 7114   1.133   3.399   4.915  2.1292 -0.2551 -1.0274
 1638SOL    HW2 7115   1.257   3.412   5.000  0.1340  1.3402  1.8144
 1639SOL     OW 7116   2.418   8.928   4.703  0.4001  0.2254  0.3856
 1639SOL    HW1 7117   2.385   8.859   4.646  0.2010 -0.4255  1.2606
 1639SOL    HW2 7118   2.510   8.906   4.716  1.0083  1.5260 -1.3092
 1640SOL     OW 7119   2.602   8.596   2.923 -0.0621  0.9073  0.1577
 1640SOL    HW1 7120   2.619   8.676   2.974  1.3001  1.5777 -1.2605
 1640SOL    HW2 7121   2.687   8.553   2.918  0.0489  1.2821 -2.1740
 1641SOL     OW 7122   1.038   1.026   5.309 -0.9297 -0.2631  0.2178
 1641SOL    HW1 7123   1.020   1.014   5.402  1.3772  0.9388  0.8935
 1641SOL    HW2 7124   1.068   0.939   5.280 -2.1035 -0.7651  0.4377
 1642SOL     OW 7125   2.347   1.778   3.909  0.2268  0.1934  0.0811
 1642SOL    HW1 7126   2.257   1.746   3.902 -0.6895  2.4716  0.7071
 1642SOL    HW2 7127   2.343   1.850   3.972  2.1945  1.3360 -0.9878
 1643SOL     OW 7128   7.847   8.096   7.968  0.3076  0.2649 -0.4445
 1643SOL    HW1 7129   7.911   8.145   7.916  0.3201 -1.0631 -1.7651
 1643SOL    HW2 7130   7.823   8.155   8.039  1.6771  1.4621 -0.9224
 1644SOL     OW 7131   9.069   8.294   8.389 -0.2862  1.0635  0.2180
 1644SOL    HW1 7132   9.114   8.299   8.474 -2.2885 -0.2230  1.4608
 1644SOL    HW2 7133   9.019   8.376   8.384 -0.4815  0.9676  0.5085
 1645SOL     OW 7134   5.893   3.034   8.784  0.5875 -0.2522 -0.1364
 1645SOL    HW1 7135   5.897   3.123   8.819  0.3630  0.0045 -0.7517
 1645SOL    HW2 7136   5.802   3.024   8.756  0.7461 -0.4894 -0.5634
 1646SOL     OW 7137   4.771   0.561   4.836  0.1524 -0.2461 -0.1042
 1646SOL    HW1 7138   4.786   0.653   4.817  2.2150 -0.9882 -2.6136
 1646SOL    HW2 7139   4.678   0.548   4.819 -0.0915  1.2915 -0.0525
 1647SOL     OW 7140   2.383   2.604   1.241 -0.4888 -0.3530 -0.3819
 1647SOL    HW1 7141   2.415   2.688   1.208  2.5817 -0.6441  1.4819
 1647SOL    HW2 7142   2.299   2.625   1.282 -0.7342  1.3901 -1.6531
 1648SOL     OW 7143   1.199   8.055   2.870 -0.2136  0.4782 -0.2886
 1648SOL    HW1 7144   1.201   8.148   2.847  0.9513  0.6130  0.2687
 1648SOL    HW2 7145   1.150   8.052   2.952 -0.2403  0.6019 -0.2990
 1649SOL     OW 7146   9.261   9.286   3.536  0.2819 -0.1111  0.1281
 1649SOL    HW1 7147   9.212   9.250   3.610  0.1151  0.1701  0.1535
 1649SOL    HW2 7148   9.329   9.221   3.519  2.4827  1.3093  2.6982
 1650SOL     OW 7149   3.921   2.710   8.781  0.2324 -0.4022 -0.1255
 1650SOL    HW1 7150   3.953   2.622   8.799  2.6154  0.4667  0.3561
 1650SOL    HW2 7151   3.915   2.752   8.867  1.6552  0.6496 -0.4951
 1651SOL     OW 7152   6.913   3.089   2.911  0.6619  0.6927 -0.6228
 1651SOL    HW1 7153   6.998   3.130   2.900  0.2839  1.5279 -0.4741
 1651SOL    HW2 7154   6.861   3.119   2.836  0.7885 -0.5965 -1.2521
 1652SOL     OW 7155   1.198   6.931   3.375 -0.1853 -0.3913 -0.3582
 1652SOL    HW1 7156   1.211   6.891   3.289 -0.9853 -0.0195 -0.6603
 1652SOL    HW2 7157   1.194   7.025   3.357 -0.8226 -0.3426  0.0269
 1653SOL     OW 7158   7.677   7.176   5.516 -0.2545  0.1870 -0.1065
 1653SOL    HW1 7159   7.748   7.158   5.577 -0.6308  0.0333  0.2870
 1653SOL    HW2 7160   7.631   7.251   5.554 -1.0027 -0.4402  0.2481
 1654SOL     OW 7161   7.602   2.799   3.698  0.7890  0.4489  0.3048
 1654SOL    HW1 7162   7.689   2.834   3.682  0.3792  1.0306 -0.7567
 1654SOL    HW2 7163   7.569   2.848   3.773  1.3150  0.3319  0.6122
 1655SOL     OW 7164   4.000   0.727   2.401 -0.0642 -0.5995  0.2895
 1655SOL    HW1 7165   3.929   0.727   2.337  0.4444  0.0862 -0.2909
 1655SOL    HW2 7166   3.990   0.643   2.447 -0.8954 -0.7683 -0.1656
 1656SOL     OW 7167   2.633   6.345   5.923  0.1755 -0.0448 -0.1205
 1656SOL    HW1 7168   2.551   6.391   5.941  0.8380  0.9850  0.4212
 1656SOL    HW2 7169   2.644   6.352   5.829  1.2287  2.7509  0.1062
 1657SOL     OW 7170   9.287   3.831   7.429 -0.3470 -0.1900  0.2305
 1657SOL    HW1 7171   9.274   3.786   7.346 -0.0582  0.8563 -0.4029
 1657SOL    HW2 7172   9.270   3.765   7.496 -1.1179 -0.9004 -0.6529
 1658SOL     OW 7173   6.783   2.005   2.582  0.2079 -0.4419  0.0822
 1658SOL    HW1 7174   6.807   1.994   2.675 -1.8139 -0.3189  0.6555
 1658SOL    HW2 7175   6.864   1.987   2.535  1.1591 -1.0446  1.8441
 1659SOL     OW 7176   0.155   7.103   1.783 -0.2314  0.2284  0.4750
 1659SOL    HW1 7177   0.151   7.199   1.789  2.7992  0.4758  0.2155
 1659SOL    HW2 7178   0.140   7.085   1.690 -3.9198  0.0862  0.9718
 1660SOL     OW 7179   0.312   9.249   1.158 -0.0594  0.3663 -0.3544
 1660SOL    HW1 7180   0.315   9.303   1.237  2.3361  1.4293 -1.0825
 1660SOL    HW2 7181   0.301   9.312   1.087 -0.4056 -0.4162 -1.0003
 1661SOL     OW 7182   1.306   7.952   5.492 -0.1487 -0.7471 -0.1564
 1661SOL    HW1 7183   1.365   7.893   5.539  1.2115 -0.0793 -0.9532
 1661SOL    HW2 7184   1.307   7.920   5.402 -0.7982 -0.5529 -0.2390
 1662SOL     OW 7185   0.537   4.744   1.995  0.0416  0.2344  0.3274
 1662SOL    HW1 7186   0.502   4.672   2.047 -0.5354 -0.0365 -0.4117
 1662SOL    HW2 7187   0.618   4.769   2.039  0.3862 -1.0461  0.4412
 1663SOL     OW 7188   9.533   4.965   2.440 -0.4975 -0.2020 -0.8741
 1663SOL    HW1 7189   9.569   4.958   2.528 -0.9272  0.8442 -0.6098
 1663SOL    HW2 7190   9.478   5.043   2.442 -1.6906 -0.9893 -1.6503
 1664SOL     OW 7191   7.481   6.488   3.799 -0.4204  0.0724  0.1694
 1664SOL    HW1 7192   7.505   6.507   3.709  1.0181 -0.1685  0.4719
 1664SOL    HW2 7193   7.447   6.399   3.797  0.1780 -0.1529 -0.0454
 1665SOL     OW 7194   6.936   5.309   8.100 -0.7400 -0.0175  0.0876
 1665SOL    HW1 7195   6.846   5.328   8.073 -0.3680  0.5865 -0.7806
 1665SOL    HW2 7196   6.927   5.267   8.186 -1.8300  0.2667  0.1296
 1666SOL     OW 7197   1.131   2.688   8.960  0.2028 -0.6679 -0.2089
 1666SOL    HW1 7198   1.097   2.773   8.933  0.7020 -0.4597 -0.1848
 1666SOL    HW2 7199   1.089   2.626   8.901  0.3197 -0.3395 -0.6429
 1667SOL     OW 7200   2.568   6.818   1.863  0.3954  0.1958  0.0906
 1667SOL    HW1 7201   2.577   6.895   1.920  0.6168 -0.7903  1.4530
 1667SOL    HW2 7202   2.648   6.768   1.878 -0.3990 -1.0248  0.3761
 1668SOL     OW 7203   1.695   5.823   3.281 -0.1976 -0.0485  0.8990
 1668SOL    HW1 7204   1.689   5.741   3.329  1.3112 -0.7407  0.0107
 1668SOL    HW2 7205   1.691   5.796   3.189 -0.1445  0.9151  0.6076
 1669SOL     OW 7206   3.772   3.055   6.284 -0.0841  0.2931 -0.4880
 1669SOL    HW1 7207   3.704   3.062   6.351  0.0005  1.3568 -0.4919
 1669SOL    HW2 7208   3.780   2.961   6.267  0.2921 -0.0539  1.4072
 1670SOL     OW 7209   0.857   0.863   8.285  0.3150  0.7447  0.1109
 1670SOL    HW1 7210   0.864   0.910   8.368 -0.1954  1.4364 -0.2282
 1670SOL    HW2 7211   0.852   0.932   8.219 -0.0290  0.2078 -0.4342
 1671SOL     OW 7212   0.365   3.905   5.120  0.0917  0.0930 -0.0114
 1671SOL    HW1 7213   0.289   3.934   5.170 -0.7481 -0.8104 -0.7178
 1671SOL    HW2 7214   0.384   3.817   5.152  1.6187  0.7289  0.9889
 1672SOL     OW 7215   9.369   8.305   2.384 -0.1250  0.0500 -0.6441
 1672SOL    HW1 7216   9.391   8.398   2.385  0.1677  0.0009  1.0592
 1672SOL    HW2 7217   9.273   8.303   2.383 -0.1659  0.4104  0.7193
 1673SOL     OW 7218   5.212   0.449   8.598  0.5360  0.2906  0.0529
 1673SOL    HW1 7219   5.141   0.412   8.651 -0.0859 -0.7482 -1.4292
 1673SOL    HW2 7220   5.174   0.458   8.511  1.6529  1.5870 -0.3139
 1674SOL     OW 7221   8.622   5.774   0.364 -0.4188 -0.4673  0.4629
 1674SOL    HW1 7222   8.694   5.723   0.326 -1.0061  0.6418 -2.4089
 1674SOL    HW2 7223   8.543   5.735   0.326 -0.9533  1.6128 -0.6887
 1675SOL     OW 7224   5.589   3.327   5.253 -0.1765  0.0914 -0.5826
 1675SOL    HW1 7225   5.527   3.351   5.321  1.0889 -0.6640  0.9092
 1675SOL    HW2 7226   5.646   3.262   5.294  1.9801  1.1846 -1.6645
 1676SOL     OW 7227   2.810   5.841   5.410 -0.1288 -0.3586 -0.0666
 1676SOL    HW1 7228   2.896   5.801   5.421  0.1483  0.0525 -0.7108
 1676SOL    HW2 7229   2.748   5.769   5.427  0.3358 -0.6709  0.3305
 1677SOL     OW 7230   5.759   6.791   0.565 -0.5119  0.4308 -0.0954
 1677SOL    HW1 7231   5.840   6.831   0.532  0.7125 -0.4974  1.5845
 1677SOL    HW2 7232   5.725   6.741   0.491  1.1470 -0.1606 -0.4948
 1678SOL     OW 7233   1.798   0.580   5.685 -0.3458  0.4627  0.4414
 1678SOL    HW1 7234   1.770   0.489   5.673 -2.7264  1.0239  1.1055
 1678SOL    HW2 7235   1.879   0.575   5.735 -0.1154 -1.2988 -0.0602
 1679SOL     OW 7236   9.343   7.029   0.073 -0.2908  0.3338  0.3481
 1679SOL    HW1 7237   9.411   7.073   0.021  0.7771  1.7710  2.7796
 1679SOL    HW2 7238   9.305   7.099   0.126 -1.1156 -1.0818  1.6957
 1680SOL     OW 7239   5.572   1.929   0.710  0.0733 -0.1978 -0.0256
 1680SOL    HW1 7240   5.486   1.887   0.707 -0.7436  1.4534 -0.8620
 1680SOL    HW2 7241   5.633   1.861   0.681 -1.1132 -0.9976 -0.7243
 1681SOL     OW 7242   4.320   6.861   0.482  0.2519 -0.2130  0.5984
 1681SOL    HW1 7243   4.307   6.952   0.510 -1.1598 -0.6719  1.5695
 1681SOL    HW2 7244   4.236   6.835   0.445 -0.1469 -1.8065  2.4493
 1682SOL     OW 7245   6.592   7.365   8.786  0.4404 -0.3853 -0.0242
 1682SOL    HW1 7246   6.662   7.300   8.797  0.1420 -0.4693  1.6328
 1682SOL    HW2 7247   6.518   7.314   8.755 -0.2482 -1.1975  2.6964
 1683SOL     OW 7248   5.666   2.526   5.812  1.2718 -0.0289  0.3049
 1683SOL    HW1 7249   5.656   2.530   5.907  2.0820  0.0590  0.3908
 1683SOL    HW2 7250   5.677   2.617   5.785  1.7179 -0.1147  0.2021
 1684SOL     OW 7251   7.593   4.401   0.893 -0.2769 -0.4594 -0.1068
 1684SOL    HW1 7252   7.570   4.428   0.804  0.6595  1.1786  0.1030
 1684SOL    HW2 7253   7.585   4.481   0.945  0.7705 -1.0205  0.9580
 1685SOL     OW 7254   5.091   6.703   0.759  0.2435 -0.7924 -0.1645
 1685SOL    HW1 7255   5.174   6.697   0.712  0.0681 -2.5271 -0.2836
 1685SOL    HW2 7256   5.030   6.649   0.709 -0.3458 -1.4402  1.2104
 1686SOL     OW 7257   7.815   7.485   3.963 -0.3763 -0.2065  0.0273
 1686SOL    HW1 7258   7.809   7.521   3.874 -0.6765  0.6192  0.3792
 1686SOL    HW2 7259   7.725   7.461   3.985 -0.2043 -1.0256 -0.1367
 1687SOL     OW 7260   3.778   1.758   0.604  0.2048  0.0305 -0.0780
 1687SOL    HW1 7261   3.734   1.713   0.676  1.5428  0.1838  0.8596
 1687SOL    HW2 7262   3.719   1.832   0.583  1.0641  1.7101  2.7963
 1688SOL     OW 7263   1.775   2.169   6.877 -0.5983 -0.0543  0.0540
 1688SOL    HW1 7264   1.722   2.244   6.851  0.2791  0.3312 -0.7002
 1688SOL    HW2 7265   1.803   2.190   6.966 -3.9967 -1.5984  1.6739
 1689SOL     OW 7266   6.183   5.144   5.221 -0.1633  0.4660 -0.0545
 1689SOL    HW1 7267   6.123   5.110   5.287  0.6501  2.6382  1.9463
 1689SOL    HW2 7268   6.245   5.073   5.206 -1.7036 -0.8964 -0.2639
 1690SOL     OW 7269   6.486   4.432   7.776 -0.5251 -0.2758 -0.6895
 1690SOL    HW1 7270   6.395   4.425   7.746 -0.6180 -0.3293 -0.3972
 1690SOL    HW2 7271   6.524   4.347   7.754 -0.7274 -0.4915 -0.2164
 1691SOL     OW 7272   7.695   3.390   6.631  0.4341 -0.5202  0.0082
 1691SOL    HW1 7273   7.692   3.432   6.545  1.6888 -1.1483 -0.3758
 1691SOL    HW2 7274   7.767   3.434   6.676 -0.7914  0.4228  1.0973
 1692SOL     OW 7275   3.996   1.618   1.933  0.2581  0.1626 -0.0983
 1692SOL    HW1 7276   4.034   1.540   1.893  0.8251  0.4209 -0.0748
 1692SOL    HW2 7277   3.912   1.589   1.968  0.4471 -0.4248 -0.1299
 1693SOL     OW 7278   9.579   1.394   8.800  0.1061 -0.6564  0.5699
 1693SOL    HW1 7279   9.495   1.436   8.817  0.0079  0.0825 -1.4916
 1693SOL    HW2 7280   9.562   1.301   8.814 -0.6658 -0.3954  1.5157
 1694SOL     OW 7281   8.143   4.495   7.931 -0.3361  0.1890 -0.1781
 1694SOL    HW1 7282   8.061   4.537   7.956 -0.7949 -0.4269 -0.6087
 1694SOL    HW2 7283   8.184   4.556   7.870 -1.0254 -0.0061 -0.8525
 1695SOL     OW 7284   3.287   8.382   0.397  0.0558  0.0154  0.2803
 1695SOL    HW1 7285   3.269   8.379   0.303 -2.1341 -1.0483  0.6832
 1695SOL    HW2 7286   3.363   8.324   0.408 -0.7921 -1.3234 -0.6321
 1696SOL     OW 7287   0.209   6.722   2.635 -0.5258 -0.2792 -0.0657
 1696SOL    HW1 7288   0.162   6.650   2.592  1.5528 -0.9422 -1.4109
 1696SOL    HW2 7289   0.287   6.680   2.672  1.7098  1.4094 -2.4526
 1697SOL     OW 7290   6.865   8.833   9.419  0.1007 -0.1824 -0.0007
 1697SOL    HW1 7291   6.822   8.772   9.359 -1.0139 -1.4992  2.0108
 1697SOL    HW2 7292   6.886   8.780   9.496 -1.6779  2.0894  2.2063
 1698SOL     OW 7293   2.612   2.692   6.884  0.2291  0.0362  0.3158
 1698SOL    HW1 7294   2.581   2.750   6.954 -0.6418  0.0395 -0.0572
 1698SOL    HW2 7295   2.546   2.623   6.880  0.9122 -0.6300  0.3033
 1699SOL     OW 7296   8.181   7.854   7.103  0.3702  0.3774  0.3134
 1699SOL    HW1 7297   8.221   7.926   7.055  0.5555 -0.1332 -0.3162
 1699SOL    HW2 7298   8.099   7.890   7.137 -0.0773  0.5607 -0.9360
 1700SOL     OW 7299   0.244   8.388   5.462  0.3709  0.6048 -0.7199
 1700SOL    HW1 7300   0.197   8.337   5.397  1.5730 -0.7172 -0.5920
 1700SOL    HW2 7301   0.183   8.394   5.536 -0.3871  0.7512 -1.3395
 1701SOL     OW 7302   7.121   2.232   6.510  0.1177  0.2478 -0.6044
 1701SOL    HW1 7303   7.093   2.198   6.425 -0.4568 -2.4316  0.5304
 1701SOL    HW2 7304   7.066   2.185   6.573  1.4235  1.1811  1.3089
 1702SOL     OW 7305   1.935   6.598   1.203  0.7958 -0.3554 -0.3537
 1702SOL    HW1 7306   1.990   6.635   1.135  1.4221 -0.5190  0.0517
 1702SOL    HW2 7307   1.996   6.569   1.271  0.1296  2.1393  1.4909
 1703SOL     OW 7308   4.485   5.210   2.210  0.0025 -0.4207  0.3059
 1703SOL    HW1 7309   4.410   5.193   2.152 -1.2945 -0.1468  1.8403
 1703SOL    HW2 7310   4.448   5.262   2.282  1.6494 -0.4286  1.1948
 1704SOL     OW 7311   6.418   7.984   9.328 -0.2729 -0.8473  0.1066
 1704SOL    HW1 7312   6.344   8.002   9.269 -1.0104  0.3156  1.3277
 1704SOL    HW2 7313   6.377   7.974   9.415  0.5807 -4.1500  0.2666
 1705SOL     OW 7314   7.751   3.912   2.142 -0.3624 -0.2888 -0.1130
 1705SOL    HW1 7315   7.837   3.906   2.100 -0.2223  4.1946 -0.8829
 1705SOL    HW2 7316   7.767   3.956   2.225 -1.8723  0.3287 -0.1188
 1706SOL     OW 7317   9.236   6.338   8.857 -0.2464  0.0336  0.3223
 1706SOL    HW1 7318   9.223   6.364   8.766  0.5561 -0.1475  0.1456
 1706SOL    HW2 7319   9.208   6.247   8.862 -0.6638  0.1620  0.3522
 1707SOL     OW 7320   2.253   1.150   2.414 -0.5219  0.1054  0.4785
 1707SOL    HW1 7321   2.222   1.217   2.475 -1.2767  1.8385 -1.7074
 1707SOL    HW2 7322   2.180   1.135   2.354  0.5063 -0.8466 -0.5942
 1708SOL     OW 7323   8.317   3.442   9.555  0.4785  0.1486 -0.1578
 1708SOL    HW1 7324   8.404   3.418   9.524  0.3339 -1.1606  0.3987
 1708SOL    HW2 7325   8.324   3.442   9.650 -0.5532 -1.7776 -0.0303
 1709SOL     OW 7326   8.977   4.785   9.459 -0.1833 -0.3913 -0.6093
 1709SOL    HW1 7327   9.066   4.759   9.436 -1.1865 -3.6947 -1.3128
 1709SOL    HW2 7328   8.954   4.730   9.534 -1.6207  0.4570 -0.3812
 1710SOL     OW 7329   1.861   5.354   2.304 -0.2271 -0.5874  0.3617
 1710SOL    HW1 7330   1.807   5.321   2.232 -0.3304 -0.0657  0.1984
 1710SOL    HW2 7331   1.940   5.388   2.263  0.2000 -1.2853  0.5972
 1711SOL     OW 7332   7.527   6.338   3.402 -0.2794 -0.0760  0.4105
 1711SOL    HW1 7333   7.463   6.298   3.462 -0.6799  0.9821  0.7014
 1711SOL    HW2 7334   7.539   6.427   3.435 -0.1249  0.3673 -0.7975
 1712SOL     OW 7335   5.873   6.567   8.844  0.1436 -0.6978 -0.2526
 1712SOL    HW1 7336   5.810   6.637   8.861  0.1498 -0.4790 -1.0855
 1712SOL    HW2 7337   5.958   6.606   8.864  0.0689 -0.8135  0.3176
 1713SOL     OW 7338   6.448   3.836   9.362 -0.6960  0.6127 -0.5515
 1713SOL    HW1 7339   6.406   3.903   9.415 -1.3760  1.5596 -2.1835
 1713SOL    HW2 7340   6.535   3.826   9.399 -1.3678  0.7337  1.1224
 1714SOL     OW 7341   8.253   8.420   8.746 -0.0861  0.2209 -0.6422
 1714SOL    HW1 7342   8.248   8.506   8.703 -0.4869 -0.7953 -2.7489
 1714SOL    HW2 7343   8.347   8.405   8.758 -0.0040  0.8594 -0.4390
 1715SOL     OW 7344   3.336   6.920   4.777 -0.2313  0.1723  0.1423
 1715SOL    HW1 7345   3.304   6.834   4.750 -2.7628  1.4000 -1.1505
 1715SOL    HW2 7346   3.301   6.980   4.711  1.4937  2.2077  0.9737
 1716SOL     OW 7347   1.864   7.983   2.519 -0.2052 -0.1619 -0.3740
 1716SOL    HW1 7348   1.936   7.967   2.580  0.2696  0.1850 -0.8439
 1716SOL    HW2 7349   1.861   8.078   2.510 -1.8793 -0.0246  1.0320
 1717SOL     OW 7350   1.423   3.837   8.664  0.0464 -0.0341 -0.4096
 1717SOL    HW1 7351   1.391   3.886   8.588 -0.6561  1.3311  0.7250
 1717SOL    HW2 7352   1.462   3.904   8.720 -0.3435 -0.8779  0.8900
 1718SOL     OW 7353   3.915   9.229   6.439  0.0007 -0.3696 -0.6931
 1718SOL    HW1 7354   3.862   9.262   6.511 -0.1395  0.3780 -1.1353
 1718SOL    HW2 7355   3.989   9.185   6.482  0.0230  0.2394 -0.1013
 1719SOL     OW 7356   9.570   2.948   6.443  0.3637 -0.1342 -0.3600
 1719SOL    HW1 7357   9.569   3.043   6.430  0.6023  0.1196  1.2482
 1719SOL    HW2 7358   9.662   2.923   6.430  0.3044 -0.1439 -0.7630
 1720SOL     OW 7359   3.655   8.488   5.804  0.5827  0.0399 -0.3830
 1720SOL    HW1 7360   3.707   8.414   5.772 -0.8793 -1.3941  0.3954
 1720SOL    HW2 7361   3.565   8.464   5.784  0.0563  1.5532  0.0479
 1721SOL     OW 7362   7.689   9.405   6.760  0.0762 -0.8993  0.4325
 1721SOL    HW1 7363   7.616   9.360   6.802 -1.0888  0.9682  0.5053
 1721SOL    HW2 7364   7.684   9.495   6.792  1.3923 -0.3078 -0.8883
 1722SOL     OW 7365   7.156   9.385   8.012 -0.3924  0.6494 -0.4248
 1722SOL    HW1 7366   7.220   9.430   7.957 -0.4033  1.6748  0.3686
 1722SOL    HW2 7367   7.091   9.351   7.951  1.8241 -2.1029 -1.4793
 1723SOL     OW 7368   9.034   5.159   5.126  0.3099  0.2591  0.0406
 1723SOL    HW1 7369   9.087   5.082   5.145  0.7662  0.6729  0.4534
 1723SOL    HW2 7370   9.082   5.232   5.164 -1.3292  0.4579  1.8877
 1724SOL     OW 7371   5.391   9.412   1.024 -0.3070 -0.2661  0.1295
 1724SOL    HW1 7372   5.295   9.416   1.024 -0.2923  0.6153 -0.9304
 1724SOL    HW2 7373   5.412   9.347   1.091 -1.5776  0.9696  1.8229
 1725SOL     OW 7374   9.366   7.212   2.300  0.0331  0.1885 -0.0564
 1725SOL    HW1 7375   9.416   7.139   2.338 -0.2857 -1.3408 -2.3461
 1725SOL    HW2 7376   9.423   7.246   2.231 -0.6331  0.7938 -0.3113
 1726SOL     OW 7377   6.640   2.786   7.376  0.1853 -0.2506 -0.5234
 1726SOL    HW1 7378   6.587   2.862   7.399  1.2872  0.1742  0.7549
 1726SOL    HW2 7379   6.730   2.818   7.378  0.6252 -1.4156 -0.7443
 1727SOL     OW 7380   0.622   3.120   5.966 -0.0290 -0.1204  0.4661
 1727SOL    HW1 7381   0.544   3.148   5.917 -1.3015 -1.7057  1.4763
 1727SOL    HW2 7382   0.663   3.053   5.910 -1.4581 -1.8998  1.4416
 1728SOL     OW 7383   4.796   4.043   2.897 -0.4846  0.2539 -0.2915
 1728SOL    HW1 7384   4.874   4.020   2.845  0.9461  2.1418  0.9127
 1728SOL    HW2 7385   4.725   4.045   2.833  0.6792 -0.3096 -1.6604
 1729SOL     OW 7386   3.695   6.492   4.955  0.2535 -0.2987 -0.0712
 1729SOL    HW1 7387   3.705   6.523   5.045  0.2302 -1.6936  0.4386
 1729SOL    HW2 7388   3.684   6.572   4.903 -0.1256  0.5191  1.2109
 1730SOL     OW 7389   4.930   5.083   7.812  0.7033  0.0067 -0.3178
 1730SOL    HW1 7390   4.863   5.151   7.808  0.7461 -0.0051 -1.6344
 1730SOL    HW2 7391   4.911   5.026   7.738  1.4478 -0.6835  0.0018
 1731SOL     OW 7392   7.643   9.078   1.268 -0.1665  0.5672  0.1591
 1731SOL    HW1 7393   7.605   9.054   1.352  2.4504 -0.4709  1.1384
 1731SOL    HW2 7394   7.673   9.168   1.280  1.0900  0.0917  0.7098
 1732SOL     OW 7395   1.252   4.671   1.931  0.0660 -0.5995  0.4506
 1732SOL    HW1 7396   1.340   4.665   1.968 -0.3983 -0.4676  1.6251
 1732SOL    HW2 7397   1.194   4.645   2.003 -0.8592 -0.6028 -0.2810
 1733SOL     OW 7398   8.655   1.951   3.143 -0.0582 -0.3596 -0.3860
 1733SOL    HW1 7399   8.695   1.966   3.057  0.7786 -0.6381 -0.0569
 1733SOL    HW2 7400   8.621   1.862   3.138  0.3090 -0.5070 -0.3140
 1734SOL     OW 7401   3.513   4.167   4.263  0.2083 -0.1226 -0.3041
 1734SOL    HW1 7402   3.449   4.119   4.211  0.4062 -0.9387  0.1792
 1734SOL    HW2 7403   3.474   4.172   4.350  0.0024  0.9859 -0.4479
 1735SOL     OW 7404   5.810   7.488   8.184  0.0235 -0.2030  0.1041
 1735SOL    HW1 7405   5.879   7.428   8.155 -0.2621  0.1711 -1.4357
 1735SOL    HW2 7406   5.731   7.434   8.185 -0.0756 -0.0788 -0.4457
 1736SOL     OW 7407   6.134   3.814   0.085 -0.2673 -0.7078 -0.2296
 1736SOL    HW1 7408   6.084   3.813   0.167  0.3963  0.5474  0.2282
 1736SOL    HW2 7409   6.094   3.884   0.034  0.1407 -0.6222 -0.4311
 1737SOL     OW 7410   7.195   5.955   2.088 -0.7640  0.6843  0.2450
 1737SOL    HW1 7411   7.160   5.867   2.075 -0.5077  0.5518  0.4433
 1737SOL    HW2 7412   7.178   6.000   2.005  0.3506  0.0310 -0.3630
 1738SOL     OW 7413   5.900   1.155   1.229  0.2599 -0.2496 -0.8036
 1738SOL    HW1 7414   5.871   1.074   1.271 -0.3944 -0.3052 -1.3354
 1738SOL    HW2 7415   5.991   1.138   1.205  0.9504  0.1014  1.3286
 1739SOL     OW 7416   4.585   6.074   1.730 -0.3916 -0.0013  0.5353
 1739SOL    HW1 7417   4.563   5.987   1.764 -0.6452  0.3824  1.3769
 1739SOL    HW2 7418   4.680   6.072   1.718 -0.4962 -0.6791 -0.2914
 1740SOL     OW 7419   3.883   6.918   6.074  0.4947  0.0349 -0.0983
 1740SOL    HW1 7420   3.931   6.835   6.078  0.3381 -0.0022  1.8984
 1740SOL    HW2 7421   3.793   6.895   6.098  0.5930  0.8691  1.1292
 1741SOL     OW 7422   6.533   2.786   7.957  0.4631  0.1931  0.2409
 1741SOL    HW1 7423   6.560   2.758   7.870 -2.5194 -0.8955 -0.4238
 1741SOL    HW2 7424   6.574   2.872   7.968  1.9325 -0.1944 -1.6654
 1742SOL     OW 7425   7.274   8.422   3.925  0.2036  0.0052  0.1059
 1742SOL    HW1 7426   7.195   8.475   3.921  1.2786  1.7192  0.4124
 1742SOL    HW2 7427   7.243   8.331   3.917 -1.6539  0.6762 -0.9420
 1743SOL     OW 7428   5.356   2.319   0.689 -0.1582 -0.0380 -0.5301
 1743SOL    HW1 7429   5.365   2.317   0.594  0.1814  0.7940 -0.5182
 1743SOL    HW2 7430   5.428   2.266   0.721 -1.0761 -1.4886 -0.7694
 1744SOL     OW 7431   0.800   5.349   5.833  0.6048  0.4418  0.1951
 1744SOL    HW1 7432   0.756   5.419   5.785 -0.6274 -1.6297 -1.8888
 1744SOL    HW2 7433   0.731   5.310   5.887  0.0140 -2.0038 -2.1290
 1745SOL     OW 7434   8.967   9.421   3.189  0.2549  0.2724  0.0054
 1745SOL    HW1 7435   8.989   9.350   3.249  0.7765 -0.5646 -1.1353
 1745SOL    HW2 7436   8.872   9.429   3.195  0.3889  0.9372  1.7203
 1746SOL     OW 7437   6.804   0.201   7.400  0.1414  0.2071 -0.4260
 1746SOL    HW1 7438   6.887   0.218   7.444  0.2248  0.0903 -0.5405
 1746SOL    HW2 7439   6.742   0.186   7.471  0.7456 -2.3310 -0.3621
 1747SOL     OW 7440   8.607   6.111   4.264  0.1725 -0.3166  0.5333
 1747SOL    HW1 7441   8.664   6.185   4.240 -1.5338  0.4436 -1.5300
 1747SOL    HW2 7442   8.648   6.035   4.223  0.2792  0.0471 -0.0498
 1748SOL     OW 7443   0.454   3.195   1.441  0.6533 -0.0929 -0.9237
 1748SOL    HW1 7444   0.379   3.212   1.498  0.6424  1.8994 -1.4386
 1748SOL    HW2 7445   0.415   3.156   1.362  0.0420  1.3119 -1.3608
 1749SOL     OW 7446   5.786   3.263   0.622 -0.2038 -0.0845 -0.3626
 1749SOL    HW1 7447   5.853   3.195   0.625  0.5665  0.6949  0.8243
 1749SOL    HW2 7448   5.703   3.214   0.620  0.2701 -1.1095  1.8821
 1750SOL     OW 7449   2.698   4.274   4.992 -0.0452  0.0649 -0.3012
 1750SOL    HW1 7450   2.745   4.194   5.015  0.4589  0.0400 -1.3786
 1750SOL    HW2 7451   2.619   4.272   5.046  1.5453  0.5304  2.2341
 1751SOL     OW 7452   4.855   0.836   4.814  0.4619 -1.0760 -0.8034
 1751SOL    HW1 7453   4.871   0.826   4.908 -1.3460  0.3025 -0.3011
 1751SOL    HW2 7454   4.830   0.927   4.803 -2.3088 -1.8930 -2.1449
 1752SOL     OW 7455   5.774   1.896   5.664 -0.0011 -0.4492  0.2183
 1752SOL    HW1 7456   5.856   1.879   5.709  0.5012 -0.7985 -0.8011
 1752SOL    HW2 7457   5.771   1.991   5.654  0.2812 -0.4368  0.2511
 1753SOL     OW 7458   8.165   8.563   2.800  0.0801  0.1444 -0.2690
 1753SOL    HW1 7459   8.093   8.606   2.846 -1.1402 -1.4626 -0.6049
 1753SOL    HW2 7460   8.187   8.623   2.728  1.7277  2.4976  1.9825
 1754SOL     OW 7461   9.555   3.033   0.715 -0.2304  0.1785  0.0266
 1754SOL    HW1 7462   9.562   2.955   0.770  1.0732 -1.9992 -2.9731
 1754SOL    HW2 7463   9.507   3.096   0.769  0.1016 -2.0634  3.2274
 1755SOL     OW 7464   4.430   7.507   9.334 -0.1279  0.3783 -0.1167
 1755SOL    HW1 7465   4.459   7.509   9.426  0.8278 -0.8104 -0.3732
 1755SOL    HW2 7466   4.502   7.465   9.287 -1.4963 -1.0044 -1.0705
 1756SOL     OW 7467   2.653   7.437   1.717  0.6424  0.4363 -0.0068
 1756SOL    HW1 7468   2.583   7.392   1.670  0.0259  0.2897  1.0173
 1756SOL    HW2 7469   2.727   7.435   1.657  0.1675 -0.5755 -0.5932
 1757SOL     OW 7470   6.203   3.690   6.154  0.2972 -0.7662 -0.0330
 1757SOL    HW1 7471   6.142   3.644   6.211  1.6124 -1.6989  0.6532
 1757SOL    HW2 7472   6.160   3.774   6.136 -2.4416 -2.3660 -1.7716
 1758SOL     OW 7473   0.332   6.514   5.484 -0.2470 -0.0668  0.3995
 1758SOL    HW1 7474   0.314   6.598   5.443 -0.1308  0.1173  0.7208
 1758SOL    HW2 7475   0.350   6.455   5.411 -1.6383 -0.1380  0.0869
 1759SOL     OW 7476   6.875   2.667   4.546  0.3251  0.1261  0.4066
 1759SOL    HW1 7477   6.829   2.706   4.472 -0.5715  0.8105  1.2977
 1759SOL    HW2 7478   6.951   2.724   4.559  0.1029  0.4120  0.4519
 1760SOL     OW 7479   5.813   0.926   0.999 -0.1040 -0.1184 -0.2903
 1760SOL    HW1 7480   5.822   0.963   0.912  1.8847 -1.8293 -0.8767
 1760SOL    HW2 7481   5.902   0.912   1.029 -0.7287 -2.6331  0.6328
 1761SOL     OW 7482   6.819   8.328   9.559 -0.1421  0.3290  0.1329
 1761SOL    HW1 7483   6.824   8.258   9.624 -0.2244 -0.1538 -0.3769
 1761SOL    HW2 7484   6.797   8.284   9.477  0.8866  0.8209 -0.4293
 1762SOL     OW 7485   2.010   4.099   5.614  0.3294 -0.0904  0.3629
 1762SOL    HW1 7486   1.970   4.185   5.598  0.1551 -0.0058  1.1678
 1762SOL    HW2 7487   1.973   4.072   5.698  0.3373 -0.9859  0.0829
 1763SOL     OW 7488   1.510   6.366   9.529  0.1841 -0.0770  0.1577
 1763SOL    HW1 7489   1.441   6.305   9.504 -0.1365  0.3498 -0.0041
 1763SOL    HW2 7490   1.465   6.448   9.546  0.6353  0.1690  0.1820
 1764SOL     OW 7491   5.828   8.396   5.573  0.0177 -0.2810 -0.1673
 1764SOL    HW1 7492   5.774   8.317   5.584 -1.3484  0.7075  0.5687
 1764SOL    HW2 7493   5.819   8.418   5.480 -0.1488 -0.6265 -0.2346
 1765SOL     OW 7494   7.141   8.774   4.686  0.1196 -0.0707 -0.2501
 1765SOL    HW1 7495   7.216   8.832   4.672  0.0325  0.0811 -0.0999
 1765SOL    HW2 7496   7.065   8.831   4.676  0.0167 -0.2646 -0.5952
 1766SOL     OW 7497   0.465   2.269   6.082 -0.1919  0.4855 -0.2100
 1766SOL    HW1 7498   0.553   2.299   6.107 -0.2395  0.4108  0.0562
 1766SOL    HW2 7499   0.479   2.181   6.047 -0.0191  0.9070 -1.2314
 1767SOL     OW 7500   0.609   7.113   7.978  0.1151  0.1712 -0.4648
 1767SOL    HW1 7501   0.593   7.103   7.884 -1.3907  1.4040 -0.3779
 1767SOL    HW2 7502   0.655   7.197   7.985  0.2781  0.0538 -0.1074
 1768SOL     OW 7503   7.059   9.067   3.933 -0.0586  0.2991 -0.1373
 1768SOL    HW1 7504   7.103   9.107   3.858  0.2371 -0.7471 -0.5393
 1768SOL    HW2 7505   6.969   9.053   3.903  0.3052 -1.0545 -0.6980
 1769SOL     OW 7506   1.144   3.850   4.007  0.1389  0.1188  0.1629
 1769SOL    HW1 7507   1.075   3.791   4.037 -0.5460  1.1801  0.7506
 1769SOL    HW2 7508   1.101   3.907   3.943  1.1800 -1.0382 -1.6761
 1770SOL     OW 7509   5.847   4.586   8.883  0.5446 -0.1702  0.3747
 1770SOL    HW1 7510   5.816   4.580   8.973  0.4674 -1.7529  0.2694
 1770SOL    HW2 7511   5.830   4.500   8.846 -0.3059  0.7249 -1.4512
 1771SOL     OW 7512   5.942   0.176   4.629  0.5263  0.0142  0.2377
 1771SOL    HW1 7513   5.978   0.088   4.626 -2.1230 -1.0957 -1.9602
 1771SOL    HW2 7514   6.015   0.230   4.660  2.9086 -2.5781 -0.4801
 1772SOL     OW 7515   7.355   0.538   3.663  0.2423 -0.1669  0.0384
 1772SOL    HW1 7516   7.297   0.463   3.672  1.6598 -1.2192  0.9768
 1772SOL    HW2 7517   7.443   0.501   3.677  0.9311  1.7823  1.2181
 1773SOL     OW 7518   9.375   5.398   8.809 -0.4498 -0.4406  0.4601
 1773SOL    HW1 7519   9.441   5.465   8.789  0.1573 -1.2874 -0.4701
 1773SOL    HW2 7520   9.317   5.439   8.873 -0.0117  0.9231  0.0076
 1774SOL     OW 7521   9.332   5.769   1.116 -0.2961 -0.4032 -0.4180
 1774SOL    HW1 7522   9.305   5.825   1.043  1.8348 -0.2196 -1.1399
 1774SOL    HW2 7523   9.367   5.830   1.181  1.4480 -0.7649 -0.9476
 1775SOL     OW 7524   4.635   4.893   4.031  0.1379 -0.3362 -0.3323
 1775SOL    HW1 7525   4.596   4.895   4.119  0.6383 -1.5348 -0.0523
 1775SOL    HW2 7526   4.709   4.954   4.036 -0.0191 -0.1713 -0.0064
 1776SOL     OW 7527   2.710   8.452   1.322 -0.1513  0.3906 -0.0498
 1776SOL    HW1 7528   2.633   8.484   1.275 -1.2554 -1.0274  0.7379
 1776SOL    HW2 7529   2.681   8.441   1.412  0.6173 -1.2554  0.0329
 1777SOL     OW 7530   7.100   8.654   6.500  0.0278  0.3497  0.0241
 1777SOL    HW1 7531   7.047   8.698   6.566 -1.6917 -0.4641 -0.7689
 1777SOL    HW2 7532   7.146   8.725   6.456 -0.1455  1.0440  0.9261
 1778SOL     OW 7533   8.359   1.836   0.965 -0.3605  0.1477 -0.2163
 1778SOL    HW1 7534   8.399   1.805   1.047  1.2789 -0.4326 -1.1701
 1778SOL    HW2 7535   8.362   1.931   0.971 -0.1493  0.1112  0.3542
 1779SOL     OW 7536   8.473   7.868   5.355  0.0370  0.0253  0.0569
 1779SOL    HW1 7537   8.558   7.912   5.362  0.6583 -1.2339  1.1801
 1779SOL    HW2 7538   8.476   7.823   5.271 -0.1577  1.1933 -0.5924
 1780SOL     OW 7539   2.919   2.428   3.570  0.0742 -0.1773 -0.4797
 1780SOL    HW1 7540   2.951   2.503   3.519 -1.6675  0.2942 -0.9694
 1780SOL    HW2 7541   2.893   2.364   3.503 -0.0769 -0.5026 -0.1103
 1781SOL     OW 7542   8.216   2.611   7.034 -0.5802  0.2252 -0.2622
 1781SOL    HW1 7543   8.170   2.695   7.038 -0.3010  0.3610  0.1767
 1781SOL    HW2 7544   8.289   2.621   7.095 -0.9441 -0.5843  0.3253
 1782SOL     OW 7545   7.954   9.295   6.842 -0.2427  0.8940 -0.4393
 1782SOL    HW1 7546   7.971   9.347   6.921  2.2512 -0.1960 -0.1842
 1782SOL    HW2 7547   7.863   9.315   6.820 -1.5412  0.1410  3.5211
 1783SOL     OW 7548   5.612   4.824   0.842  0.0133 -0.0367  0.1190
 1783SOL    HW1 7549   5.632   4.916   0.856 -1.2216  0.4658 -1.1032
 1783SOL    HW2 7550   5.551   4.802   0.913  0.2991  0.0935  0.4058
 1784SOL     OW 7551   0.345   2.143   0.148 -0.1105 -0.0065 -0.2824
 1784SOL    HW1 7552   0.410   2.073   0.157 -0.9139 -1.0328 -1.9175
 1784SOL    HW2 7553   0.261   2.099   0.164 -0.6038  0.6792 -0.9274
 1785SOL     OW 7554   7.187   6.256   2.833 -0.4823  0.5989 -0.2056
 1785SOL    HW1 7555   7.203   6.169   2.797 -0.1339 -0.3725  2.1276
 1785SOL    HW2 7556   7.099   6.251   2.871 -0.8830  1.6079 -0.9536
 1786SOL     OW 7557   2.126   3.297   3.388 -0.3480  0.2680  0.2418
 1786SOL    HW1 7558   2.109   3.389   3.368  0.3692  0.3298 -0.1365
 1786SOL    HW2 7559   2.082   3.282   3.471 -1.5580  0.6073 -0.3099
 1787SOL     OW 7560   5.139   5.339   7.011 -0.7026  0.0644  0.2576
 1787SOL    HW1 7561   5.116   5.300   6.926 -0.6709 -0.8605  0.6648
 1787SOL    HW2 7562   5.146   5.433   6.993 -1.3871 -0.0371 -0.6189
 1788SOL     OW 7563   3.547   7.554   5.089 -0.2235  0.7145 -0.0364
 1788SOL    HW1 7564   3.569   7.599   5.007 -0.2312 -1.6434 -1.4341
 1788SOL    HW2 7565   3.451   7.553   5.090 -0.2778 -1.3697 -1.3465
 1789SOL     OW 7566   6.035   1.863   5.772 -0.2790  0.4749 -0.0572
 1789SOL    HW1 7567   6.110   1.853   5.714 -0.5080  0.3763 -0.3388
 1789SOL    HW2 7568   6.048   1.797   5.840 -0.1322  0.4298 -0.1301
 1790SOL     OW 7569   2.130   7.808   7.693 -0.0961  0.3494  0.5189
 1790SOL    HW1 7570   2.085   7.796   7.776  0.3412  0.0344  0.7179
 1790SOL    HW2 7571   2.147   7.902   7.688 -0.1346  0.3718  0.7807
 1791SOL     OW 7572   1.682   3.947   6.796  0.3005  0.4899  0.1712
 1791SOL    HW1 7573   1.629   4.017   6.834 -1.6343 -0.2330 -1.0282
 1791SOL    HW2 7574   1.636   3.924   6.715  1.3180 -1.6226  0.1403
 1792SOL     OW 7575   4.100   7.509   9.150  0.3260 -0.2353 -0.0820
 1792SOL    HW1 7576   4.092   7.560   9.231  0.4861 -2.1773  1.2050
 1792SOL    HW2 7577   4.010   7.483   9.129  0.1033  1.3575 -1.3278
 1793SOL     OW 7578   2.367   1.595   4.490  0.7044 -0.3079 -0.1211
 1793SOL    HW1 7579   2.406   1.566   4.572 -0.6766 -0.5350  0.4717
 1793SOL    HW2 7580   2.310   1.523   4.463 -0.2146  0.4885 -0.3575
 1794SOL     OW 7581   1.005   5.635   0.696 -0.1774 -0.5278  0.0326
 1794SOL    HW1 7582   1.029   5.558   0.748 -0.0898  0.5904  1.7522
 1794SOL    HW2 7583   0.917   5.658   0.726 -0.1020  0.1755 -0.2545
 1795SOL     OW 7584   7.850   5.533   8.549 -0.9642  0.2203 -0.5955
 1795SOL    HW1 7585   7.801   5.493   8.621 -0.6885  1.1555  0.1458
 1795SOL    HW2 7586   7.933   5.560   8.589 -0.5288  0.1612 -1.4311
 1796SOL     OW 7587   7.614   3.485   9.259  0.2412  0.0810 -0.1020
 1796SOL    HW1 7588   7.550   3.414   9.249  1.1474 -0.6030 -1.1297
 1796SOL    HW2 7589   7.601   3.515   9.349 -0.6016 -0.9556  0.1466
 1797SOL     OW 7590   6.980   1.247   4.214 -0.3631  0.4332 -0.2034
 1797SOL    HW1 7591   7.041   1.209   4.278  0.0835 -0.5832 -1.2068
 1797SOL    HW2 7592   6.902   1.268   4.266 -0.6186 -1.8090  0.4448
 1798SOL     OW 7593   3.898   7.886   2.141 -0.4126  0.4019 -0.2149
 1798SOL    HW1 7594   3.803   7.881   2.149 -0.4917 -0.4202 -1.3316
 1798SOL    HW2 7595   3.932   7.833   2.213 -0.6932  2.4346  1.5307
 1799SOL     OW 7596   1.371   8.917   3.969  0.1846  0.2834  0.3988
 1799SOL    HW1 7597   1.359   8.888   3.878 -1.1135 -0.7600  0.8638
 1799SOL    HW2 7598   1.374   8.836   4.020  1.5503  0.8303  1.2471
 1800SOL     OW 7599   2.613   5.911   1.327  0.6855 -0.5933  0.3699
 1800SOL    HW1 7600   2.597   5.893   1.419  1.0495  1.0246  0.7659
 1800SOL    HW2 7601   2.631   6.005   1.322 -0.4594 -0.4154 -1.5104
 1801SOL     OW 7602   5.403   8.412   9.061 -0.1974 -0.3813 -0.1052
 1801SOL    HW1 7603   5.491   8.405   9.098  0.3481  0.9372 -1.0546
 1801SOL    HW2 7604   5.377   8.322   9.041  1.8372 -0.6588 -1.7959
 1802SOL     OW 7605   0.420   0.467   8.667  0.7469  0.0822 -0.1322
 1802SOL    HW1 7606   0.498   0.433   8.712  0.1495  0.6504  1.4137
 1802SOL    HW2 7607   0.346   0.430   8.717 -0.0106 -0.6002 -1.6768
 1803SOL     OW 7608   3.859   5.722   7.321 -0.1117 -0.4496  0.1028
 1803SOL    HW1 7609   3.882   5.686   7.407 -1.6529  1.3332  1.3448
 1803SOL    HW2 7610   3.784   5.670   7.292  1.7096 -2.4870 -1.2728
 1804SOL     OW 7611   8.507   6.143   8.542  0.1549  0.3212  0.7404
 1804SOL    HW1 7612   8.415   6.135   8.518  0.4852 -1.3332 -0.1508
 1804SOL    HW2 7613   8.553   6.159   8.460  0.7332  0.5263  1.0926
 1805SOL     OW 7614   5.172   3.275   9.250  0.1236  0.4585  0.6971
 1805SOL    HW1 7615   5.081   3.248   9.265  0.1891  0.9642  2.1002
 1805SOL    HW2 7616   5.168   3.325   9.168 -1.1052  1.6220  1.4278
 1806SOL     OW 7617   4.123   4.952   4.500  0.4218 -0.1481  0.3618
 1806SOL    HW1 7618   4.162   5.036   4.524  0.6573 -0.5398  1.4207
 1806SOL    HW2 7619   4.198   4.892   4.497  0.2191 -0.3760 -0.1108
 1807SOL     OW 7620   8.592   2.837   1.755 -0.9139  0.1324 -0.1410
 1807SOL    HW1 7621   8.555   2.802   1.836  0.9853  0.4242  0.9231
 1807SOL    HW2 7622   8.568   2.773   1.688  0.1685 -1.8303  1.2485
 1808SOL     OW 7623   1.046   3.365   4.739  0.0382  0.3950  0.1758
 1808SOL    HW1 7624   1.140   3.352   4.725  0.1275  0.1699  0.9024
 1808SOL    HW2 7625   1.012   3.395   4.655  0.5974 -0.4018 -0.3482
 1809SOL     OW 7626   1.447   7.336   0.607 -0.1761 -0.1346 -0.4567
 1809SOL    HW1 7627   1.354   7.355   0.608 -0.0313  0.6508 -1.1608
 1809SOL    HW2 7628   1.471   7.331   0.700 -0.8052  0.2265 -0.2698
 1810SOL     OW 7629   8.579   7.211   1.089  0.1651 -0.3752 -0.0044
 1810SOL    HW1 7630   8.495   7.165   1.093 -0.3063  0.5470  1.4343
 1810SOL    HW2 7631   8.636   7.163   1.149 -0.2829  0.7666  1.3830
 1811SOL     OW 7632   2.260   4.731   2.173 -0.1799 -0.1393 -1.0722
 1811SOL    HW1 7633   2.227   4.647   2.204 -0.6104  0.7651  1.0877
 1811SOL    HW2 7634   2.185   4.771   2.129 -0.9505  0.3632  0.6093
 1812SOL     OW 7635   6.750   2.030   0.724  0.0496 -0.0132 -0.3314
 1812SOL    HW1 7636   6.832   2.055   0.766 -0.5921 -0.9915  1.6101
 1812SOL    HW2 7637   6.683   2.049   0.789 -1.2709  0.4630 -1.7607
 1813SOL     OW 7638   6.108   1.630   6.225  0.9207  0.1684  0.0810
 1813SOL    HW1 7639   6.198   1.659   6.241  1.6594 -1.3817 -1.0472
 1813SOL    HW2 7640   6.084   1.581   6.304  1.2327  0.1618  0.1734
 1814SOL     OW 7641   4.261   4.127   7.647 -0.0479 -0.3341 -0.1876
 1814SOL    HW1 7642   4.345   4.087   7.624  0.3986  1.0096 -0.9412
 1814SOL    HW2 7643   4.233   4.172   7.568 -2.0463 -1.6472 -0.3086
 1815SOL     OW 7644   9.432   9.063   7.222 -0.2722  0.0420  0.1758
 1815SOL    HW1 7645   9.353   9.080   7.172 -1.4815 -0.3589  1.8801
 1815SOL    HW2 7646   9.502   9.059   7.156 -1.5160  1.1841 -1.2853
 1816SOL     OW 7647   3.406   4.260   9.480 -0.2358  0.2421 -0.1559
 1816SOL    HW1 7648   3.366   4.209   9.409 -2.4636 -0.6492  1.6152
 1816SOL    HW2 7649   3.345   4.251   9.553  1.6703  1.6082  1.7170
 1817SOL     OW 7650   0.006   2.537   9.296 -0.4252  0.1192  0.0220
 1817SOL    HW1 7651  -0.063   2.573   9.352 -0.9296  0.8963 -1.0691
 1817SOL    HW2 7652   0.069   2.608   9.286  1.2154 -0.9519  1.9864
 1818SOL     OW 7653   7.544   2.443   2.442 -0.1424  0.5008 -0.0962
 1818SOL    HW1 7654   7.639   2.443   2.447  0.0180  0.1313 -2.2971
 1818SOL    HW2 7655   7.520   2.350   2.441 -0.5967  0.5863  1.0530
 1819SOL     OW 7656   3.138   9.231   4.422  0.1586  0.1180  0.1526
 1819SOL    HW1 7657   3.120   9.226   4.328 -2.0462 -0.1475  0.5199
 1819SOL    HW2 7658   3.064   9.281   4.457  0.4139 -0.6477  1.8787
 1820SOL     OW 7659   2.391   3.876   0.847 -0.3385 -0.0750 -0.0473
 1820SOL    HW1 7660   2.350   3.793   0.823 -1.5041  0.1796  1.0152
 1820SOL    HW2 7661   2.472   3.851   0.891  0.3850 -0.5877 -1.5755
 1821SOL     OW 7662   2.905   0.948   4.122  0.1993  0.6470  0.3187
 1821SOL    HW1 7663   2.846   0.914   4.189 -1.5055  2.1349 -0.3164
 1821SOL    HW2 7664   2.940   0.871   4.079 -1.4351 -0.3185  0.6254
 1822SOL     OW 7665   7.649   8.313   6.075 -0.1095 -0.6177  0.1348
 1822SOL    HW1 7666   7.646   8.255   5.999 -0.5745  1.9747 -2.0163
 1822SOL    HW2 7667   7.741   8.315   6.100  0.1335 -1.1867 -0.6610
 1823SOL     OW 7668   5.682   8.960   2.417 -0.6904  0.3634  0.0654
 1823SOL    HW1 7669   5.707   8.983   2.328 -0.2878  0.5401  0.2206
 1823SOL    HW2 7670   5.591   8.988   2.425 -0.6452  0.5828 -0.2059
 1824SOL     OW 7671   6.524   1.974   7.103  0.2518  0.1554 -0.6082
 1824SOL    HW1 7672   6.538   1.886   7.069 -0.5959  0.1086 -0.8755
 1824SOL    HW2 7673   6.599   2.025   7.072  0.8374 -0.5048 -0.3007
 1825SOL     OW 7674   7.219   0.348   1.505  0.0674 -0.1718  0.1349
 1825SOL    HW1 7675   7.249   0.421   1.559 -0.3266  1.6686 -1.9769
 1825SOL    HW2 7676   7.168   0.293   1.565  1.1897  0.7334  2.0129
 1826SOL     OW 7677   2.053   5.034   0.225  0.0714 -0.0909 -0.1136
 1826SOL    HW1 7678   2.135   5.075   0.198 -0.0952  0.2678 -0.0687
 1826SOL    HW2 7679   2.048   5.048   0.319  0.4155 -0.9278  0.0418
 1827SOL     OW 7680   3.408   1.264   1.641 -0.2750 -0.1828  0.6512
 1827SOL    HW1 7681   3.497   1.250   1.672 -0.1263 -0.3649  0.1499
 1827SOL    HW2 7682   3.384   1.181   1.600 -0.3061  0.1971 -0.1037
 1828SOL     OW 7683   8.796   9.026   6.864 -0.3497  0.0576  0.3291
 1828SOL    HW1 7684   8.747   8.982   6.794  1.0769 -0.4673 -0.3894
 1828SOL    HW2 7685   8.849   8.956   6.903 -1.6273  0.1906  2.4337
 1829SOL     OW 7686   9.451   5.367   5.036  0.0190  0.6941  0.7664
 1829SOL    HW1 7687   9.429   5.283   4.995 -1.6139  2.1479 -1.6073
 1829SOL    HW2 7688   9.545   5.377   5.022 -0.4080  1.1031 -2.9856
 1830SOL     OW 7689   7.576   6.256   7.958 -0.5476  0.6051 -0.1727
 1830SOL    HW1 7690   7.584   6.167   7.925  0.1059  0.5241  0.1887
 1830SOL    HW2 7691   7.508   6.250   8.026 -2.0127  0.8055 -1.5552
 1831SOL     OW 7692   6.172   5.239   6.071 -0.1382  0.3669 -0.1168
 1831SOL    HW1 7693   6.213   5.192   6.144  1.0844  0.3928 -0.7667
 1831SOL    HW2 7694   6.086   5.264   6.105  0.7266  1.1570  1.6506
 1832SOL     OW 7695   9.065   2.029   2.324  0.5749  0.1346  0.2952
 1832SOL    HW1 7696   9.007   2.062   2.256 -1.8888 -0.9733  1.7103
 1832SOL    HW2 7697   9.117   2.105   2.352  0.0778  1.0840 -1.2860
 1833SOL     OW 7698   7.432   8.240   7.181 -0.6037 -0.1775 -0.2944
 1833SOL    HW1 7699   7.499   8.201   7.237  0.1179  0.4403 -0.6946
 1833SOL    HW2 7700   7.477   8.253   7.097 -0.9199  1.1720 -0.2709
 1834SOL     OW 7701   7.213   4.402   1.747 -0.5707  0.3139  0.0703
 1834SOL    HW1 7702   7.273   4.346   1.698  0.1033  0.8357  0.2788
 1834SOL    HW2 7703   7.128   4.359   1.740 -0.0116 -0.8791  0.4628
 1835SOL     OW 7704   3.368   3.125   6.251 -0.1912 -0.2192  0.3944
 1835SOL    HW1 7705   3.396   3.213   6.225 -0.7327 -0.3095 -0.5553
 1835SOL    HW2 7706   3.277   3.119   6.221 -0.5824 -0.6476  1.6149
 1836SOL     OW 7707   8.461   5.843   5.289 -0.0122  0.5452  0.6209
 1836SOL    HW1 7708   8.553   5.831   5.315  0.2718  1.2522 -0.0035
 1836SOL    HW2 7709   8.465   5.908   5.219 -0.7302 -1.3614 -1.2618
 1837SOL     OW 7710   0.189   0.216   0.041  0.3870 -1.0335  0.1706
 1837SOL    HW1 7711   0.183   0.311   0.033  2.5818 -0.7951  0.6430
 1837SOL    HW2 7712   0.156   0.182  -0.042  1.5807  0.2622 -0.8776
 1838SOL     OW 7713   3.325   8.235   5.207 -0.0907 -0.3094 -0.6547
 1838SOL    HW1 7714   3.391   8.286   5.160 -1.8644  1.9418 -0.8635
 1838SOL    HW2 7715   3.298   8.167   5.145  0.5578  0.0282 -1.3235
 1839SOL     OW 7716   2.980   6.915   2.526 -0.5105  0.0747 -0.1466
 1839SOL    HW1 7717   3.032   6.933   2.604  0.0814  3.0386 -1.0717
 1839SOL    HW2 7718   3.038   6.866   2.468 -0.5963 -1.2011  0.8020
 1840SOL     OW 7719   7.054   7.065   4.927 -0.8918 -0.7553 -0.4482
 1840SOL    HW1 7720   7.052   7.040   4.834 -0.4682 -2.5802 -0.0016
 1840SOL    HW2 7721   6.994   7.003   4.969 -2.1641  0.9357  0.3291
 1841SOL     OW 7722   9.154   6.173   1.426 -0.1271  0.2121  0.0847
 1841SOL    HW1 7723   9.130   6.264   1.446  1.8838  1.2964 -1.9636
 1841SOL    HW2 7724   9.170   6.173   1.331  1.4532 -1.9110  0.2930
 1842SOL     OW 7725   9.387   6.699   7.652  0.0179 -0.1439 -0.6057
 1842SOL    HW1 7726   9.423   6.709   7.564  0.0997  0.4038 -0.5086
 1842SOL    HW2 7727   9.383   6.604   7.665 -0.4249 -0.2437 -1.3798
 1843SOL     OW 7728   4.664   9.076   9.182 -0.1032 -0.2213 -0.4246
 1843SOL    HW1 7729   4.732   9.114   9.238 -0.3861 -1.0802  0.5349
 1843SOL    HW2 7730   4.594   9.141   9.182  0.1688  0.0740 -0.3220
 1844SOL     OW 7731   9.213   1.592   6.429 -0.1721 -0.8275 -0.3288
 1844SOL    HW1 7732   9.165   1.584   6.346 -1.0052  2.8238 -0.3958
 1844SOL    HW2 7733   9.304   1.573   6.406 -0.2050  1.0228 -2.4306
 1845SOL     OW 7734   5.712   7.009   6.037  0.2389 -0.4911 -0.2273
 1845SOL    HW1 7735   5.775   6.954   5.990  2.8291  1.4620  0.7710
 1845SOL    HW2 7736   5.716   7.093   5.993 -1.9401 -0.3495 -0.2710
 1846SOL     OW 7737   4.196   8.611   3.827  0.8976 -0.1788 -0.2747
 1846SOL    HW1 7738   4.285   8.643   3.841  0.5629  0.3801  0.6580
 1846SOL    HW2 7739   4.171   8.648   3.742  1.5672 -0.3930 -0.5722
 1847SOL     OW 7740   7.359   1.351   3.061 -0.2949  0.2475 -0.8621
 1847SOL    HW1 7741   7.300   1.283   3.028 -0.9712  0.1715  0.4459
 1847SOL    HW2 7742   7.304   1.428   3.073 -0.4563 -0.1620  1.5038
 1848SOL     OW 7743   2.678   5.171   9.293 -0.6141  0.3131 -0.2467
 1848SOL    HW1 7744   2.732   5.158   9.371  1.2370 -0.0656 -1.5250
 1848SOL    HW2 7745   2.680   5.265   9.278 -2.0332  0.5524  0.8296
 1849SOL     OW 7746   1.895   1.988   6.467 -0.2073  0.2835 -0.0167
 1849SOL    HW1 7747   1.953   2.031   6.529 -1.3155  0.5330  0.8675
 1849SOL    HW2 7748   1.926   2.018   6.381  0.3201  1.2165  0.4844
 1850SOL     OW 7749   4.580   1.582   2.299  0.3211  0.3900  0.0427
 1850SOL    HW1 7750   4.491   1.610   2.277  0.7694  2.4410  0.6929
 1850SOL    HW2 7751   4.578   1.566   2.393  0.0384 -2.1567 -0.3065
 1851SOL     OW 7752   2.487   6.450   5.350  0.1961  0.1149 -0.4918
 1851SOL    HW1 7753   2.565   6.466   5.403 -0.7614 -0.9023  1.2964
 1851SOL    HW2 7754   2.462   6.537   5.317  0.4943  0.8633  1.1831
 1852SOL     OW 7755   6.658   3.542   9.079  0.0614  0.5669 -0.2550
 1852SOL    HW1 7756   6.566   3.526   9.058 -0.2953  0.5418  1.1876
 1852SOL    HW2 7757   6.660   3.633   9.110  0.5271  0.5837 -0.3271
 1853SOL     OW 7758   3.290   7.206   1.872  0.4242  0.6720 -0.3753
 1853SOL    HW1 7759   3.315   7.297   1.863  2.1217  0.1944 -0.7192
 1853SOL    HW2 7760   3.360   7.157   1.830 -1.7326 -0.7066 -2.6996
 1854SOL     OW 7761   8.735   9.306   6.912 -0.1373 -0.6105 -0.0907
 1854SOL    HW1 7762   8.725   9.375   6.977 -0.2458 -0.0334 -0.7185
 1854SOL    HW2 7763   8.830   9.296   6.902 -0.0926 -1.4528  0.9344
 1855SOL     OW 7764   6.114   4.329   3.587  0.3320  0.1759 -0.1137
 1855SOL    HW1 7765   6.048   4.382   3.633 -1.5624 -0.3969 -1.9757
 1855SOL    HW2 7766   6.075   4.313   3.501  2.5374 -1.0295 -0.9599
 1856SOL     OW 7767   6.457   5.055   4.864 -0.2459  0.2357  0.2225
 1856SOL    HW1 7768   6.417   5.071   4.779  0.1253  0.3406  0.0670
 1856SOL    HW2 7769   6.477   5.142   4.899 -1.4346  0.2518  0.9276
 1857SOL     OW 7770   2.328   2.249   6.992 -0.3401 -0.0567 -0.1179
 1857SOL    HW1 7771   2.357   2.249   7.083  0.5044  2.3637 -0.3235
 1857SOL    HW2 7772   2.357   2.164   6.958  0.3831 -0.5123  1.5367
 1858SOL     OW 7773   5.256   6.666   7.011  0.2166 -0.1277 -0.1393
 1858SOL    HW1 7774   5.227   6.684   6.922 -0.2459  0.4406  0.1222
 1858SOL    HW2 7775   5.260   6.570   7.016 -0.6346 -0.1844 -0.4911
 1859SOL     OW 7776   8.854   4.725   2.804 -0.2980 -0.2321  0.1437
 1859SOL    HW1 7777   8.833   4.818   2.790 -3.2672 -0.7555  0.5683
 1859SOL    HW2 7778   8.920   4.727   2.874  1.7057  1.5841 -1.6271
 1860SOL     OW 7779   1.597   2.242   4.537 -0.2565 -0.2354  0.0265
 1860SOL    HW1 7780   1.511   2.257   4.500 -0.7314  0.4134  1.3077
 1860SOL    HW2 7781   1.652   2.311   4.499 -0.3392 -0.5479 -0.6644
 1861SOL     OW 7782   3.101   5.035   7.036 -0.2658 -0.3696  0.1265
 1861SOL    HW1 7783   3.056   4.970   6.982  0.4189 -1.1246  0.4335
 1861SOL    HW2 7784   3.191   5.037   7.001 -0.0848 -0.1424  0.5967
 1862SOL     OW 7785   8.175   9.552   5.531 -0.4872  0.5550 -0.1273
 1862SOL    HW1 7786   8.153   9.571   5.440 -0.0579 -0.8573 -0.5492
 1862SOL    HW2 7787   8.268   9.571   5.538 -0.1182 -0.9906 -0.4788
 1863SOL     OW 7788   2.231   0.075   1.806 -0.1783  0.6597  0.2239
 1863SOL    HW1 7789   2.272   0.060   1.891 -0.1348  0.9344  0.2545
 1863SOL    HW2 7790   2.186   0.159   1.816 -2.1290 -0.3789  0.7080
 1864SOL     OW 7791   2.231   4.061   0.504  0.1744  0.3218 -0.0631
 1864SOL    HW1 7792   2.179   4.058   0.585  0.7096  0.9870  0.3204
 1864SOL    HW2 7793   2.319   4.035   0.532  0.5615  1.3769 -0.2547
 1865SOL     OW 7794   1.688   2.358   0.663  0.0391  0.6005  0.2664
 1865SOL    HW1 7795   1.776   2.324   0.644 -0.0837 -0.9403  2.0919
 1865SOL    HW2 7796   1.695   2.452   0.646  1.4309  0.2314 -1.6071
 1866SOL     OW 7797   5.174   4.389   2.166  0.1228  0.5923 -0.1253
 1866SOL    HW1 7798   5.256   4.389   2.215 -0.3875 -1.4424  0.8170
 1866SOL    HW2 7799   5.137   4.476   2.181  1.6888  1.2396  0.1324
 1867SOL     OW 7800   5.229   2.463   8.208 -0.1548  0.0099 -0.5674
 1867SOL    HW1 7801   5.291   2.536   8.212  1.1681 -1.0798 -0.6364
 1867SOL    HW2 7802   5.232   2.423   8.294 -1.8579  0.7625 -0.1014
 1868SOL     OW 7803   5.899   8.538   3.676 -0.5283  0.5580  0.1146
 1868SOL    HW1 7804   5.903   8.566   3.768  1.7547 -1.8194  0.8885
 1868SOL    HW2 7805   5.820   8.485   3.670 -0.0910 -0.2404  1.0795
 1869SOL     OW 7806   2.065   1.907   9.423  0.1680  0.1050 -0.1519
 1869SOL    HW1 7807   2.078   1.825   9.375 -1.0294  0.1186 -0.5226
 1869SOL    HW2 7808   2.153   1.930   9.455  0.5460 -1.2348 -0.1648
 1870SOL     OW 7809   2.365   2.609   6.652 -0.1647 -0.3267  1.0421
 1870SOL    HW1 7810   2.414   2.686   6.622  1.0643 -0.3855  2.7299
 1870SOL    HW2 7811   2.307   2.588   6.579  3.5512 -1.3592 -2.0049
 1871SOL     OW 7812   7.940   9.319   5.282  0.1152 -0.1326  0.0530
 1871SOL    HW1 7813   8.027   9.281   5.272  0.6763  0.5903  1.8871
 1871SOL    HW2 7814   7.916   9.303   5.373 -1.2045  0.6383 -0.1231
 1872SOL     OW 7815   4.667   9.127   2.214 -0.0065 -0.0694 -0.3182
 1872SOL    HW1 7816   4.693   9.074   2.138  0.6263 -2.0928  1.2335
 1872SOL    HW2 7817   4.635   9.064   2.277 -0.3135  1.5522  1.2232
 1873SOL     OW 7818   1.917   7.220   4.096  0.1757 -0.0071  0.0813
 1873SOL    HW1 7819   1.868   7.139   4.082 -0.2903 -0.0615  1.8308
 1873SOL    HW2 7820   1.938   7.250   4.008 -2.1886 -0.4586 -0.7119
 1874SOL     OW 7821   4.164   7.341   8.940  0.0416  0.2999  0.7785
 1874SOL    HW1 7822   4.146   7.394   9.018 -1.4600 -0.0987  0.7425
 1874SOL    HW2 7823   4.088   7.355   8.884  1.6048  1.4669 -1.1688
 1875SOL     OW 7824   0.466   9.532   0.577 -0.2543 -0.7443 -0.5445
 1875SOL    HW1 7825   0.519   9.549   0.499  0.6086 -2.7390 -0.4672
 1875SOL    HW2 7826   0.506   9.454   0.616 -1.9952 -1.0646  0.7008
 1876SOL     OW 7827   2.682   4.603   2.527  0.6280  0.0412 -0.1079
 1876SOL    HW1 7828   2.697   4.677   2.586 -0.4101  0.8846 -0.8697
 1876SOL    HW2 7829   2.591   4.577   2.543  1.1921 -1.5937  0.6926
 1877SOL     OW 7830   0.076   4.701   5.720 -0.2921  0.0153 -0.1291
 1877SOL    HW1 7831   0.068   4.785   5.676 -0.9905 -0.4460 -0.9313
 1877SOL    HW2 7832   0.118   4.644   5.656  3.0347  0.4811  1.4750
 1878SOL     OW 7833   1.869   3.686   3.834 -0.2379 -0.2877  0.1839
 1878SOL    HW1 7834   1.782   3.661   3.805 -0.2603 -0.6389  0.5438
 1878SOL    HW2 7835   1.882   3.637   3.915  0.3098 -0.2764  0.1081
 1879SOL     OW 7836   3.933   0.587   6.471  0.3571 -0.0090 -0.3318
 1879SOL    HW1 7837   3.867   0.649   6.503  1.1014 -0.0547  1.3488
 1879SOL    HW2 7838   4.014   0.612   6.515  0.5558 -2.5261  0.8658
 1880SOL     OW 7839   8.096   6.817   8.941 -0.4520  0.2570  0.0447
 1880SOL    HW1 7840   8.111   6.880   8.871  1.1721 -1.2728 -1.0736
 1880SOL    HW2 7841   8.081   6.734   8.896  1.1520 -0.8746  1.4729
 1881SOL     OW 7842   1.975   2.922   4.525 -0.3161  0.0690 -0.1425
 1881SOL    HW1 7843   1.946   2.977   4.598  0.8413 -1.6387  1.6987
 1881SOL    HW2 7844   1.963   2.832   4.556  1.6685 -0.7160 -1.4338
 1882SOL     OW 7845   8.891   5.533   1.297  0.0993 -0.3255 -0.2208
 1882SOL    HW1 7846   8.828   5.475   1.341  0.9676  0.1742  1.8064
 1882SOL    HW2 7847   8.856   5.621   1.312  0.2648 -0.1651 -0.7841
 1883SOL     OW 7848   3.233   0.145   9.451  0.0326  0.2127  0.3092
 1883SOL    HW1 7849   3.227   0.225   9.399  0.9003 -0.0704 -0.2412
 1883SOL    HW2 7850   3.208   0.172   9.540  2.5875  1.6423  0.6764
 1884SOL     OW 7851   1.972   8.462   9.540 -0.5276  0.0931  0.3233
 1884SOL    HW1 7852   2.013   8.537   9.498 -0.7232 -0.0195 -0.0777
 1884SOL    HW2 7853   1.915   8.424   9.472  2.1862 -2.5469 -0.7027
 1885SOL     OW 7854   0.169   1.132   7.536  0.9525 -0.2940 -0.1386
 1885SOL    HW1 7855   0.115   1.124   7.615  0.8618  0.9583 -0.0504
 1885SOL    HW2 7856   0.110   1.170   7.471  2.1278  3.1663  0.5501
 1886SOL     OW 7857   4.448   0.813   1.284  0.1903  0.3095 -0.4182
 1886SOL    HW1 7858   4.394   0.759   1.342  1.3929 -0.1030  0.3380
 1886SOL    HW2 7859   4.386   0.874   1.244 -1.2383 -1.6147 -1.3264
 1887SOL     OW 7860   0.643   4.284   1.797  0.1623 -0.0096 -0.2590
 1887SOL    HW1 7861   0.560   4.330   1.804 -0.1606 -0.8011  2.6100
 1887SOL    HW2 7862   0.634   4.210   1.857  2.5363 -0.7474 -0.7089
 1888SOL     OW 7863   5.941   4.669   5.035  0.2544 -0.3022 -0.0654
 1888SOL    HW1 7864   5.900   4.727   4.971 -0.3145 -0.9381 -0.2925
 1888SOL    HW2 7865   5.873   4.654   5.100  0.1996 -1.1578 -0.3046
 1889SOL     OW 7866   0.748   7.309   1.021  0.4406  0.0619 -0.1783
 1889SOL    HW1 7867   0.732   7.350   1.106 -0.8745 -2.1027  0.7290
 1889SOL    HW2 7868   0.771   7.219   1.042 -0.9678 -0.8396 -2.1093
 1890SOL     OW 7869   2.100   2.466   5.174  0.4047  0.5437 -0.1802
 1890SOL    HW1 7870   2.147   2.442   5.095  0.6395 -0.0693  0.1459
 1890SOL    HW2 7871   2.043   2.538   5.147  0.5234  0.3716 -0.8894
 1891SOL     OW 7872   0.235   6.014   9.050  0.6432  0.0821  0.1630
 1891SOL    HW1 7873   0.329   5.997   9.040  0.7801  1.3204 -0.8998
 1891SOL    HW2 7874   0.225   6.106   9.025 -1.1944 -0.6288 -2.0107
 1892SOL     OW 7875   1.048   6.655   2.016  0.1550 -0.0674 -0.1856
 1892SOL    HW1 7876   0.983   6.629   2.081 -0.2523 -0.5316 -0.7641
 1892SOL    HW2 7877   0.996   6.700   1.949  0.5218  0.0971 -0.3602
 1893SOL     OW 7878   9.504   7.954   6.739  0.3692 -0.5395  0.3612
 1893SOL    HW1 7879   9.469   7.905   6.665 -0.5012 -0.0622  0.4470
 1893SOL    HW2 7880   9.579   7.902   6.768  1.2521 -0.3069 -1.3735
 1894SOL     OW 7881   4.612   5.999   0.593  0.0829  0.2948  0.5131
 1894SOL    HW1 7882   4.599   6.093   0.602 -1.6819  0.2072 -0.6105
 1894SOL    HW2 7883   4.701   5.990   0.559  0.4538  1.5138  1.1094
 1895SOL     OW 7884   8.884   2.933   9.432 -0.2097 -0.5610 -0.2822
 1895SOL    HW1 7885   8.898   2.928   9.526 -0.2838 -0.5665 -0.2713
 1895SOL    HW2 7886   8.912   3.021   9.408  0.3124 -0.7380 -0.3408
 1896SOL     OW 7887   8.297   6.433   2.543  0.3169  0.2844  0.5312
 1896SOL    HW1 7888   8.214   6.479   2.556  0.6196  1.1370 -0.5023
 1896SOL    HW2 7889   8.363   6.503   2.534  0.7924 -0.3238 -0.9970
 1897SOL     OW 7890   2.712   1.259   5.250 -0.6599  0.2723 -0.4530
 1897SOL    HW1 7891   2.750   1.329   5.196  0.7584 -0.3384 -0.2884
 1897SOL    HW2 7892   2.765   1.258   5.329 -3.5028  2.0416  1.6787
 1898SOL     OW 7893   0.645   4.876   7.901 -0.2581  0.2796 -0.4583
 1898SOL    HW1 7894   0.710   4.939   7.932 -1.1475  0.8159  0.3854
 1898SOL    HW2 7895   0.571   4.930   7.874 -0.5223 -0.3443 -0.9988
 1899SOL     OW 7896   6.454   6.094   2.808  0.9465  0.3516 -0.1734
 1899SOL    HW1 7897   6.388   6.064   2.745  0.9403  1.1488 -0.5668
 1899SOL    HW2 7898   6.447   6.189   2.807  3.1916  0.5882 -1.4624
 1900SOL     OW 7899   3.197   0.106   6.959  0.1501 -0.4429 -0.4307
 1900SOL    HW1 7900   3.234   0.101   7.047  0.5473  0.0932 -0.5653
 1900SOL    HW2 7901   3.109   0.071   6.968  0.5846 -1.4867 -0.0479
 1901SOL     OW 7902   2.909   9.494   8.571 -0.0001  0.5948 -0.1399
 1901SOL    HW1 7903   2.951   9.492   8.657  1.6534  1.4607 -0.8694
 1901SOL    HW2 7904   2.910   9.587   8.547  0.3814  0.2704 -1.4419
 1902SOL     OW 7905   0.897   3.778   1.477 -0.0199  0.2382  0.2683
 1902SOL    HW1 7906   0.888   3.683   1.478 -1.7269  0.2983 -1.7032
 1902SOL    HW2 7907   0.923   3.801   1.566  0.3856 -2.0468  0.8038
 1903SOL     OW 7908   3.083   8.179   2.013 -0.4359 -0.0903 -0.0433
 1903SOL    HW1 7909   3.141   8.156   1.941 -1.1702 -2.7084  0.1126
 1903SOL    HW2 7910   3.014   8.233   1.973  0.2860  0.2421 -0.8566
 1904SOL     OW 7911   4.949   0.208   3.346  0.1532 -0.8417  0.4401
 1904SOL    HW1 7912   4.924   0.294   3.313  0.0405 -0.8122  0.6011
 1904SOL    HW2 7913   4.900   0.198   3.428  1.5483 -0.2752  1.3913
 1905SOL     OW 7914   2.175   4.746   8.583  0.3936 -0.1234  0.6447
 1905SOL    HW1 7915   2.220   4.686   8.642  0.0301 -0.0228  1.0246
 1905SOL    HW2 7916   2.117   4.689   8.532 -0.7711  0.0189  1.7617
 1906SOL     OW 7917   0.400   0.243   6.277 -0.1560  0.4413 -0.3378
 1906SOL    HW1 7918   0.324   0.217   6.224  2.1361 -2.6294 -2.5323
 1906SOL    HW2 7919   0.385   0.201   6.362 -0.0364 -2.1427 -1.4740
 1907SOL     OW 7920   6.124   6.365   4.809 -0.4121 -0.4710 -0.0660
 1907SOL    HW1 7921   6.132   6.448   4.856  1.6696  0.0687 -1.2129
 1907SOL    HW2 7922   6.215   6.340   4.790 -1.0930 -1.2292 -2.7312
 1908SOL     OW 7923   4.706   7.380   7.685  0.0677  0.1852  0.0182
 1908SOL    HW1 7924   4.651   7.374   7.763  0.6650  0.6222  0.4748
 1908SOL    HW2 7925   4.643   7.392   7.613 -0.6323 -2.2525  0.1337
 1909SOL     OW 7926   7.484   6.796   6.402 -0.1656 -0.6882  0.0506
 1909SOL    HW1 7927   7.553   6.766   6.461  0.3517 -0.1370 -0.2568
 1909SOL    HW2 7928   7.457   6.718   6.353  2.6402 -0.3542 -2.2791
 1910SOL     OW 7929   7.442   8.706   4.597 -0.1665 -0.3412  0.0695
 1910SOL    HW1 7930   7.488   8.788   4.581  0.3790 -0.6397  0.0940
 1910SOL    HW2 7931   7.403   8.684   4.513 -0.8470  0.2585  0.2118
 1911SOL     OW 7932   3.290   9.139   3.089 -0.0205  0.1078 -0.0884
 1911SOL    HW1 7933   3.315   9.149   3.180  1.6304  1.5021 -0.6594
 1911SOL    HW2 7934   3.326   9.054   3.063 -1.3992 -0.8007  0.7762
 1912SOL     OW 7935   5.222   4.823   0.294 -0.1863 -0.5558  0.0741
 1912SOL    HW1 7936   5.219   4.904   0.345  0.8860  0.0755 -0.8089
 1912SOL    HW2 7937   5.133   4.788   0.299 -0.6789  0.6809  0.4672
 1913SOL     OW 7938   7.101   4.960   3.004 -0.5278  0.8339 -0.5201
 1913SOL    HW1 7939   7.076   4.993   3.090  0.1247 -2.2134  0.9629
 1913SOL    HW2 7940   7.169   5.021   2.974  0.9263  0.7380  2.2171
 1914SOL     OW 7941   2.084   4.798   6.421 -0.0719 -0.2549  0.1296
 1914SOL    HW1 7942   2.039   4.867   6.374  0.4432 -0.5757 -0.8537
 1914SOL    HW2 7943   2.018   4.762   6.480 -0.0874  1.7315  1.4452
 1915SOL     OW 7944   6.040   7.170   1.898  0.1184 -0.0054 -0.5827
 1915SOL    HW1 7945   5.966   7.229   1.907  1.1145  1.7153 -2.6465
 1915SOL    HW2 7946   6.083   7.172   1.983 -1.4123  0.0293  0.2190
 1916SOL     OW 7947   8.674   3.937   6.238 -0.2205  0.2088  0.0516
 1916SOL    HW1 7948   8.605   3.933   6.172 -0.6035  2.9860  0.1826
 1916SOL    HW2 7949   8.642   3.881   6.309 -1.7071  0.3694 -0.4534
 1917SOL     OW 7950   2.863   3.160   6.101 -1.0952 -0.1412 -0.2002
 1917SOL    HW1 7951   2.868   3.141   6.195  0.5741 -0.3971 -0.3049
 1917SOL    HW2 7952   2.844   3.075   6.061 -0.5944 -0.2713 -0.1700
 1918SOL     OW 7953   2.986   0.239   9.253  0.1694  0.0628  0.3914
 1918SOL    HW1 7954   3.037   0.271   9.179  0.0513  1.9782  1.0777
 1918SOL    HW2 7955   2.920   0.182   9.214 -0.6061  1.8944 -1.1397
 1919SOL     OW 7956   1.539   6.831   0.737 -0.0240  0.0311  0.3867
 1919SOL    HW1 7957   1.613   6.847   0.795 -0.8119  0.1769  1.3858
 1919SOL    HW2 7958   1.533   6.910   0.683 -0.6735  0.9250  1.7002
 1920SOL     OW 7959   8.355   9.198   6.366  0.0827  0.2900  0.4651
 1920SOL    HW1 7960   8.400   9.186   6.450  5.0691  1.6980 -1.6054
 1920SOL    HW2 7961   8.363   9.291   6.348  0.3090 -0.1514 -2.0767
 1921SOL     OW 7962   4.464   6.395   1.153 -0.5075  0.2119 -0.1053
 1921SOL    HW1 7963   4.524   6.321   1.166 -0.3881 -0.3884 -3.1802
 1921SOL    HW2 7964   4.521   6.466   1.124 -0.9989  0.4210 -0.5685
 1922SOL     OW 7965   2.324   1.413   1.226  0.0166 -0.0976 -0.2393
 1922SOL    HW1 7966   2.313   1.336   1.170  1.2511 -0.0036 -0.6405
 1922SOL    HW2 7967   2.300   1.382   1.313  0.2161 -0.8714 -0.4432
 1923SOL     OW 7968   0.897   1.736   3.595  0.5071  0.1759 -0.6491
 1923SOL    HW1 7969   0.811   1.705   3.567  1.2183 -0.6733 -1.9807
 1923SOL    HW2 7970   0.953   1.658   3.591  1.5594  0.9152 -0.7128
 1924SOL     OW 7971   3.148   0.208   1.046  0.0198 -0.2887  0.4954
 1924SOL    HW1 7972   3.211   0.280   1.036  1.5964 -1.8520 -1.7279
 1924SOL    HW2 7973   3.074   0.234   0.992 -0.0764  0.3093  0.9001
 1925SOL     OW 7974   0.998   6.731   5.355  0.1566  0.3015 -0.4759
 1925SOL    HW1 7975   0.930   6.734   5.287  1.3327  0.0136 -1.7226
 1925SOL    HW2 7976   0.982   6.809   5.408 -0.8944  0.4623 -0.9907
 1926SOL     OW 7977   4.662   2.128   5.079  0.1917 -0.5625  0.0715
 1926SOL    HW1 7978   4.720   2.100   5.008 -0.0186 -0.7132 -0.0391
 1926SOL    HW2 7979   4.690   2.075   5.154  0.9516  0.1563  0.3226
 1927SOL     OW 7980   0.947   6.485   1.751 -0.0885 -0.3092 -0.1222
 1927SOL    HW1 7981   1.043   6.476   1.746  0.1186  1.8598 -0.8641
 1927SOL    HW2 7982   0.921   6.515   1.664 -1.6028 -1.7370 -0.2157
 1928SOL     OW 7983   2.767   5.861   4.956 -0.5237  0.5623 -0.1349
 1928SOL    HW1 7984   2.798   5.897   5.040 -2.1858 -0.1001  0.8080
 1928SOL    HW2 7985   2.768   5.936   4.896  0.0096  1.2150  0.6567
 1929SOL     OW 7986   3.612   4.658   7.660  0.2076  0.2742  0.5094
 1929SOL    HW1 7987   3.654   4.742   7.676  0.5440 -0.2457  2.7412
 1929SOL    HW2 7988   3.568   4.668   7.576  1.1435  2.2925  0.2064
 1930SOL     OW 7989   9.396   7.635   9.538  0.3747 -0.9429 -0.0190
 1930SOL    HW1 7990   9.471   7.684   9.570 -1.4689  0.6953  2.0767
 1930SOL    HW2 7991   9.375   7.574   9.609 -0.1257 -1.5814 -0.6988
 1931SOL     OW 7992   7.276   7.161   6.488  0.4018 -0.2999  0.3508
 1931SOL    HW1 7993   7.258   7.245   6.445 -0.1861 -0.3963  0.4004
 1931SOL    HW2 7994   7.351   7.126   6.441  0.5121  0.1507  0.1822
 1932SOL     OW 7995   8.279   3.567   2.793  0.2481 -0.3103  0.2977
 1932SOL    HW1 7996   8.197   3.591   2.835  1.5860 -0.0441  3.0098
 1932SOL    HW2 7997   8.292   3.634   2.726 -1.6223 -0.2758 -0.0796
 1933SOL     OW 7998   8.795   9.402   5.632 -0.0165  0.0777 -0.2721
 1933SOL    HW1 7999   8.733   9.398   5.560  0.3692  0.2180 -0.6164
 1933SOL    HW2 8000   8.744   9.433   5.707 -1.0550 -2.5423  0.2221
 1934SOL     OW 8001   8.084   1.834   0.913  0.7990  0.0076  0.0181
 1934SOL    HW1 8002   8.175   1.839   0.942  0.9770 -0.6290 -0.4184
 1934SOL    HW2 8003   8.057   1.926   0.905  1.2622  0.1998  0.5730
 1935SOL     OW 8004   2.695   4.400   8.660  0.4074  0.0007 -0.0164
 1935SOL    HW1 8005   2.747   4.343   8.602 -0.1058  1.2565 -1.8099
 1935SOL    HW2 8006   2.609   4.357   8.665 -0.1100  0.7633 -1.7027
 1936SOL     OW 8007   9.403   3.200   2.006 -0.1932  0.2718  0.0143
 1936SOL    HW1 8008   9.341   3.271   1.985 -0.7983  0.2459  1.5404
 1936SOL    HW2 8009   9.482   3.221   1.957 -0.5646  1.7119 -0.0067
 1937SOL     OW 8010   2.418   8.216   1.865 -0.5890  0.4468 -0.2137
 1937SOL    HW1 8011   2.426   8.121   1.852 -0.6690  0.3698  0.3117
 1937SOL    HW2 8012   2.324   8.232   1.874 -0.5358  0.5139  0.2048
 1938SOL     OW 8013   9.101   7.976   5.267  0.2562 -0.5262 -0.1483
 1938SOL    HW1 8014   9.015   7.974   5.227  1.1081  0.3681 -2.1600
 1938SOL    HW2 8015   9.090   8.029   5.346 -1.1841 -1.1439  0.0945
 1939SOL     OW 8016   2.047   1.306   7.232 -0.2940  0.0144  0.5261
 1939SOL    HW1 8017   1.967   1.292   7.181  1.8046 -2.7333 -2.4296
 1939SOL    HW2 8018   2.071   1.397   7.215 -1.0945 -0.0715 -1.3270
 1940SOL     OW 8019   2.632   1.497   2.643  0.3240  0.2979  0.0186
 1940SOL    HW1 8020   2.722   1.466   2.634  0.9814  2.1273 -0.0254
 1940SOL    HW2 8021   2.623   1.563   2.574 -1.5532 -0.8776 -0.9635
 1941SOL     OW 8022   4.824   3.699   4.947 -0.1689 -0.5984  0.1738
 1941SOL    HW1 8023   4.737   3.726   4.919 -0.0732 -0.7490 -0.2687
 1941SOL    HW2 8024   4.818   3.696   5.043 -0.5728 -0.3545  0.1599
 1942SOL     OW 8025   3.700   1.340   0.150  0.4689 -0.0300  0.1098
 1942SOL    HW1 8026   3.738   1.427   0.138 -0.3886  0.7882  2.6230
 1942SOL    HW2 8027   3.774   1.279   0.139  1.1701  1.0124 -1.2186
 1943SOL     OW 8028   0.882   0.863   7.955 -0.0430  0.1274  0.6300
 1943SOL    HW1 8029   0.794   0.840   7.927 -0.0732  1.5397 -0.6142
 1943SOL    HW2 8030   0.871   0.944   8.005  0.6316  1.2291 -0.8859
 1944SOL     OW 8031   4.679   4.764   6.907  0.2545 -0.0710 -0.1645
 1944SOL    HW1 8032   4.635   4.849   6.907  0.1283 -0.1349 -0.5361
 1944SOL    HW2 8033   4.694   4.744   6.815 -0.5245 -0.8628 -0.1345
 1945SOL     OW 8034   6.459   4.936   5.860 -0.0650  0.3535  0.0291
 1945SOL    HW1 8035   6.480   4.929   5.953  0.7797 -1.3349 -0.2487
 1945SOL    HW2 8036   6.365   4.950   5.858 -0.3824 -1.2844  1.1397
 1946SOL     OW 8037   3.255   7.675   9.229 -0.5952  0.2138  0.4931
 1946SOL    HW1 8038   3.267   7.598   9.285 -0.2597  0.9570  1.4780
 1946SOL    HW2 8039   3.162   7.697   9.239 -0.6093  0.1497  0.5069
 1947SOL     OW 8040   7.076   9.041   5.413  0.3175  0.0268 -0.4800
 1947SOL    HW1 8041   7.014   9.054   5.341 -0.0468  0.6307 -0.0583
 1947SOL    HW2 8042   7.027   9.064   5.492  1.3214  1.3551 -0.2093
 1948SOL     OW 8043   8.723   0.188   1.473 -0.0860  0.2745  0.2240
 1948SOL    HW1 8044   8.747   0.218   1.561 -2.4801  1.4430  0.5717
 1948SOL    HW2 8045   8.644   0.136   1.486  0.5946 -1.1496 -1.0796
 1949SOL     OW 8046   9.174   5.858   5.277 -0.3536  0.3757 -0.5812
 1949SOL    HW1 8047   9.238   5.818   5.219  1.2828  1.1069  0.6453
 1949SOL    HW2 8048   9.104   5.888   5.218  0.3599 -0.5437 -1.9492
 1950SOL     OW 8049   0.835   7.627   0.371  0.4739 -0.1916  0.0751
 1950SOL    HW1 8050   0.787   7.710   0.368  0.1530 -0.3947 -0.5888
 1950SOL    HW2 8051   0.791   7.572   0.306  1.0315 -0.6946  0.1203
 1951SOL     OW 8052   2.693   0.285   9.492 -0.1704 -0.1791 -0.1585
 1951SOL    HW1 8053   2.633   0.254   9.424 -1.4554 -1.2199  1.3566
 1951SOL    HW2 8054   2.659   0.371   9.517  0.8613  0.6278 -1.4337
 1952SOL     OW 8055   1.602   1.628   4.976  0.2923  0.2167  0.1307
 1952SOL    HW1 8056   1.680   1.666   5.015  0.3992  0.1128  0.0167
 1952SOL    HW2 8057   1.532   1.691   4.996  0.3628  0.2040  0.4112
 1953SOL     OW 8058   2.458   4.028   8.589  0.0068 -0.1489 -0.5710
 1953SOL    HW1 8059   2.423   3.945   8.622 -0.0240  0.4491  0.9806
 1953SOL    HW2 8060   2.541   4.039   8.636  0.1845  0.5265 -1.0370
 1954SOL     OW 8061   5.854   5.341   7.553 -0.9685 -0.1970  0.5983
 1954SOL    HW1 8062   5.804   5.276   7.602 -2.2900 -0.0317 -0.4671
 1954SOL    HW2 8063   5.795   5.370   7.484  0.3617  0.5553 -0.2816
 1955SOL     OW 8064   0.948   7.717   1.030 -0.3349  0.3530  0.1095
 1955SOL    HW1 8065   0.858   7.750   1.038  0.0822  1.8286 -0.8568
 1955SOL    HW2 8066   0.986   7.730   1.117 -0.1041  2.8589 -0.2813
 1956SOL     OW 8067   8.315   6.211   7.832 -0.3534  0.0825  0.0196
 1956SOL    HW1 8068   8.378   6.211   7.904 -0.0902 -0.7133 -0.1969
 1956SOL    HW2 8069   8.253   6.141   7.855 -0.6067  0.2184 -0.2401
 1957SOL     OW 8070   6.845   9.005   6.403 -0.1991 -0.2653 -0.3459
 1957SOL    HW1 8071   6.821   9.096   6.385 -1.5063 -0.2882  1.0576
 1957SOL    HW2 8072   6.897   9.009   6.483 -1.6188 -0.8468  0.6580
 1958SOL     OW 8073   4.449   3.254   3.558 -0.6537 -0.7003  0.1977
 1958SOL    HW1 8074   4.380   3.201   3.598 -1.3690  0.1585  0.1346
 1958SOL    HW2 8075   4.460   3.328   3.618 -2.6162  1.2820 -1.6894
 1959SOL     OW 8076   0.900   8.750   2.132 -0.1579  0.2623 -0.5691
 1959SOL    HW1 8077   0.815   8.731   2.094 -1.0764  2.2822  0.3195
 1959SOL    HW2 8078   0.958   8.761   2.057 -0.9031 -0.1715 -1.2187
 1960SOL     OW 8079   8.888   5.287   2.808 -0.3397  0.2329 -0.8407
 1960SOL    HW1 8080   8.878   5.373   2.767 -1.4474  0.4236 -0.2063
 1960SOL    HW2 8081   8.958   5.299   2.873  0.2243  0.3768 -1.4708
 1961SOL     OW 8082   9.385   2.931   2.081 -0.3700 -0.1033 -0.1282
 1961SOL    HW1 8083   9.426   3.010   2.048 -0.6031  0.0907  0.0402
 1961SOL    HW2 8084   9.344   2.958   2.164  0.5577 -0.6687  0.5291
 1962SOL     OW 8085   8.521   6.911   2.384  0.2167  0.2698 -0.3295
 1962SOL    HW1 8086   8.448   6.954   2.338 -0.2705  2.4083  2.2275
 1962SOL    HW2 8087   8.598   6.962   2.359 -0.1831  2.0377  1.7514
 1963SOL     OW 8088   6.115   8.574   6.977  0.2104 -0.4142  0.0227
 1963SOL    HW1 8089   6.080   8.592   7.065  0.0719  0.3627 -0.1836
 1963SOL    HW2 8090   6.093   8.652   6.927 -0.1690 -1.0650 -0.8502
 1964SOL     OW 8091   5.000   0.984   6.084  0.1953 -0.1297  0.3764
 1964SOL    HW1 8092   4.995   1.073   6.118  0.4883 -0.1984  0.6093
 1964SOL    HW2 8093   5.086   0.978   6.044 -1.3000  0.9737 -3.3851
 1965SOL     OW 8094   6.790   3.678   2.953 -0.0862  0.5253 -0.0102
 1965SOL    HW1 8095   6.695   3.674   2.953 -0.1605  0.3757  3.0696
 1965SOL    HW2 8096   6.811   3.769   2.928 -0.8931  0.2119 -2.0616
 1966SOL     OW 8097   0.025   2.276   8.621 -0.3120 -0.2507  0.3176
 1966SOL    HW1 8098   0.023   2.275   8.526  1.7139 -3.2792  0.1649
 1966SOL    HW2 8099   0.113   2.246   8.644 -1.4083 -1.7785  3.0973
 1967SOL     OW 8100   4.935   6.991   6.620  0.5852  0.7263  0.5659
 1967SOL    HW1 8101   4.906   7.082   6.613  0.3495  0.6272  0.2069
 1967SOL    HW2 8102   5.026   6.997   6.650  1.2851  1.1632 -1.5083
 1968SOL     OW 8103   3.458   6.484   6.214 -0.4746  0.1487  0.4806
 1968SOL    HW1 8104   3.425   6.403   6.175 -0.9378  0.9865 -0.9732
 1968SOL    HW2 8105   3.386   6.547   6.205  0.0557  0.8673  1.1039
 1969SOL     OW 8106   3.069   7.315   3.388  0.2313  0.3942 -0.7174
 1969SOL    HW1 8107   3.082   7.275   3.302 -1.4503 -2.2248  0.1264
 1969SOL    HW2 8108   2.975   7.332   3.393  0.3066  0.5364  0.5935
 1970SOL     OW 8109   7.541   0.218   4.731  1.0950 -0.5459  0.5619
 1970SOL    HW1 8110   7.605   0.285   4.704  0.1219  0.8114  1.4698
 1970SOL    HW2 8111   7.457   0.262   4.726  0.1688 -2.3775 -0.7991
 1971SOL     OW 8112   2.598   8.765   0.305  0.4819 -0.7298  0.6818
 1971SOL    HW1 8113   2.562   8.831   0.365 -0.6152 -0.7149  0.0360
 1971SOL    HW2 8114   2.590   8.683   0.354  1.0194 -0.5158  1.1415
 1972SOL     OW 8115   7.954   4.269   4.324 -0.2428 -0.7416  0.1713
 1972SOL    HW1 8116   7.969   4.193   4.267  1.2513 -0.6100  0.3314
 1972SOL    HW2 8117   7.900   4.235   4.396 -2.2360 -0.8891 -1.3230
 1973SOL     OW 8118   3.226   8.204   2.286 -0.1363  0.3210  0.6939
 1973SOL    HW1 8119   3.195   8.258   2.359 -0.6337 -0.8564  1.3816
 1973SOL    HW2 8120   3.163   8.219   2.216 -0.0962  0.8649  0.7736
 1974SOL     OW 8121   0.625   5.637   3.886  0.4134 -0.3015  0.3326
 1974SOL    HW1 8122   0.701   5.660   3.940  0.3119 -0.1496  0.4128
 1974SOL    HW2 8123   0.660   5.634   3.797  0.1176  1.8319  0.0867
 1975SOL     OW 8124   6.118   5.442   4.154  0.4145 -0.4939  0.5285
 1975SOL    HW1 8125   6.184   5.411   4.217  1.2039  0.5892  0.2607
 1975SOL    HW2 8126   6.113   5.536   4.169  1.2067 -0.0707 -1.5538
 1976SOL     OW 8127   7.543   8.252   6.649 -0.2339  0.2766  0.2648
 1976SOL    HW1 8128   7.451   8.225   6.649 -0.6485  1.5764  0.4843
 1976SOL    HW2 8129   7.540   8.345   6.672  1.1692  0.2568  0.6344
 1977SOL     OW 8130   8.595   8.184   1.907 -0.2138  0.2103 -0.5051
 1977SOL    HW1 8131   8.597   8.275   1.877  1.0693  0.0474 -0.9684
 1977SOL    HW2 8132   8.682   8.168   1.943 -0.6256 -0.6551  0.1683
 1978SOL     OW 8133   4.167   8.257   8.134  0.1500  0.3831 -0.8517
 1978SOL    HW1 8134   4.107   8.210   8.192 -0.0543 -0.0282 -1.3866
 1978SOL    HW2 8135   4.111   8.288   8.062  0.2490  1.5580 -0.4574
 1979SOL     OW 8136   2.747   7.702   0.076  0.1893  0.1805 -0.0147
 1979SOL    HW1 8137   2.830   7.668   0.109  0.3483  0.0470 -0.5532
 1979SOL    HW2 8138   2.739   7.666  -0.012 -0.6459 -0.1561  0.1891
 1980SOL     OW 8139   8.581   0.149   2.479 -0.1119 -0.5780 -0.1237
 1980SOL    HW1 8140   8.501   0.130   2.529 -0.8366 -0.0615 -1.0474
 1980SOL    HW2 8141   8.646   0.171   2.546 -0.9002 -0.4515  0.6258
 1981SOL     OW 8142   7.279   2.748   3.669  0.3227  0.0291  0.0083
 1981SOL    HW1 8143   7.288   2.810   3.741 -0.2074  0.4704 -0.2948
 1981SOL    HW2 8144   7.313   2.665   3.704 -0.7706  0.0032  1.0884
 1982SOL     OW 8145   1.980   0.206   0.591 -0.2473 -0.0147 -0.6260
 1982SOL    HW1 8146   2.010   0.116   0.584  1.7794  0.4113  1.4372
 1982SOL    HW2 8147   2.051   0.258   0.554 -0.3100  0.8159  0.3630
 1983SOL     OW 8148   2.556   3.423   5.236  0.4828  0.2727 -0.2996
 1983SOL    HW1 8149   2.621   3.379   5.290 -0.0090 -0.7172 -0.4772
 1983SOL    HW2 8150   2.519   3.353   5.182 -1.4428  0.5596  0.5218
 1984SOL     OW 8151   5.095   4.008   6.919 -0.0987 -0.1708  0.5431
 1984SOL    HW1 8152   5.112   3.970   6.833  1.0636 -2.7772  1.8013
 1984SOL    HW2 8153   5.007   3.976   6.943  0.6024 -1.6552  1.3125
 1985SOL     OW 8154   2.063   9.324   0.945 -0.5322 -0.2957  0.6465
 1985SOL    HW1 8155   2.018   9.407   0.959  0.4479  0.3685  0.0299
 1985SOL    HW2 8156   2.111   9.308   1.027 -0.3123  0.0161  0.5793
 1986SOL     OW 8157   8.356   7.051   1.103 -0.2220  0.0413  0.1490
 1986SOL    HW1 8158   8.356   7.059   1.199 -1.3860 -0.4209  0.2054
 1986SOL    HW2 8159   8.274   7.005   1.083 -0.5095  1.0668 -1.1447
 1987SOL     OW 8160   3.568   0.689   3.857 -0.2130 -0.3715 -0.0725
 1987SOL    HW1 8161   3.567   0.656   3.767 -0.9812  0.5807 -0.4397
 1987SOL    HW2 8162   3.634   0.758   3.857  0.4772 -1.0198  0.3580
 1988SOL     OW 8163   6.494   5.444   3.649  0.3590  0.1614  0.2646
 1988SOL    HW1 8164   6.539   5.478   3.726  0.3999  1.5983 -0.3467
 1988SOL    HW2 8165   6.444   5.519   3.616  2.7365  0.5740 -2.8577
 1989SOL     OW 8166   8.989   3.234   6.050 -0.1177  0.0473  0.0955
 1989SOL    HW1 8167   8.929   3.307   6.035 -2.0739 -1.6213 -0.4408
 1989SOL    HW2 8168   8.971   3.206   6.140 -0.2317 -0.5667 -0.1203
 1990SOL     OW 8169   6.374   8.081   3.245 -0.1606  0.4715 -0.5874
 1990SOL    HW1 8170   6.462   8.088   3.280 -0.7753  0.7217  1.0150
 1990SOL    HW2 8171   6.384   8.088   3.150  1.5691  0.0089 -0.4594
 1991SOL     OW 8172   7.299   4.596   6.174 -0.7130  0.2983 -0.0285
 1991SOL    HW1 8173   7.290   4.654   6.099 -1.7079 -0.7041 -0.7228
 1991SOL    HW2 8174   7.381   4.622   6.216 -0.4359  1.2485 -1.1370
 1992SOL     OW 8175   7.442   7.324   6.654  0.6410 -0.3256 -0.0701
 1992SOL    HW1 8176   7.520   7.269   6.647 -0.3023 -1.8082  0.5674
 1992SOL    HW2 8177   7.372   7.271   6.616 -0.3747  0.2691  0.9079
 1993SOL     OW 8178   0.842   0.810   1.032 -0.1510 -0.5221  0.9014
 1993SOL    HW1 8179   0.796   0.840   1.110  2.3118 -0.8194  2.5731
 1993SOL    HW2 8180   0.785   0.836   0.959 -2.1423  0.5073  2.7126
 1994SOL     OW 8181   4.504   7.080   7.306 -0.0515 -0.7118 -0.1046
 1994SOL    HW1 8182   4.538   7.009   7.361 -1.2956  0.2865  2.0721
 1994SOL    HW2 8183   4.419   7.048   7.276 -0.8022 -0.0416  1.2198
 1995SOL     OW 8184   2.372   3.141   3.113  0.4399 -0.2138  0.2034
 1995SOL    HW1 8185   2.415   3.060   3.142 -0.6672 -0.7108  0.5240
 1995SOL    HW2 8186   2.375   3.198   3.189  0.1660 -0.4109  0.3664
 1996SOL     OW 8187   6.661   2.204   1.981 -0.1420 -0.1895 -0.4766
 1996SOL    HW1 8188   6.680   2.145   2.054 -0.8018 -1.0252 -0.9618
 1996SOL    HW2 8189   6.669   2.292   2.018 -1.5641 -0.6060  0.9040
 1997SOL     OW 8190   4.311   6.586   4.143 -0.2730 -0.3327  0.0331
 1997SOL    HW1 8191   4.253   6.543   4.205 -0.4112 -0.2310 -0.0241
 1997SOL    HW2 8192   4.314   6.527   4.068 -0.4165 -0.2697 -0.0218
 1998SOL     OW 8193   7.912   3.384   9.134 -0.1893 -0.1715 -0.1395
 1998SOL    HW1 8194   7.866   3.417   9.057 -0.7542 -0.9548 -0.1548
 1998SOL    HW2 8195   7.849   3.394   9.205 -0.3292 -1.0919 -0.1257
 1999SOL     OW 8196   3.252   1.371   7.113 -0.4980 -0.1615 -0.0070
 1999SOL    HW1 8197   3.240   1.280   7.086 -1.0396  0.2352 -1.1922
 1999SOL    HW2 8198   3.251   1.421   7.031 -0.2303  0.9156  0.6184
 2000SOL     OW 8199   8.357   6.297   8.922 -0.3853 -0.4891  0.7285
 2000SOL    HW1 8200   8.300   6.347   8.862 -0.5129  0.7138  1.8015
 2000SOL    HW2 8201   8.322   6.208   8.920 -2.1167  0.1378  1.0789
 2001SOL     OW 8202   8.282   8.227   1.992 -0.0015  0.0395  0.4252
 2001SOL    HW1 8203   8.216   8.184   1.937 -0.8440  0.8376  0.8092
 2001SOL    HW2 8204   8.348   8.158   2.006 -0.7107 -0.7553  0.0026
 2002SOL     OW 8205   1.826   2.910   7.797 -1.2392 -0.4381  0.2471
 2002SOL    HW1 8206   1.915   2.914   7.830 -1.0628 -1.5512 -0.0597
 2002SOL    HW2 8207   1.785   2.990   7.829  0.0434  0.4155 -0.1525
 2003SOL     OW 8208   7.851   2.958   5.083  0.1539 -0.1840  0.4881
 2003SOL    HW1 8209   7.818   2.902   5.012  0.6375  0.3395 -0.1664
 2003SOL    HW2 8210   7.836   2.907   5.163 -1.7333 -0.1979  0.1787
 2004SOL     OW 8211   2.859   0.614   4.563 -0.1389 -0.4749  0.2867
 2004SOL    HW1 8212   2.798   0.601   4.635 -1.2581 -3.8559 -1.0244
 2004SOL    HW2 8213   2.935   0.657   4.602 -1.3397 -0.7195  3.1051
 2005SOL     OW 8214   6.276   6.928   1.228 -0.1315  0.2247  0.6408
 2005SOL    HW1 8215   6.194   6.956   1.268 -0.2341 -0.3765  0.8644
 2005SOL    HW2 8216   6.296   6.844   1.269  0.2341  0.0292  0.0890
 2006SOL     OW 8217   4.890   3.306   3.108  0.4414 -0.0651  0.7103
 2006SOL    HW1 8218   4.901   3.263   3.193 -0.1704  1.7011  1.7348
 2006SOL    HW2 8219   4.977   3.302   3.067  0.5989 -1.4542  1.1388
 2007SOL     OW 8220   4.263   7.135   0.505 -0.7010 -0.3466 -0.2762
 2007SOL    HW1 8221   4.244   7.175   0.590 -1.2236  0.2698 -0.6745
 2007SOL    HW2 8222   4.310   7.204   0.457 -0.8311 -0.5235 -0.6559
 2008SOL     OW 8223   4.381   8.083   8.095  0.0536 -0.8427  0.2779
 2008SOL    HW1 8224   4.304   8.136   8.115  0.5167  0.1656 -0.5524
 2008SOL    HW2 8225   4.354   7.993   8.115 -2.0701 -0.8084 -1.9978
 2009SOL     OW 8226   4.048   4.455   5.664 -1.1787 -0.6613 -0.1367
 2009SOL    HW1 8227   4.036   4.366   5.630 -1.0539 -0.8110  0.2159
 2009SOL    HW2 8228   4.089   4.443   5.749  0.1997 -0.2176 -0.7001
 2010SOL     OW 8229   6.345   0.560   6.361  0.6428  0.0745 -0.4023
 2010SOL    HW1 8230   6.320   0.480   6.316 -0.4109 -0.2632  0.7320
 2010SOL    HW2 8231   6.376   0.531   6.447  0.0654  0.8879  0.0922
 2011SOL     OW 8232   4.644   8.195   7.805  0.0933  0.1102 -0.5318
 2011SOL    HW1 8233   4.659   8.105   7.776  0.6506 -0.2029  0.6429
 2011SOL    HW2 8234   4.659   8.192   7.899  0.3505  1.4832 -0.5076
 2012SOL     OW 8235   7.925   8.139   8.578 -0.0207 -0.1484 -0.0183
 2012SOL    HW1 8236   7.965   8.061   8.537 -1.2480 -0.1524 -1.3175
 2012SOL    HW2 8237   7.862   8.103   8.640 -0.9152 -0.2313 -0.9475
 2013SOL     OW 8238   2.891   1.571   4.111  0.1038  0.3772  0.7061
 2013SOL    HW1 8239   2.973   1.612   4.085 -1.0045  2.2520  0.0095
 2013SOL    HW2 8240   2.849   1.547   4.029 -0.0469 -0.6574  1.0625
 2014SOL     OW 8241   0.719   5.098   8.280 -0.5020  0.5006  0.0253
 2014SOL    HW1 8242   0.793   5.156   8.261 -0.7444  1.0421  0.7195
 2014SOL    HW2 8243   0.685   5.128   8.364 -2.0013  0.7633 -0.6400
 2015SOL     OW 8244   3.027   0.797   7.945  0.4118  0.1140  0.0929
 2015SOL    HW1 8245   2.952   0.853   7.924  0.4845  0.7983  1.5175
 2015SOL    HW2 8246   2.989   0.709   7.953 -0.2239  0.4283  0.6439
 2016SOL     OW 8247   5.704   6.422   6.696 -0.3015  0.2461  0.7106
 2016SOL    HW1 8248   5.785   6.383   6.662 -1.6233 -0.3437 -1.9857
 2016SOL    HW2 8249   5.662   6.351   6.744  1.4160  0.9954  3.6209
 2017SOL     OW 8250   5.004   0.466   7.024  0.1271  0.0524  0.5149
 2017SOL    HW1 8251   4.913   0.464   7.053  0.4427  1.5619  1.7194
 2017SOL    HW2 8252   5.027   0.374   7.013 -1.0806 -0.4256  1.7211
 2018SOL     OW 8253   0.357   3.553   4.439 -0.1020  0.0466  0.3679
 2018SOL    HW1 8254   0.440   3.509   4.422 -0.2508 -0.9829  2.1485
 2018SOL    HW2 8255   0.290   3.490   4.413 -0.3176 -0.9296  3.0125
 2019SOL     OW 8256   9.558   6.775   3.620  0.3591 -0.2568 -0.4321
 2019SOL    HW1 8257   9.620   6.812   3.557  0.5080 -0.4680 -0.4125
 2019SOL    HW2 8258   9.586   6.811   3.705  0.0728  0.1374 -0.5038
 2020SOL     OW 8259   0.372   6.226   7.264  0.8377 -0.0370 -0.4295
 2020SOL    HW1 8260   0.306   6.280   7.220 -0.2177 -1.9522 -1.3269
 2020SOL    HW2 8261   0.409   6.283   7.332 -1.6114  1.1781 -0.0107
 2021SOL     OW 8262   9.351   7.468   7.001 -0.3501  0.0035 -0.3821
 2021SOL    HW1 8263   9.273   7.491   7.053 -1.3961  0.4349 -2.0628
 2021SOL    HW2 8264   9.387   7.553   6.975  1.2250 -0.1761  1.1041
 2022SOL     OW 8265   8.795   7.104   4.307 -0.4530 -0.0558  0.3007
 2022SOL    HW1 8266   8.772   7.179   4.363  1.3898  0.1658  0.8102
 2022SOL    HW2 8267   8.890   7.099   4.311 -0.4345 -1.4678 -1.0115
 2023SOL     OW 8268   7.604   1.377   3.182  0.1315  0.3921 -0.6189
 2023SOL    HW1 8269   7.529   1.345   3.130  0.4620 -0.4955 -0.5628
 2023SOL    HW2 8270   7.568   1.449   3.233 -1.1297 -1.0588  0.6508
 2024SOL     OW 8271   2.890   5.719   1.001 -0.2621  0.4266  0.5715
 2024SOL    HW1 8272   2.932   5.662   1.065 -0.0817  0.7885  0.7734
 2024SOL    HW2 8273   2.959   5.780   0.974  0.1297 -0.6574 -1.0950
 2025SOL     OW 8274   3.465   2.290   5.605 -0.3359  0.9134  0.1597
 2025SOL    HW1 8275   3.494   2.351   5.673  1.4345  0.9107 -0.5470
 2025SOL    HW2 8276   3.377   2.264   5.633  0.1195  1.3174  2.1588
 2026SOL     OW 8277   8.843   2.971   7.105 -0.5234 -0.1725  0.2968
 2026SOL    HW1 8278   8.870   2.881   7.122  0.4495  0.1614  0.5818
 2026SOL    HW2 8279   8.908   3.004   7.043 -1.8339 -0.1746 -1.1376
 2027SOL     OW 8280   1.738   1.228   1.526  0.2953 -0.4723  0.3917
 2027SOL    HW1 8281   1.810   1.173   1.494 -1.0196 -0.8738 -2.2027
 2027SOL    HW2 8282   1.662   1.170   1.528 -0.2806  0.2873  1.6657
 2028SOL     OW 8283   1.427   7.735   0.854  0.6151 -0.3403  0.3412
 2028SOL    HW1 8284   1.377   7.775   0.926  0.8961  0.7184 -0.0231
 2028SOL    HW2 8285   1.379   7.655   0.833 -0.3544  0.1353  0.6742
 2029SOL     OW 8286   8.274   4.618   4.946  0.3213 -0.2888  0.1761
 2029SOL    HW1 8287   8.284   4.576   4.861 -0.5722  0.3235 -0.2493
 2029SOL    HW2 8288   8.203   4.571   4.989  0.9587 -0.7793  0.7098
 2030SOL     OW 8289   3.460   1.763   8.023  0.0021  0.4732  0.2691
 2030SOL    HW1 8290   3.545   1.793   7.991  0.6472 -0.4878  1.0017
 2030SOL    HW2 8291   3.463   1.668   8.012 -0.8587  0.4000  0.5945
 2031SOL     OW 8292   3.990   8.108   7.255  0.5740 -0.5871  0.6330
 2031SOL    HW1 8293   3.950   8.021   7.244 -0.0038 -0.5360  2.1645
 2031SOL    HW2 8294   4.028   8.106   7.343  2.2271  0.0819 -0.0172
 2032SOL     OW 8295   0.032   4.020   9.294  0.5953 -0.7375  0.3111
 2032SOL    HW1 8296   0.020   3.964   9.371  0.0490  0.6708  1.2923
 2032SOL    HW2 8297  -0.003   4.105   9.320  3.3440  0.7131 -0.3475
 2033SOL     OW 8298   6.243   7.394   1.396 -0.5725  0.3093  0.0485
 2033SOL    HW1 8299   6.178   7.429   1.458 -1.9051 -0.2606 -0.9790
 2033SOL    HW2 8300   6.317   7.369   1.450 -1.0544  1.3385  1.2250
 2034SOL     OW 8301   2.427   0.892   8.539  0.1881 -0.3033  0.3197
 2034SOL    HW1 8302   2.350   0.922   8.588  0.1559  0.1629 -0.0198
 2034SOL    HW2 8303   2.492   0.872   8.607  0.0913  0.1982  0.5645
 2035SOL     OW 8304   0.863   2.623   4.839  0.2156  0.3512  0.1165
 2035SOL    HW1 8305   0.924   2.567   4.789  0.4925  0.1197  0.7007
 2035SOL    HW2 8306   0.779   2.578   4.833  0.3180  0.1574  0.1198
 2036SOL     OW 8307   7.889   8.261   2.777  0.3305 -0.1216 -0.6688
 2036SOL    HW1 8308   7.887   8.166   2.789  0.3331 -0.0831 -0.3309
 2036SOL    HW2 8309   7.969   8.289   2.822 -0.9796  0.3201  1.5818
 2037SOL     OW 8310   2.129   3.396   2.607  0.1463 -0.1537 -0.6476
 2037SOL    HW1 8311   2.100   3.434   2.689 -1.6111 -2.6421  0.0099
 2037SOL    HW2 8312   2.048   3.373   2.561  1.0478 -1.9739 -1.4523
 2038SOL     OW 8313   5.572   5.065   8.321 -0.0001 -0.7971  0.1703
 2038SOL    HW1 8314   5.486   5.028   8.300  0.2393 -0.2483 -2.1264
 2038SOL    HW2 8315   5.606   5.093   8.236  1.4485  1.1715  1.3237
 2039SOL     OW 8316   1.318   5.506   8.469  0.9335  0.7870 -0.2105
 2039SOL    HW1 8317   1.362   5.431   8.509 -1.6096 -1.6588 -1.5816
 2039SOL    HW2 8318   1.228   5.501   8.503  0.5756  2.9521 -0.7269
 2040SOL     OW 8319   9.568   5.672   2.254  0.6169 -0.1782 -0.0355
 2040SOL    HW1 8320   9.580   5.749   2.198 -0.3273 -0.5545 -0.7851
 2040SOL    HW2 8321   9.631   5.608   2.221  0.1848 -0.3356 -0.5664
 2041SOL     OW 8322   2.767   6.856   1.285  0.5941  0.3634 -0.0005
 2041SOL    HW1 8323   2.728   6.826   1.367 -3.0149 -2.2689 -2.3359
 2041SOL    HW2 8324   2.762   6.952   1.290 -0.4797  0.2616  2.4399
 2042SOL     OW 8325   1.185   9.482   4.626 -0.0727 -0.5143 -0.3928
 2042SOL    HW1 8326   1.228   9.483   4.711 -2.4035 -0.8672  0.8466
 2042SOL    HW2 8327   1.177   9.390   4.604  0.2604 -0.4325 -0.8822
 2043SOL     OW 8328   4.815   7.327   8.166  0.0815  0.0346 -0.1534
 2043SOL    HW1 8329   4.892   7.383   8.160  0.2399 -0.1700 -0.0254
 2043SOL    HW2 8330   4.847   7.239   8.145  0.0477 -0.1882  0.6986
 2044SOL     OW 8331   4.496   5.547   5.752 -0.2043  0.4040  0.4259
 2044SOL    HW1 8332   4.438   5.622   5.762 -1.3121 -0.5114  1.1099
 2044SOL    HW2 8333   4.438   5.474   5.728  0.4934 -0.7322  1.9676
 2045SOL     OW 8334   9.341   2.820   0.537 -0.0686  0.2445  0.8731
 2045SOL    HW1 8335   9.395   2.782   0.606  0.3916  0.6794  0.7564
 2045SOL    HW2 8336   9.307   2.900   0.574  0.7766  0.8631  0.3535
 2046SOL     OW 8337   0.162   8.580   4.260  0.7501  0.3168 -0.4283
 2046SOL    HW1 8338   0.182   8.664   4.300 -0.4764  0.5629 -0.2725
 2046SOL    HW2 8339   0.187   8.515   4.326  1.0064  0.5961 -0.2488
 2047SOL     OW 8340   2.972   0.724   1.323  0.2274 -0.0029  0.1649
 2047SOL    HW1 8341   2.948   0.800   1.270  0.9551  1.7719  2.2267
 2047SOL    HW2 8342   3.041   0.681   1.274  0.0837  0.8999 -0.8637
 2048SOL     OW 8343   9.007   5.610   2.766  0.5410  0.0745  0.3534
 2048SOL    HW1 8344   9.044   5.524   2.785  0.2236 -0.2517 -0.4433
 2048SOL    HW2 8345   9.022   5.622   2.672  2.0102  1.5969  0.7442
 2049SOL     OW 8346   6.768   4.038   5.886 -0.2266 -0.3034  0.2164
 2049SOL    HW1 8347   6.693   4.071   5.835  1.5025  1.8729 -1.1304
 2049SOL    HW2 8348   6.755   3.944   5.890 -2.0339 -0.2095 -1.6575
 2050SOL     OW 8349   0.992   1.561   5.009 -0.0875 -1.4147 -0.1108
 2050SOL    HW1 8350   1.085   1.569   5.032 -0.5008  3.1426  0.9016
 2050SOL    HW2 8351   0.948   1.545   5.092 -0.3798 -1.0170 -0.1862
 2051SOL     OW 8352   3.208   8.910   3.348 -0.1954  0.2635  0.5874
 2051SOL    HW1 8353   3.275   8.969   3.314 -0.7498  0.0118 -1.0399
 2051SOL    HW2 8354   3.160   8.962   3.413 -0.5296  1.5642 -0.6396
 2052SOL     OW 8355   9.112   7.909   4.024 -0.4103  0.4743 -0.1607
 2052SOL    HW1 8356   9.033   7.958   3.998 -1.2254 -1.0304 -0.6286
 2052SOL    HW2 8357   9.159   7.895   3.941 -0.6149 -0.2563 -0.1564
 2053SOL     OW 8358   1.060   7.994   2.541  0.7390  0.4735 -0.1143
 2053SOL    HW1 8359   1.090   8.028   2.457 -0.8767  1.4226 -0.3635
 2053SOL    HW2 8360   1.000   8.062   2.574 -2.2058 -1.7858 -0.3667
 2054SOL     OW 8361   1.766   5.853   7.683 -0.3426 -0.5419 -0.1927
 2054SOL    HW1 8362   1.786   5.799   7.759 -2.0406  1.4099  1.7715
 2054SOL    HW2 8363   1.673   5.838   7.666 -0.4637  0.5535 -0.5972
 2055SOL     OW 8364   8.944   9.244   1.083  0.6878 -0.3164  0.6082
 2055SOL    HW1 8365   9.007   9.279   1.019  1.7555  2.4151  2.9675
 2055SOL    HW2 8366   8.864   9.294   1.067  0.6988 -0.2278  0.8235
 2056SOL     OW 8367   9.455   8.468   6.293  0.2276 -0.5347 -0.4135
 2056SOL    HW1 8368   9.457   8.383   6.247  0.7657 -1.2259  0.8440
 2056SOL    HW2 8369   9.506   8.453   6.373  0.1752  0.9358 -0.0834
 2057SOL     OW 8370   8.449   5.308   6.319 -0.3948 -0.1665 -0.4438
 2057SOL    HW1 8371   8.375   5.343   6.270 -1.0118 -1.6743 -0.6709
 2057SOL    HW2 8372   8.512   5.380   6.324 -1.4254  0.8167 -1.1718
 2058SOL     OW 8373   1.446   3.363   0.899  0.3306 -0.2665  0.8557
 2058SOL    HW1 8374   1.484   3.374   0.987  2.5972  3.5376 -0.3393
 2058SOL    HW2 8375   1.514   3.318   0.849 -1.0226 -2.5789  0.9634
 2059SOL     OW 8376   3.457   4.904   2.736 -0.0462  0.5136 -0.0123
 2059SOL    HW1 8377   3.447   4.876   2.827  1.1851 -2.2606 -0.6404
 2059SOL    HW2 8378   3.377   4.874   2.693 -0.9799  2.4858  0.2001
 2060SOL     OW 8379   2.390   7.274   4.221 -0.3311  0.0452  0.4748
 2060SOL    HW1 8380   2.367   7.220   4.296  0.6913 -0.0274  0.7612
 2060SOL    HW2 8381   2.307   7.303   4.184 -0.8750 -1.1996  0.6968
 2061SOL     OW 8382   2.832   7.978   4.132 -0.1123  0.1950  0.1385
 2061SOL    HW1 8383   2.747   7.977   4.177 -0.2112  0.7491 -0.0336
 2061SOL    HW2 8384   2.810   7.992   4.040 -0.0275 -2.5222 -0.3695
 2062SOL     OW 8385   9.139   6.964   1.075  0.5628  0.3775 -0.5129
 2062SOL    HW1 8386   9.071   6.959   1.008  0.4876  2.2513 -0.6173
 2062SOL    HW2 8387   9.109   6.905   1.144 -0.6950  0.4455 -0.9840
 2063SOL     OW 8388   4.672   8.628   4.862  0.1607 -0.6108  0.2541
 2063SOL    HW1 8389   4.663   8.647   4.956  0.0195 -1.9081  0.5165
 2063SOL    HW2 8390   4.689   8.534   4.858  0.6898 -0.4794 -0.9996
 2064SOL     OW 8391   8.558   8.758   0.441  0.0490 -0.4682  0.4748
 2064SOL    HW1 8392   8.586   8.777   0.352  1.2591  0.0150  0.9443
 2064SOL    HW2 8393   8.621   8.694   0.473 -0.9107 -1.3354  0.6939
 2065SOL     OW 8394   3.630   3.463   2.348 -0.0464  0.4394  0.2729
 2065SOL    HW1 8395   3.694   3.392   2.353 -1.2589 -0.7501 -0.5000
 2065SOL    HW2 8396   3.595   3.469   2.437 -1.6007 -1.5693 -0.1519
 2066SOL     OW 8397   9.134   4.504   2.659  0.2289 -0.2785 -0.1453
 2066SOL    HW1 8398   9.203   4.536   2.717  1.4034 -0.2970 -1.4822
 2066SOL    HW2 8399   9.065   4.476   2.718  1.6898 -1.0549  1.2811
 2067SOL     OW 8400   4.956   0.399   1.628 -0.3721 -0.0335  0.1622
 2067SOL    HW1 8401   4.995   0.340   1.564  0.6854 -2.0440  2.4962
 2067SOL    HW2 8402   5.030   0.436   1.676 -1.1292  1.3961  0.2969
 2068SOL     OW 8403   1.166   5.159   1.148  0.4072  0.5959 -0.3312
 2068SOL    HW1 8404   1.168   5.142   1.053 -0.0007 -0.0416 -0.2284
 2068SOL    HW2 8405   1.076   5.142   1.174  0.6497  0.2011  0.2760
 2069SOL     OW 8406   2.103   5.601   8.163  0.1508 -0.2394 -0.7271
 2069SOL    HW1 8407   2.180   5.656   8.178 -0.5789  0.7190 -0.3859
 2069SOL    HW2 8408   2.038   5.661   8.126 -0.9197 -0.6838  0.3610
 2070SOL     OW 8409   5.265   8.108   4.404  0.4681 -0.3204  0.3816
 2070SOL    HW1 8410   5.336   8.111   4.468 -0.4434 -2.3109  1.5882
 2070SOL    HW2 8411   5.185   8.104   4.457 -0.3328 -1.5565 -0.8603
 2071SOL     OW 8412   8.990   6.921   6.939  0.3308  0.0143 -0.2227
 2071SOL    HW1 8413   8.989   6.843   6.885 -0.2549  0.1579 -0.4312
 2071SOL    HW2 8414   9.009   6.889   7.027 -0.1444 -0.3915 -0.2649
 2072SOL     OW 8415   7.708   3.134   7.725 -0.4744  0.3230  0.6531
 2072SOL    HW1 8416   7.715   3.120   7.820  1.1872  0.5567  0.5975
 2072SOL    HW2 8417   7.748   3.219   7.710 -0.9007  0.3787 -0.2435
 2073SOL     OW 8418   0.634   6.822   2.019 -0.5012 -0.4184 -0.0025
 2073SOL    HW1 8419   0.708   6.769   2.048  0.3650  0.2362 -0.9595
 2073SOL    HW2 8420   0.616   6.880   2.094  1.4209  0.9480 -0.5112
 2074SOL     OW 8421   8.838   0.967   5.399 -0.2520 -0.4996 -0.1021
 2074SOL    HW1 8422   8.811   1.034   5.336  1.2754  0.8759  0.6273
 2074SOL    HW2 8423   8.919   0.931   5.363 -1.2451 -2.2939 -0.6765
 2075SOL     OW 8424   2.575   8.842   5.114  0.1649 -0.6480 -0.1563
 2075SOL    HW1 8425   2.511   8.901   5.073  2.1266 -0.4479 -3.3377
 2075SOL    HW2 8426   2.561   8.758   5.070  0.1727 -1.4310  1.2816
 2076SOL     OW 8427   7.071   6.325   1.765 -0.3403  0.2778 -0.8482
 2076SOL    HW1 8428   7.006   6.344   1.697  0.1271 -0.2244 -1.4588
 2076SOL    HW2 8429   7.091   6.232   1.753  0.9831  0.5743 -1.1221
 2077SOL     OW 8430   5.387   1.332   8.099  0.3902 -0.0718  0.5125
 2077SOL    HW1 8431   5.365   1.361   8.011  1.9195  0.3599  0.2485
 2077SOL    HW2 8432   5.304   1.299   8.135 -0.4088  0.4424 -0.8000
 2078SOL     OW 8433   7.172   1.369   0.808 -0.0336  0.3552  0.2761
 2078SOL    HW1 8434   7.196   1.382   0.717  3.5406 -1.4105  0.8031
 2078SOL    HW2 8435   7.217   1.439   0.855 -1.6673  1.1185  0.8002
 2079SOL     OW 8436   1.038   9.467   0.741 -0.3971 -0.1224  0.0689
 2079SOL    HW1 8437   1.124   9.465   0.699 -0.5237 -0.2549 -0.1934
 2079SOL    HW2 8438   1.055   9.455   0.834 -0.1307 -0.1163  0.0197
 2080SOL     OW 8439   3.756   8.361   8.404  0.2038  0.4070  0.0081
 2080SOL    HW1 8440   3.833   8.412   8.431  0.8481 -0.6479  0.2194
 2080SOL    HW2 8441   3.739   8.390   8.314  0.9798  0.5022 -0.1203
 2081SOL     OW 8442   2.070   8.834   9.376 -0.2377  0.4775  0.2429
 2081SOL    HW1 8443   2.012   8.785   9.318  1.6752 -0.6966 -0.7752
 2081SOL    HW2 8444   2.102   8.907   9.322  0.9286 -0.1558  0.0612
 2082SOL     OW 8445   4.101   8.822   2.292  0.3883  0.1447 -0.2190
 2082SOL    HW1 8446   4.094   8.844   2.385  0.7935 -1.6153  0.2751
 2082SOL    HW2 8447   4.159   8.746   2.290 -2.3136 -2.0687 -1.5207
 2083SOL     OW 8448   0.728   1.614   7.201  0.1087  0.2803  0.1279
 2083SOL    HW1 8449   0.752   1.533   7.155  0.2314  0.3219  0.1184
 2083SOL    HW2 8450   0.666   1.586   7.269 -0.2005  0.2419 -0.1699
 2084SOL     OW 8451   1.182   6.158   5.772 -0.3263 -0.3363 -0.0711
 2084SOL    HW1 8452   1.121   6.099   5.729 -1.3859  0.1411  0.7276
 2084SOL    HW2 8453   1.199   6.227   5.707  0.0737 -0.9331 -0.6110
 2085SOL     OW 8454   6.957   9.287   6.499  0.3635 -0.3474 -0.4193
 2085SOL    HW1 8455   6.905   9.352   6.452 -2.5850 -1.4094  1.1152
 2085SOL    HW2 8456   6.990   9.335   6.576  0.1630 -0.0941 -0.4889
 2086SOL     OW 8457   0.945   0.830   6.508 -0.1259  0.5351  0.2835
 2086SOL    HW1 8458   0.876   0.768   6.529 -1.1585  2.0890  1.7408
 2086SOL    HW2 8459   0.996   0.787   6.439 -0.6701 -1.9696  1.3369
 2087SOL     OW 8460   2.353   0.141   0.447  0.2066 -0.1973  0.5366
 2087SOL    HW1 8461   2.341   0.098   0.362  1.3699  1.0717 -0.3081
 2087SOL    HW2 8462   2.383   0.071   0.505  1.0487 -0.7545 -0.5345
 2088SOL     OW 8463   1.150   4.727   1.479 -0.0659 -0.4424 -0.7318
 2088SOL    HW1 8464   1.106   4.773   1.550  2.1799  0.8921 -0.1042
 2088SOL    HW2 8465   1.079   4.683   1.431 -1.8451  0.2388  1.1323
 2089SOL     OW 8466   7.840   5.938   0.704 -0.0615  0.4409 -0.0733
 2089SOL    HW1 8467   7.786   5.965   0.629 -2.9123  0.5830  1.8404
 2089SOL    HW2 8468   7.809   5.993   0.776  0.0007 -2.0260  1.9830
 2090SOL     OW 8469   5.633   3.566   7.083  0.2919  0.0442  0.0316
 2090SOL    HW1 8470   5.546   3.530   7.063  0.6093 -1.6931  1.5190
 2090SOL    HW2 8471   5.615   3.647   7.131 -0.4721  0.3337 -0.7100
 2091SOL     OW 8472   6.939   4.339   1.709  0.3364  0.4663 -0.4276
 2091SOL    HW1 8473   6.933   4.246   1.731  0.4109  0.9771  2.0180
 2091SOL    HW2 8474   6.904   4.344   1.620 -0.2623 -1.8082 -0.4002
 2092SOL     OW 8475   8.424   7.973   1.557  0.1767 -0.2557  0.0941
 2092SOL    HW1 8476   8.337   7.980   1.596 -0.2601 -0.0235 -0.8928
 2092SOL    HW2 8477   8.433   7.880   1.535  0.2122 -0.2960  0.2816
 2093SOL     OW 8478   6.328   1.937   1.192  0.1685 -0.3936 -0.1113
 2093SOL    HW1 8479   6.248   1.887   1.180 -0.1066  0.3609 -1.6177
 2093SOL    HW2 8480   6.392   1.895   1.135  0.8813 -1.0047  1.0992
 2094SOL     OW 8481   6.931   3.360   0.390  0.0165 -0.5816  0.6110
 2094SOL    HW1 8482   6.874   3.436   0.394  1.2389  0.2983  2.0686
 2094SOL    HW2 8483   7.003   3.387   0.333  1.0304 -0.1813  2.0160
 2095SOL     OW 8484   6.978   1.258   8.645  0.2546  0.3708  0.2820
 2095SOL    HW1 8485   6.995   1.323   8.713  1.1176  0.4643 -0.0006
 2095SOL    HW2 8486   6.921   1.194   8.686  1.1870  0.1445  1.2791
 2096SOL     OW 8487   2.837   4.519   1.852  0.2657  0.3306  0.6999
 2096SOL    HW1 8488   2.864   4.577   1.781 -1.7445  0.1773 -0.2526
 2096SOL    HW2 8489   2.903   4.450   1.853  2.4718  2.2972  1.5586
 2097SOL     OW 8490   5.861   6.546   9.499 -0.4154 -0.2886 -0.0796
 2097SOL    HW1 8491   5.908   6.619   9.540  1.7396 -2.1083  0.9058
 2097SOL    HW2 8492   5.769   6.571   9.504  0.2217  2.2233  0.4442
 2098SOL     OW 8493   6.617   4.333   3.104  0.0854  0.0994 -0.2914
 2098SOL    HW1 8494   6.642   4.424   3.090  0.1233  0.1064 -0.1806
 2098SOL    HW2 8495   6.650   4.312   3.192  0.6916 -0.2327 -0.5923
 2099SOL     OW 8496   4.209   3.171   6.632 -0.4469 -0.0620  0.2136
 2099SOL    HW1 8497   4.295   3.208   6.654  0.7999 -2.3510 -0.4272
 2099SOL    HW2 8498   4.224   3.076   6.630 -2.3845 -0.4133 -2.3829
 2100SOL     OW 8499   4.205   6.438   7.415  0.5625  0.0717 -0.2236
 2100SOL    HW1 8500   4.207   6.361   7.358 -1.0072  0.2710 -0.6061
 2100SOL    HW2 8501   4.273   6.496   7.381 -0.4670  0.2737 -2.0710
 2101SOL     OW 8502   4.978   1.602   2.092  0.6098 -0.0499 -0.1798
 2101SOL    HW1 8503   4.951   1.660   2.164 -1.6543  0.4863 -1.3993
 2101SOL    HW2 8504   4.961   1.652   2.013 -0.1677 -1.8894 -1.2300
 2102SOL     OW 8505   6.661   7.072   5.874  0.1892 -0.3453 -0.3645
 2102SOL    HW1 8506   6.607   7.024   5.812  0.7458 -1.8880  0.3078
 2102SOL    HW2 8507   6.707   7.005   5.924  0.8249  0.8806  0.7751
 2103SOL     OW 8508   1.749   7.906   4.028  0.6189 -0.2924  0.0763
 2103SOL    HW1 8509   1.793   7.911   4.113 -1.0947  0.8675  0.9451
 2103SOL    HW2 8510   1.809   7.855   3.973  2.0981 -0.4561  1.7559
 2104SOL     OW 8511   7.504   0.989   0.271 -0.2207  0.3748 -0.5344
 2104SOL    HW1 8512   7.510   1.002   0.366 -0.1089  0.0872 -0.5020
 2104SOL    HW2 8513   7.591   0.957   0.246 -0.5663 -0.5494 -0.5799
 2105SOL     OW 8514   5.578   5.833   1.751 -0.4617 -0.1133  0.7281
 2105SOL    HW1 8515   5.529   5.752   1.762  0.3244 -0.8262 -0.6339
 2105SOL    HW2 8516   5.624   5.845   1.834 -1.8153 -0.1744  1.5168
 2106SOL     OW 8517   3.313   7.644   0.932 -0.0172  0.3387 -0.3169
 2106SOL    HW1 8518   3.387   7.619   0.987  2.0948 -0.0733 -3.1385
 2106SOL    HW2 8519   3.330   7.736   0.909 -1.2526  0.7317  0.2278
 2107SOL     OW 8520   3.309   2.176   9.259 -0.0555 -0.3012 -0.6857
 2107SOL    HW1 8521   3.398   2.142   9.247 -0.8652 -2.4532 -1.1671
 2107SOL    HW2 8522   3.291   2.225   9.180  0.6418 -0.0042 -0.6666
 2108SOL     OW 8523   1.701   1.133   8.104  0.5633  0.2781 -0.0905
 2108SOL    HW1 8524   1.793   1.142   8.081  1.1183 -0.0819  1.7735
 2108SOL    HW2 8525   1.660   1.095   8.027  1.9078  0.7049 -1.0511
 2109SOL     OW 8526   5.836   2.195   1.629 -0.6666 -0.4030  0.9004
 2109SOL    HW1 8527   5.909   2.195   1.568 -0.3259  1.1584  1.2619
 2109SOL    HW2 8528   5.833   2.285   1.663 -1.3982 -0.9998  2.5103
 2110SOL     OW 8529   2.224   3.321   9.066  0.0043 -0.1501  0.4654
 2110SOL    HW1 8530   2.274   3.274   9.000  0.4837 -0.5676  1.1192
 2110SOL    HW2 8531   2.216   3.260   9.139 -0.7264  0.2157  0.7060
 2111SOL     OW 8532   1.563   8.860   4.235  0.2894 -0.2292 -0.7335
 2111SOL    HW1 8533   1.481   8.816   4.212 -0.2072  0.4263 -0.2383
 2111SOL    HW2 8534   1.630   8.793   4.220 -0.6305 -1.9333  1.9964
 2112SOL     OW 8535   1.530   3.723   9.312 -0.0798  0.4311  0.3030
 2112SOL    HW1 8536   1.500   3.765   9.231  1.1647 -1.1450 -1.0559
 2112SOL    HW2 8537   1.617   3.690   9.291 -0.2016 -1.0587  1.9030
 2113SOL     OW 8538   7.128   2.490   3.115  0.8560 -0.6227  0.2695
 2113SOL    HW1 8539   7.171   2.479   3.200  0.5803 -0.4282  0.4360
 2113SOL    HW2 8540   7.034   2.495   3.136  0.8661  0.6973  0.0942
 2114SOL     OW 8541   0.867   8.166   4.596 -0.4632 -0.3582  0.1353
 2114SOL    HW1 8542   0.889   8.073   4.599  0.3220 -0.1645  0.5989
 2114SOL    HW2 8543   0.839   8.187   4.686 -0.2706 -0.0652  0.1295
 2115SOL     OW 8544   8.768   8.080   1.231 -0.5722  0.3224  0.7310
 2115SOL    HW1 8545   8.716   8.008   1.196  0.5520 -1.8259  3.1034
 2115SOL    HW2 8546   8.735   8.091   1.321  2.0619 -0.2591  1.8682
 2116SOL     OW 8547   3.084   3.736   2.465  0.4831  0.0654 -0.5338
 2116SOL    HW1 8548   3.152   3.801   2.448  2.0283 -1.0265  1.0587
 2116SOL    HW2 8549   3.133   3.655   2.482 -1.0713 -0.4551  2.0273
 2117SOL     OW 8550   1.613   7.389   5.824  0.0522  0.4685  0.3878
 2117SOL    HW1 8551   1.619   7.318   5.760  0.0983 -0.5212  1.4726
 2117SOL    HW2 8552   1.654   7.464   5.780 -1.0693  0.1897 -1.2380
 2118SOL     OW 8553   6.840   5.771   1.776 -0.0873  0.1170 -0.2894
 2118SOL    HW1 8554   6.778   5.787   1.704 -1.9792 -0.2980  1.1779
 2118SOL    HW2 8555   6.817   5.685   1.809 -0.3218  0.9339  1.8075
 2119SOL     OW 8556   3.283   8.150   6.405 -0.0542  0.7593 -0.2143
 2119SOL    HW1 8557   3.232   8.207   6.463 -0.9255  0.0470 -0.2594
 2119SOL    HW2 8558   3.217   8.101   6.356  0.6821  0.6898 -1.1497
 2120SOL     OW 8559   1.133   6.278   0.569 -0.4169 -0.1402  0.5010
 2120SOL    HW1 8560   1.159   6.368   0.588  0.7270 -0.1466 -0.8410
 2120SOL    HW2 8561   1.131   6.234   0.654  0.5479  0.7704  1.0120
 2121SOL     OW 8562   4.974   1.413   7.707  0.2300  0.1899  0.3006
 2121SOL    HW1 8563   4.963   1.508   7.709 -0.9370  0.1015 -0.8611
 2121SOL    HW2 8564   5.056   1.397   7.754 -0.0904  1.6724  1.4214
 2122SOL     OW 8565   4.655   5.303   2.573  0.3104 -0.4007  1.1139
 2122SOL    HW1 8566   4.576   5.253   2.556  1.2834 -1.3215 -1.0681
 2122SOL    HW2 8567   4.626   5.395   2.569 -0.6498 -0.7139  0.1928
 2123SOL     OW 8568   0.928   1.521   5.994 -0.1733 -0.1213 -0.1976
 2123SOL    HW1 8569   0.987   1.470   5.939 -0.0631 -0.1858 -0.0226
 2123SOL    HW2 8570   0.928   1.474   6.078  0.2321  0.3816  0.0883
 2124SOL     OW 8571   5.925   2.590   9.016  0.0302  0.2229  0.1026
 2124SOL    HW1 8572   5.897   2.658   9.077  0.3474  0.9082 -0.5005
 2124SOL    HW2 8573   5.928   2.634   8.931 -1.7692 -1.0465 -0.6804
 2125SOL     OW 8574   3.022   2.612   8.196 -0.4466 -0.4416  0.4221
 2125SOL    HW1 8575   3.097   2.666   8.174 -0.1259 -1.1081 -0.1662
 2125SOL    HW2 8576   3.048   2.523   8.171 -1.6103 -0.6035 -0.2925
 2126SOL     OW 8577   2.488   2.451   2.458 -0.3802 -0.3482  0.4642
 2126SOL    HW1 8578   2.426   2.517   2.492 -0.6786 -1.4293  2.1489
 2126SOL    HW2 8579   2.568   2.466   2.509 -0.2530 -0.8733  0.4217
 2127SOL     OW 8580   5.408   9.564   6.237  0.4181  0.2847 -0.6990
 2127SOL    HW1 8581   5.388   9.629   6.304  0.4196 -2.2227  1.9324
 2127SOL    HW2 8582   5.328   9.511   6.230  1.4404 -1.3939 -0.3064
 2128SOL     OW 8583   7.323   9.524   9.072 -0.3083 -0.4328  0.4474
 2128SOL    HW1 8584   7.338   9.464   8.999 -1.0742 -0.6617  0.4703
 2128SOL    HW2 8585   7.232   9.553   9.061  0.1432  0.9746  0.2541
 2129SOL     OW 8586   3.721   5.308   3.762 -0.6769  0.0173 -0.0359
 2129SOL    HW1 8587   3.669   5.388   3.760  0.4419  0.8887  2.0224
 2129SOL    HW2 8588   3.745   5.292   3.671 -1.2403  1.8092 -0.5349
 2130SOL     OW 8589   8.443   9.145   8.757  0.1116 -0.3110  0.4037
 2130SOL    HW1 8590   8.510   9.101   8.810 -0.4650 -0.7374  0.7936
 2130SOL    HW2 8591   8.457   9.238   8.773 -0.4456 -0.4418  1.8250
 2131SOL     OW 8592   5.670   4.011   5.254  0.4591  0.1530  0.3191
 2131SOL    HW1 8593   5.663   4.106   5.270  0.1855  0.7196 -2.6803
 2131SOL    HW2 8594   5.599   3.974   5.306  0.8321  1.5155  1.9016
 2132SOL     OW 8595   6.737   3.836   1.540  0.6175  0.9383 -0.1726
 2132SOL    HW1 8596   6.785   3.807   1.618  0.1210  2.5107  0.7782
 2132SOL    HW2 8597   6.797   3.895   1.496  0.1754  1.6586  0.1595
 2133SOL     OW 8598   0.411   0.276   4.926  0.2542 -0.0417  0.5533
 2133SOL    HW1 8599   0.350   0.222   4.875  1.4801 -0.4999 -0.4942
 2133SOL    HW2 8600   0.428   0.224   5.004 -2.5374  1.1679  2.1236
 2134SOL     OW 8601   9.224   8.575   2.573 -0.5750 -0.4998 -0.5847
 2134SOL    HW1 8602   9.143   8.528   2.592 -0.5467 -0.7484 -1.0743
 2134SOL    HW2 8603   9.218   8.596   2.480  0.6367 -1.9205 -1.0256
 2135SOL     OW 8604   1.565   1.123   3.167 -0.1522  0.3040 -0.0914
 2135SOL    HW1 8605   1.656   1.135   3.194  0.4941  0.1453 -2.0266
 2135SOL    HW2 8606   1.519   1.101   3.248  1.2041  1.9247  1.2163
 2136SOL     OW 8607   8.131   7.924   4.258  0.2784  0.5924 -0.4256
 2136SOL    HW1 8608   8.113   7.842   4.211  0.6521  0.7651 -0.8836
 2136SOL    HW2 8609   8.127   7.991   4.190  0.8440  0.8486 -0.2119
 2137SOL     OW 8610   1.814   7.429   1.958  0.7025 -0.0021 -0.4386
 2137SOL    HW1 8611   1.730   7.475   1.961  1.2008  0.8555  1.4247
 2137SOL    HW2 8612   1.794   7.345   1.916 -1.2240 -0.0903  0.5655
 2138SOL     OW 8613   2.905   0.147   7.560  0.1446 -0.2343 -0.5790
 2138SOL    HW1 8614   2.993   0.112   7.576 -0.2212 -0.8726  0.0734
 2138SOL    HW2 8615   2.919   0.240   7.542  0.7312  0.2370  1.9925
 2139SOL     OW 8616   5.575   7.072   7.631 -0.1928 -0.0029 -0.5022
 2139SOL    HW1 8617   5.537   6.989   7.601  2.6860 -1.4525 -0.5209
 2139SOL    HW2 8618   5.658   7.047   7.670  1.6026  3.0401 -2.0268
 2140SOL     OW 8619   3.466   5.975   7.623  0.3831 -0.2686  0.0969
 2140SOL    HW1 8620   3.389   6.025   7.651  0.9336  1.4539 -1.2652
 2140SOL    HW2 8621   3.495   5.930   7.702 -2.0251 -1.0546  0.6405
 2141SOL     OW 8622   1.645   5.787   6.689 -0.0522 -0.1172 -0.3256
 2141SOL    HW1 8623   1.664   5.826   6.604  0.5054  0.2125 -0.0568
 2141SOL    HW2 8624   1.648   5.693   6.673  0.4370 -0.0622 -0.5960
 2142SOL     OW 8625   7.728   8.866   4.818  0.1599 -0.0910  0.3484
 2142SOL    HW1 8626   7.660   8.930   4.838 -0.1370  0.2415 -1.5132
 2142SOL    HW2 8627   7.790   8.914   4.762 -0.3090 -1.4877 -1.4908
 2143SOL     OW 8628   0.673   3.846   9.060 -0.1886 -0.5862  0.0843
 2143SOL    HW1 8629   0.699   3.902   8.987 -2.1296  1.0134  0.5448
 2143SOL    HW2 8630   0.605   3.789   9.023  0.1275 -1.0589  0.2151
 2144SOL     OW 8631   6.343   4.314   6.236 -0.6015  0.3251 -0.0564
 2144SOL    HW1 8632   6.258   4.349   6.262 -1.0164  0.0361 -0.9892
 2144SOL    HW2 8633   6.388   4.297   6.319 -1.3898  0.6189  0.4444
 2145SOL     OW 8634   4.129   5.725   1.791 -0.5619  1.0280 -0.5192
 2145SOL    HW1 8635   4.108   5.729   1.698 -2.7868  2.3103 -0.0256
 2145SOL    HW2 8636   4.120   5.632   1.814 -1.6415  0.9383 -1.2518
 2146SOL     OW 8637   2.277   8.345   0.576  0.3999  0.0406 -0.1939
 2146SOL    HW1 8638   2.226   8.341   0.656  0.8239  2.8977  0.3534
 2146SOL    HW2 8639   2.213   8.340   0.506 -0.1792 -0.5615  0.3707
 2147SOL     OW 8640   3.350   2.714   1.434 -0.1023  0.1106  0.2611
 2147SOL    HW1 8641   3.442   2.734   1.451 -0.3778  1.7885 -0.0564
 2147SOL    HW2 8642   3.310   2.707   1.521  0.1104  0.4299  0.3853
 2148SOL     OW 8643   0.584   6.799   4.427 -0.7928  0.5911  0.8419
 2148SOL    HW1 8644   0.504   6.788   4.478 -1.6843 -0.2463 -0.6463
 2148SOL    HW2 8645   0.614   6.887   4.447 -3.1598  1.6652  0.0067
 2149SOL     OW 8646   9.313   1.464   4.009  0.1336  0.3147  0.4327
 2149SOL    HW1 8647   9.259   1.485   4.085  0.9022  0.6790  0.8900
 2149SOL    HW2 8648   9.402   1.454   4.044  0.6972  1.5500 -0.5380
 2150SOL     OW 8649   6.517   7.255   7.277 -0.3201 -0.2395  0.1180
 2150SOL    HW1 8650   6.598   7.238   7.230 -0.3523 -1.8751  0.6147
 2150SOL    HW2 8651   6.457   7.289   7.209  0.5909  0.4961 -0.3447
 2151SOL     OW 8652   9.084   1.944   9.011 -0.1319  0.2336 -0.0420
 2151SOL    HW1 8653   8.995   1.971   8.990 -0.6314 -1.7579 -0.7862
 2151SOL    HW2 8654   9.118   1.910   8.928  1.1362  0.4747  0.3630
 2152SOL     OW 8655   6.050   2.475   8.560  0.0415  0.4967 -0.7065
 2152SOL    HW1 8656   6.064   2.384   8.588  0.7524  0.0151 -2.5253
 2152SOL    HW2 8657   6.037   2.470   8.466 -0.8522  2.2139 -0.7151
 2153SOL     OW 8658   4.436   2.688   5.315 -0.0757  0.6000 -0.1280
 2153SOL    HW1 8659   4.415   2.663   5.405 -1.8861  0.8759 -0.4270
 2153SOL    HW2 8660   4.447   2.605   5.269  0.0626  0.4497  0.1744
 2154SOL     OW 8661   8.063   0.041   3.614 -0.2388  0.6804  0.2706
 2154SOL    HW1 8662   8.071  -0.051   3.642 -1.9444  0.4012 -0.0928
 2154SOL    HW2 8663   8.152   0.076   3.626  0.3703 -0.9019  0.7724
 2155SOL     OW 8664   9.150   9.350   6.085 -0.1264  0.3003 -0.1615
 2155SOL    HW1 8665   9.124   9.287   6.151  0.5197 -0.3280 -0.5045
 2155SOL    HW2 8666   9.105   9.431   6.110  0.3364  0.1537  1.2025
 2156SOL     OW 8667   8.076   7.221   5.255 -0.3822  0.1848  0.1684
 2156SOL    HW1 8668   8.162   7.187   5.281 -0.5549  0.8719  1.7826
 2156SOL    HW2 8669   8.077   7.313   5.283 -2.2068 -0.2146  1.7556
 2157SOL     OW 8670   2.846   4.557   5.916  0.4071  0.3637 -0.1779
 2157SOL    HW1 8671   2.878   4.472   5.886  0.1604  0.0908  0.3303
 2157SOL    HW2 8672   2.766   4.537   5.965  0.2372  0.9078 -0.2246
 2158SOL     OW 8673   0.257   9.508   5.038 -0.2866  0.1049  0.8607
 2158SOL    HW1 8674   0.277   9.432   4.985  0.4534  0.5275  0.5237
 2158SOL    HW2 8675   0.337   9.525   5.088 -0.9948 -0.3447  2.2069
 2159SOL     OW 8676   2.207   3.793   2.136  0.5046  0.3651 -0.4816
 2159SOL    HW1 8677   2.137   3.736   2.104  0.8059 -0.0798 -0.3628
 2159SOL    HW2 8678   2.222   3.763   2.226  2.2549 -0.9456 -1.1496
 2160SOL     OW 8679   0.826   7.621   3.227  0.0345  0.1664 -0.0809
 2160SOL    HW1 8680   0.814   7.688   3.294 -1.2818 -0.8768  0.7794
 2160SOL    HW2 8681   0.869   7.548   3.273  0.8944  0.1518 -0.8588
 2161SOL     OW 8682   4.852   8.939   0.985 -0.2964  0.0677 -0.0438
 2161SOL    HW1 8683   4.821   8.974   0.901 -0.3969 -0.5616 -0.2745
 2161SOL    HW2 8684   4.935   8.897   0.964 -0.5990 -0.5942  0.0588
 2162SOL     OW 8685   9.115   2.684   2.157  0.0599 -0.3841 -0.0502
 2162SOL    HW1 8686   9.112   2.625   2.082 -0.9705 -0.1602 -0.2004
 2162SOL    HW2 8687   9.085   2.769   2.123 -3.2415 -0.9247  1.1455
 2163SOL     OW 8688   1.451   2.613   9.197 -0.0455 -0.3847 -0.6498
 2163SOL    HW1 8689   1.506   2.542   9.230  3.1645  2.4277  0.5711
 2163SOL    HW2 8690   1.449   2.599   9.102  0.7242 -1.9055 -0.4694
 2164SOL     OW 8691   2.665   7.911   3.243  0.0130  0.0655  0.3667
 2164SOL    HW1 8692   2.695   7.824   3.217 -1.0721  0.1751 -1.3887
 2164SOL    HW2 8693   2.601   7.936   3.176  0.2402  2.1840  0.8591
 2165SOL     OW 8694   8.914   7.730   2.867 -0.4040 -0.1314 -0.6394
 2165SOL    HW1 8695   8.955   7.816   2.866 -0.5088 -0.0587 -2.4478
 2165SOL    HW2 8696   8.836   7.739   2.812  0.0032 -1.5425 -1.5120
 2166SOL     OW 8697   8.697   8.147   2.672 -0.0366  0.5941  0.0023
 2166SOL    HW1 8698   8.726   8.142   2.580 -1.5690  0.2167 -0.4922
 2166SOL    HW2 8699   8.778   8.147   2.722  0.8313  0.0985 -1.3238
 2167SOL     OW 8700   1.299   0.801   5.752  0.0246 -0.4609  0.3760
 2167SOL    HW1 8701   1.367   0.758   5.700  0.1491  1.3063 -1.0286
 2167SOL    HW2 8702   1.234   0.830   5.688 -0.1901  1.1529  1.2574
 2168SOL     OW 8703   5.735   6.341   6.370 -0.0862  0.4366  0.0473
 2168SOL    HW1 8704   5.733   6.245   6.365  0.6276  0.3625  0.8844
 2168SOL    HW2 8705   5.806   6.360   6.431  0.2243  1.5288 -0.6412
 2169SOL     OW 8706   5.455   5.338   5.518  0.0611 -0.2218 -0.3718
 2169SOL    HW1 8707   5.490   5.273   5.457  0.5262 -0.0750 -0.2619
 2169SOL    HW2 8708   5.528   5.397   5.536 -0.1609 -0.0790  0.0824
 2170SOL     OW 8709   6.680   9.431   8.243 -0.0109 -0.0706 -0.1961
 2170SOL    HW1 8710   6.594   9.440   8.285 -0.7949  0.4583 -1.8348
 2170SOL    HW2 8711   6.741   9.467   8.307 -1.4313  3.0528 -0.3791
 2171SOL     OW 8712   6.879   7.111   0.260 -0.6030  0.0875  0.7443
 2171SOL    HW1 8713   6.829   7.059   0.323 -1.0589  0.1144  0.4082
 2171SOL    HW2 8714   6.864   7.068   0.176  1.8470 -1.3314  0.9314
 2172SOL     OW 8715   0.669   1.650   5.326  0.2064  0.4145 -0.1745
 2172SOL    HW1 8716   0.680   1.744   5.315  0.8090  0.2338 -1.3404
 2172SOL    HW2 8717   0.576   1.635   5.307 -0.0086  0.8271  0.5230
 2173SOL     OW 8718   8.231   4.170   3.251 -0.0646  0.1536 -0.0734
 2173SOL    HW1 8719   8.185   4.089   3.272 -1.7280  0.8897 -0.6990
 2173SOL    HW2 8720   8.219   4.226   3.328  2.4886 -0.6838  1.0709
 2174SOL     OW 8721   1.763   8.649   7.870 -0.2441  0.4672  0.7978
 2174SOL    HW1 8722   1.821   8.576   7.853  0.8458  1.5537 -0.3052
 2174SOL    HW2 8723   1.702   8.616   7.937 -0.6596 -1.8625 -0.6332
 2175SOL     OW 8724   4.793   6.879   6.836 -0.3317  0.0195 -0.3866
 2175SOL    HW1 8725   4.703   6.912   6.829  0.0105  1.4064  1.0305
 2175SOL    HW2 8726   4.839   6.919   6.762 -0.5735  0.4518 -0.3080
 2176SOL     OW 8727   4.683   0.524   4.336  0.0336 -0.1128  0.9006
 2176SOL    HW1 8728   4.668   0.598   4.278 -1.8726 -1.0004  0.1776
 2176SOL    HW2 8729   4.613   0.530   4.401  0.4501 -0.7345  1.4195
 2177SOL     OW 8730   8.783   7.275   6.454  0.5285 -0.9766 -0.4853
 2177SOL    HW1 8731   8.857   7.274   6.515  0.4916 -3.0216 -0.4232
 2177SOL    HW2 8732   8.817   7.319   6.376  1.2740 -0.4064  0.1408
 2178SOL     OW 8733   5.334   1.679   9.200 -0.4025  0.2323 -0.3479
 2178SOL    HW1 8734   5.401   1.612   9.209 -0.1347  0.6273  0.6634
 2178SOL    HW2 8735   5.369   1.738   9.133 -0.5596 -0.5219 -1.1123
 2179SOL     OW 8736   1.922   8.311   4.052  0.1944  0.2966 -0.2121
 2179SOL    HW1 8737   2.015   8.295   4.036  0.1574 -0.6252  0.3763
 2179SOL    HW2 8738   1.910   8.290   4.145 -0.8335 -0.8728 -0.5733
 2180SOL     OW 8739   8.930   4.568   3.242 -0.0276 -0.1574 -0.4200
 2180SOL    HW1 8740   9.013   4.562   3.290 -0.1892  0.0713 -0.1013
 2180SOL    HW2 8741   8.863   4.565   3.311 -0.2318  1.3029 -0.5330
 2181SOL     OW 8742   6.706   5.614   5.043  0.0410 -0.1318 -0.1556
 2181SOL    HW1 8743   6.627   5.579   5.085 -1.0523  1.6612 -0.5934
 2181SOL    HW2 8744   6.692   5.597   4.949 -0.0554  0.5853 -0.2774
 2182SOL     OW 8745   4.912   6.798   6.425  0.2357 -0.0563 -0.1281
 2182SOL    HW1 8746   4.908   6.847   6.507  0.9111  1.7172 -1.1007
 2182SOL    HW2 8747   4.976   6.729   6.441 -0.5918 -0.5422  1.2193
 2183SOL     OW 8748   5.393   9.034   9.125  0.2429  0.0201 -0.3438
 2183SOL    HW1 8749   5.389   9.092   9.202  1.3145  0.3868 -0.5554
 2183SOL    HW2 8750   5.310   8.987   9.127 -0.0274  0.5084  0.6679
 2184SOL     OW 8751   0.601   5.726   4.820 -0.6338  0.7642  0.4099
 2184SOL    HW1 8752   0.572   5.643   4.857  0.9446  0.2687  0.6392
 2184SOL    HW2 8753   0.695   5.730   4.841  0.6819  0.0401 -4.1864
 2185SOL     OW 8754   9.216   7.940   2.297  0.0390  0.0470  0.3916
 2185SOL    HW1 8755   9.242   7.867   2.352  0.2562  0.0980  0.3563
 2185SOL    HW2 8756   9.145   7.982   2.345 -1.9843 -1.7797 -0.8222
 2186SOL     OW 8757   3.790   4.732   2.734 -0.1555  0.1556  0.0832
 2186SOL    HW1 8758   3.721   4.677   2.697 -0.2906  0.5755 -0.2952
 2186SOL    HW2 8759   3.750   4.773   2.810 -0.3295  0.4039 -0.1392
 2187SOL     OW 8760   3.010   6.598   0.503  0.4247 -0.0107 -0.0368
 2187SOL    HW1 8761   2.950   6.672   0.516  0.4649 -0.0143  0.1611
 2187SOL    HW2 8762   3.069   6.602   0.578  1.0202  0.3295 -0.5148
 2188SOL     OW 8763   4.385   5.070   5.073 -0.2772  0.1899  0.2886
 2188SOL    HW1 8764   4.302   5.031   5.046 -0.4476  0.3691  0.5542
 2188SOL    HW2 8765   4.361   5.146   5.125  0.0435 -0.5868  1.6039
 2189SOL     OW 8766   8.310   8.035   1.196  0.1719  0.0964 -0.0602
 2189SOL    HW1 8767   8.284   8.112   1.247 -0.8909 -0.1406 -0.2051
 2189SOL    HW2 8768   8.298   8.062   1.105  1.1799  0.2172 -0.1663
 2190SOL     OW 8769   3.552   3.433   3.275 -0.0727 -0.1088 -0.4092
 2190SOL    HW1 8770   3.465   3.394   3.283  0.2089 -0.5189  1.0603
 2190SOL    HW2 8771   3.591   3.390   3.199 -0.6102 -1.0535 -0.1713
 2191SOL     OW 8772   0.935   2.799   2.732 -0.0466 -0.0218 -0.1673
 2191SOL    HW1 8773   0.918   2.849   2.812 -0.3868 -0.4751  0.0491
 2191SOL    HW2 8774   0.936   2.708   2.761  0.6278 -0.1420 -0.5448
 2192SOL     OW 8775   1.967   9.315   4.240  0.1240 -0.1970  0.4611
 2192SOL    HW1 8776   1.896   9.379   4.236 -1.0152 -1.4521  0.0651
 2192SOL    HW2 8777   1.929   9.233   4.208  1.3027 -1.2938  1.6785
 2193SOL     OW 8778   9.098   3.318   6.655 -0.0638 -0.0659  0.3746
 2193SOL    HW1 8779   9.020   3.270   6.629 -0.1485 -1.4138  2.7725
 2193SOL    HW2 8780   9.074   3.358   6.739  0.7410  2.4588 -0.4926
 2194SOL     OW 8781   9.235   3.181   8.576 -0.9472  0.1089  0.1809
 2194SOL    HW1 8782   9.185   3.110   8.536 -0.8700 -0.3529  0.8791
 2194SOL    HW2 8783   9.203   3.261   8.534 -1.2967 -0.3080 -0.3481
 2195SOL     OW 8784   7.051   2.620   1.402  0.2472 -0.6611 -0.7986
 2195SOL    HW1 8785   7.136   2.596   1.367  0.2828 -1.1165 -0.4166
 2195SOL    HW2 8786   6.997   2.542   1.388 -0.9185  0.5111 -3.5181
 2196SOL     OW 8787   0.703   6.108   5.149  0.0848 -0.0151 -0.1518
 2196SOL    HW1 8788   0.653   6.116   5.230  1.3523  0.9977  0.5678
 2196SOL    HW2 8789   0.645   6.143   5.081 -0.6360  0.0159  0.4705
 2197SOL     OW 8790   4.620   7.166   6.103  0.3991  0.2578  0.0367
 2197SOL    HW1 8791   4.656   7.254   6.100  2.0570 -0.3503  1.0832
 2197SOL    HW2 8792   4.618   7.143   6.195  1.3191 -1.3133 -0.3078
 2198SOL     OW 8793   6.917   7.246   7.412 -0.2184 -0.0474 -0.1275
 2198SOL    HW1 8794   6.876   7.310   7.354 -0.7960 -1.3634 -1.2193
 2198SOL    HW2 8795   7.005   7.282   7.428 -0.2591  0.6682 -1.3236
 2199SOL     OW 8796   5.012   5.931   7.215 -0.4003 -0.6861  0.2452
 2199SOL    HW1 8797   5.013   5.843   7.179 -1.0538 -1.0788  1.1540
 2199SOL    HW2 8798   4.950   5.927   7.288 -0.5804  0.5671  0.1895
 2200SOL     OW 8799   8.906   0.643   1.595 -0.4387  0.0108  0.0354
 2200SOL    HW1 8800   8.973   0.575   1.599 -0.6399 -0.1609  0.6067
 2200SOL    HW2 8801   8.943   0.716   1.644 -0.4187  0.1385 -0.1709
 2201SOL     OW 8802   2.178   8.720   0.626 -0.4343  0.2894 -0.2434
 2201SOL    HW1 8803   2.266   8.712   0.662 -0.1958  0.6263 -0.7372
 2201SOL    HW2 8804   2.137   8.790   0.676 -0.6276 -0.2523  0.3747
 2202SOL     OW 8805   4.535   0.300   6.360 -0.2788 -1.3143  0.0057
 2202SOL    HW1 8806   4.443   0.313   6.382 -0.7084  0.4284 -2.3723
 2202SOL    HW2 8807   4.537   0.216   6.313 -0.3626 -2.0973  1.3727
 2203SOL     OW 8808   6.712   8.815   5.916  0.3102  0.1208  0.2037
 2203SOL    HW1 8809   6.674   8.789   6.000 -0.7747  0.1105 -0.2753
 2203SOL    HW2 8810   6.651   8.782   5.851  2.4642 -2.3092 -0.7829
 2204SOL     OW 8811   6.797   8.593   3.692 -0.4769  0.0355 -0.1242
 2204SOL    HW1 8812   6.793   8.658   3.622 -0.1350 -1.8737 -2.0309
 2204SOL    HW2 8813   6.741   8.629   3.761  0.8535  3.0041 -0.4163
 2205SOL     OW 8814   0.171   5.559   5.271 -0.1641  0.2018  0.2622
 2205SOL    HW1 8815   0.205   5.514   5.348  1.1112 -0.1697 -0.4895
 2205SOL    HW2 8816   0.079   5.578   5.292 -0.5391 -2.0965  0.8881
 2206SOL     OW 8817   2.279   7.546   4.693  0.3170 -0.1818 -0.1159
 2206SOL    HW1 8818   2.294   7.481   4.623 -0.0950 -1.4315  0.9115
 2206SOL    HW2 8819   2.194   7.522   4.730 -0.6226  1.9570 -0.7273
 2207SOL     OW 8820   0.910   7.146   5.712 -0.2328  0.2691  0.3296
 2207SOL    HW1 8821   0.929   7.141   5.806  0.1730 -0.4243  0.2173
 2207SOL    HW2 8822   0.828   7.099   5.702  0.4349 -0.9141  0.1546
 2208SOL     OW 8823   7.407   7.649   3.638  0.0415 -0.4769 -0.2168
 2208SOL    HW1 8824   7.400   7.610   3.551 -2.8184 -0.6400 -0.0192
 2208SOL    HW2 8825   7.461   7.588   3.688  0.5219 -1.1280 -1.4863
 2209SOL     OW 8826   8.530   5.440   6.949  0.5102  0.0880 -0.0837
 2209SOL    HW1 8827   8.487   5.490   7.018  0.6514 -1.0794  0.8929
 2209SOL    HW2 8828   8.458   5.410   6.893  0.3523  0.6498 -0.1916
 2210SOL     OW 8829   0.375   2.002   2.961 -0.4840 -0.3640  0.3076
 2210SOL    HW1 8830   0.422   2.075   3.000  0.4606 -0.4665 -0.5851
 2210SOL    HW2 8831   0.345   1.950   3.035 -0.9062  0.7522  0.9455
 2211SOL     OW 8832   0.661   8.487   6.432  0.1740  0.7333 -0.0545
 2211SOL    HW1 8833   0.578   8.534   6.421  0.2878  0.8449 -0.4352
 2211SOL    HW2 8834   0.641   8.397   6.408 -0.5543  0.1017  2.5587
 2212SOL     OW 8835   9.312   9.268   0.057  0.1834  0.9946 -0.7408
 2212SOL    HW1 8836   9.249   9.275   0.129 -1.7447 -0.1081 -2.2123
 2212SOL    HW2 8837   9.286   9.338  -0.004 -0.7655 -0.4570 -2.1115
 2213SOL     OW 8838   2.544   3.756   1.142  0.1069 -0.3973  0.3850
 2213SOL    HW1 8839   2.529   3.662   1.158  1.6925 -0.6076  0.7923
 2213SOL    HW2 8840   2.591   3.759   1.058 -0.0328  0.0443  0.3207
 2214SOL     OW 8841   7.989   7.934   9.386  0.3075 -0.1220 -0.1222
 2214SOL    HW1 8842   8.048   7.892   9.449  0.8204  0.6529 -0.0787
 2214SOL    HW2 8843   8.037   8.010   9.354 -0.2405 -0.0927 -0.9070
 2215SOL     OW 8844   6.534   6.166   8.604 -0.1589 -0.3779  0.1553
 2215SOL    HW1 8845   6.497   6.203   8.684  2.1648  1.7037  0.4121
 2215SOL    HW2 8846   6.629   6.175   8.615  0.2562  1.4380 -3.3719
 2216SOL     OW 8847   8.028   6.226   3.684  0.0377 -0.7460  0.6603
 2216SOL    HW1 8848   7.971   6.155   3.653 -0.1898  0.0367 -0.8174
 2216SOL    HW2 8849   8.110   6.183   3.706  0.7795 -1.2630 -2.5486
 2217SOL     OW 8850   4.118   6.993   1.461 -0.0323  0.0359 -0.2995
 2217SOL    HW1 8851   4.162   7.075   1.439  0.2359 -0.3359 -1.1946
 2217SOL    HW2 8852   4.181   6.945   1.513 -0.1525  0.3498  0.1434
 2218SOL     OW 8853   4.491   5.565   3.051 -0.1591  0.1189 -0.1214
 2218SOL    HW1 8854   4.412   5.608   3.018 -1.0273 -1.4440 -0.1802
 2218SOL    HW2 8855   4.473   5.549   3.144 -0.1575 -0.7278 -0.2570
 2219SOL     OW 8856   1.671   8.642   3.130 -0.6740  0.6482 -0.3838
 2219SOL    HW1 8857   1.611   8.586   3.081 -1.8630  1.8400 -0.3433
 2219SOL    HW2 8858   1.669   8.726   3.084  0.0124  1.0771  0.3428
 2220SOL     OW 8859   7.169   3.935   0.614  0.2392 -0.1215 -0.1448
 2220SOL    HW1 8860   7.098   3.911   0.674 -0.1456 -0.4365 -0.7238
 2220SOL    HW2 8861   7.249   3.904   0.658  0.0606  0.5197  0.6557
 2221SOL     OW 8862   0.034   8.386   5.027  0.5471  0.4264 -0.0086
 2221SOL    HW1 8863  -0.030   8.458   5.033 -0.1513 -0.1070 -0.7976
 2221SOL    HW2 8864   0.040   8.368   4.933  0.2043 -0.9872  0.2250
 2222SOL     OW 8865   5.077   5.119   8.134 -0.1466  0.4950 -0.7969
 2222SOL    HW1 8866   5.155   5.158   8.094  0.4465  0.6392  0.4233
 2222SOL    HW2 8867   5.022   5.193   8.158 -0.6903  0.3907 -1.6919
 2223SOL     OW 8868   3.456   2.739   2.675 -0.1157 -0.0812 -0.2087
 2223SOL    HW1 8869   3.424   2.649   2.681  0.7573 -0.3694  0.1067
 2223SOL    HW2 8870   3.528   2.744   2.737 -0.4340  0.9678  0.1063
 2224SOL     OW 8871   4.720   8.600   8.756  0.5616 -0.8447  0.4008
 2224SOL    HW1 8872   4.716   8.514   8.715 -0.9086 -1.0295  0.8891
 2224SOL    HW2 8873   4.654   8.597   8.825  0.2887  0.7763  0.2412
 2225SOL     OW 8874   3.589   5.392   4.889 -0.0107 -0.1827  0.0086
 2225SOL    HW1 8875   3.609   5.299   4.890  0.0278 -0.1770 -0.2121
 2225SOL    HW2 8876   3.496   5.397   4.868 -0.1923 -0.1999  0.8050
 2226SOL     OW 8877   9.048   6.031   5.098  0.4181 -0.3645  0.3187
 2226SOL    HW1 8878   8.985   6.042   5.027 -0.4386  1.5258  1.2963
 2226SOL    HW2 8879   9.003   6.062   5.176  1.2144 -2.6691  1.8255
 2227SOL     OW 8880   8.571   8.917   2.015  0.8795 -0.3340 -0.3870
 2227SOL    HW1 8881   8.641   8.972   2.048  0.8717 -0.3722 -0.3081
 2227SOL    HW2 8882   8.551   8.857   2.086 -2.1949  2.3816  1.3107
 2228SOL     OW 8883   1.008   5.809   1.815 -0.5205  0.7305  0.4167
 2228SOL    HW1 8884   0.933   5.843   1.766 -0.4122  0.4977  0.0931
 2228SOL    HW2 8885   0.977   5.728   1.855 -0.4859  0.7130  0.4088
 2229SOL     OW 8886   7.493   4.779   4.744 -0.2448  0.6977  0.5108
 2229SOL    HW1 8887   7.529   4.770   4.656  0.4876 -0.8391  0.9372
 2229SOL    HW2 8888   7.411   4.827   4.732  0.2705  1.2666 -0.8921
 2230SOL     OW 8889   4.168   4.679   1.582  0.3937 -0.7045  0.3934
 2230SOL    HW1 8890   4.167   4.655   1.490  1.5584 -1.3446  0.5226
 2230SOL    HW2 8891   4.241   4.629   1.619  0.6920  0.4170  1.4160
 2231SOL     OW 8892   2.426   2.510   8.550 -0.0027 -0.3289 -0.0730
 2231SOL    HW1 8893   2.428   2.489   8.457 -0.3896  3.5886 -1.1585
 2231SOL    HW2 8894   2.518   2.522   8.574  0.3866 -4.0321  0.9869
 2232SOL     OW 8895   8.917   6.194   6.105 -0.0833  0.2449  0.5390
 2232SOL    HW1 8896   8.886   6.204   6.195 -1.6208 -0.7401  0.1536
 2232SOL    HW2 8897   8.969   6.114   6.107 -0.0788  0.2486  0.5632
 2233SOL     OW 8898   6.595   8.189   9.357  0.0332  0.3471  0.2922
 2233SOL    HW1 8899   6.525   8.125   9.364 -0.3974  0.5209 -1.7060
 2233SOL    HW2 8900   6.674   8.143   9.384 -0.2187 -1.1527 -1.3788
 2234SOL     OW 8901   7.378   2.993   2.074 -0.2419  0.2726  0.9092
 2234SOL    HW1 8902   7.434   3.066   2.049 -0.8025  0.1094 -1.0264
 2234SOL    HW2 8903   7.291   3.031   2.083 -0.4856 -0.0832  0.1588
 2235SOL     OW 8904   1.094   1.370   6.457 -0.1517  0.0654  0.0928
 2235SOL    HW1 8905   1.109   1.297   6.516 -2.1865 -0.2547  0.2926
 2235SOL    HW2 8906   1.116   1.448   6.509  0.0513 -0.3117  0.5790
 2236SOL     OW 8907   3.172   5.970   6.123  0.2273  0.8052  0.4399
 2236SOL    HW1 8908   3.151   5.887   6.166  2.6903 -0.2641 -0.2287
 2236SOL    HW2 8909   3.259   5.992   6.156  1.0607  1.3359 -1.9159
 2237SOL     OW 8910   3.330   7.699   8.957 -0.3256  0.3756 -0.5977
 2237SOL    HW1 8911   3.319   7.677   9.050 -0.5323 -1.3376 -1.0093
 2237SOL    HW2 8912   3.368   7.787   8.959 -0.7747  0.5859  1.0986
 2238SOL     OW 8913   4.500   1.076   7.450 -0.4193 -0.1150 -0.0023
 2238SOL    HW1 8914   4.530   1.102   7.537 -0.0635 -2.4843  0.6704
 2238SOL    HW2 8915   4.553   1.126   7.389  0.6964  0.1534  1.1600
 2239SOL     OW 8916   0.876   4.848   7.624  0.1075  0.4118  0.7906
 2239SOL    HW1 8917   0.785   4.874   7.638  0.1407  0.5273  0.7881
 2239SOL    HW2 8918   0.924   4.887   7.696  0.4958  2.1434 -0.3441
 2240SOL     OW 8919   0.414   7.740   8.716  0.1774 -0.3313  0.0358
 2240SOL    HW1 8920   0.399   7.797   8.641  1.1645  0.2272  0.2358
 2240SOL    HW2 8921   0.330   7.697   8.731  0.1029 -0.8968 -1.7417
 2241SOL     OW 8922   1.226   3.168   5.455  0.0170 -0.4720  0.1238
 2241SOL    HW1 8923   1.164   3.211   5.514 -0.6289 -0.1043 -0.8058
 2241SOL    HW2 8924   1.229   3.077   5.485 -0.5967 -0.3803  0.4781
 2242SOL     OW 8925   7.080   4.858   6.426 -0.1755 -0.6964  0.1871
 2242SOL    HW1 8926   7.038   4.846   6.511 -0.3264 -0.0565  0.2035
 2242SOL    HW2 8927   7.108   4.770   6.401  0.7369 -0.7545  1.3302
 2243SOL     OW 8928   2.024   1.086   4.030  0.2617 -0.6174 -0.4742
 2243SOL    HW1 8929   1.968   1.054   4.101  1.4571 -1.5835  0.0632
 2243SOL    HW2 8930   2.112   1.057   4.054  0.7734 -0.4704 -2.0688
 2244SOL     OW 8931   1.723   5.038   1.150 -0.0060  0.0109 -0.9861
 2244SOL    HW1 8932   1.767   4.987   1.082  1.3697  0.8345 -0.7607
 2244SOL    HW2 8933   1.795   5.075   1.202 -0.9990 -0.5420  0.8908
 2245SOL     OW 8934   6.469   1.601   2.411 -0.0816  0.2907 -0.1799
 2245SOL    HW1 8935   6.545   1.566   2.458  0.0537  1.7229  0.6993
 2245SOL    HW2 8936   6.393   1.567   2.458  0.0414  0.8182  0.3978
 2246SOL     OW 8937   8.241   5.428   2.416  0.5866 -0.0330 -0.0565
 2246SOL    HW1 8938   8.223   5.377   2.337  3.3994 -1.6337  0.2134
 2246SOL    HW2 8939   8.323   5.473   2.397 -0.1824  1.9099  0.9444
 2247SOL     OW 8940   6.520   7.916   1.517  0.7266  0.1216  0.6678
 2247SOL    HW1 8941   6.458   7.843   1.519 -0.4014  1.0487  0.6307
 2247SOL    HW2 8942   6.490   7.975   1.586  3.0321 -0.5049  2.3209
 2248SOL     OW 8943   0.143   3.403   6.652 -0.2417  0.1926  0.8279
 2248SOL    HW1 8944   0.228   3.393   6.695  0.9874  1.4214 -1.1901
 2248SOL    HW2 8945   0.106   3.483   6.689 -0.0557  0.2230  0.9500
 2249SOL     OW 8946   8.775   9.020   5.297 -0.2033 -0.0980  0.2517
 2249SOL    HW1 8947   8.810   8.933   5.315 -1.9070 -0.3936  2.5544
 2249SOL    HW2 8948   8.680   9.007   5.290 -0.3341  1.3308 -1.1734
 2250SOL     OW 8949   5.553   0.111   7.796  0.5481  0.5635  0.8476
 2250SOL    HW1 8950   5.496   0.146   7.727  0.7668  1.7577  1.2520
 2250SOL    HW2 8951   5.607   0.185   7.822  2.2634 -0.5293  0.5237
 2251SOL     OW 8952   8.833   5.009   2.753 -0.5920 -0.1079 -0.1819
 2251SOL    HW1 8953   8.858   5.090   2.709  0.5259 -0.1215  0.4121
 2251SOL    HW2 8954   8.816   5.035   2.843 -1.4165 -0.3401 -0.2587
 2252SOL     OW 8955   1.246   4.252   0.972 -0.4284 -0.5718  0.0763
 2252SOL    HW1 8956   1.335   4.216   0.978 -0.4374 -0.7467 -0.7263
 2252SOL    HW2 8957   1.215   4.225   0.886 -1.4541 -0.9333  0.5486
 2253SOL     OW 8958   7.262   4.294   8.825  0.1012 -0.1389  0.2822
 2253SOL    HW1 8959   7.275   4.387   8.843  3.0800 -0.7555  1.9822
 2253SOL    HW2 8960   7.183   4.270   8.875 -0.6292  1.3931 -0.0865
 2254SOL     OW 8961   0.054   8.325   5.684  0.6082  0.2088 -0.2026
 2254SOL    HW1 8962  -0.023   8.267   5.682  0.2827  0.6407 -1.3303
 2254SOL    HW2 8963   0.030   8.394   5.745 -0.5124  1.0875 -1.5463
 2255SOL     OW 8964   8.875   4.460   9.076  0.0489  0.7056 -0.3955
 2255SOL    HW1 8965   8.946   4.422   9.025 -0.6242 -0.0136 -0.8303
 2255SOL    HW2 8966   8.827   4.515   9.014 -0.6334  0.0142 -0.5062
 2256SOL     OW 8967   6.243   7.990   6.079 -0.6841 -0.1478 -0.0249
 2256SOL    HW1 8968   6.304   8.058   6.106 -0.6207  0.1305 -0.8402
 2256SOL    HW2 8969   6.206   7.957   6.161  1.0666 -0.8121  0.5518
 2257SOL     OW 8970   5.660   4.653   5.699  0.1544  0.1468 -0.1285
 2257SOL    HW1 8971   5.690   4.658   5.608  0.8386 -0.5409  0.0463
 2257SOL    HW2 8972   5.738   4.626   5.748 -1.0487 -3.3577  0.1490
 2258SOL     OW 8973   9.118   6.296   0.831 -0.7232 -0.3050 -0.2248
 2258SOL    HW1 8974   9.069   6.215   0.848 -1.0336  0.3131  2.1386
 2258SOL    HW2 8975   9.207   6.277   0.861 -0.3984 -0.2527 -1.1294
 2259SOL     OW 8976   0.673   8.033   3.941  0.3072  0.4483  0.3396
 2259SOL    HW1 8977   0.580   8.019   3.923  0.2760 -0.2873  1.0350
 2259SOL    HW2 8978   0.717   7.957   3.902  0.7809  1.4104 -1.1307
 2260SOL     OW 8979   4.504   0.562   7.065 -0.2684  0.2178 -0.1246
 2260SOL    HW1 8980   4.411   0.585   7.058  0.0427  1.3429 -0.8527
 2260SOL    HW2 8981   4.550   0.646   7.065  0.6411 -0.1951  2.7285
 2261SOL     OW 8982   1.730   0.727   6.736 -0.5027 -0.0290 -0.5214
 2261SOL    HW1 8983   1.655   0.667   6.745 -2.0532  1.5969 -1.9307
 2261SOL    HW2 8984   1.770   0.702   6.653  0.4709 -0.7904  0.1558
 2262SOL     OW 8985   0.414   7.803   6.878 -0.2167 -0.1330  0.1936
 2262SOL    HW1 8986   0.424   7.870   6.810 -0.2103  0.5632  0.8553
 2262SOL    HW2 8987   0.491   7.747   6.868 -0.9852 -0.9736 -1.3445
 2263SOL     OW 8988   1.412   8.367   2.328 -0.1956  0.4954 -0.0822
 2263SOL    HW1 8989   1.487   8.313   2.303 -0.4195 -0.1708  0.6566
 2263SOL    HW2 8990   1.444   8.419   2.402 -1.1131 -1.4975  1.8157
 2264SOL     OW 8991   6.706   1.366   4.069 -0.1876 -0.3898  0.3474
 2264SOL    HW1 8992   6.772   1.320   4.017 -0.8295 -1.4927  0.4805
 2264SOL    HW2 8993   6.692   1.448   4.023  1.7360  0.1652  0.6527
 2265SOL     OW 8994   1.612   0.504   8.607 -0.1590 -0.1847  0.4025
 2265SOL    HW1 8995   1.549   0.564   8.647 -1.1612 -0.5912 -0.5165
 2265SOL    HW2 8996   1.659   0.557   8.542  0.0923 -0.0143  0.7182
 2266SOL     OW 8997   5.571   8.820   7.708 -0.0602  0.0207 -0.0350
 2266SOL    HW1 8998   5.500   8.856   7.653 -0.9915 -0.5819  0.7530
 2266SOL    HW2 8999   5.622   8.766   7.648  0.6598  1.6351 -0.9697
 2267SOL     OW 9000   0.387   0.456   3.202  0.6745  0.0710  0.4004
 2267SOL    HW1 9001   0.300   0.417   3.204  0.4353  0.4044 -1.4978
 2267SOL    HW2 9002   0.445   0.388   3.235 -0.3689  0.2021  2.7357
 2268SOL     OW 9003   4.843   0.363   5.662  0.6807  0.2875 -0.2188
 2268SOL    HW1 9004   4.772   0.388   5.603 -0.0877 -3.9310 -1.4387
 2268SOL    HW2 9005   4.921   0.361   5.607  0.9077  0.8529  0.0795
 2269SOL     OW 9006   3.975   5.766   0.222  0.6949  0.5034  0.8854
 2269SOL    HW1 9007   4.034   5.841   0.227 -0.1278  1.1721  0.6812
 2269SOL    HW2 9008   4.029   5.691   0.250  1.4921  1.1755  1.1756
 2270SOL     OW 9009   4.302   5.079   3.288  0.3739  0.2368  0.2070
 2270SOL    HW1 9010   4.390   5.047   3.266 -0.1769 -1.6594  0.5910
 2270SOL    HW2 9011   4.270   5.018   3.354 -1.1299  1.0675  0.2824
 2271SOL     OW 9012   1.389   0.548   8.233  0.1786 -0.0759  0.2745
 2271SOL    HW1 9013   1.298   0.572   8.249  0.2153  0.9580 -0.9894
 2271SOL    HW2 9014   1.437   0.630   8.237  1.0635 -0.6029  0.8527
 2272SOL     OW 9015   0.331   6.203   5.684  0.2060  0.0882  0.4522
 2272SOL    HW1 9016   0.400   6.270   5.684  0.0010  0.3562  1.9778
 2272SOL    HW2 9017   0.369   6.130   5.733 -0.6149  0.2891  1.4259
 2273SOL     OW 9018   6.967   5.292   9.335 -0.7621 -0.2915 -0.3560
 2273SOL    HW1 9019   6.938   5.222   9.394 -2.1281  0.7445  0.2485
 2273SOL    HW2 9020   7.025   5.346   9.388  1.6717 -1.8262 -1.2959
 2274SOL     OW 9021   1.216   5.197   7.008 -0.0344  0.1345 -0.2908
 2274SOL    HW1 9022   1.165   5.235   7.079  1.4154  0.2718  0.7237
 2274SOL    HW2 9023   1.266   5.270   6.972 -1.7440  0.3613 -2.4243
 2275SOL     OW 9024   7.445   6.584   2.449  0.5200  0.4651 -0.2452
 2275SOL    HW1 9025   7.411   6.674   2.452  2.1889  1.1266 -0.3462
 2275SOL    HW2 9026   7.474   6.572   2.359  0.0545 -0.2927 -0.3053
 2276SOL     OW 9027   8.045   5.319   1.234  0.2907 -0.2462  0.1030
 2276SOL    HW1 9028   8.002   5.234   1.241  1.4050 -0.7289  1.6493
 2276SOL    HW2 9029   8.053   5.335   1.140 -2.3328 -0.5647 -0.2622
 2277SOL     OW 9030   3.126   6.186   4.346  0.2309 -0.2241  0.4101
 2277SOL    HW1 9031   3.132   6.186   4.441  1.4516 -0.5264  0.3509
 2277SOL    HW2 9032   3.217   6.192   4.316 -0.0398 -1.3154 -0.7232
 2278SOL     OW 9033   0.247   9.215   6.970 -0.5131 -0.0864  0.0638
 2278SOL    HW1 9034   0.200   9.241   7.049 -0.2609 -1.7261  0.7935
 2278SOL    HW2 9035   0.334   9.191   7.001 -0.5549 -1.1830 -0.6244
 2279SOL     OW 9036   9.311   0.375   5.717  0.0711 -0.2292 -0.0793
 2279SOL    HW1 9037   9.257   0.448   5.747  0.5897  0.5959 -1.0641
 2279SOL    HW2 9038   9.379   0.367   5.784  1.2709  1.6456 -0.9588
 2280SOL     OW 9039   9.214   2.444   8.928  0.2439 -0.7922  0.7652
 2280SOL    HW1 9040   9.235   2.534   8.954 -1.6817 -0.7924  2.5348
 2280SOL    HW2 9041   9.131   2.424   8.972 -0.2753 -2.8518 -0.9726
 2281SOL     OW 9042   6.335   1.653   3.986 -0.0630 -0.2026 -0.2267
 2281SOL    HW1 9043   6.311   1.710   4.059  0.5834  1.2086 -1.0781
 2281SOL    HW2 9044   6.429   1.664   3.976  0.3154 -2.4167  0.3636
 2282SOL     OW 9045   5.119   3.524   8.063  0.5935 -0.7814 -0.5924
 2282SOL    HW1 9046   5.147   3.439   8.097  0.8079 -0.2907  0.4956
 2282SOL    HW2 9047   5.190   3.583   8.085 -1.0461  0.4184  1.9497
 2283SOL     OW 9048   4.423   1.950   8.095  0.7417  0.3793  0.4878
 2283SOL    HW1 9049   4.508   1.973   8.058  0.1847  1.9353  0.0727
 2283SOL    HW2 9050   4.410   1.859   8.070  1.8299  0.4236 -0.3474
 2284SOL     OW 9051   1.324   5.188   2.640  0.0845  0.4384  0.3331
 2284SOL    HW1 9052   1.337   5.256   2.574 -1.4276  1.2717  0.8341
 2284SOL    HW2 9053   1.275   5.119   2.595 -2.3690  1.7005  0.8896
 2285SOL     OW 9054   5.617   9.006   8.731  0.4891 -0.2930  0.4035
 2285SOL    HW1 9055   5.536   9.034   8.689  0.4369 -0.0360  0.6670
 2285SOL    HW2 9056   5.589   8.970   8.816  0.6157 -0.5511  0.3372
 2286SOL     OW 9057   4.328   4.672   7.033  0.3865  0.2661 -0.1598
 2286SOL    HW1 9058   4.320   4.583   6.998  1.1897  0.6865 -1.4929
 2286SOL    HW2 9059   4.251   4.718   7.001 -0.2963 -0.0479  0.9527
 2287SOL     OW 9060   2.392   1.456   0.695  0.0855  0.3451  0.4393
 2287SOL    HW1 9061   2.328   1.385   0.707 -0.2349  0.1995 -1.8269
 2287SOL    HW2 9062   2.367   1.521   0.760 -0.1097 -1.2427  2.0489
 2288SOL     OW 9063   3.547   0.436   3.990  0.3761 -0.3908  0.0291
 2288SOL    HW1 9064   3.556   0.519   3.942  1.5051 -1.2548 -1.3191
 2288SOL    HW2 9065   3.631   0.424   4.033  0.2672 -0.8955  0.1063
 2289SOL     OW 9066   4.758   5.162   2.996 -0.0942 -0.5550 -0.3917
 2289SOL    HW1 9067   4.724   5.250   2.977  1.5489 -0.0205 -1.0068
 2289SOL    HW2 9068   4.722   5.107   2.927  2.6412  0.6096 -2.9468
 2290SOL     OW 9069   5.528   9.047   7.310 -0.1890 -0.1247  1.2404
 2290SOL    HW1 9070   5.553   8.962   7.274 -0.1716 -0.2406  1.5243
 2290SOL    HW2 9071   5.482   9.091   7.238 -0.4207 -0.4741  1.1727
 2291SOL     OW 9072   8.191   1.530   3.552  0.3274 -0.3957  0.3721
 2291SOL    HW1 9073   8.145   1.446   3.547 -0.1226 -0.1055 -0.4955
 2291SOL    HW2 9074   8.128   1.594   3.520  0.4322  0.3799  1.6728
 2292SOL     OW 9075   8.535   4.030   6.747  0.2641  0.5116 -0.4598
 2292SOL    HW1 9076   8.454   3.979   6.758  0.5513  0.0624 -0.3969
 2292SOL    HW2 9077   8.505   4.115   6.716 -0.6032  1.7883  3.3755
 2293SOL     OW 9078   1.877   1.810   5.599  0.3978  0.1134 -0.0183
 2293SOL    HW1 9079   1.893   1.776   5.687  1.7747 -2.2128 -1.0804
 2293SOL    HW2 9080   1.954   1.862   5.579  2.6652 -3.5064 -1.6303
 2294SOL     OW 9081   9.189   4.568   0.247 -0.1430  0.3223  0.3857
 2294SOL    HW1 9082   9.116   4.619   0.211  1.1316  2.5738  0.8504
 2294SOL    HW2 9083   9.164   4.549   0.337 -0.8243 -0.3490  0.0733
 2295SOL     OW 9084   7.232   8.112   3.784 -0.0691  0.0234 -0.3297
 2295SOL    HW1 9085   7.326   8.122   3.798 -0.0926  2.3522 -1.4471
 2295SOL    HW2 9086   7.224   8.099   3.689 -0.8470 -1.2258 -0.1214
 2296SOL     OW 9087   2.620   3.190   7.078 -0.3131 -0.1637 -0.3242
 2296SOL    HW1 9088   2.553   3.231   7.023 -0.2146 -0.4798 -0.6808
 2296SOL    HW2 9089   2.605   3.227   7.165  2.3493  3.9513 -1.3407
 2297SOL     OW 9090   7.299   9.385   1.751  0.4272  0.6483  0.2391
 2297SOL    HW1 9091   7.332   9.467   1.786  0.0277  1.2830 -0.8331
 2297SOL    HW2 9092   7.265   9.338   1.827 -0.4588  2.0021  0.7026
 2298SOL     OW 9093   7.221   0.318   3.070  0.4217 -0.1332 -0.2193
 2298SOL    HW1 9094   7.162   0.373   3.122  2.0680 -0.8446  2.6262
 2298SOL    HW2 9095   7.165   0.248   3.037 -0.4423 -0.7294  2.2894
 2299SOL     OW 9096   4.716   1.034   9.312 -0.2645 -0.8396 -0.2164
 2299SOL    HW1 9097   4.645   0.992   9.361 -1.7808  2.8616  1.0379
 2299SOL    HW2 9098   4.672   1.085   9.244  1.2116  0.9544  0.0954
 2300SOL     OW 9099   1.449   1.894   5.026 -0.2518 -0.2118  0.1995
 2300SOL    HW1 9100   1.364   1.936   5.036 -0.5520 -0.7483 -0.0324
 2300SOL    HW2 9101   1.474   1.870   5.115 -0.1071  0.4004  0.3228
 2301SOL     OW 9102   3.217   6.139   7.417  0.1669 -0.1677 -0.0122
 2301SOL    HW1 9103   3.205   6.079   7.342  0.4478  0.3218 -0.4520
 2301SOL    HW2 9104   3.128   6.162   7.442  0.0368 -1.0776  0.4187
 2302SOL     OW 9105   9.365   2.785   8.369  0.2580  0.6781  0.1817
 2302SOL    HW1 9106   9.406   2.707   8.407  1.4624  0.9974 -0.4301
 2302SOL    HW2 9107   9.273   2.778   8.396  0.7132  0.0283  1.7131
 2303SOL     OW 9108   0.213   6.176   2.123  0.3143  0.2297 -0.9078
 2303SOL    HW1 9109   0.262   6.099   2.151 -0.6939 -1.0378 -2.4141
 2303SOL    HW2 9110   0.263   6.251   2.156  1.6027 -1.0475  0.1529
 2304SOL     OW 9111   6.667   3.742   4.587  0.1963 -0.6748  0.4247
 2304SOL    HW1 9112   6.687   3.739   4.681 -1.3506 -0.0231  0.8068
 2304SOL    HW2 9113   6.648   3.651   4.564 -0.0557 -0.7445  0.8990
 2305SOL     OW 9114   2.391   7.965   9.021  0.4152  0.0201 -0.1422
 2305SOL    HW1 9115   2.311   7.941   8.975  0.0371 -0.4686  0.7427
 2305SOL    HW2 9116   2.456   7.903   8.989  0.3801  0.2467 -0.6642
 2306SOL     OW 9117   2.934   4.291   8.070  0.0654  0.1300  0.7024
 2306SOL    HW1 9118   2.982   4.267   8.149  1.9491 -1.2253 -0.7553
 2306SOL    HW2 9119   2.905   4.208   8.033  0.1148  0.6416 -0.5582
 2307SOL     OW 9120   7.588   1.564   8.243  0.2957  0.2409  0.1246
 2307SOL    HW1 9121   7.659   1.543   8.305  0.0183 -0.0677  0.3442
 2307SOL    HW2 9122   7.554   1.478   8.217  0.8278  0.3385 -0.9617
 2308SOL     OW 9123   3.282   0.577   4.298  0.0404  0.0864 -0.8646
 2308SOL    HW1 9124   3.233   0.659   4.292 -0.5113 -0.2123 -0.5303
 2308SOL    HW2 9125   3.215   0.509   4.291  0.2850 -0.3246  0.5206
 2309SOL     OW 9126   0.180   0.186   1.952  0.1375 -0.1011 -0.4520
 2309SOL    HW1 9127   0.193   0.227   2.038  3.4747 -2.7458  0.5066
 2309SOL    HW2 9128   0.230   0.240   1.892  2.3950 -1.1889  0.3498
 2310SOL     OW 9129   2.811   5.982   1.848 -0.1010  0.3286  0.4667
 2310SOL    HW1 9130   2.835   5.989   1.755 -0.9592 -0.4105  0.1736
 2310SOL    HW2 9131   2.719   6.006   1.851 -1.1549 -3.1368  0.5027
 2311SOL     OW 9132   2.273   7.521   6.885 -0.1840  0.2348 -0.0322
 2311SOL    HW1 9133   2.197   7.538   6.829 -1.4841  0.0255  1.5824
 2311SOL    HW2 9134   2.257   7.576   6.963  0.8092 -0.5743  0.7663
 2312SOL     OW 9135   2.485   5.409   0.077  0.7945 -0.4150  0.2416
 2312SOL    HW1 9136   2.552   5.348   0.110 -0.8714 -0.9358  3.0157
 2312SOL    HW2 9137   2.403   5.363   0.091 -0.5580  2.3482  2.4118
 2313SOL     OW 9138   3.921   1.887   2.080 -0.5419  0.3947 -0.2915
 2313SOL    HW1 9139   3.881   1.841   2.006 -0.8086 -0.4121  0.3431
 2313SOL    HW2 9140   3.924   1.822   2.150  1.1800  0.6697 -0.0760
 2314SOL     OW 9141   8.387   4.187   7.490  0.1526 -0.4815 -0.4390
 2314SOL    HW1 9142   8.394   4.275   7.526 -1.1576  0.6749 -2.7646
 2314SOL    HW2 9143   8.354   4.200   7.401 -0.6098 -3.3644 -0.6813
 2315SOL     OW 9144   2.918   1.712   1.627 -0.2290 -0.0253  0.2351
 2315SOL    HW1 9145   2.964   1.650   1.684  0.3127 -2.2068 -2.3777
 2315SOL    HW2 9146   2.828   1.680   1.624 -0.5626  0.8142  0.7614
 2316SOL     OW 9147   5.115   0.739   5.793 -0.3959  0.1094 -0.1419
 2316SOL    HW1 9148   5.074   0.677   5.853 -0.3274  0.9943  0.8630
 2316SOL    HW2 9149   5.189   0.691   5.756  1.3634  0.3430  2.7117
 2317SOL     OW 9150   6.317   7.985   2.835  0.0240  0.2001 -0.0138
 2317SOL    HW1 9151   6.230   8.009   2.868 -0.0889  0.3640 -0.4222
 2317SOL    HW2 9152   6.371   8.062   2.854 -0.3194  0.7810 -1.2517
 2318SOL     OW 9153   9.406   3.844   2.448  0.3114 -0.2653 -0.5474
 2318SOL    HW1 9154   9.426   3.803   2.532  0.6758 -1.2730 -1.1069
 2318SOL    HW2 9155   9.331   3.901   2.465  0.6932 -0.0822  0.5583
 2319SOL     OW 9156   6.555   6.520   9.372 -0.1387 -0.2145  0.2744
 2319SOL    HW1 9157   6.495   6.450   9.345 -1.5943  1.6836 -1.7276
 2319SOL    HW2 9158   6.498   6.585   9.412  1.2438 -0.2529  2.4323
 2320SOL     OW 9159   4.615   9.349   2.041  0.2298 -0.1572  0.4328
 2320SOL    HW1 9160   4.659   9.288   2.100  2.1438  1.0261  0.3118
 2320SOL    HW2 9161   4.666   9.346   1.961 -0.1271  0.9901  0.1427
 2321SOL     OW 9162   6.581   2.664   1.272  0.3120  0.4977  0.7670
 2321SOL    HW1 9163   6.585   2.597   1.204 -2.4436  1.5198 -0.5207
 2321SOL    HW2 9164   6.617   2.742   1.231  0.3641  0.6538  1.1078
 2322SOL     OW 9165   6.663   4.726   6.212 -0.0308 -0.4355  0.0174
 2322SOL    HW1 9166   6.723   4.797   6.187 -0.4736  0.1848  0.7184
 2322SOL    HW2 9167   6.720   4.649   6.217  0.5206 -0.0676 -0.3797
 2323SOL     OW 9168   9.353   5.494   7.766 -0.0981 -0.2311 -0.4833
 2323SOL    HW1 9169   9.281   5.517   7.825  0.8818 -0.1689  0.7206
 2323SOL    HW2 9170   9.337   5.403   7.742 -0.4485 -0.2889 -0.0418
 2324SOL     OW 9171   7.686   1.994   8.943  0.2334 -0.0213  0.2673
 2324SOL    HW1 9172   7.648   2.043   9.016  0.8567 -0.2900  0.7815
 2324SOL    HW2 9173   7.644   2.031   8.865 -0.0831  0.6006  0.7236
 2325SOL     OW 9174   5.005   3.851   8.457 -0.3228 -0.2875  0.0329
 2325SOL    HW1 9175   5.086   3.901   8.469 -0.0104  0.2888 -3.3699
 2325SOL    HW2 9176   5.032   3.760   8.456 -0.1806 -0.2889  1.5633
 2326SOL     OW 9177   8.755   6.597   8.749  0.0506  0.0445  0.2914
 2326SOL    HW1 9178   8.834   6.638   8.785  0.4670 -0.3320 -0.1895
 2326SOL    HW2 9179   8.739   6.523   8.807  0.3949 -0.2253  0.0506
 2327SOL     OW 9180   8.021   6.115   6.324 -0.0717 -0.1327 -0.1022
 2327SOL    HW1 9181   7.987   6.037   6.369 -2.0063  1.8166  2.1332
 2327SOL    HW2 9182   7.948   6.144   6.269  0.2919  0.5668 -0.2273
 2328SOL     OW 9183   1.454   2.042   1.626 -0.1664 -0.2011 -0.1260
 2328SOL    HW1 9184   1.367   2.061   1.661 -0.4371  0.0347 -0.9012
 2328SOL    HW2 9185   1.510   2.112   1.661 -0.1164 -0.7768  0.9788
 2329SOL     OW 9186   3.021   5.671   6.004  0.1765  0.1372  0.6299
 2329SOL    HW1 9187   3.051   5.740   5.946  1.1393  0.9633  2.0328
 2329SOL    HW2 9188   3.095   5.610   6.009 -1.0255 -1.5864 -1.3841
 2330SOL     OW 9189   8.292   0.804   1.144 -0.2025 -0.5271 -0.0997
 2330SOL    HW1 9190   8.304   0.779   1.236  2.8755  2.3678  0.4867
 2330SOL    HW2 9191   8.309   0.724   1.095  1.0648 -1.4983  1.8052
 2331SOL     OW 9192   6.479   2.727   7.156  0.1446  0.6350 -0.8093
 2331SOL    HW1 9193   6.497   2.642   7.117  0.3727  1.0491 -1.6267
 2331SOL    HW2 9194   6.525   2.725   7.240 -1.1497 -0.6226 -0.1046
 2332SOL     OW 9195   5.078   0.901   0.535  0.0792  0.6313  0.2771
 2332SOL    HW1 9196   5.053   0.954   0.459 -1.4395 -0.8092 -0.2986
 2332SOL    HW2 9197   5.010   0.919   0.600 -0.0252  0.0043  0.3525
 2333SOL     OW 9198   4.523   2.107   9.402  0.0623  0.1041  0.3453
 2333SOL    HW1 9199   4.619   2.104   9.393 -0.0230 -1.8468 -0.2430
 2333SOL    HW2 9200   4.506   2.080   9.492  0.0233 -0.5518  0.1420
 2334SOL     OW 9201   0.007   8.285   2.146  0.0722  0.2798 -0.2666
 2334SOL    HW1 9202  -0.084   8.263   2.167 -0.0771 -0.6006 -1.7131
 2334SOL    HW2 9203   0.002   8.335   2.065  0.9128 -0.7100 -0.9622
 2335SOL     OW 9204   4.631   4.987   0.150 -0.1837  0.2690 -0.4451
 2335SOL    HW1 9205   4.545   4.946   0.137 -0.6373  0.9724  0.2418
 2335SOL    HW2 9206   4.648   4.976   0.244  0.4663  0.1598 -0.5747
 2336SOL     OW 9207   7.530   3.467   4.352  0.3006  0.2493  0.4797
 2336SOL    HW1 9208   7.525   3.539   4.289 -1.2491 -1.0764 -1.0349
 2336SOL    HW2 9209   7.493   3.392   4.305  0.8471 -1.2872  2.3597
 2337SOL     OW 9210   4.508   0.355   7.320  0.3382 -0.2290 -0.1500
 2337SOL    HW1 9211   4.527   0.444   7.349  0.0828 -0.5350  0.9848
 2337SOL    HW2 9212   4.420   0.337   7.352 -0.0778 -0.4862 -1.3810
 2338SOL     OW 9213   2.166   9.524   5.618  0.2335 -0.2015  0.0829
 2338SOL    HW1 9214   2.121   9.454   5.571 -0.2019 -0.9182  1.4824
 2338SOL    HW2 9215   2.157   9.601   5.563 -2.3852 -0.4124  0.0900
 2339SOL     OW 9216   6.829   1.657   4.683  0.0929  0.5647  0.3530
 2339SOL    HW1 9217   6.867   1.739   4.652  1.9808 -0.3227  0.1616
 2339SOL    HW2 9218   6.860   1.591   4.622 -1.2756 -0.3323  0.5832
 2340SOL     OW 9219   5.403   8.908   7.529  0.1510 -0.5679 -0.2303
 2340SOL    HW1 9220   5.437   8.959   7.456  0.4137  0.8141  0.8084
 2340SOL    HW2 9221   5.337   8.851   7.490 -2.1840  2.4722 -1.1438
 2341SOL     OW 9222   6.732   2.552   0.291 -0.4344  0.0452  0.5292
 2341SOL    HW1 9223   6.752   2.487   0.357  0.1766 -0.9810 -0.6343
 2341SOL    HW2 9224   6.801   2.618   0.300 -0.0961 -0.3197  0.6174
 2342SOL     OW 9225   9.329   1.411   8.944 -0.0784  0.2962 -0.2269
 2342SOL    HW1 9226   9.359   1.365   9.022  0.4181 -1.4275 -1.3730
 2342SOL    HW2 9227   9.349   1.503   8.961 -0.1065 -0.0203  1.7042
 2343SOL     OW 9228   8.278   4.742   5.872 -0.1053 -0.1445  0.1964
 2343SOL    HW1 9229   8.199   4.738   5.818 -1.6765  1.1059  2.2864
 2343SOL    HW2 9230   8.322   4.822   5.844 -0.4202  0.0099  0.1375
 2344SOL     OW 9231   4.047   8.508   9.167  0.0608 -0.3338 -0.2287
 2344SOL    HW1 9232   4.090   8.588   9.138 -1.0122 -0.5459 -2.7402
 2344SOL    HW2 9233   4.117   8.443   9.174  0.8145  0.5917  0.9670
 2345SOL     OW 9234   0.381   6.462   7.995  0.1135 -0.3692 -0.7263
 2345SOL    HW1 9235   0.405   6.511   8.074 -1.7077  1.5279 -1.2519
 2345SOL    HW2 9236   0.461   6.414   7.972  1.8669  1.9038  0.1954
 2346SOL     OW 9237   3.475   9.571   8.503 -0.2770  0.3230 -0.7159
 2346SOL    HW1 9238   3.427   9.512   8.445 -0.7026  0.8726 -0.9370
 2346SOL    HW2 9239   3.466   9.533   8.590  1.3019 -1.1214 -1.1326
 2347SOL     OW 9240   8.009   6.645   8.724 -0.4245  0.4173 -0.2726
 2347SOL    HW1 9241   7.957   6.723   8.706  2.0969  2.2052 -0.2637
 2347SOL    HW2 9242   8.027   6.608   8.637 -2.3034 -0.7340 -0.2395
 2348SOL     OW 9243   5.063   5.866   1.654 -0.2838  0.2475 -0.4780
 2348SOL    HW1 9244   5.028   5.783   1.622  0.5199 -0.4213  0.3437
 2348SOL    HW2 9245   5.149   5.844   1.689 -1.1089  0.8827  2.1815
 2349SOL     OW 9246   7.268   3.964   8.833 -0.4086 -0.0373  0.4080
 2349SOL    HW1 9247   7.346   3.979   8.886 -0.3535  1.2721  0.0088
 2349SOL    HW2 9248   7.201   4.020   8.873 -0.2894  1.1940 -1.0104
 2350SOL     OW 9249   5.496   4.894   7.550  0.2266 -0.1814  0.3604
 2350SOL    HW1 9250   5.409   4.871   7.582  0.9570 -1.8536  1.2435
 2350SOL    HW2 9251   5.556   4.848   7.608  1.7017  0.3373 -0.6972
 2351SOL     OW 9252   2.425   1.169   5.230  0.3920  0.3128  0.1829
 2351SOL    HW1 9253   2.517   1.194   5.233  0.9588 -1.6865  1.7478
 2351SOL    HW2 9254   2.385   1.218   5.302  0.3853  0.5824 -0.0020
 2352SOL     OW 9255   8.337   5.652   8.688  0.5083 -0.2085 -0.2798
 2352SOL    HW1 9256   8.370   5.740   8.703  1.5352 -0.5586 -0.3512
 2352SOL    HW2 9257   8.245   5.656   8.711  0.6144  0.8050  0.0088
 2353SOL     OW 9258   8.313   6.099   1.826  0.1537  0.3298 -0.1979
 2353SOL    HW1 9259   8.298   6.059   1.912 -0.1835  0.1770 -0.3291
 2353SOL    HW2 9260   8.282   6.189   1.837 -1.2192 -0.0714 -0.5654
 2354SOL     OW 9261   1.944   4.842   1.492 -0.2131 -0.9067 -0.1879
 2354SOL    HW1 9262   1.879   4.911   1.477 -0.1855 -1.0201 -0.8699
 2354SOL    HW2 9263   1.947   4.794   1.409  1.1909 -0.5280 -0.3899
 2355SOL     OW 9264   7.372   8.710   2.200  0.3508 -0.2676  0.0148
 2355SOL    HW1 9265   7.463   8.679   2.203 -0.4280 -2.6921  1.5428
 2355SOL    HW2 9266   7.354   8.740   2.289 -1.3618 -3.3858  0.8780
 2356SOL     OW 9267   8.025   4.254   1.140  0.4323 -0.1607  0.3003
 2356SOL    HW1 9268   7.946   4.303   1.161  0.4025 -1.2923  3.3973
 2356SOL    HW2 9269   8.097   4.312   1.166  0.6009  0.1343 -0.7608
 2357SOL     OW 9270   3.560   3.908   4.870 -0.0536  0.9857  0.0506
 2357SOL    HW1 9271   3.601   3.825   4.844 -0.6337  0.8444 -0.4465
 2357SOL    HW2 9272   3.549   3.900   4.965 -0.9613  0.0869 -0.1124
 2358SOL     OW 9273   7.087   7.237   4.062 -0.0296 -0.9002  0.0409
 2358SOL    HW1 9274   7.109   7.273   4.148  1.3572  0.6235 -0.8800
 2358SOL    HW2 9275   7.065   7.145   4.079  2.0708 -1.1545  1.7965
 2359SOL     OW 9276   6.303   8.654   0.738  0.3469 -0.5150 -0.6612
 2359SOL    HW1 9277   6.346   8.731   0.775  1.0879 -1.0040 -0.4603
 2359SOL    HW2 9278   6.328   8.654   0.646  1.0713 -0.9718 -0.4773
 2360SOL     OW 9279   2.985   7.070   7.198  0.2517  0.0809 -0.1818
 2360SOL    HW1 9280   2.982   7.154   7.245 -0.4614  1.0419 -1.8779
 2360SOL    HW2 9281   3.069   7.072   7.151 -0.6390  0.7894 -1.8220
 2361SOL     OW 9282   1.488   1.767   4.450 -0.5354  0.0255 -0.1569
 2361SOL    HW1 9283   1.530   1.848   4.479 -2.0891  0.8955 -0.2082
 2361SOL    HW2 9284   1.396   1.791   4.437 -0.5234 -0.9796 -3.0062
 2362SOL     OW 9285   4.417   2.350   5.433 -0.3185  0.0442 -0.2537
 2362SOL    HW1 9286   4.336   2.376   5.476  1.6059  4.1661  1.4082
 2362SOL    HW2 9287   4.414   2.393   5.348  0.3359  0.7644  0.0744
 2363SOL     OW 9288   5.837   3.843   0.709 -0.5936  0.2157  0.1998
 2363SOL    HW1 9289   5.877   3.876   0.789 -0.1645  0.4235 -0.0951
 2363SOL    HW2 9290   5.834   3.919   0.651  0.5472 -0.2808 -0.5443
 2364SOL     OW 9291   1.899   4.152   5.092  0.0477  0.5812 -0.2641
 2364SOL    HW1 9292   1.910   4.121   5.182 -1.1822 -1.2311 -0.6857
 2364SOL    HW2 9293   1.854   4.236   5.101  2.1606  1.6907  0.8580
 2365SOL     OW 9294   8.114   0.420   1.633  0.9809  0.2258  0.3085
 2365SOL    HW1 9295   8.206   0.399   1.619  1.4898  1.4848  1.5112
 2365SOL    HW2 9296   8.095   0.392   1.722 -0.1005 -0.9077 -0.2471
 2366SOL     OW 9297   5.776   4.133   6.573  0.3810 -0.2739 -0.0997
 2366SOL    HW1 9298   5.730   4.051   6.590 -1.2629  0.0460 -2.5758
 2366SOL    HW2 9299   5.708   4.193   6.542  1.7818  1.5981  0.2597
 2367SOL     OW 9300   7.402   9.563   4.658  0.4289 -0.1410  0.5838
 2367SOL    HW1 9301   7.310   9.589   4.652  0.8297  1.1405 -0.8838
 2367SOL    HW2 9302   7.445   9.636   4.703  0.5722 -1.3008  2.4419
 2368SOL     OW 9303   6.728   4.523   5.517 -0.0745 -0.7422 -0.2668
 2368SOL    HW1 9304   6.702   4.439   5.479  2.0140 -2.0525  0.9662
 2368SOL    HW2 9305   6.819   4.533   5.490 -0.3393  1.2475 -0.5165
 2369SOL     OW 9306   5.405   1.596   5.575  0.4633  0.6547 -0.0558
 2369SOL    HW1 9307   5.380   1.675   5.623  2.1838  1.6566 -0.7379
 2369SOL    HW2 9308   5.495   1.612   5.547  0.9954 -1.7082  0.0987
 2370SOL     OW 9309   5.755   6.370   2.040 -0.2506 -0.3586 -0.3000
 2370SOL    HW1 9310   5.837   6.385   1.992  0.5945  0.7040  1.3822
 2370SOL    HW2 9311   5.692   6.428   1.997  0.5304  0.7139 -0.0562
 2371SOL     OW 9312   9.205   5.857   1.443  0.3351  0.0925  0.2355
 2371SOL    HW1 9313   9.285   5.903   1.417  0.7686 -0.8920 -0.2180
 2371SOL    HW2 9314   9.149   5.926   1.479  0.2260  1.3140 -2.0635
 2372SOL     OW 9315   4.566   0.640   6.233  0.1053  0.2005  0.1119
 2372SOL    HW1 9316   4.495   0.618   6.294  0.4707 -1.8889 -0.1334
 2372SOL    HW2 9317   4.643   0.596   6.269  0.6290  0.0525 -1.1318
 2373SOL     OW 9318   0.514   3.652   7.578 -0.2150 -0.2822  0.3748
 2373SOL    HW1 9319   0.454   3.596   7.627 -1.0343  0.2606  0.0211
 2373SOL    HW2 9320   0.459   3.695   7.513  0.5595  0.2591  0.0551
 2374SOL     OW 9321   9.227   1.024   6.423  0.9020 -0.6000 -0.5394
 2374SOL    HW1 9322   9.155   1.062   6.373  0.1027 -0.8214  0.4061
 2374SOL    HW2 9323   9.239   0.937   6.385 -0.2581 -1.0887  0.1561
 2375SOL     OW 9324   7.210   1.259   2.218  0.3220 -0.1719  0.4128
 2375SOL    HW1 9325   7.134   1.249   2.161 -1.1853  0.3070  2.2146
 2375SOL    HW2 9326   7.225   1.171   2.253  0.6939 -0.2948 -0.0528
 2376SOL     OW 9327   0.671   4.918   4.732 -0.2999 -0.3127  0.6807
 2376SOL    HW1 9328   0.618   4.979   4.679  2.1548  1.5864  0.2450
 2376SOL    HW2 9329   0.652   4.943   4.822  0.7486  1.2663  0.5088
 2377SOL     OW 9330   1.330   2.354   3.355  0.1939 -0.0085  0.3105
 2377SOL    HW1 9331   1.291   2.372   3.269 -1.1165  0.2728  0.9401
 2377SOL    HW2 9332   1.255   2.337   3.412  1.0290  0.1574  1.4839
 2378SOL     OW 9333   2.805   4.660   5.558 -0.5239 -0.8672  0.1077
 2378SOL    HW1 9334   2.872   4.693   5.619 -1.6702 -0.3128  1.1176
 2378SOL    HW2 9335   2.810   4.720   5.484 -0.5608 -0.2234  0.6148
 2379SOL     OW 9336   8.740   5.906   4.123 -0.1726  0.1023 -0.7204
 2379SOL    HW1 9337   8.719   5.868   4.037 -0.2771 -0.3371 -0.5007
 2379SOL    HW2 9338   8.836   5.907   4.125 -0.1650 -0.6823 -0.4973
 2380SOL     OW 9339   3.758   7.550   0.691 -0.2763 -0.0874  0.3958
 2380SOL    HW1 9340   3.821   7.486   0.726  0.6252  0.4469 -0.2020
 2380SOL    HW2 9341   3.811   7.628   0.673 -1.3215  0.7814  0.9365
 2381SOL     OW 9342   9.403   4.940   6.215 -0.4086 -0.2464 -0.1354
 2381SOL    HW1 9343   9.431   5.014   6.163  1.4354 -0.6613  0.1921
 2381SOL    HW2 9344   9.421   4.863   6.161  2.3155 -0.7456  1.2952
 2382SOL     OW 9345   2.814   9.009   5.152 -0.0784  0.1692  0.1037
 2382SOL    HW1 9346   2.732   8.959   5.151 -0.0952  0.2044 -0.4499
 2382SOL    HW2 9347   2.871   8.960   5.212  0.0193 -0.7035 -0.6748
 2383SOL     OW 9348   7.314   6.043   4.473  0.3522 -0.4532 -0.8975
 2383SOL    HW1 9349   7.318   5.968   4.413 -0.6844  0.6272 -2.3993
 2383SOL    HW2 9350   7.283   6.116   4.418 -1.0142  0.5129  1.0331
 2384SOL     OW 9351   2.697   5.577   8.024  0.2063  0.2288 -0.1097
 2384SOL    HW1 9352   2.709   5.635   8.100 -1.2818  1.4485 -0.7516
 2384SOL    HW2 9353   2.750   5.500   8.044  0.2686  0.7416  1.9237
 2385SOL     OW 9354   5.753   6.603   3.551  0.0382  0.3660  0.8594
 2385SOL    HW1 9355   5.678   6.576   3.500  0.3549 -0.3601  0.7674
 2385SOL    HW2 9356   5.723   6.600   3.642  0.4460 -1.6444  0.9654
 2386SOL     OW 9357   0.740   5.774   0.808 -0.0575  0.5192  0.3093
 2386SOL    HW1 9358   0.739   5.820   0.892  0.0789  0.7947  0.1616
 2386SOL    HW2 9359   0.682   5.699   0.820 -1.4620  1.5372  0.0990
 2387SOL     OW 9360   7.872   6.271   4.871 -0.4328 -0.2199 -0.3875
 2387SOL    HW1 9361   7.822   6.296   4.949  0.4978  1.8865 -0.4047
 2387SOL    HW2 9362   7.807   6.258   4.803 -1.1535 -0.6579  0.3610
 2388SOL     OW 9363   8.357   3.679   7.652 -0.0611  0.0759 -0.1661
 2388SOL    HW1 9364   8.394   3.640   7.731  0.6586  2.4078  0.7517
 2388SOL    HW2 9365   8.276   3.721   7.682  0.8358  2.0497 -0.2933
 2389SOL     OW 9366   4.220   1.420   4.968 -0.5289 -0.0348 -0.6266
 2389SOL    HW1 9367   4.284   1.458   4.907 -1.0114  1.6608 -0.1348
 2389SOL    HW2 9368   4.181   1.496   5.012 -1.5703 -1.1281  0.4068
 2390SOL     OW 9369   3.095   8.158   8.018  0.3345 -0.0587  0.7145
 2390SOL    HW1 9370   3.134   8.153   8.105 -1.1399 -1.7608  1.3225
 2390SOL    HW2 9371   3.020   8.217   8.028  0.4916  0.1932  0.4463
 2391SOL     OW 9372   7.699   4.816   5.152 -0.0679 -0.4415 -0.4296
 2391SOL    HW1 9373   7.685   4.833   5.245 -0.3533  0.7855 -0.6775
 2391SOL    HW2 9374   7.794   4.826   5.140 -0.2691  1.6673 -0.6563
 2392SOL     OW 9375   4.358   8.497   7.814  0.3071  0.3568 -0.3572
 2392SOL    HW1 9376   4.319   8.580   7.787  0.8480  0.0811 -2.1147
 2392SOL    HW2 9377   4.452   8.512   7.811  0.4096 -0.2730 -0.5136
 2393SOL     OW 9378   5.514   4.836   5.932 -0.9345  0.2654  0.1120
 2393SOL    HW1 9379   5.522   4.842   5.837 -1.5150 -1.2437 -0.0681
 2393SOL    HW2 9380   5.602   4.854   5.965 -0.4900 -0.1913 -0.7774
 2394SOL     OW 9381   1.347   8.786   0.543  0.0808 -0.6752 -0.1754
 2394SOL    HW1 9382   1.359   8.854   0.477 -0.8681  0.4349  0.7615
 2394SOL    HW2 9383   1.272   8.815   0.594  0.1388 -2.0468  0.7358
 2395SOL     OW 9384   4.415   3.269   1.766 -0.5756 -0.2080  0.5807
 2395SOL    HW1 9385   4.449   3.328   1.833 -1.9452 -0.2601  1.3523
 2395SOL    HW2 9386   4.330   3.305   1.743  1.7622  3.0269 -5.1271
 2396SOL     OW 9387   8.313   3.133   8.032  0.4019  0.3682 -0.4691
 2396SOL    HW1 9388   8.309   3.072   8.106 -1.4195 -0.3293 -1.0780
 2396SOL    HW2 9389   8.325   3.219   8.072 -1.3333  0.1079  0.7332
 2397SOL     OW 9390   3.002   6.940   6.724  0.2495  0.0308  0.0954
 2397SOL    HW1 9391   2.950   6.863   6.700  1.2065 -0.3498 -0.8570
 2397SOL    HW2 9392   3.040   6.917   6.809 -1.2712  0.4018  0.9031
 2398SOL     OW 9393   8.228   5.843   4.236 -0.4914  0.2165  0.0362
 2398SOL    HW1 9394   8.281   5.768   4.262  0.9592  0.5871 -1.6429
 2398SOL    HW2 9395   8.252   5.912   4.297 -3.3419 -1.1085  2.9304
 2399SOL     OW 9396   9.074   0.082   5.473 -0.0787  0.3697 -0.0942
 2399SOL    HW1 9397   9.089   0.118   5.560 -1.1011 -0.0248  0.2588
 2399SOL    HW2 9398   9.086  -0.013   5.484 -0.1447  0.3230 -0.4014
 2400SOL     OW 9399   6.616   2.922   6.110  0.4306  0.2842  0.0238
 2400SOL    HW1 9400   6.690   2.950   6.056 -0.7261  1.3440 -1.0883
 2400SOL    HW2 9401   6.618   2.826   6.106 -0.5737  0.2979 -3.3541
 2401SOL     OW 9402   8.780   1.485   1.419 -0.5271  0.2734 -0.6655
 2401SOL    HW1 9403   8.876   1.483   1.412 -0.4431 -0.6240  0.4858
 2401SOL    HW2 9404   8.751   1.513   1.332  0.6936 -1.4589 -1.6970
 2402SOL     OW 9405   3.951   2.031   4.261  0.5143  0.1182  0.0347
 2402SOL    HW1 9406   4.043   2.023   4.237  0.8749  0.6806  1.1490
 2402SOL    HW2 9407   3.904   2.030   4.178  1.5604  0.3224 -0.5748
 2403SOL     OW 9408   5.358   3.952   7.249  0.3108 -0.4669 -0.2413
 2403SOL    HW1 9409   5.345   3.885   7.317  0.4769 -1.0109 -0.7331
 2403SOL    HW2 9410   5.408   4.021   7.292  1.4749 -1.3587 -0.1361
 2404SOL     OW 9411   7.509   7.871   6.006 -0.1559  0.6116 -0.1293
 2404SOL    HW1 9412   7.506   7.792   5.952  3.3401  0.0969  0.2052
 2404SOL    HW2 9413   7.437   7.860   6.068  0.5649 -2.6945  0.3421
 2405SOL     OW 9414   7.043   7.733   3.342  0.4998  0.1312  0.7106
 2405SOL    HW1 9415   7.089   7.684   3.274  1.3586  1.2483  0.4442
 2405SOL    HW2 9416   7.007   7.666   3.400  0.0988 -0.8353 -0.6099
 2406SOL     OW 9417   2.741   0.464   5.087  0.1275  0.7506 -0.2825
 2406SOL    HW1 9418   2.676   0.429   5.148  0.8983  3.5396  2.4099
 2406SOL    HW2 9419   2.695   0.536   5.043  0.5371  0.8603 -0.5291
 2407SOL     OW 9420   6.660   4.778   0.474 -0.1163 -0.4481  0.1796
 2407SOL    HW1 9421   6.689   4.709   0.533  1.6604 -0.8965 -1.1304
 2407SOL    HW2 9422   6.741   4.817   0.442 -1.0663  1.4787 -0.0361
 2408SOL     OW 9423   7.273   0.332   4.190  0.4699 -0.0312 -0.0625
 2408SOL    HW1 9424   7.245   0.424   4.186  0.5106 -0.0466 -1.1088
 2408SOL    HW2 9425   7.205   0.288   4.241 -0.7406  0.1817 -1.4306
 2409SOL     OW 9426   2.313   6.011   3.539 -0.1930  0.4306  0.5528
 2409SOL    HW1 9427   2.322   6.106   3.532 -0.7421  0.5312  1.0348
 2409SOL    HW2 9428   2.257   5.986   3.466  1.8967  0.1241 -1.0327
 2410SOL     OW 9429   5.122   2.499   2.049 -0.2382 -0.5382 -0.7057
 2410SOL    HW1 9430   5.088   2.581   2.085  2.6767  1.4031 -2.0428
 2410SOL    HW2 9431   5.165   2.456   2.123  1.2331  0.9123 -0.6605
 2411SOL     OW 9432   2.353   2.450   6.386 -0.3988 -0.6353 -0.0611
 2411SOL    HW1 9433   2.312   2.409   6.462  0.0926  0.6228  0.9323
 2411SOL    HW2 9434   2.291   2.518   6.359  0.8743  1.1929  1.3737
 2412SOL     OW 9435   1.894   8.483   0.989  0.5452  0.2313  0.4784
 2412SOL    HW1 9436   1.876   8.447   1.077 -0.9776 -0.6665 -0.1643
 2412SOL    HW2 9437   1.827   8.444   0.933  2.1908 -0.1608 -1.3428
 2413SOL     OW 9438   6.094   6.749   7.093 -0.2003 -0.2271 -0.6907
 2413SOL    HW1 9439   6.052   6.835   7.089 -1.4384 -0.7852 -0.3433
 2413SOL    HW2 9440   6.187   6.767   7.100 -0.5700  1.1802  2.1147
 2414SOL     OW 9441   6.875   5.736   6.552 -0.0035 -0.0811 -0.0257
 2414SOL    HW1 9442   6.845   5.816   6.595 -1.1804 -0.3688 -0.2731
 2414SOL    HW2 9443   6.856   5.666   6.615  2.4857 -0.0510  0.8761
 2415SOL     OW 9444   8.010   1.354   1.324  0.1582 -0.1574  0.0461
 2415SOL    HW1 9445   8.062   1.406   1.386 -0.5804  2.0820 -1.0962
 2415SOL    HW2 9446   8.074   1.298   1.280  1.1670  0.4982  0.6399
 2416SOL     OW 9447   5.907   3.864   5.307  0.5593  0.2510 -0.0442
 2416SOL    HW1 9448   5.830   3.913   5.281  0.8061 -0.6441 -2.7830
 2416SOL    HW2 9449   5.966   3.930   5.344 -0.1279  1.5913 -1.2350
 2417SOL     OW 9450   8.886   9.465   5.248 -0.2420  0.6127  0.1814
 2417SOL    HW1 9451   8.940   9.389   5.227  0.5646  1.2107  0.0095
 2417SOL    HW2 9452   8.918   9.533   5.189 -0.2896  1.3479  0.9864
 2418SOL     OW 9453   3.715   7.898   4.493  0.0094 -0.1571 -0.5450
 2418SOL    HW1 9454   3.712   7.952   4.414  2.1819  2.3573  0.8928
 2418SOL    HW2 9455   3.629   7.909   4.533 -0.2632  0.6276 -1.3091
 2419SOL     OW 9456   6.912   8.821   6.708  0.5129  0.0382  0.0212
 2419SOL    HW1 9457   6.825   8.861   6.705  0.6701  0.3421 -0.4094
 2419SOL    HW2 9458   6.973   8.893   6.698  0.8326 -0.1230  0.7524
 2420SOL     OW 9459   3.133   8.876   1.273  0.4022 -0.0827  0.2615
 2420SOL    HW1 9460   3.149   8.957   1.223  0.4567  0.0625  0.5147
 2420SOL    HW2 9461   3.085   8.904   1.350  1.9240 -0.0394  1.2276
 2421SOL     OW 9462   0.264   1.032   7.268 -0.0970  0.5308  0.3104
 2421SOL    HW1 9463   0.230   1.028   7.358 -0.5330  1.7268  0.2065
 2421SOL    HW2 9464   0.260   1.124   7.244  4.8305  1.1396  0.8901
 2422SOL     OW 9465   7.286   1.023   2.583  0.2279 -0.0689 -0.8492
 2422SOL    HW1 9466   7.351   1.053   2.519 -0.5994  1.7538 -0.8821
 2422SOL    HW2 9467   7.223   1.094   2.588 -0.9904 -1.1877  0.2748
 2423SOL     OW 9468   4.935   5.846   9.578 -0.3647  0.3171  0.1005
 2423SOL    HW1 9469   4.967   5.812   9.495  0.3838  1.8008 -0.2434
 2423SOL    HW2 9470   4.986   5.799   9.644 -0.3534 -0.2372 -0.2911
 2424SOL     OW 9471   5.762   8.879   5.176  0.4967 -0.6853 -0.2382
 2424SOL    HW1 9472   5.843   8.848   5.218 -0.7450 -1.0421  2.0472
 2424SOL    HW2 9473   5.742   8.811   5.110  1.2724 -1.3490  0.1860
 2425SOL     OW 9474   1.717   2.362   5.263 -0.1399 -0.4172  0.1094
 2425SOL    HW1 9475   1.752   2.307   5.333  0.8623 -1.7456 -1.3791
 2425SOL    HW2 9476   1.626   2.334   5.254 -0.2453 -0.3117  0.7783
 2426SOL     OW 9477   1.465   2.335   3.614  0.0096  0.2591  0.5416
 2426SOL    HW1 9478   1.394   2.272   3.625 -1.7372  1.7857 -1.2809
 2426SOL    HW2 9479   1.516   2.329   3.695  0.0469 -3.5400  0.4250
 2427SOL     OW 9480   3.771   5.944   1.992 -0.0158  0.2366  0.0190
 2427SOL    HW1 9481   3.685   5.956   2.034 -0.6050 -0.4512 -0.9274
 2427SOL    HW2 9482   3.778   6.017   1.931  0.3514  0.6296  0.5257
 2428SOL     OW 9483   5.429   8.068   3.626  0.0517  0.5289 -0.2055
 2428SOL    HW1 9484   5.492   8.112   3.570 -0.7485  3.2760  0.8538
 2428SOL    HW2 9485   5.405   7.989   3.579  2.4856  0.6108 -1.7146
 2429SOL     OW 9486   3.472   9.507   1.800  0.0455  0.0666 -0.5163
 2429SOL    HW1 9487   3.409   9.553   1.744 -0.5879  1.1362  1.0176
 2429SOL    HW2 9488   3.484   9.565   1.875  2.3401 -0.4540 -0.4247
 2430SOL     OW 9489   8.337   1.040   3.805 -0.5571 -0.3443  0.3528
 2430SOL    HW1 9490   8.368   1.048   3.895  2.3630 -0.5291 -0.5349
 2430SOL    HW2 9491   8.344   0.947   3.785  0.3918 -0.1030 -0.5322
 2431SOL     OW 9492   0.927   3.436   1.756  0.1201  0.2519  0.4023
 2431SOL    HW1 9493   0.885   3.488   1.687  0.1206 -0.9520 -0.5219
 2431SOL    HW2 9494   0.890   3.349   1.747  2.6891 -0.8597 -0.3845
 2432SOL     OW 9495   2.821   8.463   3.067  0.1390 -0.1175  0.2403
 2432SOL    HW1 9496   2.767   8.387   3.086 -2.3126  1.0495 -1.5082
 2432SOL    HW2 9497   2.820   8.514   3.148  0.0596 -0.9170  0.7540
 2433SOL     OW 9498   1.229   4.686   4.156 -0.4987 -0.1575 -0.9695
 2433SOL    HW1 9499   1.192   4.620   4.215 -0.5538  0.6735 -0.0408
 2433SOL    HW2 9500   1.321   4.693   4.184 -0.2585 -0.4744 -1.6575
 2434SOL     OW 9501   3.888   2.951   4.976  0.0589 -0.2841  0.0247
 2434SOL    HW1 9502   3.889   3.009   5.052 -0.1300 -2.0037  1.4043
 2434SOL    HW2 9503   3.886   2.862   5.013 -0.2168 -1.1819 -1.9862
 2435SOL     OW 9504   1.668   4.362   4.639  0.2913 -0.0530  0.2397
 2435SOL    HW1 9505   1.597   4.417   4.674  0.7410 -0.3903  1.7952
 2435SOL    HW2 9506   1.655   4.363   4.545 -1.0699  0.8692  0.3990
 2436SOL     OW 9507   1.051   2.344   3.525  0.2148 -0.4802 -0.2520
 2436SOL    HW1 9508   1.046   2.249   3.519 -0.4941 -0.3602 -2.3149
 2436SOL    HW2 9509   0.995   2.375   3.453 -0.2769  1.5015  0.9187
 2437SOL     OW 9510   4.800   8.277   6.027  0.7136  0.0337  0.0952
 2437SOL    HW1 9511   4.781   8.183   6.036 -0.2246  0.1888 -0.1552
 2437SOL    HW2 9512   4.724   8.320   6.065  0.0539  0.6924 -1.8812
 2438SOL     OW 9513   0.149   2.522   8.782  0.1814  0.5628 -0.2706
 2438SOL    HW1 9514   0.094   2.550   8.709 -0.5599 -0.7519 -0.2510
 2438SOL    HW2 9515   0.177   2.433   8.759  1.1529  0.6865  0.3704
 2439SOL     OW 9516   9.446   1.276   1.744  0.1007 -0.9439  0.0751
 2439SOL    HW1 9517   9.463   1.276   1.649 -0.3038  2.3152 -0.1230
 2439SOL    HW2 9518   9.352   1.295   1.751  0.1555 -1.0408  1.1460
 2440SOL     OW 9519   1.820   4.110   9.364 -0.6170  0.1560  0.1815
 2440SOL    HW1 9520   1.855   4.048   9.301  0.5430 -0.6133  1.5216
 2440SOL    HW2 9521   1.730   4.125   9.336 -0.2352 -0.4198 -1.4340
 2441SOL     OW 9522   3.163   5.512   8.114  0.0515 -0.4206  0.3971
 2441SOL    HW1 9523   3.252   5.508   8.151  0.3074  2.1517  0.2253
 2441SOL    HW2 9524   3.116   5.572   8.170 -0.5306  0.9812 -1.4763
 2442SOL     OW 9525   0.681   4.018   4.398 -0.0948  0.3774 -0.1884
 2442SOL    HW1 9526   0.586   4.032   4.393 -0.2000  0.1249  0.8671
 2442SOL    HW2 9527   0.692   3.924   4.383  0.1064  0.5909 -1.4892
 2443SOL     OW 9528   2.250   1.853   5.802 -0.5412  0.6999  0.5371
 2443SOL    HW1 9529   2.270   1.814   5.887 -1.9356  0.4004  0.7487
 2443SOL    HW2 9530   2.260   1.781   5.740  0.2340  0.8596  0.4618
 2444SOL     OW 9531   6.888   7.644   6.646 -0.5200 -0.4276 -0.1154
 2444SOL    HW1 9532   6.887   7.555   6.612  0.6204 -0.5825  0.2281
 2444SOL    HW2 9533   6.940   7.693   6.582 -1.5500  0.1095 -0.5609
 2445SOL     OW 9534   9.026   4.009   8.167 -0.6290  0.2846 -0.2222
 2445SOL    HW1 9535   8.986   4.084   8.211  0.4896  0.4767  0.5097
 2445SOL    HW2 9536   9.116   4.007   8.201 -0.3341 -0.7527 -1.0322
 2446SOL     OW 9537   0.815   2.038   2.234  0.2070 -0.0457 -0.3712
 2446SOL    HW1 9538   0.804   2.071   2.323 -0.5923 -1.6154  0.1634
 2446SOL    HW2 9539   0.750   2.086   2.182  0.5517  0.7484 -0.0765
 2447SOL     OW 9540   8.909   7.155   3.981  0.9119  0.1909 -0.7003
 2447SOL    HW1 9541   8.888   7.062   3.976  1.3111  0.0377  0.2203
 2447SOL    HW2 9542   8.825   7.198   3.998  0.6134  0.0815 -1.8425
 2448SOL     OW 9543   1.039   0.642   4.165 -0.2536  0.1705 -0.2991
 2448SOL    HW1 9544   0.959   0.613   4.207 -0.4885  0.4303 -0.5658
 2448SOL    HW2 9545   1.073   0.563   4.121 -0.0996 -0.0554  0.2219
 2449SOL     OW 9546   6.203   7.889   5.804  0.3093 -0.0426  0.3709
 2449SOL    HW1 9547   6.230   7.958   5.863 -2.2423  1.5900 -0.1811
 2449SOL    HW2 9548   6.253   7.904   5.724  2.1175 -0.8823  1.2988
 2450SOL     OW 9549   4.602   6.736   7.313  0.3114 -0.2707 -0.6974
 2450SOL    HW1 9550   4.608   6.648   7.352  1.6524 -0.1674 -0.6150
 2450SOL    HW2 9551   4.519   6.770   7.345  0.1874 -1.1712  0.0099
 2451SOL     OW 9552   8.736   1.343   7.133 -0.9509  0.1594  0.9497
 2451SOL    HW1 9553   8.668   1.282   7.161  0.1197 -0.9575  1.1709
 2451SOL    HW2 9554   8.742   1.406   7.205  0.4631 -1.6113  2.4826
 2452SOL     OW 9555   2.912   4.959   5.982 -0.1957  0.2256  0.2339
 2452SOL    HW1 9556   2.931   5.051   5.966 -1.0729  0.5766  1.1132
 2452SOL    HW2 9557   2.826   4.959   6.025  0.4255 -0.8843  1.5673
 2453SOL     OW 9558   7.375   5.650   1.865  0.0825 -0.3977  0.4796
 2453SOL    HW1 9559   7.354   5.590   1.793  0.1875 -1.6146  1.4411
 2453SOL    HW2 9560   7.420   5.596   1.930  0.6235  0.8329  1.1726
 2454SOL     OW 9561   7.143   5.479   8.010  0.4191  0.3023 -0.0418
 2454SOL    HW1 9562   7.078   5.428   8.058  1.3459 -0.0739  0.8456
 2454SOL    HW2 9563   7.127   5.457   7.918  0.9726 -1.8225  0.3286
 2455SOL     OW 9564   7.233   5.325   3.104  0.3220 -0.3830 -0.7311
 2455SOL    HW1 9565   7.262   5.293   3.190  0.3128  2.1547  0.3051
 2455SOL    HW2 9566   7.313   5.336   3.054  0.6959  1.2221  0.1460
 2456SOL     OW 9567   8.641   6.758   1.758  0.3405 -0.4749  0.6743
 2456SOL    HW1 9568   8.669   6.771   1.667 -1.3170  1.0820  0.3324
 2456SOL    HW2 9569   8.707   6.805   1.810 -0.6622  1.8300 -0.0075
 2457SOL     OW 9570   2.678   6.602   7.929  0.7295  0.1151  0.2597
 2457SOL    HW1 9571   2.591   6.584   7.893  0.2359  0.9467  1.0390
 2457SOL    HW2 9572   2.721   6.656   7.862  0.2920  0.5441  0.3269
 2458SOL     OW 9573   1.099   0.861   4.021  0.3551 -0.3936 -0.2452
 2458SOL    HW1 9574   1.181   0.846   3.975  0.1186  0.9476 -1.1921
 2458SOL    HW2 9575   1.087   0.784   4.076  2.3829 -0.4806  0.1500
 2459SOL     OW 9576   1.524   0.240   7.900 -0.1019 -0.0091  0.0673
 2459SOL    HW1 9577   1.518   0.152   7.937  0.4902  0.2640  0.8283
 2459SOL    HW2 9578   1.503   0.228   7.807 -0.1771 -0.9284  0.1938
 2460SOL     OW 9579   8.282   3.001   4.286 -0.1403 -0.4197  0.8085
 2460SOL    HW1 9580   8.286   3.014   4.191  1.1991 -0.1533  0.8736
 2460SOL    HW2 9581   8.265   3.088   4.321 -1.1505 -0.6044  0.8028
 2461SOL     OW 9582   1.521   8.668   1.216  0.7003  0.5482  0.1041
 2461SOL    HW1 9583   1.616   8.673   1.223  0.5810  3.1420  1.1596
 2461SOL    HW2 9584   1.490   8.751   1.252 -1.8845  0.6441 -2.0355
 2462SOL     OW 9585   8.172   4.568   6.062  0.3044  0.5584  0.2975
 2462SOL    HW1 9586   8.090   4.616   6.051 -0.4340 -0.5578  0.7242
 2462SOL    HW2 9587   8.231   4.606   5.997 -0.3005  1.8966  0.5018
 2463SOL     OW 9588   8.436   5.662   2.762  0.0936 -0.0175 -0.0813
 2463SOL    HW1 9589   8.344   5.684   2.748 -0.2820 -0.7730  1.0706
 2463SOL    HW2 9590   8.472   5.738   2.809  0.3611  0.7545 -1.4640
 2464SOL     OW 9591   5.271   1.973   5.385 -0.4507  0.1196 -0.5278
 2464SOL    HW1 9592   5.342   2.012   5.436  2.1880 -2.4048 -1.9732
 2464SOL    HW2 9593   5.228   2.047   5.342 -0.3634  1.9514  2.3195
 2465SOL     OW 9594   9.338   8.575   8.717  0.0084 -1.0322 -0.0166
 2465SOL    HW1 9595   9.317   8.586   8.624  0.8818 -0.1370 -0.1355
 2465SOL    HW2 9596   9.304   8.489   8.739 -1.9218 -0.4813 -0.6616
 2466SOL     OW 9597   8.165   5.770   3.156  0.1001  0.2146 -0.4386
 2466SOL    HW1 9598   8.083   5.782   3.109 -1.2045 -0.0324  1.6694
 2466SOL    HW2 9599   8.168   5.677   3.177 -0.9749  0.7725  2.6512
 2467SOL     OW 9600   4.428   0.102   2.660  0.0099  0.1982 -0.2408
 2467SOL    HW1 9601   4.343   0.058   2.659  0.9737 -1.7940 -0.2281
 2467SOL    HW2 9602   4.474   0.064   2.735  1.4434  0.0765 -1.1329
 2468SOL     OW 9603   8.567   0.791   3.892 -0.3158  0.2917 -0.4170
 2468SOL    HW1 9604   8.657   0.771   3.920 -0.7392  0.7827  1.4247
 2468SOL    HW2 9605   8.512   0.739   3.950 -1.2531  0.0286 -1.5028
 2469SOL     OW 9606   6.683   0.998   3.738 -0.3260 -0.0534  0.1372
 2469SOL    HW1 9607   6.750   0.989   3.806 -0.3104  0.3561  0.1772
 2469SOL    HW2 9608   6.733   1.018   3.659 -0.2730 -1.3572 -0.1832
 2470SOL     OW 9609   1.993   6.096   5.765  0.5873 -0.3075  0.1167
 2470SOL    HW1 9610   1.974   6.047   5.846  1.2623 -0.9324 -0.0940
 2470SOL    HW2 9611   2.038   6.033   5.709 -1.0993 -0.3122 -1.3145
 2471SOL     OW 9612   2.382   9.286   0.207 -0.2834  0.0903  0.1302
 2471SOL    HW1 9613   2.373   9.274   0.112  0.7469  0.5172 -0.0282
 2471SOL    HW2 9614   2.355   9.201   0.244 -0.3369 -0.2011 -0.5561
 2472SOL     OW 9615   8.008   2.589   8.751  0.8508 -0.1491 -0.0899
 2472SOL    HW1 9616   8.047   2.642   8.681 -0.3134  0.0537 -0.6079
 2472SOL    HW2 9617   8.080   2.573   8.812  1.3730  1.5092 -0.2297
 2473SOL     OW 9618   7.544   5.793   2.326 -0.2486  0.3700 -0.1464
 2473SOL    HW1 9619   7.449   5.782   2.333 -0.5237  0.5835 -2.6850
 2473SOL    HW2 9620   7.556   5.839   2.243  2.1198 -0.1735 -0.1519
 2474SOL     OW 9621   3.248   3.003   8.108  0.5763 -0.4381  0.4806
 2474SOL    HW1 9622   3.198   3.044   8.178 -0.6591 -1.4173  0.2020
 2474SOL    HW2 9623   3.332   3.050   8.107 -0.1144  0.8537  1.3355
 2475SOL     OW 9624   7.502   4.011   4.931  0.0276 -0.7993 -0.3698
 2475SOL    HW1 9625   7.518   4.044   5.020 -1.1193  2.3016 -1.1720
 2475SOL    HW2 9626   7.410   3.986   4.931  0.0745 -0.9678 -0.6204
 2476SOL     OW 9627   6.120   1.606   2.912  0.2463  0.0480 -0.4943
 2476SOL    HW1 9628   6.121   1.700   2.928  1.9093  0.0174 -0.2405
 2476SOL    HW2 9629   6.212   1.582   2.904 -0.1008 -1.7012  0.2620
 2477SOL     OW 9630   2.266   6.838   1.388  0.7154  0.3376 -0.1563
 2477SOL    HW1 9631   2.178   6.828   1.422  0.6355 -0.2324 -0.5143
 2477SOL    HW2 9632   2.298   6.748   1.377  2.3789  0.4800  2.5865
 2478SOL     OW 9633   5.762   1.555   5.978  0.5434 -0.3962  0.5436
 2478SOL    HW1 9634   5.798   1.643   5.964 -1.6923  0.3515 -1.2023
 2478SOL    HW2 9635   5.728   1.529   5.892 -2.2090 -1.3388  1.7961
 2479SOL     OW 9636   2.243   0.590   8.128  0.5621  0.3384 -0.1637
 2479SOL    HW1 9637   2.256   0.539   8.208  2.2054  0.3485 -0.3894
 2479SOL    HW2 9638   2.187   0.663   8.155 -0.0647 -0.4207  0.6445
 2480SOL     OW 9639   2.628   1.843   5.415  0.2487 -0.3155 -0.2469
 2480SOL    HW1 9640   2.677   1.861   5.495 -2.7032 -0.9494  1.8731
 2480SOL    HW2 9641   2.644   1.750   5.398  0.8624 -0.1877 -0.3913
 2481SOL     OW 9642   4.740   4.703   0.182  0.2937  0.1017 -0.0826
 2481SOL    HW1 9643   4.741   4.610   0.158 -1.2197 -0.7453  2.6868
 2481SOL    HW2 9644   4.651   4.720   0.212 -0.3792  3.3471 -3.2315
 2482SOL     OW 9645   7.332   5.208   8.256 -0.2942  0.9516  0.2429
 2482SOL    HW1 9646   7.273   5.152   8.306  0.8929  0.6601  1.3777
 2482SOL    HW2 9647   7.386   5.148   8.205 -1.7137  1.2583 -1.7331
 2483SOL     OW 9648   7.166   0.741   3.664  0.0771  0.6095  0.7377
 2483SOL    HW1 9649   7.131   0.665   3.710  0.7178 -0.9612 -1.1995
 2483SOL    HW2 9650   7.258   0.719   3.648 -0.0212  1.2241 -0.8875
 2484SOL     OW 9651   8.529   2.526   3.073 -0.2780  0.1513 -0.3535
 2484SOL    HW1 9652   8.473   2.555   3.145 -0.4148 -1.1822  0.1103
 2484SOL    HW2 9653   8.557   2.607   3.030 -0.7802  0.9391  0.7499
 2485SOL     OW 9654   6.355   7.231   6.253 -0.4450  0.3671  0.9013
 2485SOL    HW1 9655   6.422   7.248   6.187 -2.1766  1.3990 -0.6981
 2485SOL    HW2 9656   6.299   7.164   6.213 -0.4949 -0.3296  2.1118
 2486SOL     OW 9657   5.689   5.675   2.343  0.3516 -0.1329  0.1419
 2486SOL    HW1 9658   5.604   5.647   2.376  0.6780 -0.4518  0.7378
 2486SOL    HW2 9659   5.752   5.638   2.405  0.8046  2.0341  1.0612
 2487SOL     OW 9660   0.354   2.889   5.225 -0.1322  0.1026  0.1446
 2487SOL    HW1 9661   0.270   2.882   5.180 -0.2393  1.4849  0.0648
 2487SOL    HW2 9662   0.379   2.981   5.214  0.9618 -0.0761  0.9351
 2488SOL     OW 9663   7.318   1.329   4.761 -0.0966 -0.2912 -0.3460
 2488SOL    HW1 9664   7.378   1.403   4.768 -0.7649  0.3548 -1.1156
 2488SOL    HW2 9665   7.340   1.289   4.677  1.2160 -1.8589  0.7057
 2489SOL     OW 9666   6.675   6.285   5.267  0.0259 -0.0171  0.1211
 2489SOL    HW1 9667   6.757   6.257   5.308 -0.8096 -2.9718  0.0553
 2489SOL    HW2 9668   6.702   6.329   5.186  1.6515 -3.3559 -1.3440
 2490SOL     OW 9669   3.992   5.019   0.388 -0.6899 -0.6595  0.1353
 2490SOL    HW1 9670   4.029   5.104   0.414 -0.9253 -1.1549  2.2635
 2490SOL    HW2 9671   3.994   4.967   0.468 -1.8247 -2.2190 -0.8081
 2491SOL     OW 9672   0.386   9.239   3.470  0.3818  0.4980  0.2148
 2491SOL    HW1 9673   0.340   9.202   3.395 -0.7114  0.4861  0.8671
 2491SOL    HW2 9674   0.474   9.201   3.466  0.6407  1.1527 -1.5279
 2492SOL     OW 9675   7.515   7.428   8.537  0.4011  0.5353  0.3024
 2492SOL    HW1 9676   7.432   7.473   8.524 -0.2383 -0.2801  1.3496
 2492SOL    HW2 9677   7.534   7.440   8.630  2.2917  2.0570 -0.2246
 2493SOL     OW 9678   2.952   5.463   1.580 -0.2128 -0.0879  0.1490
 2493SOL    HW1 9679   2.903   5.524   1.635 -0.3636  0.2759 -0.3756
 2493SOL    HW2 9680   2.893   5.443   1.508 -0.6011 -1.7563  0.8885
 2494SOL     OW 9681   2.997   4.283   1.494  0.2653 -0.3191 -0.4497
 2494SOL    HW1 9682   3.017   4.366   1.538 -0.0796 -0.7671  0.5891
 2494SOL    HW2 9683   2.963   4.227   1.564  0.6907 -1.4070 -1.0939
 2495SOL     OW 9684   3.227   3.522   2.179 -0.5653  0.7484  0.3624
 2495SOL    HW1 9685   3.245   3.610   2.146  0.9581  0.6607  0.8864
 2495SOL    HW2 9686   3.137   3.504   2.151 -0.3029  1.7693 -1.2770
 2496SOL     OW 9687   7.256   8.514   4.330  0.6364  0.2666  0.5744
 2496SOL    HW1 9688   7.352   8.521   4.332  0.6948 -0.6115  1.3666
 2496SOL    HW2 9689   7.239   8.423   4.306 -0.0469  1.0762 -2.3659
 2497SOL     OW 9690   1.384   1.240   6.678 -0.0954  0.0616 -0.1500
 2497SOL    HW1 9691   1.372   1.335   6.686 -1.3730 -0.2238  2.2103
 2497SOL    HW2 9692   1.433   1.215   6.757  2.3047 -1.0212 -1.8428
 2498SOL     OW 9693   5.448   4.436   9.180  0.8850  0.1393 -0.3729
 2498SOL    HW1 9694   5.462   4.529   9.197  0.5802  0.0685  0.3309
 2498SOL    HW2 9695   5.468   4.394   9.264  0.5390 -0.3753 -0.5449
 2499SOL     OW 9696   8.766   5.378   6.796 -0.1286  0.2895 -0.0658
 2499SOL    HW1 9697   8.774   5.284   6.812  0.1926  0.2370 -0.5292
 2499SOL    HW2 9698   8.694   5.406   6.853  0.4213 -0.0500  0.8233
 2500SOL     OW 9699   1.599   4.373   4.370  0.8058 -0.2326 -0.1730
 2500SOL    HW1 9700   1.553   4.336   4.295  1.3800 -2.5322  0.5177
 2500SOL    HW2 9701   1.688   4.339   4.362  1.3151  0.8703  0.6478
 2501SOL     OW 9702   1.965   7.540   7.347 -0.0517 -0.3076 -0.7235
 2501SOL    HW1 9703   1.920   7.611   7.302  2.2758  0.9571 -1.2566
 2501SOL    HW2 9704   1.949   7.556   7.440 -0.3824  0.3434 -0.8891
 2502SOL     OW 9705   0.887   1.835   8.180  0.7585 -0.4138  0.2178
 2502SOL    HW1 9706   0.977   1.841   8.211 -0.2748  2.2926  3.3358
 2502SOL    HW2 9707   0.835   1.831   8.260 -1.9901 -0.5716 -1.4503
 2503SOL     OW 9708   4.279   1.287   8.709 -0.0812  0.6701 -0.5074
 2503SOL    HW1 9709   4.193   1.294   8.750 -0.3219 -0.6044 -0.7463
 2503SOL    HW2 9710   4.263   1.308   8.617  0.1506  1.8736 -0.2898
 2504SOL     OW 9711   3.338   4.020   5.214  0.5792  0.1453 -0.0406
 2504SOL    HW1 9712   3.292   4.051   5.135 -0.8853 -2.5715 -0.3607
 2504SOL    HW2 9713   3.276   4.037   5.285  0.8467  0.2864  0.1572
 2505SOL     OW 9714   2.651   5.879   0.920  0.2925 -0.0148 -0.2021
 2505SOL    HW1 9715   2.721   5.831   0.964  1.2165 -0.1932 -1.7632
 2505SOL    HW2 9716   2.581   5.886   0.985  1.1034 -1.3163  0.8591
 2506SOL     OW 9717   2.313   5.641   4.663  0.2583  0.5099 -0.3797
 2506SOL    HW1 9718   2.330   5.612   4.752  1.5847  2.0886 -0.0713
 2506SOL    HW2 9719   2.271   5.727   4.673 -3.0036 -0.7921 -1.2598
 2507SOL     OW 9720   5.103   6.424   0.440  0.6287  0.2768  0.2455
 2507SOL    HW1 9721   5.011   6.413   0.415  0.7811  0.4642 -0.4131
 2507SOL    HW2 9722   5.121   6.349   0.498 -0.4420  1.2357  1.8926
 2508SOL     OW 9723   8.580   8.398   2.733  0.1264 -0.2727 -0.3454
 2508SOL    HW1 9724   8.608   8.307   2.723  3.2369  0.4997  0.3284
 2508SOL    HW2 9725   8.562   8.427   2.644 -0.7112 -1.4623 -0.5921
 2509SOL     OW 9726   2.569   0.864   6.136 -0.1254 -0.8448  0.4283
 2509SOL    HW1 9727   2.557   0.946   6.088 -1.6172  0.4737  2.8650
 2509SOL    HW2 9728   2.664   0.856   6.146  0.1719 -0.6190 -1.6677
 2510SOL     OW 9729   4.882   1.169   0.653  0.4503 -0.5132 -0.7044
 2510SOL    HW1 9730   4.813   1.234   0.665  2.0850  1.2499 -0.4147
 2510SOL    HW2 9731   4.890   1.160   0.558  0.7852  0.3721 -0.7706
 2511SOL     OW 9732   1.284   7.450   8.989 -0.0726  0.1629 -0.8641
 2511SOL    HW1 9733   1.215   7.469   9.052 -1.6122 -0.0757 -2.4316
 2511SOL    HW2 9734   1.282   7.355   8.979  0.4953  0.1521 -0.9436
 2512SOL     OW 9735   8.151   6.842   4.050  0.6494  0.0938 -0.1861
 2512SOL    HW1 9736   8.215   6.788   4.003  0.5444 -0.6416  0.4846
 2512SOL    HW2 9737   8.181   6.932   4.037  2.1545 -0.2661  0.5965
 2513SOL     OW 9738   5.040   7.264   9.191  0.6144 -0.2830  0.0800
 2513SOL    HW1 9739   4.973   7.322   9.153  0.8400 -0.4418 -0.5663
 2513SOL    HW2 9740   5.122   7.291   9.148  0.6260 -1.4771 -0.6794
 2514SOL     OW 9741   4.343   9.055   4.156 -0.1674 -0.6058 -0.5078
 2514SOL    HW1 9742   4.331   9.145   4.125 -0.9647 -0.6937 -0.4710
 2514SOL    HW2 9743   4.259   9.012   4.139  0.0635 -1.2259 -0.1207
 2515SOL     OW 9744   0.182   3.530   2.138 -0.6927 -0.5362  0.0087
 2515SOL    HW1 9745   0.157   3.583   2.063 -2.4661  1.2174  1.7427
 2515SOL    HW2 9746   0.278   3.530   2.136 -0.6584 -1.2598 -2.6511
 2516SOL     OW 9747   0.981   5.588   8.484 -0.0312  0.3485  0.2021
 2516SOL    HW1 9748   0.939   5.543   8.557 -0.6424 -0.2181 -0.4759
 2516SOL    HW2 9749   0.974   5.681   8.504 -1.8134  0.2818  0.0099
 2517SOL     OW 9750   1.535   2.776   1.247 -0.0904  0.3240 -0.0681
 2517SOL    HW1 9751   1.558   2.683   1.245  1.8287  0.7460  0.4330
 2517SOL    HW2 9752   1.502   2.791   1.336 -2.2051 -0.2299 -0.7096
 2518SOL     OW 9753   4.530   1.930   4.114  0.0172 -0.4758 -0.1883
 2518SOL    HW1 9754   4.597   1.934   4.182 -0.3274 -1.7071  0.2508
 2518SOL    HW2 9755   4.461   1.875   4.151 -1.1793  0.6257 -0.6918
 2519SOL     OW 9756   9.001   5.866   4.781  0.3024 -0.0377 -0.0897
 2519SOL    HW1 9757   8.906   5.862   4.768  0.5164  0.5725 -2.1252
 2519SOL    HW2 9758   9.021   5.789   4.834 -1.5387  0.7835  1.9561
 2520SOL     OW 9759   2.024   8.434   4.643 -0.4975 -0.1501 -0.3351
 2520SOL    HW1 9760   1.952   8.431   4.707 -1.3746  0.5265 -1.2503
 2520SOL    HW2 9761   1.985   8.476   4.566  0.1027 -2.2497 -1.8612
 2521SOL     OW 9762   0.019   6.099   5.971 -1.0593  0.0536  0.5554
 2521SOL    HW1 9763   0.031   6.184   5.927  0.9523 -1.0001 -1.0848
 2521SOL    HW2 9764  -0.036   6.049   5.910 -0.8587 -0.3755  0.7269
 2522SOL     OW 9765   0.795   1.403   3.921  0.2186 -0.5345  0.3675
 2522SOL    HW1 9766   0.780   1.352   4.001  1.7068 -1.4436  0.1150
 2522SOL    HW2 9767   0.886   1.433   3.929 -0.4919  1.8207  0.3216
 2523SOL     OW 9768   2.506   3.175   5.031 -0.3868  1.1118  0.4719
 2523SOL    HW1 9769   2.594   3.185   4.995 -0.3876  0.3677  0.2332
 2523SOL    HW2 9770   2.520   3.135   5.117 -0.5307 -0.2026 -0.0838
 2524SOL     OW 9771   0.724   2.141   0.699 -0.2370 -0.6651  0.3933
 2524SOL    HW1 9772   0.641   2.128   0.743 -0.3566  1.0707  0.7476
 2524SOL    HW2 9773   0.751   2.230   0.724  1.7804 -1.2203  0.4024
 2525SOL     OW 9774   1.523   2.682   8.294  0.4578 -0.0419  0.0670
 2525SOL    HW1 9775   1.591   2.738   8.331  0.8196 -0.6385  0.3145
 2525SOL    HW2 9776   1.560   2.594   8.296 -1.4698 -0.9336  3.1512
 2526SOL     OW 9777   3.926   3.755   6.404  0.2392  0.0460  0.3397
 2526SOL    HW1 9778   3.988   3.714   6.465 -0.4959 -0.1447  0.9744
 2526SOL    HW2 9779   3.883   3.682   6.360  0.1145  0.1685  0.2566
 2527SOL     OW 9780   2.328   3.185   2.643  0.1790 -0.0578 -0.3093
 2527SOL    HW1 9781   2.296   3.270   2.613  0.7077  0.1144 -0.3897
 2527SOL    HW2 9782   2.352   3.199   2.735 -0.5739 -0.3511 -0.0612
 2528SOL     OW 9783   4.528   2.140   3.119 -0.4563 -0.1303  0.2303
 2528SOL    HW1 9784   4.542   2.051   3.087  1.1020 -0.0097  0.5195
 2528SOL    HW2 9785   4.615   2.179   3.123 -0.9627  0.9776  1.4078
 2529SOL     OW 9786   5.156   2.829   8.295  0.2326 -0.1052 -0.2766
 2529SOL    HW1 9787   5.246   2.798   8.289  0.8969  1.1103  2.3536
 2529SOL    HW2 9788   5.107   2.755   8.333  0.2874 -0.4303 -0.8267
 2530SOL     OW 9789   3.660   9.391   8.290  0.1128  0.2097  0.1820
 2530SOL    HW1 9790   3.600   9.332   8.335  0.0085  0.3729  0.2615
 2530SOL    HW2 9791   3.728   9.335   8.254  0.6699  0.1427  1.2794
 2531SOL     OW 9792   9.167   3.053   6.737  0.0072 -0.6013 -0.1217
 2531SOL    HW1 9793   9.254   3.054   6.776  0.2693  2.4377 -0.5578
 2531SOL    HW2 9794   9.182   3.076   6.645 -1.1244 -2.1110 -0.7407
 2532SOL     OW 9795   5.539   7.292   0.124  0.2529 -0.0384 -0.0687
 2532SOL    HW1 9796   5.503   7.254   0.205  0.5997 -0.0016  0.1034
 2532SOL    HW2 9797   5.481   7.365   0.105  0.9475  0.7993  0.9007
 2533SOL     OW 9798   7.754   1.082   8.195  0.6196  0.0470 -0.0238
 2533SOL    HW1 9799   7.673   1.064   8.244  0.6031  0.1476 -0.0139
 2533SOL    HW2 9800   7.821   1.094   8.262  0.5604  0.3624 -0.0199
 2534SOL     OW 9801   3.938   3.862   4.056 -0.7851  0.8397  0.2902
 2534SOL    HW1 9802   4.009   3.922   4.032 -0.4565  0.2071 -0.3920
 2534SOL    HW2 9803   3.902   3.898   4.136 -0.1481  1.5678  0.2660
 2535SOL     OW 9804   3.575   1.139   6.566  0.6642 -0.4035  0.3386
 2535SOL    HW1 9805   3.637   1.120   6.636  1.0083 -0.4643  0.0188
 2535SOL    HW2 9806   3.598   1.078   6.496 -0.6217 -1.3895  0.7109
 2536SOL     OW 9807   8.669   4.265   7.071 -0.3864  0.2806 -0.0806
 2536SOL    HW1 9808   8.606   4.193   7.066 -0.8263  0.6992 -0.7775
 2536SOL    HW2 9809   8.743   4.235   7.018 -0.7613  0.5188 -0.7519
 2537SOL     OW 9810   6.352   1.784   1.914  0.0058 -0.5519  0.3973
 2537SOL    HW1 9811   6.366   1.774   2.008 -0.8199 -0.2121  0.5672
 2537SOL    HW2 9812   6.430   1.745   1.874 -0.4454 -2.3739  1.1760
 2538SOL     OW 9813   4.238   1.624   0.033 -0.0739 -0.2700  0.2389
 2538SOL    HW1 9814   4.254   1.543  -0.016  0.3585  0.3920 -0.7414
 2538SOL    HW2 9815   4.280   1.692  -0.020 -0.7100  0.6386  0.8924
 2539SOL     OW 9816   4.110   7.540   1.533  0.3406 -0.2154 -0.1491
 2539SOL    HW1 9817   4.111   7.445   1.541  1.2223 -0.1077  1.5587
 2539SOL    HW2 9818   4.182   7.569   1.590  0.0774  1.4703 -0.6250
 2540SOL     OW 9819   7.557   3.922   2.905 -0.2837 -0.1899  0.1358
 2540SOL    HW1 9820   7.552   3.827   2.900 -0.6042 -0.1960  0.4945
 2540SOL    HW2 9821   7.651   3.941   2.904 -0.0289 -0.7218  3.3568
 2541SOL     OW 9822   0.536   4.897   4.426 -0.1579  0.0085  0.2360
 2541SOL    HW1 9823   0.511   4.858   4.342 -0.6909  2.8759 -1.0605
 2541SOL    HW2 9824   0.454   4.902   4.475  0.1064 -1.4062  0.8913
 2542SOL     OW 9825   3.914   5.859   8.960 -0.2519  0.3818  0.2288
 2542SOL    HW1 9826   3.835   5.908   8.939 -0.3681 -0.3991 -1.2157
 2542SOL    HW2 9827   3.932   5.806   8.883 -0.0505 -1.7914  1.6967
 2543SOL     OW 9828   8.891   5.265   4.320  0.4383  0.2081 -0.8405
 2543SOL    HW1 9829   8.863   5.297   4.234 -0.8295 -0.1486 -0.5786
 2543SOL    HW2 9830   8.969   5.316   4.339  0.4886  0.6149 -2.0059
 2544SOL     OW 9831   8.685   7.425   2.842  0.0160 -0.2457  0.2452
 2544SOL    HW1 9832   8.734   7.507   2.842 -0.0394 -0.2043  0.9623
 2544SOL    HW2 9833   8.626   7.433   2.767  1.4405 -0.5203 -0.9522
 2545SOL     OW 9834   1.112   0.842   0.900  0.2209  0.2692 -0.2871
 2545SOL    HW1 9835   1.051   0.833   0.973  2.8953 -2.1256  1.8858
 2545SOL    HW2 9836   1.088   0.772   0.839 -0.3612  0.5873 -0.4344
 2546SOL     OW 9837   6.188   2.560   7.319  0.3840  0.4156 -0.0043
 2546SOL    HW1 9838   6.212   2.639   7.367 -0.5511  0.5526  0.2473
 2546SOL    HW2 9839   6.168   2.590   7.231  0.5284  0.3840 -0.0488
 2547SOL     OW 9840   3.013   9.362   4.694 -0.2539  0.8021 -0.6795
 2547SOL    HW1 9841   2.964   9.381   4.773 -2.6292  0.3202 -1.9342
 2547SOL    HW2 9842   2.964   9.405   4.624  0.6238 -0.4383 -2.1229
 2548SOL     OW 9843   5.030   2.216   6.500 -0.3818  0.2716  0.3487
 2548SOL    HW1 9844   5.014   2.124   6.479  1.6850  0.2915 -1.8091
 2548SOL    HW2 9845   4.949   2.261   6.478 -0.1912 -0.5645 -2.6091
 2549SOL     OW 9846   6.518   7.675   0.181  0.1032  0.7020 -0.0131
 2549SOL    HW1 9847   6.493   7.645   0.094 -0.8666  3.9080 -0.9990
 2549SOL    HW2 9848   6.597   7.625   0.202 -1.7533 -2.9024 -0.9746
 2550SOL     OW 9849   5.443   3.843   6.999  0.0504  0.1940 -0.0522
 2550SOL    HW1 9850   5.522   3.897   7.012  1.0235 -1.7000  3.0516
 2550SOL    HW2 9851   5.382   3.874   7.066 -0.3795 -0.7730  0.0120
 2551SOL     OW 9852   9.534   8.058   8.916  0.4625 -0.4085 -0.0790
 2551SOL    HW1 9853   9.526   8.153   8.913  0.1568 -0.3884  1.0093
 2551SOL    HW2 9854   9.603   8.041   8.980 -0.3114 -0.9314  0.6530
 2552SOL     OW 9855   2.946   4.666   4.785  0.1530 -0.0941 -0.1561
 2552SOL    HW1 9856   2.917   4.583   4.823 -0.5425  0.4963  0.6747
 2552SOL    HW2 9857   2.888   4.680   4.710  0.3306 -0.4002 -0.3514
 2553SOL     OW 9858   6.544   6.886   8.940  0.6638  0.0071 -0.3732
 2553SOL    HW1 9859   6.464   6.935   8.957 -1.2081 -2.4486 -1.5149
 2553SOL    HW2 9860   6.578   6.864   9.027 -0.5722  0.0591  0.1382
 2554SOL     OW 9861   8.311   1.689   7.324  0.0486  0.2408  0.0252
 2554SOL    HW1 9862   8.334   1.747   7.397 -0.2371 -0.7078  0.8862
 2554SOL    HW2 9863   8.247   1.628   7.360 -0.1517 -0.2140 -1.0415
 2555SOL     OW 9864   1.644   7.743   9.167  0.0276  0.3583 -0.0872
 2555SOL    HW1 9865   1.705   7.815   9.151  2.6254 -1.4857  0.9656
 2555SOL    HW2 9866   1.630   7.703   9.081  1.2761  0.0844 -0.1723
 2556SOL     OW 9867   3.539   8.986   7.698 -0.7002  0.7292 -0.1925
 2556SOL    HW1 9868   3.446   8.999   7.678 -0.5554  3.0091  0.4009
 2556SOL    HW2 9869   3.561   8.904   7.654 -3.2836 -0.5762  0.7211
 2557SOL     OW 9870   1.181   3.402   1.627  0.4215 -0.0873  0.2210
 2557SOL    HW1 9871   1.097   3.404   1.673 -0.1217 -0.5094 -0.7248
 2557SOL    HW2 9872   1.158   3.392   1.535  1.5059  0.1110 -0.0904
 2558SOL     OW 9873   0.338   2.771   3.375 -0.0359  0.6890 -0.0268
 2558SOL    HW1 9874   0.305   2.712   3.443 -0.3083 -0.2776 -0.9637
 2558SOL    HW2 9875   0.292   2.744   3.296 -0.3969  2.3863 -0.4260
 2559SOL     OW 9876   8.928   6.784   0.967 -0.5244 -0.2831  0.5184
 2559SOL    HW1 9877   8.982   6.728   0.912 -0.4219 -1.1476  1.4679
 2559SOL    HW2 9878   8.848   6.734   0.983 -0.0997 -0.5341  2.0373
 2560SOL     OW 9879   3.821   5.817   2.815 -0.1507  0.4235 -0.1433
 2560SOL    HW1 9880   3.757   5.792   2.882  1.0158 -0.2999  0.7277
 2560SOL    HW2 9881   3.799   5.762   2.740 -1.2966  1.0465 -0.2962
 2561SOL     OW 9882   6.701   4.720   2.271  0.4995  0.2901  0.0405
 2561SOL    HW1 9883   6.793   4.721   2.296  0.5423  1.9215 -0.0948
 2561SOL    HW2 9884   6.654   4.707   2.354  0.8430 -1.2049  0.0297
 2562SOL     OW 9885   3.659   8.366   8.828  0.1849  0.1238  0.1353
 2562SOL    HW1 9886   3.642   8.281   8.787  0.4550  0.1547 -0.0508
 2562SOL    HW2 9887   3.619   8.360   8.914 -0.4586  0.0845 -0.1644
 2563SOL     OW 9888   1.583   9.300   1.025  0.2842 -0.3219  0.5557
 2563SOL    HW1 9889   1.667   9.284   1.068 -0.7037  0.8584  3.1896
 2563SOL    HW2 9890   1.521   9.244   1.074 -0.4000 -1.9872 -1.9934
 2564SOL     OW 9891   3.421   4.364   3.255  0.0099  0.1718 -0.3918
 2564SOL    HW1 9892   3.476   4.439   3.231  1.6744 -1.5889 -2.4654
 2564SOL    HW2 9893   3.450   4.341   3.343 -0.1885  1.6365  0.0820
 2565SOL     OW 9894   0.230   0.400   2.181  0.1019  0.2979 -0.0907
 2565SOL    HW1 9895   0.162   0.462   2.155 -0.5311 -0.4854 -0.3085
 2565SOL    HW2 9896   0.231   0.404   2.277  2.5180  3.2768 -0.0796
 2566SOL     OW 9897   9.131   3.155   0.032 -0.1681  0.3513 -0.0040
 2566SOL    HW1 9898   9.150   3.227  -0.027 -0.9347 -0.0469 -0.7673
 2566SOL    HW2 9899   9.035   3.151   0.035 -0.1700 -1.3451 -0.8980
 2567SOL     OW 9900   4.563   5.661   4.205 -0.1040  0.7918  0.0562
 2567SOL    HW1 9901   4.645   5.611   4.206  0.4884  1.7207  1.6088
 2567SOL    HW2 9902   4.592   5.752   4.202 -1.1107  1.1085 -0.1538
 2568SOL     OW 9903   1.414   5.044   1.776  0.2744  0.3494 -0.0231
 2568SOL    HW1 9904   1.379   5.131   1.756 -0.5316  0.2624  0.9449
 2568SOL    HW2 9905   1.339   4.995   1.810  0.9432 -0.4003  0.4116
 2569SOL     OW 9906   2.832   2.525   0.164  0.1242 -0.2936 -0.9569
 2569SOL    HW1 9907   2.870   2.437   0.161  0.0542 -0.3756  0.2337
 2569SOL    HW2 9908   2.743   2.513   0.131  0.4090 -0.4970 -1.6675
 2570SOL     OW 9909   6.110   4.880   8.731 -0.0621  0.5487  0.3761
 2570SOL    HW1 9910   6.198   4.886   8.696  0.1071  2.5171  1.0408
 2570SOL    HW2 9911   6.067   4.961   8.705 -2.1415 -0.9086 -1.0438
 2571SOL     OW 9912   5.733   1.959   5.090 -0.1546 -0.1162  0.0494
 2571SOL    HW1 9913   5.775   1.884   5.131 -0.6698 -0.2698  0.3125
 2571SOL    HW2 9914   5.790   1.982   5.017 -0.2260 -1.0476 -0.3175
 2572SOL     OW 9915   1.342   3.008   2.259 -0.1406 -0.1611 -0.7029
 2572SOL    HW1 9916   1.294   2.995   2.177 -1.5549 -2.4279  0.4016
 2572SOL    HW2 9917   1.281   3.057   2.314 -0.3769 -1.1888 -0.0307
 2573SOL     OW 9918   9.500   4.715   8.324 -0.0814  0.0323 -0.0509
 2573SOL    HW1 9919   9.582   4.720   8.275 -0.0064 -2.2596 -0.2579
 2573SOL    HW2 9920   9.459   4.800   8.310  0.9597  0.2384 -2.3049
 2574SOL     OW 9921   7.157   3.702   8.120  0.3813 -0.2183  0.1189
 2574SOL    HW1 9922   7.168   3.766   8.189  2.7385  2.3203 -2.3874
 2574SOL    HW2 9923   7.244   3.664   8.107 -0.1552 -1.1658 -0.9424
 2575SOL     OW 9924   6.003   5.659   4.300 -0.1944  0.8557 -0.0085
 2575SOL    HW1 9925   5.970   5.737   4.255 -1.0811  0.0686 -0.7361
 2575SOL    HW2 9926   6.076   5.692   4.354  0.8618  1.8284 -1.9430
 2576SOL     OW 9927   3.207   7.291   4.271 -0.0662 -0.3800 -0.3760
 2576SOL    HW1 9928   3.283   7.347   4.253 -0.0008 -0.2764  0.2060
 2576SOL    HW2 9929   3.170   7.273   4.184  1.4283 -1.6007 -0.8019
 2577SOL     OW 9930   4.794   1.589   6.539  0.2009  0.2095 -0.0927
 2577SOL    HW1 9931   4.752   1.536   6.606  1.0824  0.8010  0.9639
 2577SOL    HW2 9932   4.877   1.545   6.523  0.5426  0.7673  0.1328
 2578SOL     OW 9933   6.507   4.526   4.049  0.4111  0.1243  0.0598
 2578SOL    HW1 9934   6.502   4.507   4.143  1.5505 -1.7438 -0.1913
 2578SOL    HW2 9935   6.596   4.560   4.036  0.0635  0.9174 -0.2589
 2579SOL     OW 9936   5.426   4.694   2.224 -0.3379  0.5027  0.1615
 2579SOL    HW1 9937   5.353   4.687   2.285  0.4878 -1.4916  1.0266
 2579SOL    HW2 9938   5.497   4.645   2.266  0.7200  0.2741 -1.7560
 2580SOL     OW 9939   0.435   7.539   4.483 -0.1065 -0.2028 -0.4847
 2580SOL    HW1 9940   0.520   7.520   4.445  0.5019  0.5073  0.4720
 2580SOL    HW2 9941   0.377   7.552   4.408  0.4168 -1.5350 -1.1475
 2581SOL     OW 9942   3.699   5.205   1.526  0.3981 -0.9283 -0.0355
 2581SOL    HW1 9943   3.697   5.124   1.476 -0.3870 -0.9422  0.0017
 2581SOL    HW2 9944   3.643   5.265   1.477 -0.0860 -0.8290  0.6216
 2582SOL     OW 9945   7.055   8.380   7.918  0.4384 -0.0373 -0.0337
 2582SOL    HW1 9946   7.056   8.326   7.839  2.1175  0.0639 -0.1189
 2582SOL    HW2 9947   6.962   8.400   7.933 -0.1045 -1.9111 -0.6905
 2583SOL     OW 9948   9.343   6.011   1.740  0.0752  0.3619 -0.0606
 2583SOL    HW1 9949   9.374   5.936   1.689  0.2206 -0.0038  0.5539
 2583SOL    HW2 9950   9.383   6.087   1.697  3.5713 -0.1826  1.8025
 2584SOL     OW 9951   3.559   6.874   3.609 -1.0255 -0.1851  0.0446
 2584SOL    HW1 9952   3.637   6.930   3.606  0.6383 -2.3471 -0.1510
 2584SOL    HW2 9953   3.520   6.882   3.522  0.3424 -0.8155 -0.6617
 2585SOL     OW 9954   5.603   4.762   7.321 -0.5000 -0.3934  0.3891
 2585SOL    HW1 9955   5.648   4.840   7.290 -0.5886 -0.8547 -0.9706
 2585SOL    HW2 9956   5.537   4.794   7.383  0.5873  0.4315  1.1431
 2586SOL     OW 9957   6.362   0.467   7.439  0.3455  0.2567 -0.5375
 2586SOL    HW1 9958   6.360   0.402   7.509 -0.3371 -1.9000 -2.4371
 2586SOL    HW2 9959   6.328   0.547   7.479 -2.2341 -1.4915  1.0582
 2587SOL     OW 9960   3.874   4.545   7.416 -0.4413  0.2101  0.8438
 2587SOL    HW1 9961   3.806   4.485   7.444 -0.0352  0.2581  1.9672
 2587SOL    HW2 9962   3.955   4.496   7.425 -0.2710  0.2871 -0.1047
 2588SOL     OW 9963   1.256   9.076   6.992  0.3437 -0.4944  0.3341
 2588SOL    HW1 9964   1.252   8.981   6.998  1.7512 -0.5071  2.5246
 2588SOL    HW2 9965   1.165   9.105   7.001  0.1451 -1.6004  2.9479
 2589SOL     OW 9966   2.359   6.367   1.269 -0.0134 -0.9371 -0.1129
 2589SOL    HW1 9967   2.375   6.452   1.228  1.8831 -0.8518  0.7159
 2589SOL    HW2 9968   2.305   6.320   1.205 -0.1089  0.4456 -1.1063
 2590SOL     OW 9969   2.582   4.117   6.256  0.5452 -0.6935 -0.2015
 2590SOL    HW1 9970   2.578   4.047   6.321 -0.0721 -0.0850  0.4358
 2590SOL    HW2 9971   2.513   4.178   6.283  0.0818 -0.5733 -1.5989
 2591SOL     OW 9972   4.587   1.620   5.729 -0.1255  0.4293  0.1591
 2591SOL    HW1 9973   4.559   1.601   5.639 -2.3478 -2.8835  1.3452
 2591SOL    HW2 9974   4.520   1.679   5.763 -0.5390 -0.0915  0.2620
 2592SOL     OW 9975   1.177   6.126   1.175  0.1780 -0.1384  0.2319
 2592SOL    HW1 9976   1.138   6.133   1.262  2.1698  0.0862  1.1410
 2592SOL    HW2 9977   1.258   6.077   1.189  1.8447  2.1262 -1.0524
 2593SOL     OW 9978   9.385   1.141   7.556  0.5278 -0.6206  0.1379
 2593SOL    HW1 9979   9.446   1.208   7.525 -1.1741  0.5786 -0.7734
 2593SOL    HW2 9980   9.439   1.082   7.607  2.0760  1.5934  1.2257
 2594SOL     OW 9981   4.358   7.130   6.013  0.8917 -0.0637 -0.0585
 2594SOL    HW1 9982   4.433   7.155   6.066  1.8711 -2.4557 -0.1960
 2594SOL    HW2 9983   4.332   7.044   6.046 -0.0495 -0.5068 -1.8065
 2595SOL     OW 9984   2.051   3.981   6.208 -0.4165 -0.4269  0.2731
 2595SOL    HW1 9985   2.137   4.023   6.212 -0.8936  0.4622  2.3199
 2595SOL    HW2 9986   1.993   4.048   6.175 -0.3821 -0.9699 -0.9263
 2596SOL     OW 9987   7.747   9.173   7.495 -0.0046  0.2150 -0.0053
 2596SOL    HW1 9988   7.659   9.209   7.505 -0.3986 -0.0370 -2.0637
 2596SOL    HW2 9989   7.802   9.250   7.476  0.2434  0.3701  1.2595
 2597SOL     OW 9990   7.877   9.545   3.421 -0.1448  0.2506  0.1422
 2597SOL    HW1 9991   7.914   9.589   3.498 -0.2634  0.7829 -0.0958
 2597SOL    HW2 9992   7.949   9.546   3.357  0.3050 -1.1527  0.6056
 2598SOL     OW 9993   2.150   5.769   8.477 -0.0207  0.6806 -0.2373
 2598SOL    HW1 9994   2.237   5.808   8.479 -0.3725  1.5123 -0.4125
 2598SOL    HW2 9995   2.132   5.752   8.385  0.4379 -0.6621 -0.1039
 2599SOL     OW 9996   6.974   2.907   1.261  0.4758 -0.0923 -0.4387
 2599SOL    HW1 9997   7.041   2.845   1.231  0.1694 -0.3511 -0.5964
 2599SOL    HW2 9998   6.938   2.867   1.341  2.1967  1.2149  1.0717
 2600SOL     OW 9999   0.526   8.374   6.084 -0.0553  0.7208  0.0913
 2600SOL    HW110000   0.554   8.464   6.071 -3.4224  1.7128 -1.5400
 2600SOL    HW210001   0.431   8.381   6.098 -0.3431 -2.5277  0.4483
 2601SOL     OW10002   2.778   2.064   0.752  0.4109 -0.0669  0.1112
 2601SOL    HW110003   2.804   2.083   0.662  2.4504 -0.1947  0.6192
 2601SOL    HW210004   2.825   1.984   0.775  0.4148  0.2853  1.4680
 2602SOL     OW10005   7.544   6.721   5.850  0.4902  0.2215  0.1774
 2602SOL    HW110006   7.586   6.777   5.785  1.4328 -1.7326 -0.9936
 2602SOL    HW210007   7.612   6.658   5.875 -1.0615 -1.6413 -0.0699
 2603SOL     OW10008   7.006   0.415   2.229 -0.2936 -0.2779  0.5656
 2603SOL    HW110009   7.091   0.458   2.237 -0.1264  0.0779 -2.0268
 2603SOL    HW210010   6.943   0.475   2.268  0.5883 -0.4713  2.3585
 2604SOL     OW10011   7.654   6.480   9.502  0.5505 -0.3199 -0.3302
 2604SOL    HW110012   7.673   6.562   9.457 -0.6696  0.7980  1.1140
 2604SOL    HW210013   7.563   6.460   9.480 -0.3038  0.6015  2.0315
 2605SOL     OW10014   2.104   8.671   1.106  0.2616 -0.3579  0.3941
 2605SOL    HW110015   2.045   8.597   1.089  1.0138 -0.9926  0.5048
 2605SOL    HW210016   2.045   8.741   1.133 -0.4842 -0.8683  0.1528
 2606SOL     OW10017   6.089   5.252   0.574  0.2073 -0.1123 -0.0479
 2606SOL    HW110018   6.077   5.304   0.494 -0.3461 -1.0018 -0.5526
 2606SOL    HW210019   6.160   5.296   0.620  0.6348  0.3367 -1.1004
 2607SOL     OW10020   3.720   0.413   1.687 -0.4716 -0.9378 -0.3756
 2607SOL    HW110021   3.695   0.331   1.730 -0.8795 -0.5169  0.1867
 2607SOL    HW210022   3.814   0.402   1.670 -0.0018 -0.6482  1.7001
 2608SOL     OW10023   2.560   6.222   5.644 -0.1657 -0.4058  0.5434
 2608SOL    HW110024   2.646   6.191   5.617  0.1334  0.7487  0.0828
 2608SOL    HW210025   2.509   6.143   5.660  1.1632 -1.1178  1.4428
 2609SOL     OW10026   0.058   6.122   3.784 -0.1210 -0.2379  0.5691
 2609SOL    HW110027   0.034   6.182   3.713  1.1340  1.7554  1.7078
 2609SOL    HW210028   0.153   6.132   3.792  0.0128 -1.8309  1.3206
 2610SOL     OW10029   3.413   3.445   9.179  0.1759 -0.1524 -0.2745
 2610SOL    HW110030   3.341   3.429   9.118 -1.5804  2.1048  1.0406
 2610SOL    HW210031   3.487   3.467   9.123 -1.8737  3.8831 -1.8436
 2611SOL     OW10032   8.838   0.747   3.915  0.2424 -0.0087 -0.1549
 2611SOL    HW110033   8.897   0.775   3.986 -0.9340 -0.6027  1.1071
 2611SOL    HW210034   8.840   0.652   3.919 -2.4164 -0.0929  1.3910
 2612SOL     OW10035   8.017   9.287   1.869 -0.3096 -0.6547  0.1569
 2612SOL    HW110036   8.036   9.250   1.955  0.5146 -1.7158 -0.4673
 2612SOL    HW210037   8.101   9.323   1.839 -0.8286  0.7111  0.2447
 2613SOL     OW10038   5.654   5.956   2.311 -0.6321 -0.4554 -0.0689
 2613SOL    HW110039   5.681   5.867   2.332 -0.8906 -0.2013  1.4892
 2613SOL    HW210040   5.560   5.950   2.296 -0.5144 -0.5697 -0.7878
 2614SOL     OW10041   8.307   6.999   5.538  0.4278 -0.2023  0.4819
 2614SOL    HW110042   8.272   6.995   5.449  0.5378 -0.0205  0.4280
 2614SOL    HW210043   8.234   6.976   5.594 -0.0628  1.1045  0.4261
 2615SOL     OW10044   0.127   8.163   7.680 -0.4721  0.0968 -0.0778
 2615SOL    HW110045   0.087   8.194   7.599  0.7661 -0.3776 -0.8980
 2615SOL    HW210046   0.167   8.242   7.718  0.5193  0.0095 -0.8885
 2616SOL     OW10047   5.520   0.081   5.997  0.2122  0.1463  0.1297
 2616SOL    HW110048   5.509   0.049   6.086  0.2883  1.4240  0.6182
 2616SOL    HW210049   5.614   0.073   5.980  0.0699 -1.0250 -0.2253
 2617SOL     OW10050   3.087   3.153   5.072  0.2960  0.1648 -0.4591
 2617SOL    HW110051   3.019   3.204   5.114 -0.2743 -1.1468  0.2710
 2617SOL    HW210052   3.074   3.169   4.978 -0.3414  0.7425 -0.2805
 2618SOL     OW10053   3.676   8.700   0.264  0.7920  0.2173  0.4377
 2618SOL    HW110054   3.661   8.605   0.265 -0.5086  0.4046  1.0729
 2618SOL    HW210055   3.701   8.721   0.355 -0.3092  0.6645  0.6519
 2619SOL     OW10056   5.569   6.757   7.323  0.1327  0.3429  0.4707
 2619SOL    HW110057   5.494   6.810   7.295 -0.4144 -0.2805  0.7269
 2619SOL    HW210058   5.535   6.702   7.393  0.2944 -1.3491 -0.7027
 2620SOL     OW10059   6.997   6.674   2.652  0.7090  0.0143 -0.3055
 2620SOL    HW110060   6.948   6.756   2.661 -0.3844 -0.5575 -0.8063
 2620SOL    HW210061   7.028   6.674   2.562 -0.3040 -0.6316 -0.6810
 2621SOL     OW10062   5.319   8.048   6.301 -0.3009 -0.2676  0.2544
 2621SOL    HW110063   5.392   8.076   6.245 -0.1753  1.1839  1.0965
 2621SOL    HW210064   5.353   8.055   6.390 -0.5811 -2.3279  0.5725
 2622SOL     OW10065   0.763   3.683   7.317 -0.1614  0.1727 -0.3600
 2622SOL    HW110066   0.784   3.764   7.364  1.5628  0.7170 -1.9279
 2622SOL    HW210067   0.790   3.700   7.227 -2.3650 -1.1975 -1.3487
 2623SOL     OW10068   2.567   5.151   8.034 -0.1018 -0.7132  0.0085
 2623SOL    HW110069   2.638   5.215   8.037 -0.3225 -0.2027 -2.6309
 2623SOL    HW210070   2.602   5.080   7.979 -1.1424 -1.1215 -0.1405
 2624SOL     OW10071   8.074   7.436   5.607 -0.1835 -0.2152  0.6121
 2624SOL    HW110072   8.005   7.485   5.562 -0.5913 -0.9690  0.4065
 2624SOL    HW210073   8.149   7.439   5.547 -0.9323 -1.7840 -0.4567
 2625SOL     OW10074   2.313   4.996   5.751  0.0431  0.5150  0.3584
 2625SOL    HW110075   2.378   4.970   5.686  3.0206 -0.8216  3.5302
 2625SOL    HW210076   2.331   5.088   5.769 -0.6087  0.8118 -0.4542
 2626SOL     OW10077   3.642   9.541   5.702  0.4748 -0.2437  0.2283
 2626SOL    HW110078   3.678   9.498   5.779  1.0207 -0.1488  0.0267
 2626SOL    HW210079   3.713   9.541   5.638  0.0947 -0.1295 -0.2006
 2627SOL     OW10080   7.051   8.002   3.304 -0.5575 -0.7238  0.0057
 2627SOL    HW110081   7.003   8.044   3.376  1.6361 -0.2627  1.2926
 2627SOL    HW210082   7.044   7.908   3.324 -0.3326 -0.6231  0.6001
 2628SOL     OW10083   5.532   4.340   4.048 -0.2450  0.1880 -0.6271
 2628SOL    HW110084   5.524   4.284   3.970  2.1678 -0.9523 -0.1648
 2628SOL    HW210085   5.552   4.279   4.119  1.0231  1.4873  0.1896
 2629SOL     OW10086   2.736   8.451   6.063 -0.6375 -0.0910 -0.0743
 2629SOL    HW110087   2.682   8.381   6.100 -0.3253 -1.2604 -1.6792
 2629SOL    HW210088   2.674   8.507   6.017 -0.7634 -0.0424  0.1573
 2630SOL     OW10089   0.893   3.088   5.454  0.2523 -0.7223 -0.1057
 2630SOL    HW110090   0.805   3.081   5.416  0.5218  0.3438 -0.9868
 2630SOL    HW210091   0.890   3.168   5.506  0.2720 -1.4922  1.0914
 2631SOL     OW10092   4.173   0.767   5.854 -0.3154 -0.3941 -0.0865
 2631SOL    HW110093   4.133   0.837   5.803 -1.2372 -1.0658 -0.3163
 2631SOL    HW210094   4.181   0.803   5.943 -2.3555 -0.5439  0.2078
 2632SOL     OW10095   1.862   0.177   8.140  0.1066 -0.1390 -0.2025
 2632SOL    HW110096   1.895   0.228   8.213 -1.8374 -0.3730  0.8950
 2632SOL    HW210097   1.877   0.086   8.164  2.4121 -0.1977 -1.5941
 2633SOL     OW10098   8.142   9.507   9.214 -0.3817  0.5519 -0.0606
 2633SOL    HW110099   8.069   9.568   9.202  1.2174  2.3839 -1.0123
 2633SOL    HW210100   8.128   9.440   9.147 -1.9073  0.0768  0.6854
 2634SOL     OW10101   6.624   4.375   1.004 -0.7086  0.2382 -0.5166
 2634SOL    HW110102   6.668   4.422   0.933  0.5293  0.5398  0.4113
 2634SOL    HW210103   6.668   4.290   1.008  0.4491  0.8456  0.9586
 2635SOL     OW10104   9.214   3.364   9.101  0.0140 -0.4828  0.2814
 2635SOL    HW110105   9.151   3.366   9.029  1.8364 -1.1424 -1.4077
 2635SOL    HW210106   9.259   3.449   9.096 -0.5966 -0.0671  1.3975
 2636SOL     OW10107   2.552   6.906   2.889 -0.4792 -0.2313  0.0489
 2636SOL    HW110108   2.572   6.986   2.840 -0.4556  0.2757  0.8744
 2636SOL    HW210109   2.538   6.839   2.821 -1.1855  0.6244 -0.6607
 2637SOL     OW10110   1.396   6.020   6.186 -0.0010 -0.4036 -0.3075
 2637SOL    HW110111   1.305   6.048   6.192  0.3839  0.7021  0.7378
 2637SOL    HW210112   1.422   6.043   6.096 -0.7708 -0.8299 -0.6483
 2638SOL     OW10113   4.888   2.047   0.242  0.3645  0.7240  0.5781
 2638SOL    HW110114   4.884   2.126   0.295  0.7813 -0.6762  2.8229
 2638SOL    HW210115   4.981   2.026   0.237  0.5291  1.6751 -2.1818
 2639SOL     OW10116   1.560   1.298   5.721 -0.3993  0.1328 -0.1283
 2639SOL    HW110117   1.605   1.230   5.670 -1.2036 -0.3745 -0.1760
 2639SOL    HW210118   1.576   1.378   5.671  2.2896  0.4027  0.9714
 2640SOL     OW10119   7.114   5.455   8.431 -0.0322  0.2381 -0.4343
 2640SOL    HW110120   7.199   5.478   8.393  0.0723 -0.6614 -0.7704
 2640SOL    HW210121   7.136   5.411   8.514 -0.1267 -0.6476 -0.8667
 2641SOL     OW10122   6.100   7.073   8.596  0.1371  0.2448 -0.2121
 2641SOL    HW110123   6.051   7.012   8.650 -1.6014  2.3965  0.8069
 2641SOL    HW210124   6.049   7.080   8.516  0.5910  0.0204 -0.5247
 2642SOL     OW10125   8.758   6.966   4.913 -0.2858 -0.0692 -0.2541
 2642SOL    HW110126   8.726   6.974   4.823 -0.4273  0.1078 -0.1879
 2642SOL    HW210127   8.833   6.907   4.906  0.7798  1.2897 -0.7607
 2643SOL     OW10128   0.981   4.895   4.619 -0.2717  0.0318 -0.5231
 2643SOL    HW110129   0.903   4.929   4.574 -0.5926  1.5586  1.0967
 2643SOL    HW210130   1.051   4.954   4.593 -0.6299  1.4582  1.5460
 2644SOL     OW10131   2.244   6.113   4.662 -0.1522 -0.0375  0.6897
 2644SOL    HW110132   2.239   6.021   4.689  1.9566  0.0489  1.5971
 2644SOL    HW210133   2.215   6.162   4.738  1.2115  0.0964  1.1342
 2645SOL     OW10134   1.816   6.003   5.352  0.2745  0.4108  0.0599
 2645SOL    HW110135   1.818   6.096   5.373  2.9344  0.7255 -1.1589
 2645SOL    HW210136   1.768   5.998   5.269  0.5323  0.7622 -0.1106
 2646SOL     OW10137   3.707   5.229   5.148  0.0038  0.3882 -0.2940
 2646SOL    HW110138   3.664   5.157   5.195  1.4237  1.5745  3.0372
 2646SOL    HW210139   3.736   5.188   5.066 -1.5855 -2.1091  0.2514
 2647SOL     OW10140   4.579   3.634   6.382  0.0769  0.4329  0.1896
 2647SOL    HW110141   4.485   3.644   6.396 -0.0936  0.1535 -0.7004
 2647SOL    HW210142   4.594   3.539   6.383  0.2452  0.4494 -0.2326
 2648SOL     OW10143   7.414   5.446   4.194  0.0447  0.7321  0.0161
 2648SOL    HW110144   7.401   5.404   4.109 -0.8817  0.9644  0.0266
 2648SOL    HW210145   7.481   5.513   4.178 -1.9076  2.5287 -1.1926
 2649SOL     OW10146   5.762   7.141   9.180  0.0862 -0.1365  0.3296
 2649SOL    HW110147   5.737   7.194   9.256  0.4780  0.7831 -0.1568
 2649SOL    HW210148   5.701   7.167   9.111  0.6913  0.1734 -0.1023
 2650SOL     OW10149   5.192   6.665   0.479 -0.2428  0.2529  0.2605
 2650SOL    HW110150   5.278   6.680   0.442 -1.0925  1.4203 -1.3553
 2650SOL    HW210151   5.174   6.572   0.462  0.8867 -0.1517  1.1419
 2651SOL     OW10152   4.645   3.481   4.699  0.5422  0.5853 -0.2476
 2651SOL    HW110153   4.663   3.569   4.667 -0.9281  1.0076  0.0475
 2651SOL    HW210154   4.579   3.446   4.640  1.9723 -0.8221 -1.1130
 2652SOL     OW10155   2.595   2.559   2.175 -0.0321  0.6713 -0.6241
 2652SOL    HW110156   2.592   2.521   2.087  0.0341 -1.1244  0.1091
 2652SOL    HW210157   2.503   2.572   2.199 -0.1828 -1.2265 -0.0167
 2653SOL     OW10158   3.271   7.080   4.566  0.0515  0.7071  0.6845
 2653SOL    HW110159   3.194   7.099   4.511  0.5017  0.2891 -0.1122
 2653SOL    HW210160   3.339   7.137   4.531  0.4141  0.2519  0.6432
 2654SOL     OW10161   6.860   5.101   0.588  0.2105 -0.0887  0.1509
 2654SOL    HW110162   6.809   5.174   0.622 -0.0442 -1.2258  2.4448
 2654SOL    HW210163   6.864   5.039   0.661  1.4939 -1.8037 -1.2824
 2655SOL     OW10164   3.135   0.175   3.145 -0.2112 -0.0421  0.2672
 2655SOL    HW110165   3.169   0.182   3.055  2.4182 -1.9980  0.9720
 2655SOL    HW210166   3.177   0.246   3.192 -2.4642  1.6861 -0.1945
 2656SOL     OW10167   9.002   2.581   5.395  0.5157  0.5606 -0.2072
 2656SOL    HW110168   9.060   2.520   5.349 -0.3220 -1.2473  0.9921
 2656SOL    HW210169   8.943   2.524   5.445 -0.3919  2.3806  0.8941
 2657SOL     OW10170   2.286   6.025   8.507  0.0920 -0.1475 -0.1565
 2657SOL    HW110171   2.340   6.058   8.435 -1.0787  1.0166 -0.5480
 2657SOL    HW210172   2.196   6.037   8.476 -0.4156 -0.8141  0.9984
 2658SOL     OW10173   0.991   1.969   3.483  0.0265 -0.6432 -0.3267
 2658SOL    HW110174   0.952   1.885   3.510 -0.9655  0.4360  1.8354
 2658SOL    HW210175   0.915   2.023   3.459  0.4394  0.3954  0.6399
 2659SOL     OW10176   9.415   4.792   4.035 -0.6674  0.2664 -0.3513
 2659SOL    HW110177   9.346   4.822   4.094  0.0532  1.8881 -0.2827
 2659SOL    HW210178   9.496   4.807   4.083 -0.1235  0.7092 -1.3763
 2660SOL     OW10179   0.008   1.621   8.409  0.3780 -0.2118 -0.2124
 2660SOL    HW110180   0.086   1.571   8.431  1.0097 -0.4865 -2.7412
 2660SOL    HW210181  -0.065   1.564   8.433  1.0215 -1.0522 -0.2143
 2661SOL     OW10182   1.545   6.001   0.039  0.3119  0.1018 -0.6760
 2661SOL    HW110183   1.456   6.029   0.061  0.2771 -0.5744  0.0874
 2661SOL    HW210184   1.592   6.083   0.023 -0.0991  0.5462  0.2881
 2662SOL     OW10185   9.302   2.561   3.513 -0.2431 -0.4190 -0.6304
 2662SOL    HW110186   9.246   2.625   3.470  0.7884 -0.0448 -1.4453
 2662SOL    HW210187   9.241   2.500   3.555 -1.2599 -0.2701 -1.8631
 2663SOL     OW10188   7.254   7.505   7.489 -0.0482  0.4357  0.5357
 2663SOL    HW110189   7.347   7.524   7.478 -0.2457  1.1492  0.0417
 2663SOL    HW210190   7.228   7.460   7.409 -0.3864  1.2696  0.1719
 2664SOL     OW10191   6.098   5.580   7.947  0.4206  0.2442 -0.1745
 2664SOL    HW110192   6.086   5.512   7.880 -1.7587  1.4152 -1.0688
 2664SOL    HW210193   6.183   5.559   7.987  1.0076 -1.4932 -2.1316
 2665SOL     OW10194   9.193   1.780   0.131 -0.3043  0.0249 -0.0026
 2665SOL    HW110195   9.202   1.776   0.036 -0.5391 -0.8838  0.0054
 2665SOL    HW210196   9.260   1.842   0.159 -0.0059  0.0391 -0.7341
 2666SOL     OW10197   3.086   9.390   7.023  0.3675 -0.1473  0.7716
 2666SOL    HW110198   3.060   9.312   6.975 -0.3806  0.2122  0.5664
 2666SOL    HW210199   3.042   9.381   7.108 -1.9228  1.2497 -0.1494
 2667SOL     OW10200   7.997   9.117   6.121  0.4439 -0.0889  0.4648
 2667SOL    HW110201   7.965   9.162   6.043  0.5580 -2.1029 -0.8000
 2667SOL    HW210202   7.929   9.131   6.187 -0.6033 -0.0341 -0.6083
 2668SOL     OW10203   0.266   4.492   8.729 -0.2561  0.5849 -0.1303
 2668SOL    HW110204   0.326   4.559   8.698 -0.5898  1.1334  0.3832
 2668SOL    HW210205   0.307   4.409   8.705 -0.4854  0.9708 -1.9853
 2669SOL     OW10206   2.823   1.341   5.843  0.3411  0.1487 -0.3075
 2669SOL    HW110207   2.913   1.312   5.858  0.7057  1.2089 -0.4074
 2669SOL    HW210208   2.831   1.433   5.819 -0.8176  0.4301  0.3020
 2670SOL     OW10209   7.849   5.451   5.105  0.3742 -0.1264  0.3839
 2670SOL    HW110210   7.848   5.500   5.187 -1.0323 -0.3416  0.5159
 2670SOL    HW210211   7.770   5.397   5.108 -0.0375  0.3134 -1.3782
 2671SOL     OW10212   3.026   2.019   6.266 -0.1668  0.5673 -0.0771
 2671SOL    HW110213   3.040   2.001   6.359  1.0999  5.6922  1.0755
 2671SOL    HW210214   2.939   2.059   6.263 -0.8907 -1.0347 -1.4577
 2672SOL     OW10215   6.091   2.130   9.117  0.2323  0.1103  0.5513
 2672SOL    HW110216   6.117   2.072   9.188 -1.5896 -1.4694  0.0029
 2672SOL    HW210217   6.165   2.130   9.057  0.0921 -2.1343  0.3016
 2673SOL     OW10218   3.617   8.780   0.771 -0.8152 -0.0488 -0.0297
 2673SOL    HW110219   3.522   8.793   0.779 -1.4066 -2.3746 -2.0398
 2673SOL    HW210220   3.645   8.753   0.858 -1.4654  3.0099  1.2604
 2674SOL     OW10221   3.360   3.403   1.165 -0.2561 -0.1464 -0.2852
 2674SOL    HW110222   3.359   3.498   1.150  2.0334 -0.0453 -0.0605
 2674SOL    HW210223   3.403   3.393   1.250 -0.7239 -1.3920 -0.1732
 2675SOL     OW10224   7.886   9.107   0.075 -0.4735 -0.0423  0.4089
 2675SOL    HW110225   7.876   9.143   0.163  0.4774 -0.9684  0.9235
 2675SOL    HW210226   7.855   9.017   0.082  1.9123 -0.9323  0.4622
 2676SOL     OW10227   5.335   2.085   2.435 -0.1410  0.1761  0.2551
 2676SOL    HW110228   5.318   1.993   2.414  0.3257 -0.0527  0.8382
 2676SOL    HW210229   5.365   2.123   2.352 -0.8526 -0.0599 -0.1218
 2677SOL     OW10230   9.150   5.805   3.410 -0.2146 -0.2400 -0.1764
 2677SOL    HW110231   9.241   5.810   3.438  0.7275 -1.1052 -2.8012
 2677SOL    HW210232   9.144   5.723   3.361 -2.2301  0.1353 -0.6677
 2678SOL     OW10233   6.529   0.762   6.274 -0.2245  0.2249  0.2567
 2678SOL    HW110234   6.498   0.671   6.282 -0.1347  0.1461 -0.2120
 2678SOL    HW210235   6.471   0.801   6.209  1.3348 -0.2567 -1.5273
 2679SOL     OW10236   1.882   0.968   4.231  0.0708 -0.6098  0.2220
 2679SOL    HW110237   1.793   0.998   4.250  0.2210 -0.9553  1.5821
 2679SOL    HW210238   1.877   0.873   4.236  0.7127 -0.6016  1.3361
 2680SOL     OW10239   9.003   3.617   0.136 -0.4547 -0.4705  0.4063
 2680SOL    HW110240   9.031   3.528   0.158  0.5612 -0.2741 -0.0435
 2680SOL    HW210241   9.078   3.672   0.158  0.3704 -0.1530 -2.7200
 2681SOL     OW10242   7.579   6.276   0.127  0.7140 -0.3548 -0.3842
 2681SOL    HW110243   7.614   6.351   0.080 -0.1258  0.2442 -0.0647
 2681SOL    HW210244   7.513   6.239   0.068 -1.5996  1.4230  0.9463
 2682SOL     OW10245   8.152   0.232   0.455  0.2597 -0.3096 -0.1697
 2682SOL    HW110246   8.111   0.267   0.376  0.3242  0.0485 -0.0502
 2682SOL    HW210247   8.246   0.235   0.437  0.2373 -1.2787 -0.5048
 2683SOL     OW10248   7.250   6.674   5.865 -0.1277 -0.4240  0.1812
 2683SOL    HW110249   7.210   6.758   5.843  0.0989 -0.2232  0.5243
 2683SOL    HW210250   7.330   6.670   5.812 -0.1058 -0.3924  0.2115
 2684SOL     OW10251   1.679   8.267   2.375  0.1794  0.7493 -0.3755
 2684SOL    HW110252   1.767   8.241   2.400 -0.1898  1.3475  1.7196
 2684SOL    HW210253   1.688   8.357   2.344  0.1544  1.2134  0.9337
 2685SOL     OW10254   4.222   0.650   1.727  0.2763 -0.2616 -0.2549
 2685SOL    HW110255   4.232   0.586   1.798  0.3409  0.3657  0.3220
 2685SOL    HW210256   4.308   0.690   1.718  0.2695 -0.3439 -0.6965
 2686SOL     OW10257   3.731   7.471   6.493  0.1928 -0.5306 -0.5021
 2686SOL    HW110258   3.806   7.528   6.510  0.4998 -1.3389  1.0067
 2686SOL    HW210259   3.696   7.503   6.409  1.0992  1.0384 -0.3352
 2687SOL     OW10260   9.433   4.278   9.439  0.1928 -0.2745 -0.2537
 2687SOL    HW110261   9.474   4.362   9.416  0.9822 -0.7797 -0.7846
 2687SOL    HW210262   9.349   4.302   9.478  0.1897  0.7508 -0.8300
 2688SOL     OW10263   3.412   3.194   3.107 -0.4234 -0.1754 -0.5747
 2688SOL    HW110264   3.478   3.129   3.085 -0.9154 -0.3909 -1.4616
 2688SOL    HW210265   3.399   3.185   3.202 -0.1964 -1.0888 -0.6279
 2689SOL     OW10266   2.339   3.540   9.156 -0.5809 -0.0851  0.3327
 2689SOL    HW110267   2.282   3.494   9.094 -0.3263  0.7834 -0.5634
 2689SOL    HW210268   2.299   3.523   9.242 -2.0288  0.2592 -0.2473
 2690SOL     OW10269   2.194   1.149   1.939 -0.0518  0.3076  0.3312
 2690SOL    HW110270   2.171   1.159   2.031 -0.2931 -1.7801  0.5455
 2690SOL    HW210271   2.133   1.206   1.892 -0.6131  0.5890  1.3796
 2691SOL     OW10272   1.390   0.568   1.422 -0.1372 -0.6328  0.0304
 2691SOL    HW110273   1.374   0.647   1.473 -0.6452 -0.7504  0.0621
 2691SOL    HW210274   1.358   0.497   1.478  0.4117 -0.8724  0.0482
 2692SOL     OW10275   7.547   3.638   4.130  0.2531  0.5503  0.2211
 2692SOL    HW110276   7.499   3.709   4.087  0.1668 -0.3190 -1.1874
 2692SOL    HW210277   7.617   3.682   4.179 -0.1299  1.6304 -0.1727
 2693SOL     OW10278   1.252   6.343   1.026  0.1562 -0.0202 -0.1472
 2693SOL    HW110279   1.218   6.290   0.954 -1.3008  1.3417 -0.5125
 2693SOL    HW210280   1.222   6.299   1.105  0.8338 -0.9245 -0.3827
 2694SOL     OW10281   3.208   8.767   0.405 -0.3663 -0.1132  0.2227
 2694SOL    HW110282   3.199   8.859   0.381  2.4302  0.8040  2.1208
 2694SOL    HW210283   3.251   8.727   0.330  1.7766  1.0738  0.7153
 2695SOL     OW10284   2.531   8.490   0.653 -0.1760  0.2251 -0.1329
 2695SOL    HW110285   2.484   8.482   0.570  0.2946 -0.2247 -0.3631
 2695SOL    HW210286   2.504   8.413   0.703 -0.4975  0.5209  0.1539
 2696SOL     OW10287   7.618   4.496   2.824 -0.4979 -0.1644  0.5823
 2696SOL    HW110288   7.560   4.499   2.900 -1.0388  1.5699  0.1542
 2696SOL    HW210289   7.675   4.421   2.840 -2.1601 -1.2800  1.5268
 2697SOL     OW10290   7.079   8.663   2.677 -0.4255  0.2519 -0.1897
 2697SOL    HW110291   6.988   8.647   2.703 -0.5124 -0.1498 -0.7052
 2697SOL    HW210292   7.095   8.754   2.699 -0.3057 -0.1991  1.7591
 2698SOL     OW10293   3.373   3.739   7.812 -0.7201 -0.0489  0.0641
 2698SOL    HW110294   3.460   3.710   7.841 -0.6897  0.4827  0.5316
 2698SOL    HW210295   3.315   3.720   7.886 -0.9774 -0.2746 -0.1936
 2699SOL     OW10296   2.344   9.434   1.195 -0.0044 -0.4245 -0.0185
 2699SOL    HW110297   2.364   9.493   1.123  0.9299 -0.7325 -0.0157
 2699SOL    HW210298   2.373   9.348   1.164  1.4906 -0.3747  1.1699
 2700SOL     OW10299   4.438   6.891   2.033 -0.0983  0.2075  0.5998
 2700SOL    HW110300   4.358   6.918   1.989  0.5212 -0.3709 -0.9725
 2700SOL    HW210301   4.429   6.923   2.123 -0.1839  4.1307 -0.5975
 2701SOL     OW10302   3.843   8.927   2.632  0.5210  0.8216  0.6582
 2701SOL    HW110303   3.838   9.023   2.633  0.9746  0.8872 -0.9854
 2701SOL    HW210304   3.786   8.901   2.559 -0.7701 -0.2650  1.9984
 2702SOL     OW10305   2.971   0.914   0.203  0.0007 -0.2703 -0.1596
 2702SOL    HW110306   2.947   0.966   0.126  1.5233  0.3106 -0.2589
 2702SOL    HW210307   2.888   0.875   0.231 -0.6353 -0.3588 -1.9884
 2703SOL     OW10308   7.129   0.710   7.375  0.0537 -0.0026  0.4211
 2703SOL    HW110309   7.119   0.666   7.290  2.0126  2.4062 -1.1820
 2703SOL    HW210310   7.223   0.728   7.382 -0.1579  0.5552  2.7915
 2704SOL     OW10311   7.003   3.373   7.046 -0.2725  0.1332 -0.2210
 2704SOL    HW110312   7.062   3.442   7.017  0.0430 -0.6036 -1.3775
 2704SOL    HW210313   6.958   3.411   7.122  3.5205 -0.1939  2.4598
 2705SOL     OW10314   4.675   4.768   6.118 -0.2350 -0.1740  0.3662
 2705SOL    HW110315   4.654   4.828   6.190  1.3529 -2.2978  2.7923
 2705SOL    HW210316   4.626   4.688   6.138  2.6637 -1.9370  0.9970
 2706SOL     OW10317   3.210   4.293   8.964 -0.5215  0.1233  0.4651
 2706SOL    HW110318   3.146   4.364   8.966 -0.5270  0.1252  2.2709
 2706SOL    HW210319   3.276   4.319   9.029  0.6874 -0.4525 -0.4890
 2707SOL     OW10320   4.281   3.909   6.543 -0.1114  0.2608 -0.2889
 2707SOL    HW110321   4.304   3.982   6.600  0.6591 -0.4904  0.3822
 2707SOL    HW210322   4.222   3.947   6.478  0.1662  1.4460  0.1315
 2708SOL     OW10323   1.448   2.590   4.646  0.7960 -0.2371 -0.5355
 2708SOL    HW110324   1.499   2.586   4.566  0.7029 -1.2826 -0.5551
 2708SOL    HW210325   1.363   2.626   4.619  1.5957  1.8128 -0.4431
 2709SOL     OW10326   2.363   6.893   7.802 -0.5114 -0.0710  0.1986
 2709SOL    HW110327   2.269   6.896   7.818 -0.4204 -1.2110  1.1027
 2709SOL    HW210328   2.402   6.938   7.877 -0.2474 -2.2454  1.4810
 2710SOL     OW10329   2.717   5.663   2.191 -0.1062 -0.0330  0.1541
 2710SOL    HW110330   2.705   5.758   2.182  1.5194  0.2759  0.7687
 2710SOL    HW210331   2.767   5.638   2.114  2.2714  0.2468  1.4942
 2711SOL     OW10332   1.463   7.137   8.221 -0.0781  0.0410 -0.5572
 2711SOL    HW110333   1.502   7.223   8.205  0.6436 -0.4172 -1.3740
 2711SOL    HW210334   1.370   7.154   8.233  0.1630  1.0104  0.0537
 2712SOL     OW10335   7.575   2.075   1.563 -0.6820  0.5695 -0.4335
 2712SOL    HW110336   7.555   2.095   1.654 -1.5142 -1.7772 -0.0543
 2712SOL    HW210337   7.499   2.026   1.531  0.9766 -1.5561 -1.3802
 2713SOL     OW10338   6.390   7.223   0.326  0.2500  0.0124 -0.8365
 2713SOL    HW110339   6.479   7.251   0.350  0.3281  0.2169 -1.3599
 2713SOL    HW210340   6.333   7.286   0.370  0.3210 -0.6556  0.2549
 2714SOL     OW10341   9.561   1.303   5.789 -0.0344  0.4602 -0.5233
 2714SOL    HW110342   9.571   1.375   5.726  0.8256  0.6546 -0.1717
 2714SOL    HW210343   9.510   1.238   5.742  1.1617  0.3086 -1.6779
 2715SOL     OW10344   1.356   2.795   2.855 -0.4403 -0.1544 -0.0832
 2715SOL    HW110345   1.408   2.815   2.777 -0.1495 -1.5909 -0.2864
 2715SOL    HW210346   1.333   2.881   2.891 -1.0181  0.5553 -2.0219
 2716SOL     OW10347   4.914   0.437   9.203 -0.4385 -0.0489 -0.1717
 2716SOL    HW110348   4.981   0.496   9.168 -1.6674  0.7775 -1.2638
 2716SOL    HW210349   4.933   0.431   9.296  0.3975  1.1758 -0.2361
 2717SOL     OW10350   1.565   4.996   2.414  0.6723  0.3167 -0.6858
 2717SOL    HW110351   1.547   4.905   2.435 -0.2641  0.6584  0.0833
 2717SOL    HW210352   1.633   5.022   2.476  1.5142 -0.0672 -1.4307
 2718SOL     OW10353   0.412   2.996   0.953  0.1836  0.4696  0.6088
 2718SOL    HW110354   0.393   2.936   0.882  1.4116 -1.4262  1.8049
 2718SOL    HW210355   0.453   3.072   0.911  0.5208 -0.4346 -0.7261
 2719SOL     OW10356   2.495   4.832   4.365 -0.4447 -0.9905  0.2612
 2719SOL    HW110357   2.540   4.881   4.434 -1.1387 -0.4789  0.3659
 2719SOL    HW210358   2.553   4.837   4.290 -0.9784  0.9461 -0.0678
 2720SOL     OW10359   9.139   7.167   8.113 -0.0606 -0.3582  0.4147
 2720SOL    HW110360   9.211   7.149   8.052  0.2438  0.8225  0.3909
 2720SOL    HW210361   9.085   7.231   8.067 -0.8491 -0.8464  0.6523
 2721SOL     OW10362   4.129   2.915   0.480 -0.0544  0.0400  0.3185
 2721SOL    HW110363   4.193   2.856   0.439 -0.9689 -0.5206 -0.3332
 2721SOL    HW210364   4.099   2.971   0.408  1.0569  1.5698  0.9942
 2722SOL     OW10365   1.995   7.957   1.592 -0.1592 -0.6136  0.3271
 2722SOL    HW110366   2.007   7.863   1.577  0.1787 -0.4968 -0.1658
 2722SOL    HW210367   1.970   7.992   1.507 -1.5494 -0.4445  0.7946
 2723SOL     OW10368   9.398   7.166   4.224  0.6392  0.3982 -0.1298
 2723SOL    HW110369   9.420   7.200   4.138 -0.0270 -1.9521 -1.3223
 2723SOL    HW210370   9.475   7.115   4.250  0.5274  0.4506  0.3151
 2724SOL     OW10371   8.144   1.123   5.662  0.4452 -0.0896 -0.1455
 2724SOL    HW110372   8.104   1.068   5.595 -1.4299  0.5538  0.3790
 2724SOL    HW210373   8.214   1.069   5.699 -0.6623 -1.7461 -0.3389
 2725SOL     OW10374   7.225   4.054   2.491 -0.1720 -0.2705 -0.2184
 2725SOL    HW110375   7.270   4.079   2.571 -1.2370 -0.2820  0.4085
 2725SOL    HW210376   7.295   4.035   2.428  0.6725  0.7698  0.3798
 2726SOL     OW10377   3.224   1.966   6.042  0.0229  0.0215  0.5699
 2726SOL    HW110378   3.176   1.984   6.123  0.9129 -0.5192  1.2302
 2726SOL    HW210379   3.290   1.901   6.066  2.5757  2.2990  0.2369
 2727SOL     OW10380   0.827   8.841   0.002  0.6880 -0.3783 -0.0195
 2727SOL    HW110381   0.777   8.767   0.037 -1.1338  0.2784 -1.1471
 2727SOL    HW210382   0.883   8.802  -0.065  0.4499 -0.8691  0.0631
 2728SOL     OW10383   5.325   5.576   3.551  0.2000  0.2328  0.3858
 2728SOL    HW110384   5.255   5.519   3.584  0.4254  0.1712  0.7512
 2728SOL    HW210385   5.278   5.648   3.508 -0.0949  0.4279  1.0285
 2729SOL     OW10386   9.193   8.710   4.616  0.0499 -0.3617 -0.1339
 2729SOL    HW110387   9.267   8.753   4.572  0.0306  0.2780  0.4327
 2729SOL    HW210388   9.129   8.697   4.547  1.1468 -2.0274 -0.8888
 2730SOL     OW10389   1.447   5.132   8.276  0.0212  0.3331 -0.1460
 2730SOL    HW110390   1.394   5.066   8.320  0.3514 -0.2844 -0.6480
 2730SOL    HW210391   1.482   5.187   8.346 -0.1317 -0.1240  0.2882
 2731SOL     OW10392   9.451   8.151   8.204 -0.2265  0.1734  0.0532
 2731SOL    HW110393   9.360   8.177   8.190 -1.5144 -2.2634  2.7430
 2731SOL    HW210394   9.472   8.186   8.291  0.8870 -0.5278  0.0820
 2732SOL     OW10395   0.945   8.995   2.873  0.0132  0.5951  0.4791
 2732SOL    HW110396   0.895   8.976   2.793  2.5501  0.0294 -1.0815
 2732SOL    HW210397   0.939   9.090   2.883  3.5219  1.5298 -3.3662
 2733SOL     OW10398   9.162   9.125   7.135  0.0551 -0.5147  0.1971
 2733SOL    HW110399   9.090   9.121   7.198  0.3235 -0.1643  0.5344
 2733SOL    HW210400   9.121   9.149   7.052 -0.1281  0.3734  0.5386
 2734SOL     OW10401   7.157   0.118   7.415 -0.0914 -0.4954 -0.3109
 2734SOL    HW110402   7.123   0.155   7.333 -0.9666 -0.6566 -0.0345
 2734SOL    HW210403   7.146   0.024   7.405  1.0188 -0.6195 -0.5236
 2735SOL     OW10404   5.346   5.039   0.856 -0.2956 -0.0774 -0.1324
 2735SOL    HW110405   5.295   5.017   0.778 -1.1997  0.9297  0.1482
 2735SOL    HW210406   5.340   4.962   0.912  0.0846 -0.6808 -0.9063
 2736SOL     OW10407   8.567   5.804   7.376  0.3016 -0.1681  0.6440
 2736SOL    HW110408   8.522   5.845   7.450  1.3375  0.2155  1.0740
 2736SOL    HW210409   8.653   5.846   7.373 -0.2589  1.0298 -1.7933
 2737SOL     OW10410   0.712   5.214   0.067  0.2010 -0.0961  0.3160
 2737SOL    HW110411   0.647   5.203   0.136 -0.8387  1.8772 -0.2754
 2737SOL    HW210412   0.672   5.175  -0.010  0.5118 -0.5211  0.3675
 2738SOL     OW10413   5.567   5.009   5.680 -0.9781 -0.5107  0.8512
 2738SOL    HW110414   5.558   5.098   5.644 -0.2639 -0.9815 -0.5621
 2738SOL    HW210415   5.661   5.000   5.696 -1.0448 -1.0243  0.9505
 2739SOL     OW10416   6.702   5.104   6.397  0.0218 -0.0936  0.0564
 2739SOL    HW110417   6.668   5.015   6.396 -1.4019  0.4251  0.1265
 2739SOL    HW210418   6.797   5.094   6.406 -0.0424 -1.6044 -0.7839
 2740SOL     OW10419   6.255   5.053   1.287  0.6334  0.2181  0.2845
 2740SOL    HW110420   6.213   4.970   1.263  0.7438  0.4512 -0.7137
 2740SOL    HW210421   6.345   5.028   1.309  0.8090  0.1333 -0.5004
 2741SOL     OW10422   5.206   8.240   3.174  0.2592  0.2645 -0.6385
 2741SOL    HW110423   5.236   8.156   3.140  2.3652  0.5271  0.3727
 2741SOL    HW210424   5.125   8.220   3.220 -0.4440 -0.7885 -2.2565
 2742SOL     OW10425   9.319   3.089   5.049 -0.7251  0.1665  0.2287
 2742SOL    HW110426   9.397   3.038   5.027 -0.0465  1.0227  0.5883
 2742SOL    HW210427   9.247   3.026   5.041 -0.4075  0.0307 -2.9943
 2743SOL     OW10428   4.682   5.541   6.304 -0.6299  0.3479 -0.4072
 2743SOL    HW110429   4.645   5.559   6.390 -1.8220 -0.2194 -0.7835
 2743SOL    HW210430   4.716   5.452   6.311  0.1691  0.6532 -0.2445
 2744SOL     OW10431   0.224   1.273   8.922 -0.3617 -0.4339  0.1513
 2744SOL    HW110432   0.217   1.339   8.992 -1.4135 -0.8742  0.4738
 2744SOL    HW210433   0.162   1.303   8.855 -1.5124 -1.5378  0.6845
 2745SOL     OW10434   2.593   6.238   4.505  0.0558  0.4619  0.0741
 2745SOL    HW110435   2.566   6.320   4.463 -2.4213 -0.0340  0.5122
 2745SOL    HW210436   2.565   6.248   4.596 -0.7568 -1.0382  0.0162
 2746SOL     OW10437   8.207   0.073   4.042 -0.3150  0.2491 -0.2027
 2746SOL    HW110438   8.153   0.081   4.120  0.3433 -2.2786  0.5996
 2746SOL    HW210439   8.200  -0.019   4.016  1.3289  0.4921 -1.7456
 2747SOL     OW10440   4.024   3.036   9.306  0.0662 -0.1970 -0.3653
 2747SOL    HW110441   4.068   3.002   9.228  0.2817  0.7399 -0.6735
 2747SOL    HW210442   3.932   3.042   9.280  0.0813 -0.2347 -0.4281
 2748SOL     OW10443   0.345   6.088   5.156 -0.7236 -0.3373 -0.1015
 2748SOL    HW110444   0.291   6.011   5.137 -1.6771  0.3055 -0.0665
 2748SOL    HW210445   0.365   6.080   5.250 -0.6674 -0.6334 -0.1373
 2749SOL     OW10446   1.817   1.624   2.671  0.3872  0.1022 -0.4215
 2749SOL    HW110447   1.880   1.637   2.742  0.7842 -2.0245 -0.2969
 2749SOL    HW210448   1.775   1.708   2.660  0.5425  0.5909  2.1166
 2750SOL     OW10449   4.247   9.563   1.268 -0.3712  0.6981 -0.0885
 2750SOL    HW110450   4.267   9.479   1.308  0.4471 -0.4239 -2.6549
 2750SOL    HW210451   4.178   9.544   1.205  0.3272  1.7878 -1.2173
 2751SOL     OW10452   7.559   1.428   5.153  0.0554 -0.2255 -0.0845
 2751SOL    HW110453   7.576   1.402   5.244 -1.9003  1.5116  0.8636
 2751SOL    HW210454   7.470   1.399   5.136  0.0321  0.4100 -1.0909
 2752SOL     OW10455   6.856   2.828   5.547  0.3043  0.3403 -0.1128
 2752SOL    HW110456   6.761   2.835   5.547  0.3488  1.7069 -2.0579
 2752SOL    HW210457   6.873   2.734   5.541 -0.9589  0.1492 -1.2773
 2753SOL     OW10458   8.840   8.970   9.096 -0.3637  0.1909 -0.5305
 2753SOL    HW110459   8.931   8.948   9.076 -0.9180 -0.7439 -2.1705
 2753SOL    HW210460   8.841   9.065   9.110  0.9483  0.1134  0.0626
 2754SOL     OW10461   9.356   4.944   8.263  0.0212 -0.2391 -0.7299
 2754SOL    HW110462   9.265   4.955   8.291  0.2417  2.1778 -0.7616
 2754SOL    HW210463   9.367   5.006   8.191  1.7899 -0.2144 -0.4885
 2755SOL     OW10464   8.014   1.872   6.764  0.3971  0.5594 -0.2987
 2755SOL    HW110465   8.058   1.888   6.681 -0.8365 -1.0222 -1.3224
 2755SOL    HW210466   8.080   1.830   6.819 -0.1308 -3.8248 -2.5290
 2756SOL     OW10467   2.981   6.549   2.751 -0.2959 -0.3196 -0.7203
 2756SOL    HW110468   3.034   6.559   2.830 -0.6299  0.0518 -0.5387
 2756SOL    HW210469   2.910   6.613   2.762 -0.5426 -0.5177 -1.1535
 2757SOL     OW10470   2.613   6.874   3.777 -0.5034  0.6006  0.0786
 2757SOL    HW110471   2.606   6.815   3.852 -1.6506  1.1727  0.4500
 2757SOL    HW210472   2.702   6.862   3.745 -0.2419 -0.2231  1.0619
 2758SOL     OW10473   7.148   8.347   0.025 -0.4166  0.1747 -0.2829
 2758SOL    HW110474   7.089   8.389  -0.038  1.9703 -0.1806 -3.0033
 2758SOL    HW210475   7.159   8.258  -0.009  1.3205  0.1092  0.3639
 2759SOL     OW10476   6.559   5.956   6.149  0.1454 -0.3897 -0.0778
 2759SOL    HW110477   6.470   5.937   6.180  0.4435  0.9656  1.8135
 2759SOL    HW210478   6.553   5.949   6.054 -1.4302 -2.4930  0.0908
 2760SOL     OW10479   2.675   8.246   3.170 -0.0378  0.1317 -0.0283
 2760SOL    HW110480   2.752   8.189   3.178 -1.0949 -1.4184 -0.5858
 2760SOL    HW210481   2.602   8.186   3.153 -1.4992  1.5102  1.1366
 2761SOL     OW10482   0.986   3.437   2.990 -0.2724 -0.4489  0.0725
 2761SOL    HW110483   0.983   3.515   2.935 -0.3639 -0.8299 -0.4706
 2761SOL    HW210484   0.920   3.378   2.953  0.5251 -1.2074 -0.1734
 2762SOL     OW10485   9.165   5.752   2.525 -0.5315 -0.7595  0.1594
 2762SOL    HW110486   9.198   5.685   2.466  1.8219 -0.0537  0.5544
 2762SOL    HW210487   9.243   5.800   2.553 -2.0483  1.8856  0.2232
 2763SOL     OW10488   8.277   3.784   6.527 -0.1751 -0.7764  0.3458
 2763SOL    HW110489   8.279   3.855   6.592  0.6559  0.0806 -0.5962
 2763SOL    HW210490   8.190   3.745   6.539 -0.5518  0.2191  1.0717
 2764SOL     OW10491   4.043   8.072   4.546 -0.1343 -0.2035 -0.2328
 2764SOL    HW110492   4.058   8.116   4.462 -1.2459 -1.3678 -1.0686
 2764SOL    HW210493   3.984   8.000   4.525  0.6529 -1.3402  1.3267
 2765SOL     OW10494   3.081   6.519   2.355 -0.4856 -0.4431 -0.5952
 2765SOL    HW110495   2.992   6.537   2.385 -0.7315  1.5223 -2.3076
 2765SOL    HW210496   3.088   6.423   2.357 -2.0770 -0.5702  0.9989
 2766SOL     OW10497   6.418   8.338   7.938  0.3067 -0.2506  0.0897
 2766SOL    HW110498   6.476   8.366   7.868  1.6522 -1.8868  0.4764
 2766SOL    HW210499   6.369   8.265   7.900  1.1154 -1.2143  0.8343
 2767SOL     OW10500   8.595   9.065   0.405  0.1180 -0.3111 -0.1256
 2767SOL    HW110501   8.547   8.987   0.374  0.2164 -1.1690  1.7147
 2767SOL    HW210502   8.533   9.137   0.393 -0.1738 -0.7494 -1.3902
 2768SOL     OW10503   4.389   7.664   1.158  0.2215  0.0184  0.1571
 2768SOL    HW110504   4.483   7.646   1.159  0.1320 -0.4851  1.5638
 2768SOL    HW210505   4.348   7.578   1.144 -0.0431  0.4990 -2.8191
 2769SOL     OW10506   4.077   3.296   6.884  0.0049 -0.3645 -0.1551
 2769SOL    HW110507   4.135   3.238   6.835  0.2954 -1.4714  1.4297
 2769SOL    HW210508   3.989   3.274   6.853 -0.0988 -3.1666  1.7900
 2770SOL     OW10509   0.625   5.667   6.266 -0.0123  0.4950  0.1826
 2770SOL    HW110510   0.687   5.727   6.224  2.6622 -1.2852  1.3170
 2770SOL    HW210511   0.609   5.600   6.200 -1.1356  1.1646 -0.2545
 2771SOL     OW10512   7.489   6.171   6.287  0.1440 -0.2956  0.6117
 2771SOL    HW110513   7.546   6.112   6.336  0.3500  0.3359  1.1535
 2771SOL    HW210514   7.401   6.135   6.298  0.2845 -0.5740  0.8276
 2772SOL     OW10515   3.243   6.011   4.862 -0.2259  0.6509  0.5546
 2772SOL    HW110516   3.310   5.984   4.925 -0.4085 -0.6478  0.2159
 2772SOL    HW210517   3.164   5.965   4.890 -0.6839  1.2351  0.2479
 2773SOL     OW10518   2.852   1.896   1.829 -0.1607  0.1755 -0.7939
 2773SOL    HW110519   2.890   1.849   1.755 -2.3380 -1.3331 -1.0548
 2773SOL    HW210520   2.759   1.904   1.807 -0.9412 -0.5837  1.8826
 2774SOL     OW10521   3.822   4.792   9.434  0.2603  0.7004  0.4028
 2774SOL    HW110522   3.832   4.881   9.468 -2.4599  0.3429  2.5200
 2774SOL    HW210523   3.727   4.778   9.431  0.5459 -1.5022 -1.7186
 2775SOL     OW10524   2.542   7.129   3.687 -0.7256 -0.4986 -0.2204
 2775SOL    HW110525   2.563   7.041   3.719  0.7875 -1.4710 -3.4911
 2775SOL    HW210526   2.612   7.184   3.721  0.3157 -1.3083 -0.9739
 2776SOL     OW10527   8.224   2.833   4.559  0.2766 -0.2782  0.4456
 2776SOL    HW110528   8.204   2.787   4.477  1.2925 -1.3499  0.7783
 2776SOL    HW210529   8.155   2.899   4.566  0.4834  0.2261 -1.5565
 2777SOL     OW10530   3.593   5.338   7.164  0.4031 -0.4342  0.5079
 2777SOL    HW110531   3.538   5.342   7.086  1.2212 -0.4971 -0.0840
 2777SOL    HW210532   3.616   5.245   7.172  2.7629 -0.0205 -0.9272
 2778SOL     OW10533   6.232   8.075   7.363  0.0995  0.0251 -0.4986
 2778SOL    HW110534   6.214   7.985   7.390  0.2856 -0.0898 -0.7522
 2778SOL    HW210535   6.302   8.066   7.298  0.7885  0.4323  0.1848
 2779SOL     OW10536   9.466   0.191   0.721 -0.6730 -0.1789 -0.0721
 2779SOL    HW110537   9.401   0.211   0.789 -0.7454 -0.4217 -0.0679
 2779SOL    HW210538   9.491   0.276   0.686 -0.8750 -0.0727  0.0380
 2780SOL     OW10539   4.512   9.530   5.299 -0.2946  0.2956  0.1264
 2780SOL    HW110540   4.446   9.586   5.257 -0.1907  0.6737  0.4623
 2780SOL    HW210541   4.462   9.455   5.331 -0.6155  0.7160  0.6343
 2781SOL     OW10542   7.834   7.882   8.312  0.2525 -0.0456 -0.1329
 2781SOL    HW110543   7.900   7.918   8.253  0.6258  0.1408  0.3909
 2781SOL    HW210544   7.875   7.885   8.398 -0.3043 -0.2722  0.1433
 2782SOL     OW10545   9.234   5.893   9.444 -0.0709  0.5312  0.1613
 2782SOL    HW110546   9.162   5.925   9.390  1.1431  1.1650 -1.1528
 2782SOL    HW210547   9.309   5.888   9.384  0.5271 -2.0491  0.9932
 2783SOL     OW10548   3.737   6.080   8.238 -0.3430 -0.0740 -0.0937
 2783SOL    HW110549   3.781   6.165   8.227 -0.2866  0.0735  1.1475
 2783SOL    HW210550   3.664   6.099   8.297 -0.6438 -0.8012 -0.2242
 2784SOL     OW10551   7.598   6.323   6.045  0.1635 -0.3858 -0.6664
 2784SOL    HW110552   7.555   6.293   6.125 -1.1647  0.9298 -0.8368
 2784SOL    HW210553   7.691   6.323   6.067 -0.1489 -0.3274  0.7810
 2785SOL     OW10554   7.431   5.329   5.967 -0.4345 -0.0404 -0.3258
 2785SOL    HW110555   7.396   5.244   5.941 -0.2376 -0.4319  0.6479
 2785SOL    HW210556   7.398   5.343   6.055  1.8645 -0.4804  0.6785
 2786SOL     OW10557   3.188   5.869   3.069  0.1634  0.1491 -0.4337
 2786SOL    HW110558   3.281   5.885   3.087  0.1249  0.7107 -0.7227
 2786SOL    HW210559   3.184   5.854   2.975  0.2330 -1.8672 -0.1553
 2787SOL     OW10560   2.514   6.913   5.216 -0.1123 -0.1214 -0.4577
 2787SOL    HW110561   2.492   6.949   5.130  1.6566 -0.9820 -1.3212
 2787SOL    HW210562   2.581   6.971   5.250 -2.8967  2.0706  1.8434
 2788SOL     OW10563   7.686   4.734   0.483  0.4931  0.6732 -0.2365
 2788SOL    HW110564   7.606   4.682   0.476  0.7108  0.4996 -1.6154
 2788SOL    HW210565   7.675   4.782   0.566 -1.1564  0.8406 -0.5065
 2789SOL     OW10566   3.554   0.384   9.407  0.2956 -0.3533 -0.0956
 2789SOL    HW110567   3.583   0.342   9.488 -2.5169 -1.5300  0.4260
 2789SOL    HW210568   3.591   0.330   9.338 -0.7959 -1.9935  0.5364
 2790SOL     OW10569   7.430   0.753   2.352 -0.3723  0.3764 -0.4356
 2790SOL    HW110570   7.393   0.755   2.440 -0.5469 -0.2311 -0.4889
 2790SOL    HW210571   7.519   0.719   2.365 -0.4823  0.0553 -0.5207
 2791SOL     OW10572   7.415   5.171   3.233 -0.3268  0.4822 -0.6189
 2791SOL    HW110573   7.495   5.224   3.232 -1.5052  2.4888  1.8005
 2791SOL    HW210574   7.410   5.136   3.321 -1.0609 -1.4255 -1.3673
 2792SOL     OW10575   1.219   4.206   8.064 -0.2889  0.0138 -0.7025
 2792SOL    HW110576   1.266   4.179   7.984  0.0490 -1.5811 -0.0192
 2792SOL    HW210577   1.289   4.225   8.127 -0.4691 -1.8445  0.1547
 2793SOL     OW10578   2.762   8.785   2.741 -0.0753  0.7192 -0.5926
 2793SOL    HW110579   2.820   8.787   2.817 -0.4680  0.7372 -0.2923
 2793SOL    HW210580   2.785   8.863   2.691  0.6188  0.3755 -0.8174
 2794SOL     OW10581   8.104   2.985   5.586  0.3708  0.3708  0.1174
 2794SOL    HW110582   8.060   3.034   5.655 -0.4911  2.2801 -1.6647
 2794SOL    HW210583   8.148   3.052   5.534 -1.2083 -0.6102 -2.6910
 2795SOL     OW10584   4.284   0.306   6.462 -0.0531  0.3154  0.0471
 2795SOL    HW110585   4.220   0.247   6.503  0.9197 -1.0582 -0.3334
 2795SOL    HW210586   4.231   0.371   6.417 -1.2026 -0.6806 -0.0967
 2796SOL     OW10587   0.389   3.734   0.123  0.7505 -0.4141  0.3427
 2796SOL    HW110588   0.327   3.765   0.058  0.6637 -1.4540 -0.0829
 2796SOL    HW210589   0.343   3.744   0.207  0.8416  0.8633  0.2574
 2797SOL     OW10590   5.924   6.908   8.746 -0.0928 -0.6876 -0.2313
 2797SOL    HW110591   5.854   6.858   8.704 -1.1753 -0.2010  0.9511
 2797SOL    HW210592   5.951   6.855   8.820  0.6992 -0.7891 -0.5756
 2798SOL     OW10593   3.040   5.424   0.865 -0.8101 -0.1540  0.8197
 2798SOL    HW110594   3.120   5.440   0.815 -2.3553 -0.5220 -2.0000
 2798SOL    HW210595   3.067   5.432   0.957  2.2883  0.3110 -0.0069
 2799SOL     OW10596   2.196   4.715   5.769  0.5692  0.0201 -0.0372
 2799SOL    HW110597   2.219   4.808   5.768  1.0195  0.0457  2.9387
 2799SOL    HW210598   2.279   4.670   5.786  0.1472 -0.8327 -0.1727
 2800SOL     OW10599   0.683   3.178   4.772  0.5364 -0.0833  0.2174
 2800SOL    HW110600   0.712   3.236   4.841  0.9109  1.9157 -1.5103
 2800SOL    HW210601   0.625   3.232   4.718 -1.6454 -2.2310  0.2074
 2801SOL     OW10602   4.161   9.370   9.463  0.8801  0.2913 -0.3827
 2801SOL    HW110603   4.133   9.356   9.372  0.1471  2.3867 -0.5273
 2801SOL    HW210604   4.168   9.282   9.499  0.7391 -0.5794 -2.3305
 2802SOL     OW10605   1.142   0.788   6.897  0.6107  0.0738 -0.4793
 2802SOL    HW110606   1.076   0.744   6.844  0.1315  0.2363 -0.0346
 2802SOL    HW210607   1.105   0.787   6.986  2.7197 -2.9575  0.5401
 2803SOL     OW10608   1.249   2.614   3.807 -0.0032 -0.7371 -0.0069
 2803SOL    HW110609   1.157   2.614   3.780  0.1608 -1.1504 -0.5968
 2803SOL    HW210610   1.296   2.643   3.730  0.2450  1.2194  0.8249
 2804SOL     OW10611   2.312   4.646   9.443  0.0746  0.2616 -0.3795
 2804SOL    HW110612   2.288   4.617   9.355  0.4915  1.2436 -0.8304
 2804SOL    HW210613   2.263   4.588   9.501  0.1511 -0.7078 -1.2502
 2805SOL     OW10614   5.586   2.783   1.609  0.2061  0.3836  0.1264
 2805SOL    HW110615   5.633   2.847   1.662  0.0393  1.7401 -1.2834
 2805SOL    HW210616   5.522   2.835   1.560  0.3406 -0.7783 -1.3759
 2806SOL     OW10617   2.270   4.288   6.599  0.0058  0.1815 -0.2806
 2806SOL    HW110618   2.194   4.248   6.642  0.9956  0.4860  1.8792
 2806SOL    HW210619   2.273   4.377   6.633  1.9285 -0.1591  0.5532
 2807SOL     OW10620   2.334   5.523   4.946 -0.0039  0.4491 -0.3321
 2807SOL    HW110621   2.293   5.524   5.033  2.2088  1.1007  0.7897
 2807SOL    HW210622   2.423   5.557   4.962  1.2564 -1.6023 -2.4603
 2808SOL     OW10623   6.055   4.953   3.371 -0.1102 -0.1701  0.0539
 2808SOL    HW110624   6.026   5.044   3.365 -0.6778 -0.1898  1.7995
 2808SOL    HW210625   6.139   4.957   3.417 -0.5279 -0.5637  0.8775
 2809SOL     OW10626   1.461   8.863   7.505 -0.2759 -0.2659 -0.8124
 2809SOL    HW110627   1.506   8.836   7.425  0.7190  0.9238 -0.6719
 2809SOL    HW210628   1.480   8.793   7.568  2.1748  0.6088 -0.4848
 2810SOL     OW10629   1.569   7.180   0.101  0.4284 -0.1003  0.1618
 2810SOL    HW110630   1.578   7.215   0.012  1.3405 -0.8091 -0.0476
 2810SOL    HW210631   1.485   7.134   0.101  1.2997 -1.7879 -0.9674
 2811SOL     OW10632   5.713   1.338   8.799 -0.7305  0.2497 -0.0806
 2811SOL    HW110633   5.793   1.285   8.802  0.2135  1.5567 -0.9570
 2811SOL    HW210634   5.702   1.359   8.706 -1.6644  0.7221  0.1230
 2812SOL     OW10635   3.284   7.486   6.446  0.0739  0.0069  0.1248
 2812SOL    HW110636   3.255   7.432   6.519 -1.0637 -1.7848 -1.5690
 2812SOL    HW210637   3.346   7.430   6.398  0.0828  0.7962 -0.8053
 2813SOL     OW10638   5.211   3.022   2.370 -0.2401 -0.3312 -0.1092
 2813SOL    HW110639   5.163   2.942   2.393 -0.8882  0.1421  0.2137
 2813SOL    HW210640   5.201   3.030   2.275 -2.7044  0.9145  0.1646
 2814SOL     OW10641   4.847   0.948   1.133 -0.6636 -0.1225 -0.0070
 2814SOL    HW110642   4.929   0.914   1.098 -0.1573 -0.8634  1.7786
 2814SOL    HW210643   4.861   0.953   1.228 -2.2226  1.0283  0.2158
 2815SOL     OW10644   7.316   4.549   5.575 -0.7314  0.3281 -0.9098
 2815SOL    HW110645   7.301   4.464   5.533  0.2391 -1.0753  1.3612
 2815SOL    HW210646   7.255   4.549   5.650  1.2846  0.2549  0.8259
 2816SOL     OW10647   3.461   4.951   8.646 -0.0547 -0.7597  0.2554
 2816SOL    HW110648   3.468   4.933   8.739  0.2859  2.2537  0.9197
 2816SOL    HW210649   3.551   4.964   8.617 -0.2549 -0.0469 -0.0772
 2817SOL     OW10650   7.573   5.561   6.034  0.4066 -0.1461  0.3749
 2817SOL    HW110651   7.511   5.500   5.995 -0.1520  1.3298 -1.2019
 2817SOL    HW210652   7.536   5.648   6.015  1.0707  0.7063  2.6517
 2818SOL     OW10653   5.967   8.486   4.615 -0.0320  0.1553  0.5327
 2818SOL    HW110654   5.941   8.479   4.707  1.5714  2.2286  1.2321
 2818SOL    HW210655   6.017   8.406   4.598  0.9655  0.4260  1.9793
 2819SOL     OW10656   6.944   3.279   5.234 -0.9790  0.1740  0.5585
 2819SOL    HW110657   6.964   3.344   5.166 -1.5036 -0.1782  0.0671
 2819SOL    HW210658   7.008   3.209   5.219 -2.4899 -0.9402 -0.9984
 2820SOL     OW10659   8.252   5.324   0.619 -0.0849  0.3365  1.0833
 2820SOL    HW110660   8.180   5.376   0.655 -1.2352  1.0844 -1.9653
 2820SOL    HW210661   8.304   5.386   0.568 -1.2470 -1.2332 -2.3076
 2821SOL     OW10662   0.262   1.121   5.446  0.2615 -0.2230  0.6276
 2821SOL    HW110663   0.240   1.214   5.451 -0.3343 -0.3917  1.1863
 2821SOL    HW210664   0.357   1.120   5.429 -0.0937  0.5127 -1.8956
 2822SOL     OW10665   9.149   2.176   5.865  0.2174 -0.7730  0.4722
 2822SOL    HW110666   9.106   2.189   5.949  0.3456 -0.2761  0.4597
 2822SOL    HW210667   9.163   2.264   5.830 -0.9081 -1.0018 -0.6139
 2823SOL     OW10668   7.638   1.739   9.330 -0.2080 -0.3268 -0.2925
 2823SOL    HW110669   7.574   1.678   9.291 -1.0490  0.2830  0.1111
 2823SOL    HW210670   7.722   1.709   9.295 -0.9591  0.6156 -3.2238
 2824SOL     OW10671   8.181   3.987   5.011  0.2472 -0.2206  0.1248
 2824SOL    HW110672   8.255   4.003   5.070  0.3875  2.1629 -0.6033
 2824SOL    HW210673   8.208   4.025   4.928 -1.7808  0.7367 -0.1457
 2825SOL     OW10674   9.119   5.620   1.461 -0.0846  0.2948 -0.2160
 2825SOL    HW110675   9.156   5.708   1.463 -1.6466  0.9942  0.0262
 2825SOL    HW210676   9.026   5.634   1.441 -0.1485 -1.3874 -1.3596
 2826SOL     OW10677   1.784   7.488   6.766 -0.5391  0.3138  0.3227
 2826SOL    HW110678   1.754   7.414   6.820 -0.5415 -0.8648 -1.2287
 2826SOL    HW210679   1.709   7.547   6.762 -0.5369  0.4301  1.5800
 2827SOL     OW10680   1.616   1.494   1.943  0.2697  0.0903 -0.2981
 2827SOL    HW110681   1.558   1.437   1.993 -0.0982  0.1517 -0.6489
 2827SOL    HW210682   1.653   1.437   1.875 -0.6903  0.4313 -1.1311
 2828SOL     OW10683   5.899   0.113   5.432  0.4238  0.1788  0.3479
 2828SOL    HW110684   5.887   0.021   5.408  1.1884  0.3419 -0.7750
 2828SOL    HW210685   5.916   0.111   5.526  0.0376 -0.7840  0.4151
 2829SOL     OW10686   1.115   3.413   2.594  0.4439  0.2026  0.0009
 2829SOL    HW110687   1.131   3.462   2.675  0.5321  0.2061 -0.0188
 2829SOL    HW210688   1.020   3.411   2.586  0.3924 -0.8496  0.7431
 2830SOL     OW10689   2.609   0.900   4.465 -0.0658  0.6107  0.2966
 2830SOL    HW110690   2.642   0.841   4.397  2.1789  1.8730  0.1990
 2830SOL    HW210691   2.603   0.985   4.422  2.3642  1.6499  1.8593
 2831SOL     OW10692   8.669   1.841   6.594 -0.4356  0.4830  0.0552
 2831SOL    HW110693   8.658   1.932   6.620 -1.3575  0.1831  0.7489
 2831SOL    HW210694   8.696   1.846   6.502 -3.0449  1.4341 -0.7748
 2832SOL     OW10695   3.743   0.899   1.919 -0.2405 -0.4307 -0.2725
 2832SOL    HW110696   3.784   0.822   1.879 -0.1662 -0.9481  0.7751
 2832SOL    HW210697   3.812   0.939   1.971 -1.2455 -1.9115  2.3822
 2833SOL     OW10698   4.535   4.922   3.257 -0.2799  0.0408 -0.3566
 2833SOL    HW110699   4.595   4.974   3.203 -0.4180 -0.1207 -0.6714
 2833SOL    HW210700   4.591   4.867   3.311 -0.1356  0.3481 -0.1908
 2834SOL     OW10701   2.567   8.249   2.798  0.2067 -0.3436  0.4020
 2834SOL    HW110702   2.613   8.306   2.860  0.3801 -0.7063  0.6076
 2834SOL    HW210703   2.607   8.269   2.714  0.3673 -0.2648  0.4961
 2835SOL     OW10704   6.099   2.131   7.137  0.5826  0.1220 -0.5966
 2835SOL    HW110705   6.082   2.184   7.215  1.3848  1.2901 -1.1800
 2835SOL    HW210706   6.044   2.170   7.069  1.4754  0.4754 -1.1307
 2836SOL     OW10707   3.589   8.932   4.675  0.8097  0.5768 -0.5799
 2836SOL    HW110708   3.574   8.837   4.685  0.2724  0.7280  0.1328
 2836SOL    HW210709   3.573   8.949   4.582 -0.7894  0.2389 -0.4043
 2837SOL     OW10710   3.616   4.643   4.146 -0.6009 -0.6781  0.4313
 2837SOL    HW110711   3.547   4.678   4.202 -0.6339 -1.1060  0.6599
 2837SOL    HW210712   3.681   4.713   4.141 -0.5191 -0.7019  1.1392
 2838SOL     OW10713   7.814   3.452   4.420  0.0895 -0.2304  0.2372
 2838SOL    HW110714   7.807   3.447   4.515 -2.3475 -0.6002  0.0965
 2838SOL    HW210715   7.725   3.439   4.388  1.0930 -2.1851 -2.1887
 2839SOL     OW10716   7.669   7.805   8.936 -0.0474 -0.4152 -0.6364
 2839SOL    HW110717   7.757   7.809   8.972  0.7928 -2.4650 -2.2532
 2839SOL    HW210718   7.624   7.882   8.972  2.3270  0.5926  0.3390
 2840SOL     OW10719   4.088   7.175   3.197  0.1037  0.2030 -0.3434
 2840SOL    HW110720   4.002   7.183   3.155  0.2892  0.9374 -0.5899
 2840SOL    HW210721   4.112   7.264   3.221 -0.6273 -0.2982  2.6334
 2841SOL     OW10722   1.589   0.488   6.743 -0.1983 -0.2907 -0.3214
 2841SOL    HW110723   1.595   0.406   6.695 -2.6589 -1.4199  1.0760
 2841SOL    HW210724   1.519   0.536   6.699  0.4113  0.5433 -0.4020
 2842SOL     OW10725   2.793   3.719   1.720  0.0182 -0.3747  0.5948
 2842SOL    HW110726   2.780   3.764   1.803  0.3209  1.1840 -0.1575
 2842SOL    HW210727   2.856   3.774   1.672 -0.1967 -1.1881 -0.6860
 2843SOL     OW10728   8.923   7.328   4.916  0.1845 -0.0943  0.3478
 2843SOL    HW110729   8.958   7.336   5.005 -2.3236 -0.0312  1.4185
 2843SOL    HW210730   8.999   7.306   4.862  1.8868  0.4259  2.3936
 2844SOL     OW10731   6.454   4.750   0.314 -0.4191  0.0829  0.0996
 2844SOL    HW110732   6.526   4.759   0.377 -0.9483 -0.0559  0.7455
 2844SOL    HW210733   6.467   4.664   0.275 -1.2902 -0.7868  1.6163
 2845SOL     OW10734   5.252   7.230   5.095 -0.7265 -0.6153 -0.2223
 2845SOL    HW110735   5.262   7.263   5.184 -0.0289  0.6093 -0.7262
 2845SOL    HW210736   5.340   7.237   5.057 -1.1844 -0.3327 -1.2594
 2846SOL     OW10737   1.830   9.261   7.036  0.2936  0.3207  0.2106
 2846SOL    HW110738   1.889   9.215   6.977  0.0609 -2.0969  1.7513
 2846SOL    HW210739   1.887   9.298   7.103  0.2255 -0.9777  1.0232
 2847SOL     OW10740   8.463   6.057   1.449  0.3600  0.0445 -0.0002
 2847SOL    HW110741   8.385   6.089   1.495  0.2426 -0.9616  0.5336
 2847SOL    HW210742   8.528   6.044   1.519  0.4414 -0.7470 -0.2160
 2848SOL     OW10743   7.504   9.497   7.644  0.2515  0.0388  0.1776
 2848SOL    HW110744   7.495   9.582   7.600  0.9617 -1.0107 -2.2011
 2848SOL    HW210745   7.553   9.515   7.723 -0.2453  1.9391  0.0934
 2849SOL     OW10746   5.050   7.258   0.674 -0.6155 -0.5209  0.1535
 2849SOL    HW110747   4.961   7.223   0.667 -1.8847  1.6913  2.9628
 2849SOL    HW210748   5.050   7.306   0.757  3.7985 -1.9775  1.2798
 2850SOL     OW10749   4.827   2.055   3.725 -0.4055  0.1738  0.3149
 2850SOL    HW110750   4.757   2.033   3.664 -1.0169  1.7571  0.3814
 2850SOL    HW210751   4.785   2.052   3.811 -0.6822  1.9455  0.2940
 2851SOL     OW10752   4.498   1.537   0.136 -0.1811  0.6580 -0.1028
 2851SOL    HW110753   4.559   1.587   0.082  0.8390 -2.3488 -2.0368
 2851SOL    HW210754   4.541   1.452   0.147 -2.5240 -0.4145  1.4614
 2852SOL     OW10755   9.004   3.625   7.147  0.1984  0.1515 -0.2705
 2852SOL    HW110756   8.923   3.638   7.098 -0.2219  0.9526  0.6038
 2852SOL    HW210757   8.981   3.645   7.238  1.4753  0.8494 -0.0706
 2853SOL     OW10758   2.139   3.064   2.953  0.5244  0.0622 -0.2397
 2853SOL    HW110759   2.204   3.097   3.015  0.0598  0.4690  0.0322
 2853SOL    HW210760   2.183   2.991   2.910  1.6148  1.0735 -0.9217
 2854SOL     OW10761   5.058   9.232   5.375  0.4678  0.1464 -0.4670
 2854SOL    HW110762   5.073   9.157   5.432  3.1025  0.2449 -0.8717
 2854SOL    HW210763   5.123   9.222   5.305 -1.6089  0.8421 -2.6295
 2855SOL     OW10764   0.477   2.203   3.272  0.0431  0.4097 -0.2084
 2855SOL    HW110765   0.404   2.260   3.294  2.1437  2.9858  0.6782
 2855SOL    HW210766   0.504   2.231   3.184  0.2176 -0.2397 -0.3668
 2856SOL     OW10767   1.505   6.239   5.069  0.8760 -0.3134 -0.0548
 2856SOL    HW110768   1.485   6.244   5.162  0.9418  1.9496 -0.1103
 2856SOL    HW210769   1.428   6.197   5.030 -0.0719  0.6212  0.7678
 2857SOL     OW10770   9.500   7.548   1.635 -0.2183 -0.4319  0.0455
 2857SOL    HW110771   9.493   7.530   1.729  0.3425 -2.1754 -0.2007
 2857SOL    HW210772   9.462   7.635   1.624  1.7054  0.7741  2.1948
 2858SOL     OW10773   1.334   1.984   1.993  0.2569 -0.1771  0.2094
 2858SOL    HW110774   1.250   2.018   2.023 -0.3448 -0.5365 -0.9979
 2858SOL    HW210775   1.398   2.051   2.018 -0.5205  0.5539  0.2733
 2859SOL     OW10776   5.881   7.547   5.875 -0.4850 -0.1677  0.3234
 2859SOL    HW110777   5.805   7.586   5.830 -0.5087  0.3844  0.8292
 2859SOL    HW210778   5.943   7.619   5.882  0.0347 -0.5843  0.0379
 2860SOL     OW10779   0.628   6.226   6.842 -0.8363 -0.1252 -0.6291
 2860SOL    HW110780   0.609   6.319   6.847  1.0462  0.3318 -1.1538
 2860SOL    HW210781   0.717   6.218   6.876 -0.3349 -1.4788 -2.1430
 2861SOL     OW10782   0.258   0.370   7.816  0.3168 -0.6440 -0.3909
 2861SOL    HW110783   0.172   0.366   7.774  0.3931 -1.4784 -0.4810
 2861SOL    HW210784   0.293   0.282   7.807  1.2502 -0.2717 -0.4869
 2862SOL     OW10785   0.758   0.364   7.068 -0.4330 -0.5793  0.1739
 2862SOL    HW110786   0.761   0.290   7.129 -1.4874 -0.4902  0.3544
 2862SOL    HW210787   0.672   0.357   7.026  0.5008 -0.9855 -1.7586
 2863SOL     OW10788   6.844   6.878   5.040  0.0423  0.1868 -0.4769
 2863SOL    HW110789   6.884   6.934   5.107 -0.4329  0.0455 -0.0665
 2863SOL    HW210790   6.750   6.888   5.053 -0.0514 -0.3652 -0.6784
 2864SOL     OW10791   7.980   2.661   5.289 -0.2456  0.6211  0.1463
 2864SOL    HW110792   7.945   2.634   5.374 -0.2997 -0.3755 -0.1755
 2864SOL    HW210793   7.916   2.629   5.226  1.6130 -2.1842 -0.5495
 2865SOL     OW10794   3.619   1.688   7.585  0.7505  0.2517 -0.3878
 2865SOL    HW110795   3.670   1.636   7.647  0.9162 -0.5607 -1.1723
 2865SOL    HW210796   3.589   1.624   7.519  0.4157  1.0467 -1.0301
 2866SOL     OW10797   1.254   5.667   2.274  0.5548 -0.0150 -0.1541
 2866SOL    HW110798   1.266   5.593   2.215  0.0570  0.0890 -0.3933
 2866SOL    HW210799   1.223   5.628   2.356  1.3504 -0.1694  0.0859
 2867SOL     OW10800   5.054   1.244   9.274 -0.1044 -0.2541 -0.1185
 2867SOL    HW110801   5.000   1.266   9.349  2.4256  0.2741  1.6507
 2867SOL    HW210802   5.053   1.323   9.219 -1.8929 -0.6158 -0.6686
 2868SOL     OW10803   4.802   4.964   2.115 -0.3818  0.1591 -0.3371
 2868SOL    HW110804   4.797   4.914   2.033 -0.8955  0.5187 -0.5347
 2868SOL    HW210805   4.845   5.046   2.091  0.3036 -0.1139 -0.0505
 2869SOL     OW10806   3.944   4.515   7.035 -0.6323 -0.1342 -0.2006
 2869SOL    HW110807   3.904   4.434   7.067 -1.1999  0.7495  1.4441
 2869SOL    HW210808   3.881   4.550   6.972 -1.7455  0.3982  1.1438
 2870SOL     OW10809   1.542   6.306   5.868 -0.0342 -0.1170 -0.1652
 2870SOL    HW110810   1.605   6.354   5.921  0.4560 -0.8204 -0.1057
 2870SOL    HW210811   1.489   6.374   5.826 -1.3247  0.4550  2.2490
 2871SOL     OW10812   0.323   4.366   1.647 -0.2859 -0.1761 -0.5215
 2871SOL    HW110813   0.246   4.422   1.641 -1.0849 -1.2657 -0.6594
 2871SOL    HW210814   0.365   4.392   1.729 -1.8506 -0.8578  0.5377
 2872SOL     OW10815   7.271   4.078   7.458  0.4865 -0.3996  0.2491
 2872SOL    HW110816   7.201   4.132   7.493  0.3010 -0.6553  0.2805
 2872SOL    HW210817   7.233   4.037   7.380  1.0609  0.5576 -0.5428
 2873SOL     OW10818   2.687   2.432   8.498  0.0889  0.3537 -0.0777
 2873SOL    HW110819   2.758   2.495   8.483  2.3699 -1.3243  2.5071
 2873SOL    HW210820   2.689   2.375   8.421  3.0103 -0.7868  0.6727
 2874SOL     OW10821   3.062   2.659   4.765  0.7819  0.6628  0.1367
 2874SOL    HW110822   3.004   2.735   4.763  0.3763  0.3844  1.0273
 2874SOL    HW210823   3.109   2.667   4.848  0.3667 -0.3233  0.4765
 2875SOL     OW10824   2.543   4.418   9.189 -0.3547  0.4878 -0.2166
 2875SOL    HW110825   2.556   4.421   9.094  0.1323 -0.5144 -0.1958
 2875SOL    HW210826   2.481   4.346   9.202  0.1873  0.1034  0.2787
 2876SOL     OW10827   4.866   0.074   1.623 -0.1958  0.2493  0.5016
 2876SOL    HW110828   4.827   0.161   1.610  0.2905  0.5002  0.6853
 2876SOL    HW210829   4.795   0.013   1.603 -0.5521  0.6888  0.3940
 2877SOL     OW10830   1.486   4.675   7.396 -0.4697 -0.0019 -0.3068
 2877SOL    HW110831   1.492   4.700   7.488 -1.2563 -1.8676  0.3048
 2877SOL    HW210832   1.566   4.710   7.356  0.9116 -0.8885  1.5294
 2878SOL     OW10833   9.321   5.218   0.922 -0.3249 -0.1925  0.1983
 2878SOL    HW110834   9.244   5.163   0.933 -0.4930  0.3985  2.3296
 2878SOL    HW210835   9.394   5.163   0.951  0.1937 -0.8715 -2.1242
 2879SOL     OW10836   6.749   7.355   4.749 -0.1174 -0.0341 -0.5454
 2879SOL    HW110837   6.756   7.349   4.844  0.4368 -0.8599 -0.6289
 2879SOL    HW210838   6.838   7.339   4.717 -0.6581 -1.8729 -1.2884
 2880SOL     OW10839   3.828   1.528   9.210 -0.4792 -0.1263  0.2924
 2880SOL    HW110840   3.863   1.590   9.274  1.9989 -0.3987 -0.6961
 2880SOL    HW210841   3.772   1.469   9.262 -1.1213  1.5601  1.6145
 2881SOL     OW10842   0.692   1.067   7.604 -0.0078 -0.1870 -0.0089
 2881SOL    HW110843   0.775   1.100   7.569  1.2248 -1.1334  1.8809
 2881SOL    HW210844   0.703   1.067   7.699 -2.3424  0.0351  0.3258
 2882SOL     OW10845   0.210   2.618   0.484 -0.0124 -0.3763  0.0713
 2882SOL    HW110846   0.204   2.587   0.575 -0.9279 -4.0691 -1.0834
 2882SOL    HW210847   0.120   2.628   0.456  0.1014 -2.6386 -1.3415
 2883SOL     OW10848   8.029   6.089   8.161  0.0609  0.3466 -0.6330
 2883SOL    HW110849   7.934   6.083   8.158  0.1423 -1.0064 -2.0124
 2883SOL    HW210850   8.052   6.083   8.253 -1.0985 -1.4668 -0.4300
 2884SOL     OW10851   6.479   5.624   2.907  0.1712 -0.8169 -0.4435
 2884SOL    HW110852   6.402   5.645   2.853  0.2812  0.1347 -0.2538
 2884SOL    HW210853   6.550   5.676   2.869  0.3639 -0.5178  0.3006
 2885SOL     OW10854   1.894   9.539   0.991 -0.4354  0.7588 -0.4863
 2885SOL    HW110855   1.918   9.604   0.925  0.6679 -0.1226 -0.9982
 2885SOL    HW210856   1.829   9.583   1.046  0.9282  2.6190 -0.2508
 2886SOL     OW10857   4.041   7.307   8.502  1.0355 -0.0894 -0.1687
 2886SOL    HW110858   4.033   7.257   8.583  2.3411 -0.6022 -0.3362
 2886SOL    HW210859   3.967   7.279   8.449 -0.5702  1.1666  1.2857
 2887SOL     OW10860   6.154   7.958   8.090  0.8650 -0.1492 -0.2095
 2887SOL    HW110861   6.182   8.033   8.143  0.0315  1.0805 -1.4280
 2887SOL    HW210862   6.206   7.966   8.010  0.1106 -0.3181 -0.7287
 2888SOL     OW10863   2.244   0.459   7.026 -0.1061 -0.1792  0.3033
 2888SOL    HW110864   2.180   0.450   7.096  0.9737 -0.6047  1.2582
 2888SOL    HW210865   2.193   0.487   6.950 -1.7667 -2.5003  0.4546
 2889SOL     OW10866   2.826   8.246   9.325  0.2230  0.3481  0.5668
 2889SOL    HW110867   2.905   8.292   9.353  0.7520  1.1315 -1.9299
 2889SOL    HW210868   2.763   8.316   9.307 -1.6915 -0.2925  3.8918
 2890SOL     OW10869   2.833   8.692   8.145  0.7100  0.4441  0.2941
 2890SOL    HW110870   2.869   8.658   8.063 -0.1181  1.8351 -0.6932
 2890SOL    HW210871   2.743   8.660   8.146 -0.3024  2.9685 -0.9881
 2891SOL     OW10872   6.820   8.148   1.891  0.5808  0.4980 -0.7611
 2891SOL    HW110873   6.870   8.085   1.838  1.7974  1.2455 -0.5367
 2891SOL    HW210874   6.729   8.125   1.875  0.9530 -0.1641 -2.1206
 2892SOL     OW10875   0.228   9.123   8.462 -0.4009 -0.0746  0.5748
 2892SOL    HW110876   0.310   9.149   8.504 -0.4141 -0.1632  0.6564
 2892SOL    HW210877   0.189   9.061   8.523 -0.7262  0.2784  0.7261
 2893SOL     OW10878   8.933   8.648   3.069  0.0153  0.6360 -0.4875
 2893SOL    HW110879   8.941   8.678   2.978 -0.6408  0.8630 -0.4789
 2893SOL    HW210880   8.983   8.712   3.120  1.7361 -0.3759 -0.8308
 2894SOL     OW10881   7.413   9.040   3.772 -0.1081  0.0863 -0.1877
 2894SOL    HW110882   7.329   9.071   3.737 -0.1912  1.2094  0.9152
 2894SOL    HW210883   7.397   8.948   3.794 -0.4179 -0.2955 -1.8663
 2895SOL     OW10884   3.128   0.891   0.940 -0.1058  0.0030 -0.6309
 2895SOL    HW110885   3.069   0.910   0.867 -1.8993  1.5854  1.1182
 2895SOL    HW210886   3.184   0.969   0.946 -0.7704  0.4305  0.3644
 2896SOL     OW10887   2.662   2.981   8.442 -0.0942 -0.0135  0.0132
 2896SOL    HW110888   2.579   2.936   8.458  0.5801 -1.2525  0.1351
 2896SOL    HW210889   2.659   3.004   8.350 -1.2842  1.4775  0.3826
 2897SOL     OW10890   3.096   1.464   1.087 -0.1619 -0.6136 -0.2747
 2897SOL    HW110891   3.022   1.492   1.141 -0.6838 -1.4768 -0.5115
 2897SOL    HW210892   3.153   1.417   1.147 -0.1102 -0.4801 -0.2187
 2898SOL     OW10893   9.028   6.383   4.322 -0.2636  0.0401 -0.3414
 2898SOL    HW110894   9.069   6.347   4.401 -2.0669  0.8905  1.0596
 2898SOL    HW210895   9.086   6.455   4.296 -0.1956  0.4499  0.8682
 2899SOL     OW10896   9.564   6.148   6.738  0.4009 -0.1150  0.0982
 2899SOL    HW110897   9.498   6.173   6.802  1.4207  1.2942  0.6487
 2899SOL    HW210898   9.623   6.089   6.786  2.4468  2.6520  1.2834
 2900SOL     OW10899   3.713   4.016   4.602 -0.2402  0.4530  0.1804
 2900SOL    HW110900   3.784   3.975   4.652  0.2381  0.8712 -0.1517
 2900SOL    HW210901   3.635   3.969   4.630  0.2769 -0.5793 -0.0628
 2901SOL     OW10902   3.430   8.147   4.770  0.2262 -0.3012  0.1222
 2901SOL    HW110903   3.495   8.197   4.820  1.4095  0.5941 -2.1418
 2901SOL    HW210904   3.440   8.057   4.801  1.6582  0.0375  0.7499
 2902SOL     OW10905   2.546   4.052   5.972  0.1377  0.1635 -0.0879
 2902SOL    HW110906   2.460   4.014   5.988  0.1722  0.7866  1.9473
 2902SOL    HW210907   2.571   4.092   6.056  1.6830  1.4666 -1.0824
 2903SOL     OW10908   2.995   8.748   6.832 -0.3270  0.0288  0.4479
 2903SOL    HW110909   3.075   8.697   6.842 -0.4882 -0.0226  1.6309
 2903SOL    HW210910   2.936   8.712   6.898 -0.4664  1.6920  1.2793
 2904SOL     OW10911   7.892   4.893   4.192  0.4677 -0.1350 -0.2491
 2904SOL    HW110912   7.985   4.891   4.170  0.4774 -0.4404 -0.1881
 2904SOL    HW210913   7.881   4.821   4.254  0.6081  1.2119  1.4160
 2905SOL     OW10914   0.011   5.395   0.593  0.3272  0.0707  0.5122
 2905SOL    HW110915   0.050   5.308   0.600 -1.9341 -0.9810  1.2877
 2905SOL    HW210916   0.012   5.429   0.683 -0.1490  0.1759  0.4845
 2906SOL     OW10917   7.650   5.937   5.308 -0.0749 -0.4664 -0.4440
 2906SOL    HW110918   7.662   5.883   5.386 -1.4882  1.6272  1.3312
 2906SOL    HW210919   7.695   5.889   5.238 -0.1194 -3.2077  1.2833
 2907SOL     OW10920   6.994   8.945   3.587  0.3425  0.4091 -0.2767
 2907SOL    HW110921   6.961   8.969   3.674  0.1938 -0.1011 -0.1937
 2907SOL    HW210922   6.916   8.920   3.538  0.4482  0.5205 -0.5031
 2908SOL     OW10923   2.066   2.459   3.018  0.1790  0.1346 -0.3647
 2908SOL    HW110924   2.031   2.483   2.932  0.4587  1.5175 -0.1281
 2908SOL    HW210925   2.154   2.496   3.019  0.9759 -1.6630 -0.2366
 2909SOL     OW10926   0.894   4.943   7.035  0.2970  0.3877  0.3720
 2909SOL    HW110927   0.909   4.929   7.129 -0.6141 -1.5145  0.2733
 2909SOL    HW210928   0.901   5.038   7.024  1.5805  0.5490  2.1439
 2910SOL     OW10929   5.057   1.873   3.939  0.1753  0.4650 -0.6536
 2910SOL    HW110930   5.024   1.917   4.017  0.1990  2.0867 -1.5048
 2910SOL    HW210931   4.980   1.837   3.896 -0.1763  1.7969 -1.1796
 2911SOL     OW10932   8.432   1.491   4.163  0.0707  0.5145  0.1874
 2911SOL    HW110933   8.395   1.471   4.076 -0.6451  0.7221  0.4327
 2911SOL    HW210934   8.440   1.586   4.164 -2.4626  0.8064  1.2965
 2912SOL     OW10935   2.084   4.064   2.282 -0.1270 -0.1252 -0.6017
 2912SOL    HW110936   2.176   4.059   2.259  0.1878  0.5973  0.4629
 2912SOL    HW210937   2.045   3.987   2.241  1.2273 -1.2982  0.2398
 2913SOL     OW10938   6.617   1.012   5.979  0.2442  0.5330  0.0171
 2913SOL    HW110939   6.621   1.106   5.964 -3.5948  1.1505  1.8018
 2913SOL    HW210940   6.526   0.988   5.959  0.8077 -2.6131  0.6757
 2914SOL     OW10941   4.072   8.936   5.693 -0.0254 -0.2021  0.1518
 2914SOL    HW110942   4.076   8.848   5.655 -0.0535  0.0954 -0.5534
 2914SOL    HW210943   4.091   8.922   5.786  3.4579 -0.5945 -0.4569
 2915SOL     OW10944   6.056   7.285   5.185  0.2704  0.7186 -0.1352
 2915SOL    HW110945   6.086   7.310   5.097 -0.2008  1.7169 -0.0261
 2915SOL    HW210946   6.113   7.213   5.210  1.7752  1.7508 -0.4354
 2916SOL     OW10947   8.732   4.685   9.386  0.1760  0.4117  0.1655
 2916SOL    HW110948   8.763   4.596   9.367  0.5999 -0.0597  2.6999
 2916SOL    HW210949   8.811   4.739   9.384  0.5084  0.0596  1.9849
 2917SOL     OW10950   0.298   8.941   6.047  0.4730 -0.2730  0.0148
 2917SOL    HW110951   0.389   8.950   6.074  1.0835  0.1976 -2.0370
 2917SOL    HW210952   0.301   8.889   5.967 -0.9186  0.7878 -0.7913
 2918SOL     OW10953   4.267   8.304   4.087  0.2724  0.5223 -0.2188
 2918SOL    HW110954   4.326   8.357   4.033  0.2843 -0.0773 -0.8040
 2918SOL    HW210955   4.324   8.236   4.124  0.0055  0.0961 -0.5782
 2919SOL     OW10956   3.139   6.276   0.876  0.9785  0.5152  0.1726
 2919SOL    HW110957   3.190   6.248   0.800  0.6205 -0.5211  0.2999
 2919SOL    HW210958   3.117   6.195   0.921  1.8960  1.1646  1.8558
 2920SOL     OW10959   0.425   8.215   5.816 -0.6551 -0.0666 -0.0240
 2920SOL    HW110960   0.408   8.306   5.790 -0.9371  0.0674  0.6023
 2920SOL    HW210961   0.488   8.222   5.888 -0.3382 -0.3940 -0.2682
 2921SOL     OW10962   3.977   2.338   3.335  0.0678 -0.1792 -0.0283
 2921SOL    HW110963   4.027   2.397   3.278  1.3998 -2.3312 -1.2226
 2921SOL    HW210964   4.043   2.302   3.395 -0.4853 -1.2721 -0.0586
 2922SOL     OW10965   5.429   3.099   6.010 -0.4573 -0.1570  0.4173
 2922SOL    HW110966   5.361   3.140   5.956  1.4536  1.9870 -0.5278
 2922SOL    HW210967   5.457   3.022   5.960  0.3928  1.0884 -1.1233
 2923SOL     OW10968   3.384   6.287   4.225 -0.1956  0.2385 -0.3002
 2923SOL    HW110969   3.397   6.379   4.203  0.0262 -0.2257 -2.2067
 2923SOL    HW210970   3.469   6.257   4.257 -0.2164  0.6371  0.1332
 2924SOL     OW10971   0.721   0.865   8.878  0.1135  0.0636  0.1142
 2924SOL    HW110972   0.703   0.796   8.814 -1.0429  0.1036  0.3664
 2924SOL    HW210973   0.779   0.926   8.833  1.1574 -1.0646 -0.1173
 2925SOL     OW10974   6.747   7.195   2.895  0.5491 -0.2384  0.0646
 2925SOL    HW110975   6.728   7.289   2.904 -0.8673 -0.4230 -0.6359
 2925SOL    HW210976   6.812   7.189   2.825  1.0683  0.2516  0.5005
 2926SOL     OW10977   9.033   4.296   7.049  0.1269 -0.2472 -0.5124
 2926SOL    HW110978   9.002   4.386   7.038  0.6035 -0.1665 -1.2062
 2926SOL    HW210979   8.980   4.245   6.988 -1.5270 -0.7744  1.2567
 2927SOL     OW10980   2.593   0.631   4.964 -0.2611 -0.1178  0.0146
 2927SOL    HW110981   2.573   0.721   4.938  1.5072  0.1315 -0.5489
 2927SOL    HW210982   2.608   0.585   4.882 -4.0675 -1.7742  0.0269
 2928SOL     OW10983   6.752   4.818   8.459  0.1252  0.6695  0.5861
 2928SOL    HW110984   6.779   4.837   8.548 -0.0025  1.6835  0.4286
 2928SOL    HW210985   6.797   4.884   8.406 -0.9518  1.0234  0.0826
 2929SOL     OW10986   8.831   2.387   5.835  0.6139 -0.1700 -0.1445
 2929SOL    HW110987   8.772   2.408   5.908 -1.2704 -0.6434 -1.4627
 2929SOL    HW210988   8.892   2.461   5.832 -0.4759  0.8093  0.7074
 2930SOL     OW10989   5.210   5.747   2.651 -0.9944 -0.6050 -0.3642
 2930SOL    HW110990   5.177   5.833   2.624 -1.3243 -1.0596 -1.4653
 2930SOL    HW210991   5.234   5.704   2.569  0.7408 -0.9490  0.2942
 2931SOL     OW10992   7.434   1.605   6.460 -0.4040 -0.0867  0.3429
 2931SOL    HW110993   7.490   1.571   6.531  1.2527 -1.9736 -1.7056
 2931SOL    HW210994   7.483   1.679   6.425  0.8483 -1.6243 -1.3306
 2932SOL     OW10995   6.466   4.395   1.223 -0.1825 -0.3077 -0.2989
 2932SOL    HW110996   6.512   4.402   1.140  2.8561  1.9771  1.3410
 2932SOL    HW210997   6.453   4.486   1.251 -1.4597 -0.9923  1.5558
 2933SOL     OW10998   0.581   4.450   4.633  0.2789  0.0870  0.4166
 2933SOL    HW110999   0.657   4.508   4.623  0.5306  0.0510  1.8746
 2933SOL    HW211000   0.540   4.479   4.715 -0.7608 -0.4953  0.1149
 2934SOL     OW11001   5.902   5.688   2.737 -0.5117  0.0823 -0.7764
 2934SOL    HW111002   5.863   5.653   2.817 -1.1563 -0.6430 -1.3886
 2934SOL    HW211003   5.996   5.679   2.750 -0.6469 -1.8451 -0.8529
 2935SOL     OW11004   2.358   5.145   3.565 -0.7295  0.2122  0.1016
 2935SOL    HW111005   2.375   5.174   3.655  1.2225  0.3944 -0.2955
 2935SOL    HW211006   2.355   5.049   3.571 -0.4179  0.2171  0.3234
 2936SOL     OW11007   5.784   1.549   4.087  0.4313 -0.0851  0.3762
 2936SOL    HW111008   5.803   1.602   4.009  0.0679  0.1613  0.4486
 2936SOL    HW211009   5.688   1.543   4.088  0.5074 -1.6290 -0.2097
 2937SOL     OW11010   0.158   4.716   9.040 -0.1300  0.2491 -0.6813
 2937SOL    HW111011   0.157   4.745   8.949  2.2986  1.7617 -0.3112
 2937SOL    HW211012   0.220   4.643   9.041  1.1142  1.2787 -0.0160
 2938SOL     OW11013   5.148   9.245   9.002  0.0704 -0.1611  0.1250
 2938SOL    HW111014   5.173   9.228   8.911  1.0188  1.3800  0.0615
 2938SOL    HW211015   5.067   9.196   9.014 -0.8986  0.7907 -2.0075
 2939SOL     OW11016   3.664   9.523   3.982 -0.9287  0.4764  0.6109
 2939SOL    HW111017   3.701   9.507   4.069  1.8289 -0.4482 -0.6207
 2939SOL    HW211018   3.691   9.612   3.960  1.0168 -0.3199 -0.4314
 2940SOL     OW11019   4.220   4.969   8.245 -0.1269 -0.0471  0.3376
 2940SOL    HW111020   4.265   5.032   8.190 -1.7335 -0.1945 -1.2474
 2940SOL    HW211021   4.245   4.884   8.210 -1.1106 -0.1433 -0.1707
 2941SOL     OW11022   1.481   2.048   9.084 -0.0933  0.6191  0.0768
 2941SOL    HW111023   1.510   1.958   9.070 -0.2847  0.6529 -0.5887
 2941SOL    HW211024   1.390   2.040   9.113  0.3970  0.5346  1.6852
 2942SOL     OW11025   4.213   8.354   3.757  0.1039 -0.0854 -0.0033
 2942SOL    HW111026   4.121   8.343   3.733  0.3822 -0.4044 -0.9821
 2942SOL    HW211027   4.215   8.434   3.809 -1.1589 -1.5689  2.5391
 2943SOL     OW11028   4.645   7.399   2.949 -0.0228 -0.3336 -0.3743
 2943SOL    HW111029   4.665   7.440   2.865 -1.4783  0.6736 -0.2496
 2943SOL    HW211030   4.587   7.460   2.994  0.7527 -0.8325  1.4036
 2944SOL     OW11031   3.031   8.750   3.217 -0.2401  0.0765 -0.2489
 2944SOL    HW111032   3.039   8.673   3.274 -1.3879  0.5116  0.5413
 2944SOL    HW211033   3.094   8.812   3.251 -0.0407 -0.1305 -0.2388
 2945SOL     OW11034   0.357   1.936   5.123  0.0568  0.1680 -0.1721
 2945SOL    HW111035   0.441   1.967   5.156  0.8392 -0.0170 -1.8776
 2945SOL    HW211036   0.367   1.840   5.122 -0.5495  0.0889  0.5156
 2946SOL     OW11037   5.035   7.652   5.711  0.3083 -0.2660 -0.0030
 2946SOL    HW111038   5.080   7.720   5.662  0.0444 -0.6011 -0.7234
 2946SOL    HW211039   4.948   7.647   5.671  0.6056 -1.5995 -0.5128
 2947SOL     OW11040   5.535   6.932   5.319  0.4534  0.0430 -0.8269
 2947SOL    HW111041   5.557   6.841   5.339 -0.0096  0.1770  0.3582
 2947SOL    HW211042   5.467   6.926   5.251  2.4186 -0.4034 -2.8653
 2948SOL     OW11043   2.157   2.776   8.587 -0.4166  0.2225  0.5365
 2948SOL    HW111044   2.111   2.830   8.651 -0.8509 -1.7331  1.9377
 2948SOL    HW211045   2.241   2.754   8.629 -1.3508 -2.3842  1.2060
 2949SOL     OW11046   2.479   1.086   8.833  0.3670 -0.4102 -0.1465
 2949SOL    HW111047   2.532   1.151   8.881 -1.4206 -0.2735  1.7931
 2949SOL    HW211048   2.427   1.138   8.772  0.4560 -0.2518 -0.0899
 2950SOL     OW11049   4.764   4.604   1.983 -0.0369 -0.1127  0.0971
 2950SOL    HW111050   4.838   4.665   1.990 -0.0831 -0.2408  2.3669
 2950SOL    HW211051   4.693   4.648   2.029 -0.9772 -0.6287 -0.8245
 2951SOL     OW11052   4.546   3.375   0.657 -0.3594 -0.6481 -0.3895
 2951SOL    HW111053   4.613   3.440   0.635 -0.7198 -0.0451  0.2342
 2951SOL    HW211054   4.529   3.329   0.575 -1.4275  1.2963 -1.3337
 2952SOL     OW11055   6.816   1.082   3.523 -0.0578  0.0173  1.0784
 2952SOL    HW111056   6.841   1.174   3.531  0.6600  0.0791 -1.1263
 2952SOL    HW211057   6.897   1.034   3.542  0.0107 -0.0667  0.5969
 2953SOL     OW11058   5.531   3.468   2.649 -0.2690 -0.4026 -1.0896
 2953SOL    HW111059   5.520   3.380   2.612  1.8996 -1.0077 -0.4125
 2953SOL    HW211060   5.463   3.520   2.605 -0.9225 -2.1543 -2.3014
 2954SOL     OW11061   0.228   7.478   4.304 -0.6007  0.1056 -0.0020
 2954SOL    HW111062   0.257   7.500   4.216 -1.0033  1.0543  0.0908
 2954SOL    HW211063   0.153   7.535   4.320 -0.2649  0.2665  1.1130
 2955SOL     OW11064   7.054   6.785   3.431  0.0792  0.0984  0.1675
 2955SOL    HW111065   7.004   6.836   3.495  0.4789  1.2368 -0.3891
 2955SOL    HW211066   7.009   6.799   3.348 -0.1243 -0.9297  0.0919
 2956SOL     OW11067   5.591   9.319   1.940 -0.0677 -0.1108 -0.0626
 2956SOL    HW111068   5.669   9.263   1.943 -0.2408 -0.3546 -0.0962
 2956SOL    HW211069   5.526   9.272   1.992  0.0997  0.5443  0.7723
 2957SOL     OW11070   9.568   7.590   3.450  0.1079 -0.4535  0.1439
 2957SOL    HW111071   9.632   7.657   3.425 -1.0458  0.2527 -1.0830
 2957SOL    HW211072   9.558   7.599   3.545 -1.8089  2.8627 -0.2383
 2958SOL     OW11073   8.590   0.883   5.831  0.2120  0.3155  0.1867
 2958SOL    HW111074   8.624   0.798   5.859  0.3747  0.2859 -0.0956
 2958SOL    HW211075   8.652   0.913   5.764  0.3412  0.8089  0.5197
 2959SOL     OW11076   6.698   1.029   4.284  0.4591  0.3009  0.2232
 2959SOL    HW111077   6.716   1.094   4.352 -3.7207  0.8908  1.0114
 2959SOL    HW211078   6.683   0.947   4.333 -0.8096  0.3205 -0.1036
 2960SOL     OW11079   0.736   2.081   8.194  0.0696  0.0302 -0.0157
 2960SOL    HW111080   0.717   2.082   8.287  1.1269 -0.9121  0.2300
 2960SOL    HW211081   0.782   1.998   8.179 -0.5948 -0.1176 -1.4781
 2961SOL     OW11082   6.694   0.682   4.229 -0.6070  0.4398  0.1992
 2961SOL    HW111083   6.687   0.729   4.312  0.3236  0.9586 -0.0108
 2961SOL    HW211084   6.608   0.692   4.188 -1.1584 -0.0220  1.1931
 2962SOL     OW11085   4.803   1.445   8.380  0.0151 -0.1066  0.3892
 2962SOL    HW111086   4.780   1.537   8.367 -1.5942 -0.7312 -1.6796
 2962SOL    HW211087   4.743   1.416   8.449 -1.7276 -0.3282 -1.1382
 2963SOL     OW11088   0.662   1.076   3.431 -0.0229  0.6815  0.0348
 2963SOL    HW111089   0.622   1.034   3.355  0.4513  0.8391 -0.3127
 2963SOL    HW211090   0.631   1.026   3.506 -1.4967  1.2982 -0.1448
 2964SOL     OW11091   9.146   0.545   4.188 -0.0622 -0.4977  0.0816
 2964SOL    HW111092   9.060   0.554   4.148  0.1155 -0.2483 -0.2513
 2964SOL    HW211093   9.206   0.585   4.125  0.1370  0.5812  0.9332
 2965SOL     OW11094   2.244   4.597   4.635  0.2501  0.4305  0.0103
 2965SOL    HW111095   2.234   4.691   4.621  0.9777  0.6292  0.8293
 2965SOL    HW211096   2.236   4.560   4.547 -0.1962  1.2295 -0.3046
 2966SOL     OW11097   2.765   4.873   5.379 -0.1103  0.0670 -0.1455
 2966SOL    HW111098   2.806   4.947   5.333  0.5430  1.7247  2.8439
 2966SOL    HW211099   2.679   4.864   5.337 -0.5829  3.1519 -0.0984
 2967SOL     OW11100   8.835   5.923   6.359 -0.1322  0.5304 -0.1952
 2967SOL    HW111101   8.759   5.872   6.388 -0.7312  0.5611 -1.6407
 2967SOL    HW211102   8.902   5.857   6.339  1.0259  0.5461  2.9544
 2968SOL     OW11103   4.526   7.179   6.676 -0.1266  0.3748 -0.0152
 2968SOL    HW111104   4.587   7.202   6.746 -1.3271  0.3646  1.0752
 2968SOL    HW211105   4.459   7.248   6.680 -0.8106 -0.2561 -0.3997
 2969SOL     OW11106   1.798   7.743   8.735  0.5139  0.5324 -0.0480
 2969SOL    HW111107   1.851   7.785   8.803  1.0448 -2.8291  1.8531
 2969SOL    HW211108   1.860   7.687   8.687 -0.4096  0.5527 -1.3323
 2970SOL     OW11109   6.753   2.470   0.665 -0.1404 -0.6617 -0.3102
 2970SOL    HW111110   6.666   2.500   0.692 -0.1545 -0.4371 -0.5992
 2970SOL    HW211111   6.796   2.444   0.747 -0.8612 -1.7943 -0.2703
 2971SOL     OW11112   0.668   7.156   6.991  0.0606  0.2416  0.4212
 2971SOL    HW111113   0.760   7.157   6.964  0.1274  0.7986  0.6523
 2971SOL    HW211114   0.653   7.243   7.028 -0.2088 -0.2796  1.5692
 2972SOL     OW11115   6.208   2.391   6.935 -0.7346 -0.6271  0.0105
 2972SOL    HW111116   6.123   2.348   6.943 -0.4864 -0.9858  0.8207
 2972SOL    HW211117   6.261   2.352   7.004 -0.5765  1.1488  0.9566
 2973SOL     OW11118   7.441   6.388   7.746  0.0246  0.2505 -0.1587
 2973SOL    HW111119   7.492   6.335   7.807 -0.3641 -0.7365 -0.6714
 2973SOL    HW211120   7.425   6.470   7.793 -0.0533 -0.3900  0.9632
 2974SOL     OW11121   1.300   6.329   4.853  0.3739  0.0642  0.2857
 2974SOL    HW111122   1.289   6.408   4.906 -0.0780 -1.0798  1.9955
 2974SOL    HW211123   1.264   6.259   4.907  1.3950 -1.4228 -0.8744
 2975SOL     OW11124   6.712   2.177   7.867  0.2894 -0.5637  0.1211
 2975SOL    HW111125   6.780   2.187   7.800  0.1999 -0.4313  0.0501
 2975SOL    HW211126   6.698   2.083   7.872 -0.3559 -0.5229 -0.7035
 2976SOL     OW11127   0.502   7.303   3.350 -0.5266  0.2158 -0.4995
 2976SOL    HW111128   0.487   7.286   3.443 -0.5414 -2.5200 -0.9484
 2976SOL    HW211129   0.557   7.382   3.350 -1.2725  0.8353  1.7556
 2977SOL     OW11130   2.894   1.176   2.697  0.1965  0.1731 -0.5819
 2977SOL    HW111131   2.925   1.256   2.656 -0.9958  1.1270  0.2947
 2977SOL    HW211132   2.808   1.161   2.658  1.5199 -2.3421 -2.8835
 2978SOL     OW11133   8.670   1.247   6.713 -0.0451  0.3922  0.1544
 2978SOL    HW111134   8.709   1.207   6.636  0.7490  1.8946 -0.2643
 2978SOL    HW211135   8.576   1.240   6.698  0.0723 -0.6858 -0.2055
 2979SOL     OW11136   2.659   1.133   0.566 -0.0537 -0.1474 -0.4709
 2979SOL    HW111137   2.718   1.196   0.606 -0.2174 -0.5090  0.3592
 2979SOL    HW211138   2.714   1.058   0.546  0.6227  1.0037 -3.4633
 2980SOL     OW11139   7.484   6.528   8.651  0.3521  0.0782 -0.1371
 2980SOL    HW111140   7.515   6.615   8.627 -0.0343  0.2489 -0.0193
 2980SOL    HW211141   7.451   6.538   8.740 -0.0358 -0.1028 -0.2577
 2981SOL     OW11142   7.381   8.203   8.490  0.5578  0.3477 -0.1749
 2981SOL    HW111143   7.398   8.281   8.544  0.1405  0.0358  0.4278
 2981SOL    HW211144   7.465   8.159   8.484  0.7278  0.6777 -0.2478
 2982SOL     OW11145   5.830   3.465   2.644 -0.3342 -0.2617 -0.1503
 2982SOL    HW111146   5.735   3.457   2.655 -0.3011 -1.7774 -0.7811
 2982SOL    HW211147   5.844   3.558   2.623 -1.8084 -0.2941 -1.4047
 2983SOL     OW11148   9.044   2.669   0.371  0.7819 -0.2146  0.4284
 2983SOL    HW111149   9.091   2.692   0.290 -0.9809  0.1463 -0.5365
 2983SOL    HW211150   9.023   2.752   0.412  0.8027 -0.3694  0.7603
 2984SOL     OW11151   7.154   3.607   7.061 -0.1483  0.0841 -0.0032
 2984SOL    HW111152   7.156   3.661   6.982  0.3941 -0.5159 -0.4117
 2984SOL    HW211153   7.066   3.619   7.096  0.3882  2.3212  0.7005
 2985SOL     OW11154   4.196   5.803   8.543 -0.0587  0.3348 -0.0792
 2985SOL    HW111155   4.186   5.786   8.449 -1.2648  2.3304 -0.3572
 2985SOL    HW211156   4.238   5.888   8.548  0.9812 -0.2168  1.2238
 2986SOL     OW11157   8.217   6.886   4.467  0.7251  0.6205 -0.1136
 2986SOL    HW111158   8.185   6.972   4.495  1.2944  0.4409  1.1624
 2986SOL    HW211159   8.306   6.902   4.435  1.2856  0.3536  1.2469
 2987SOL     OW11160   6.451   6.683   0.546  0.2242  0.6692  0.4697
 2987SOL    HW111161   6.462   6.702   0.639 -1.4997 -0.1412  0.8752
 2987SOL    HW211162   6.430   6.768   0.506 -0.8796  0.7451  1.1580
 2988SOL     OW11163   6.973   9.503   3.123  0.2962  0.1384  0.2177
 2988SOL    HW111164   6.964   9.597   3.139 -1.4603  0.1781 -0.7293
 2988SOL    HW211165   7.060   9.493   3.085  0.5217  1.3682  0.3817
 2989SOL     OW11166   0.263   4.464   6.199  0.6748  0.2485  0.5034
 2989SOL    HW111167   0.188   4.521   6.183  1.0833  0.4747 -0.6468
 2989SOL    HW211168   0.241   4.420   6.281 -0.5113  0.6377  0.4224
 2990SOL     OW11169   9.316   5.423   5.471  0.4891  0.0304 -0.0340
 2990SOL    HW111170   9.268   5.368   5.410  0.4789  1.0482 -0.9720
 2990SOL    HW211171   9.406   5.392   5.467  0.2991 -0.5763  0.2304
 2991SOL     OW11172   0.259   7.459   7.455 -0.1706 -0.0767  0.0160
 2991SOL    HW111173   0.282   7.509   7.533  1.2822  0.9699 -1.0306
 2991SOL    HW211174   0.193   7.513   7.411  0.3074  0.2096 -0.3597
 2992SOL     OW11175   1.871   2.112   7.995  0.0314  0.2639 -0.5973
 2992SOL    HW111176   1.925   2.173   8.046 -0.1314  0.7988 -1.0567
 2992SOL    HW211177   1.791   2.101   8.046 -0.0112  0.5728 -0.6005
 2993SOL     OW11178   9.549   8.720   6.654  0.3572 -0.1531  0.3757
 2993SOL    HW111179   9.548   8.647   6.716  0.0560 -0.1802  0.3414
 2993SOL    HW211180   9.503   8.791   6.700  0.4014 -0.0757  0.3009
 2994SOL     OW11181   9.321   1.610   6.960 -0.3146  0.0898  0.3680
 2994SOL    HW111182   9.237   1.564   6.952  0.0212 -0.4412 -0.2290
 2994SOL    HW211183   9.321   1.644   7.049 -1.4605  0.6822  0.1641
 2995SOL     OW11184   9.133   3.969   5.287 -0.4497 -0.0561  0.6061
 2995SOL    HW111185   9.115   3.987   5.195 -0.3886  0.0665  0.6186
 2995SOL    HW211186   9.087   4.037   5.335  0.3694  0.4987  0.6207
 2996SOL     OW11187   5.021   6.369   4.144 -0.3155 -0.0905 -0.0466
 2996SOL    HW111188   5.084   6.326   4.202  0.4572  1.5194  0.3699
 2996SOL    HW211189   5.063   6.370   4.058 -0.9547 -1.4295 -0.3845
 2997SOL     OW11190   7.225   7.095   7.080  0.8319  0.9579 -0.6674
 2997SOL    HW111191   7.276   7.115   7.159  0.1743  1.3048 -0.3195
 2997SOL    HW211192   7.223   7.000   7.076  0.0180  0.9204  0.3066
 2998SOL     OW11193   3.618   6.630   5.165 -0.4580 -0.2010  0.0183
 2998SOL    HW111194   3.560   6.582   5.224 -0.9898  0.9181  0.4415
 2998SOL    HW211195   3.607   6.722   5.191 -1.8728  0.5314 -2.7931
 2999SOL     OW11196   9.427   4.941   1.161  0.0559  0.4906  0.1186
 2999SOL    HW111197   9.491   4.872   1.180 -0.6996 -0.4158 -0.5705
 2999SOL    HW211198   9.474   5.000   1.102  0.2939 -0.1389 -0.3393
 3000SOL     OW11199   2.537   4.129   6.874 -0.4143  0.0594 -0.1363
 3000SOL    HW111200   2.585   4.079   6.940 -0.5414 -1.8140 -1.3929
 3000SOL    HW211201   2.573   4.218   6.879  3.1971 -1.2225 -1.0183
 3001SOL     OW11202   4.952   5.649   6.214  0.0468 -0.4313  0.3736
 3001SOL    HW111203   4.967   5.595   6.137  0.7068 -0.2142  0.3433
 3001SOL    HW211204   4.858   5.662   6.216 -0.1980 -2.1154  0.7489
 3002SOL     OW11205   8.013   5.450   9.077  0.2284  0.5397  0.5731
 3002SOL    HW111206   8.074   5.512   9.036 -1.3563  0.6899 -1.7321
 3002SOL    HW211207   7.972   5.499   9.148 -1.8862  2.7010 -1.9417
 3003SOL     OW11208   1.576   1.483   2.565  0.1702 -0.5136 -0.7374
 3003SOL    HW111209   1.498   1.533   2.542 -1.7840 -2.4807  1.2046
 3003SOL    HW211210   1.626   1.542   2.623 -1.7124 -0.4377  0.9173
 3004SOL     OW11211   4.048   5.029   1.645  0.5630 -0.6825  0.7731
 3004SOL    HW111212   4.135   4.991   1.655  1.0674  0.2456  0.1032
 3004SOL    HW211213   4.022   5.052   1.734  0.3306 -2.3379  1.1716
 3005SOL     OW11214   1.825   7.558   8.314 -0.1550 -0.3262 -0.1302
 3005SOL    HW111215   1.898   7.510   8.274 -1.1438 -0.4258 -1.9492
 3005SOL    HW211216   1.771   7.586   8.240 -2.6799 -1.4111  1.1583
 3006SOL     OW11217   6.192   3.410   0.890  0.2073  0.7054  0.7225
 3006SOL    HW111218   6.154   3.478   0.835  0.6470 -0.2120 -0.7927
 3006SOL    HW211219   6.200   3.450   0.976  0.6864  2.6638 -0.1662
 3007SOL     OW11220   6.806   5.616   2.068  0.1178 -0.3945  0.7041
 3007SOL    HW111221   6.719   5.597   2.033  0.0856 -0.5397  0.8611
 3007SOL    HW211222   6.831   5.538   2.117 -0.5075  0.3720  2.3314
 3008SOL     OW11223   5.470   7.996   2.614  0.3761 -0.1403  0.1116
 3008SOL    HW111224   5.466   8.091   2.606  1.5314 -0.1716 -1.1798
 3008SOL    HW211225   5.564   7.976   2.618  0.2271 -1.3223 -1.2770
 3009SOL     OW11226   2.889   3.074   7.073 -0.2794  0.2811  0.0920
 3009SOL    HW111227   2.941   3.042   6.999 -1.3743 -0.9149 -0.1857
 3009SOL    HW211228   2.814   3.118   7.033 -0.2579  0.6910  0.4937
 3010SOL     OW11229   5.140   7.030   5.485 -0.7034  0.8586  0.0517
 3010SOL    HW111230   5.107   6.942   5.500  1.2848  0.1301  0.5004
 3010SOL    HW211231   5.234   7.023   5.502 -0.1008  2.5415 -2.1827
 3011SOL     OW11232   0.071   4.779   5.242  0.2069 -0.0155 -0.5952
 3011SOL    HW111233   0.111   4.697   5.269 -0.3142  0.3955  1.6256
 3011SOL    HW211234   0.141   4.825   5.194  1.6602 -0.3141  1.1351
 3012SOL     OW11235   5.421   4.304   7.381 -0.0638  0.5189 -0.4200
 3012SOL    HW111236   5.512   4.280   7.400 -0.1106 -0.6681 -1.5353
 3012SOL    HW211237   5.376   4.295   7.464  1.0544  2.3868  0.4663
 3013SOL     OW11238   8.201   8.341   3.618  0.3594  0.1582 -0.3244
 3013SOL    HW111239   8.169   8.431   3.608  1.5198  0.5412 -0.7640
 3013SOL    HW211240   8.239   8.320   3.533 -0.8455 -1.1582 -0.5808
 3014SOL     OW11241   7.959   8.866   5.441 -0.0170  0.0966  0.5842
 3014SOL    HW111242   7.896   8.869   5.369  0.8598 -0.9951 -0.2617
 3014SOL    HW211243   7.958   8.954   5.478  0.7089  1.1868 -1.8150
 3015SOL     OW11244   7.692   6.142   1.407 -0.2781  0.0425 -0.0951
 3015SOL    HW111245   7.720   6.196   1.333 -2.3539  0.7849 -0.4235
 3015SOL    HW211246   7.634   6.199   1.457 -0.4259 -1.0700  1.0450
 3016SOL     OW11247   8.338   2.952   8.260  0.5776 -0.1146 -0.1970
 3016SOL    HW111248   8.276   3.000   8.315  2.1328  1.5893  0.1669
 3016SOL    HW211249   8.371   2.882   8.317  1.0090  0.6793  0.5689
 3017SOL     OW11250   2.470   1.888   2.360 -0.5073 -0.3112  0.0175
 3017SOL    HW111251   2.454   1.921   2.272 -0.4566 -2.3509 -0.8069
 3017SOL    HW211252   2.479   1.967   2.414 -0.0353  0.9935 -1.8682
 3018SOL     OW11253   1.489   0.626   1.028 -0.0303 -0.7812 -0.7001
 3018SOL    HW111254   1.537   0.561   1.079 -0.7615 -1.4774 -0.8775
 3018SOL    HW211255   1.413   0.648   1.083  0.7874  0.7821 -0.1355
 3019SOL     OW11256   2.554   5.576   4.555  0.2299  0.3415 -0.2604
 3019SOL    HW111257   2.472   5.585   4.604 -1.2748  1.2925 -2.7537
 3019SOL    HW211258   2.594   5.663   4.560  0.9346 -0.0155  0.6217
 3020SOL     OW11259   5.474   9.464   1.751 -0.7996  0.6422  0.3759
 3020SOL    HW111260   5.497   9.411   1.827 -0.9964  0.7237  0.4927
 3020SOL    HW211261   5.545   9.449   1.688 -1.2007 -0.3099  0.1303
 3021SOL     OW11262   0.586   1.137   7.381 -0.2776 -0.5103 -0.0857
 3021SOL    HW111263   0.614   1.106   7.467 -0.4300 -1.1077 -0.2478
 3021SOL    HW211264   0.578   1.058   7.328 -1.6146 -0.3127 -0.2344
 3022SOL     OW11265   2.019   7.522   5.792 -0.0725  0.8143  0.3259
 3022SOL    HW111266   1.951   7.566   5.843 -1.0886 -0.1599 -0.1146
 3022SOL    HW211267   2.065   7.592   5.746 -1.6260  1.4400 -0.3490
 3023SOL     OW11268   0.691   7.015   5.834  0.2842  0.4626 -0.6765
 3023SOL    HW111269   0.621   6.949   5.832  1.3398 -0.8244  1.3169
 3023SOL    HW211270   0.645   7.099   5.828 -1.2680 -0.3808 -1.1979
 3024SOL     OW11271   7.602   1.974   5.552  0.2508  0.7316 -0.0749
 3024SOL    HW111272   7.634   1.884   5.551 -0.2547  0.5160 -2.7893
 3024SOL    HW211273   7.680   2.028   5.543  0.5376  0.6149  1.4052
 3025SOL     OW11274   1.962   2.494   7.846  0.2175  0.0090 -0.2733
 3025SOL    HW111275   2.039   2.503   7.791 -0.7442  0.9372 -1.5244
 3025SOL    HW211276   1.940   2.401   7.843 -0.1777  0.1272 -2.0131
 3026SOL     OW11277   4.704   8.424   8.535  0.2240  0.5573  0.0394
 3026SOL    HW111278   4.617   8.440   8.499  0.0709  1.4954  0.7724
 3026SOL    HW211279   4.752   8.382   8.464 -1.1062 -0.9119 -0.0439
 3027SOL     OW11280   0.062   2.844   5.285 -0.5816 -0.2340  0.1816
 3027SOL    HW111281   0.049   2.917   5.346  1.0939 -0.5824  1.0262
 3027SOL    HW211282   0.040   2.766   5.336  1.4244 -0.5786  0.6281
 3028SOL     OW11283   0.451   1.523   7.934 -0.5265  0.0038  0.5217
 3028SOL    HW111284   0.358   1.539   7.952 -0.7901 -0.6771 -0.1775
 3028SOL    HW211285   0.452   1.438   7.890  0.4513 -0.0719  0.6783
 3029SOL     OW11286   5.696   6.553   9.166 -0.8367 -0.1153  0.4092
 3029SOL    HW111287   5.669   6.517   9.250 -1.4203 -0.4150  0.1005
 3029SOL    HW211288   5.640   6.508   9.102 -0.9179  0.6475 -0.0681
 3030SOL     OW11289   1.469   5.193   0.465 -0.8150 -0.0078  0.2864
 3030SOL    HW111290   1.555   5.151   0.460  0.8621  3.0493  0.6635
 3030SOL    HW211291   1.465   5.230   0.553 -1.8609  1.1775 -0.2263
 3031SOL     OW11292   2.200   1.272   8.461 -0.3519 -0.3049  0.1283
 3031SOL    HW111293   2.278   1.278   8.515 -0.5492 -1.2144  0.5288
 3031SOL    HW211294   2.170   1.363   8.451  1.5736  0.2457 -1.2814
 3032SOL     OW11295   6.656   2.899   1.201  0.3397 -0.1697  0.7982
 3032SOL    HW111296   6.575   2.918   1.153 -0.9854  0.7653  3.2329
 3032SOL    HW211297   6.710   2.977   1.189  0.2242 -0.1364  0.4755
 3033SOL     OW11298   1.329   5.594   3.067  0.4849  0.1111 -0.4588
 3033SOL    HW111299   1.351   5.505   3.093 -0.7314 -0.3375 -0.9352
 3033SOL    HW211300   1.339   5.594   2.972 -1.0200  0.0489 -0.6272
 3034SOL     OW11301   6.316   7.183   4.186 -0.2844  0.2901  0.7279
 3034SOL    HW111302   6.391   7.230   4.222 -0.4062  0.3336  0.9248
 3034SOL    HW211303   6.240   7.219   4.232 -0.3256 -0.4752  1.2848
 3035SOL     OW11304   9.230   4.908   0.296 -0.3762  0.2698  0.2685
 3035SOL    HW111305   9.302   4.849   0.274 -0.2220  0.6105 -0.1541
 3035SOL    HW211306   9.180   4.862   0.363  0.4460  0.1795  0.8297
 3036SOL     OW11307   2.757   2.318   0.848 -0.4600  0.1892  0.2037
 3036SOL    HW111308   2.750   2.227   0.819  0.7168  0.4879 -1.0920
 3036SOL    HW211309   2.725   2.317   0.938  0.8317 -1.7619  0.6925
 3037SOL     OW11310   1.847   7.758   0.393  0.1791 -0.2398 -0.5513
 3037SOL    HW111311   1.880   7.698   0.326  0.6266 -0.2335 -0.3402
 3037SOL    HW211312   1.770   7.713   0.428  1.7753 -1.8355  1.1966
 3038SOL     OW11313   3.883   5.255   5.404  0.3217  0.3080 -0.1127
 3038SOL    HW111314   3.825   5.301   5.344 -0.3806 -0.9909 -0.4613
 3038SOL    HW211315   3.890   5.167   5.368 -0.3628 -0.6117  1.8449
 3039SOL     OW11316   6.518   3.128   4.704  0.2252  0.1418  0.6498
 3039SOL    HW111317   6.435   3.093   4.672  0.9471 -0.5845 -0.5088
 3039SOL    HW211318   6.580   3.056   4.692  1.2667  1.0552  0.4047
 3040SOL     OW11319   3.367   1.379   3.264  0.2881 -0.4825  0.6393
 3040SOL    HW111320   3.415   1.390   3.346  0.6851  1.5497  0.1955
 3040SOL    HW211321   3.422   1.420   3.198 -1.9534  2.0128  0.1085
 3041SOL     OW11322   4.231   6.668   2.297  0.3432 -0.2255 -0.2154
 3041SOL    HW111323   4.189   6.754   2.292 -1.2068 -0.7490  2.1155
 3041SOL    HW211324   4.319   6.687   2.328 -0.3880  0.4954  1.5570
 3042SOL     OW11325   6.080   2.593   2.495 -0.0953  0.0747 -0.4620
 3042SOL    HW111326   5.986   2.597   2.513 -0.2597 -1.5414 -0.8417
 3042SOL    HW211327   6.118   2.562   2.578 -0.0129 -0.2226 -0.6107
 3043SOL     OW11328   4.666   5.834   8.829 -0.0832  0.8172 -0.2711
 3043SOL    HW111329   4.657   5.846   8.734  0.7663  0.7245 -0.3670
 3043SOL    HW211330   4.679   5.922   8.863  0.6390  0.7490 -0.3597
 3044SOL     OW11331   1.295   5.901   8.567 -0.4286 -0.1267  0.3292
 3044SOL    HW111332   1.372   5.958   8.575 -0.6027  0.1133  0.3003
 3044SOL    HW211333   1.332   5.813   8.562 -0.1708 -0.0538  0.7837
 3045SOL     OW11334   1.841   3.009   5.765  0.0786  0.1622 -0.4003
 3045SOL    HW111335   1.748   3.024   5.777  0.5382  1.6891  1.9870
 3045SOL    HW211336   1.869   2.965   5.846  1.3130 -0.9940 -1.4005
 3046SOL     OW11337   6.219   8.682   7.526 -0.0373 -0.9279  0.2864
 3046SOL    HW111338   6.256   8.757   7.573  0.5579 -0.6450 -0.5815
 3046SOL    HW211339   6.296   8.635   7.493 -0.3959 -2.0883  1.0509
 3047SOL     OW11340   1.269   2.156   7.470  0.3096 -0.0048 -0.0560
 3047SOL    HW111341   1.210   2.229   7.485  0.7063  0.7809 -1.9823
 3047SOL    HW211342   1.351   2.181   7.513  0.1583  0.2451  0.0857
 3048SOL     OW11343   1.258   7.603   1.219 -0.0243 -0.0874  0.3439
 3048SOL    HW111344   1.306   7.605   1.301  0.4010 -2.2894  0.1955
 3048SOL    HW211345   1.168   7.581   1.244  0.0513 -0.5175  0.2338
 3049SOL     OW11346   2.386   3.880   1.966 -0.0209  0.0351 -0.3102
 3049SOL    HW111347   2.398   3.804   1.909  3.0100  0.3526 -0.3070
 3049SOL    HW211348   2.310   3.859   2.020 -2.0072 -1.0088 -3.2693
 3050SOL     OW11349   7.619   8.298   6.970 -0.1870  0.6589  0.4998
 3050SOL    HW111350   7.647   8.217   6.929 -0.3925 -0.6829  2.8136
 3050SOL    HW211351   7.591   8.354   6.897  1.6331 -0.6395 -1.2917
 3051SOL     OW11352   1.608   5.015   3.609 -0.0176 -0.3226  0.0560
 3051SOL    HW111353   1.523   4.982   3.580  0.3912 -0.2841 -1.2323
 3051SOL    HW211354   1.617   4.983   3.699 -1.2845 -0.5229  0.1213
 3052SOL     OW11355   6.369   9.478   3.323  0.1322 -0.0382 -0.2250
 3052SOL    HW111356   6.329   9.448   3.241 -2.4504  2.0322  0.1505
 3052SOL    HW211357   6.348   9.571   3.327  2.5300  0.5130  1.5525
 3053SOL     OW11358   0.842   5.785   7.518  0.2021 -0.8342  0.0436
 3053SOL    HW111359   0.779   5.808   7.449  0.9937 -1.1463 -0.8023
 3053SOL    HW211360   0.873   5.870   7.551 -1.3555 -0.6405  1.1757
 3054SOL     OW11361   9.530   5.484   8.206  0.0561 -0.1962 -0.2556
 3054SOL    HW111362   9.534   5.578   8.222 -1.3581 -0.4219  1.8188
 3054SOL    HW211363   9.558   5.444   8.288 -2.2485 -1.5404 -0.0524
 3055SOL     OW11364   4.187   3.767   8.025 -0.0388 -0.4956 -0.2107
 3055SOL    HW111365   4.203   3.843   8.081 -0.1522 -0.1895 -0.5877
 3055SOL    HW211366   4.226   3.694   8.072  1.1330 -0.0132 -0.4050
 3056SOL     OW11367   0.857   8.587   1.779  0.2644 -0.0315 -0.6181
 3056SOL    HW111368   0.848   8.672   1.821 -0.2303 -0.5773  0.3941
 3056SOL    HW211369   0.845   8.606   1.686  0.8504  1.1058 -0.4868
 3057SOL     OW11370   7.628   9.396   2.240  0.1530 -0.3841  0.3056
 3057SOL    HW111371   7.651   9.341   2.314 -0.1876  0.1119  0.7880
 3057SOL    HW211372   7.668   9.353   2.164  0.7907 -0.7133  0.8205
 3058SOL     OW11373   3.655   5.690   8.926  0.1292  0.6823 -0.2411
 3058SOL    HW111374   3.720   5.634   8.883 -1.6969 -0.3546 -1.7763
 3058SOL    HW211375   3.694   5.778   8.923  1.5046  0.0747 -1.0258
 3059SOL     OW11376   6.373   3.499   6.669  0.0243  0.2081 -0.5275
 3059SOL    HW111377   6.365   3.549   6.750  1.3003  0.4372 -0.5142
 3059SOL    HW211378   6.466   3.505   6.647  0.1654 -1.8777 -0.7055
 3060SOL     OW11379   4.233   2.321   1.137 -0.0679  0.5341  0.3716
 3060SOL    HW111380   4.143   2.351   1.129 -0.3789 -0.7623 -1.7727
 3060SOL    HW211381   4.227   2.225   1.135  1.2881  0.4045  1.1339
 3061SOL     OW11382   2.536   7.284   7.101 -0.0887  0.1147 -0.2186
 3061SOL    HW111383   2.523   7.261   7.193 -1.0366 -0.4769 -0.4930
 3061SOL    HW211384   2.452   7.322   7.073  0.5652  1.3972 -0.5240
 3062SOL     OW11385   7.261   2.602   6.672 -0.6416  0.2814  0.9346
 3062SOL    HW111386   7.235   2.599   6.764 -0.5665 -1.3664  0.9444
 3062SOL    HW211387   7.180   2.589   6.623 -0.4605 -0.6029  0.8435
 3063SOL     OW11388   0.792   3.145   1.738 -0.4073 -0.0348 -0.3924
 3063SOL    HW111389   0.849   3.154   1.814 -0.2143 -0.2040 -0.5161
 3063SOL    HW211390   0.812   3.058   1.704  0.5746  0.6089 -1.5084
 3064SOL     OW11391   9.310   2.057   6.700  0.3987 -0.1063 -0.3215
 3064SOL    HW111392   9.252   2.127   6.669  0.7647  0.8020  0.9711
 3064SOL    HW211393   9.251   1.991   6.737  0.0420 -0.5830 -1.6887
 3065SOL     OW11394   0.113   7.405   9.077  0.1981  0.0204 -0.0671
 3065SOL    HW111395   0.043   7.468   9.093 -0.5983 -0.9015  0.2404
 3065SOL    HW211396   0.193   7.457   9.073 -0.4998  1.1018 -0.4183
 3066SOL     OW11397   3.798   0.422   8.580  0.0647  0.3877 -0.1585
 3066SOL    HW111398   3.883   0.414   8.623  0.6170 -0.1260 -1.2881
 3066SOL    HW211399   3.767   0.331   8.572 -0.6340  0.5828  0.3370
 3067SOL     OW11400   8.413   3.539   6.770 -0.4894 -0.1100  0.2280
 3067SOL    HW111401   8.405   3.634   6.778 -0.7596 -0.0292 -0.8645
 3067SOL    HW211402   8.487   3.525   6.711  1.6108 -0.6845  2.7940
 3068SOL     OW11403   1.599   0.970   7.836  0.0348 -0.0711  0.1971
 3068SOL    HW111404   1.509   0.980   7.806  0.2231 -0.8424 -0.6818
 3068SOL    HW211405   1.601   0.883   7.876  0.2800  0.1326  0.6379
 3069SOL     OW11406   9.248   6.004   2.380 -0.2065  0.1545 -0.3792
 3069SOL    HW111407   9.166   6.050   2.363  0.2400  1.0851 -0.0917
 3069SOL    HW211408   9.267   5.958   2.298 -1.2234 -0.4293 -0.3027
 3070SOL     OW11409   8.823   0.918   0.469  0.2998 -0.0918 -0.2632
 3070SOL    HW111410   8.847   0.844   0.526  0.9287  0.6929  0.5125
 3070SOL    HW211411   8.833   0.995   0.525  2.1194  0.8281 -1.7413
 3071SOL     OW11412   8.391   1.064   1.144 -0.2072  0.1021  0.1402
 3071SOL    HW111413   8.479   1.061   1.108  0.0289  0.4815  0.6648
 3071SOL    HW211414   8.365   0.973   1.154 -0.7468 -0.0469 -2.0659
 3072SOL     OW11415   3.087   1.020   8.666  0.0217  0.0225  0.0298
 3072SOL    HW111416   3.024   1.084   8.633  0.3595 -0.1863 -1.0753
 3072SOL    HW211417   3.171   1.065   8.661  0.1169 -0.1220  0.3335
 3073SOL     OW11418   0.688   7.902   4.713 -0.0891 -0.2791  0.2349
 3073SOL    HW111419   0.740   7.942   4.783  0.5636 -0.2950 -0.2314
 3073SOL    HW211420   0.641   7.830   4.755  0.7369 -0.6489  0.5431
 3074SOL     OW11421   8.227   3.972   3.692  0.4214 -0.4793  0.4083
 3074SOL    HW111422   8.160   3.904   3.690 -0.2548  0.1784 -0.0369
 3074SOL    HW211423   8.307   3.929   3.664  0.5061 -1.6071  2.2410
 3075SOL     OW11424   2.857   3.708   7.351  0.3779 -0.0181  0.1210
 3075SOL    HW111425   2.854   3.686   7.258 -0.1440 -0.1902  0.1750
 3075SOL    HW211426   2.915   3.784   7.355 -1.9703  1.9613 -0.7719
 3076SOL     OW11427   2.094   5.936   2.897 -0.5117 -0.6025  1.0033
 3076SOL    HW111428   2.187   5.935   2.875 -0.3176  0.8812  1.6034
 3076SOL    HW211429   2.065   6.023   2.869 -1.4959 -0.7036  1.6762
 3077SOL     OW11430   5.558   4.979   6.943 -0.3746 -0.1768  0.1399
 3077SOL    HW111431   5.635   5.006   6.992  0.9562 -0.1713 -1.8601
 3077SOL    HW211432   5.581   4.993   6.851 -2.2154 -1.5357 -0.5975
 3078SOL     OW11433   3.665   3.555   0.125  0.4994 -0.2083 -0.1972
 3078SOL    HW111434   3.634   3.591   0.042  0.3927 -0.1758 -0.1431
 3078SOL    HW211435   3.690   3.465   0.104  2.5543  0.4360 -0.7687
 3079SOL     OW11436   8.478   1.093   4.048  0.3789 -0.2056  0.5695
 3079SOL    HW111437   8.544   1.159   4.029  2.1684 -1.9913  0.2178
 3079SOL    HW211438   8.487   1.076   4.142  0.7885 -0.8104  0.4254
 3080SOL     OW11439   4.593   0.516   9.427  0.5935 -0.0920 -0.1448
 3080SOL    HW111440   4.552   0.510   9.513 -1.5609 -0.8754 -1.1450
 3080SOL    HW211441   4.684   0.542   9.445  0.6206 -1.5896  2.4407
 3081SOL     OW11442   6.141   0.531   7.612 -0.0669  0.0352 -0.0466
 3081SOL    HW111443   6.093   0.549   7.532 -0.7220  0.1498  0.3635
 3081SOL    HW211444   6.074   0.533   7.681 -0.3409 -4.0626  0.0603
 3082SOL     OW11445   5.780   1.459   5.202  0.1633 -0.3288  0.1051
 3082SOL    HW111446   5.711   1.480   5.265 -1.3753 -0.7817 -1.3458
 3082SOL    HW211447   5.734   1.423   5.127  1.4663  3.1773 -2.7179
 3083SOL     OW11448   4.985   5.143   0.733 -0.0245 -0.3256 -0.3631
 3083SOL    HW111449   5.040   5.182   0.801 -0.0446 -1.3940  0.2842
 3083SOL    HW211450   4.930   5.215   0.702 -1.1076 -0.1298  1.8498
 3084SOL     OW11451   7.407   1.947   2.321  0.3031 -0.9113 -0.3947
 3084SOL    HW111452   7.473   1.878   2.317 -0.3416 -1.5258 -0.5833
 3084SOL    HW211453   7.325   1.904   2.297 -0.1531 -0.1339 -0.2778
 3085SOL     OW11454   5.019   7.604   0.769  0.0771  0.3721  0.0145
 3085SOL    HW111455   4.968   7.662   0.713 -1.4934  1.0822  2.0881
 3085SOL    HW211456   5.110   7.627   0.751 -0.4501  1.8629 -0.8779
 3086SOL     OW11457   1.742   5.280   5.061  0.2904  0.3325 -0.1535
 3086SOL    HW111458   1.831   5.269   5.095  0.7102  0.7526 -1.0714
 3086SOL    HW211459   1.738   5.224   4.984 -0.0454  0.7676 -0.4592
 3087SOL     OW11460   1.159   2.098   6.681  0.0542  1.1158 -0.0218
 3087SOL    HW111461   1.114   2.096   6.765  0.5152  1.0490  0.2267
 3087SOL    HW211462   1.249   2.125   6.702  0.2593  0.7899 -0.4483
 3088SOL     OW11463   6.792   4.127   9.406  0.2647  0.3465  0.1112
 3088SOL    HW111464   6.774   4.131   9.312 -1.4226  0.5399  0.4212
 3088SOL    HW211465   6.887   4.117   9.411  0.2406 -1.4011 -1.6585
 3089SOL     OW11466   1.740   5.742   3.891 -0.1325 -0.3218 -0.1158
 3089SOL    HW111467   1.694   5.740   3.808  0.7428 -0.9746 -0.6008
 3089SOL    HW211468   1.747   5.835   3.912  0.5085 -0.0818 -1.2802
 3090SOL     OW11469   4.191   9.054   7.856  0.2334  0.4416  0.0512
 3090SOL    HW111470   4.102   9.067   7.824  0.3040  3.5688  0.8360
 3090SOL    HW211471   4.217   8.969   7.820 -2.5043  0.1152 -1.4275
 3091SOL     OW11472   8.256   4.560   4.191 -0.6405  0.3744 -0.4640
 3091SOL    HW111473   8.290   4.480   4.232 -0.9117  0.8388  0.7071
 3091SOL    HW211474   8.310   4.572   4.113  0.5878  0.0392  0.3163
 3092SOL     OW11475   5.619   1.358   8.542 -0.3242  0.1101  0.2422
 3092SOL    HW111476   5.571   1.407   8.475  0.4933 -0.3852 -0.7382
 3092SOL    HW211477   5.578   1.272   8.544 -1.1454  0.5123  1.2818
 3093SOL     OW11478   6.606   6.794   1.238  0.1069  0.0491  0.4581
 3093SOL    HW111479   6.595   6.797   1.333 -1.0396  1.1260  0.3095
 3093SOL    HW211480   6.678   6.855   1.221 -0.3531  0.6294  0.5578
 3094SOL     OW11481   7.125   0.444   7.491  0.5441 -0.4567 -0.1304
 3094SOL    HW111482   7.075   0.368   7.520 -1.0078  0.2155 -0.9264
 3094SOL    HW211483   7.067   0.519   7.506  2.0477  0.6081  0.6803
 3095SOL     OW11484   5.766   2.174   8.829 -0.2947  0.1153 -0.3015
 3095SOL    HW111485   5.765   2.232   8.905  3.2427  1.0140 -0.7424
 3095SOL    HW211486   5.824   2.102   8.854 -1.5358 -1.2160 -1.1201
 3096SOL     OW11487   4.547   4.641   8.503  0.3845  0.0673  0.4167
 3096SOL    HW111488   4.592   4.698   8.566 -0.4422  0.2672  0.8468
 3096SOL    HW211489   4.454   4.661   8.515  0.2613  1.1067 -1.8471
 3097SOL     OW11490   4.708   9.297   8.355  0.0161 -0.0153  0.5850
 3097SOL    HW111491   4.771   9.345   8.408  0.7668  0.2503 -0.5241
 3097SOL    HW211492   4.751   9.286   8.270 -0.2030 -2.5025  0.7405
 3098SOL     OW11493   0.968   0.215   7.613  0.0189 -0.0389 -0.1393
 3098SOL    HW111494   0.963   0.295   7.665 -1.0081 -0.7735  0.9288
 3098SOL    HW211495   0.927   0.237   7.529 -3.7077 -0.3719  1.4067
 3099SOL     OW11496   9.178   1.887   8.417 -0.1251 -0.4922  0.9134
 3099SOL    HW111497   9.178   1.952   8.346 -3.5927  0.4807  1.6514
 3099SOL    HW211498   9.256   1.909   8.469  1.4784 -0.0794 -1.4685
 3100SOL     OW11499   8.699   9.382   1.629  0.2268 -0.7371  0.0621
 3100SOL    HW111500   8.790   9.407   1.640 -0.2393  0.2326  2.1425
 3100SOL    HW211501   8.655   9.462   1.601 -0.0263 -1.1746 -0.8320
 3101SOL     OW11502   4.713   3.484   2.355  0.5325  0.0623 -0.1912
 3101SOL    HW111503   4.660   3.561   2.377 -0.1123 -0.2733 -0.5304
 3101SOL    HW211504   4.795   3.520   2.321 -0.5714  0.6551 -2.3804
 3102SOL     OW11505   4.488   6.704   1.837  0.2992 -0.3871 -0.9286
 3102SOL    HW111506   4.494   6.780   1.894  0.5131 -0.8932 -0.2718
 3102SOL    HW211507   4.507   6.629   1.893 -0.7498 -1.0089 -1.3743
 3103SOL     OW11508   0.428   0.524   6.289  0.3470  0.1244  0.5306
 3103SOL    HW111509   0.397   0.437   6.264  0.2415  0.2515  0.2235
 3103SOL    HW211510   0.358   0.559   6.345 -0.0386  0.3760 -0.0907
 3104SOL     OW11511   3.878   3.126   5.200  0.0330 -0.1337 -0.2173
 3104SOL    HW111512   3.896   3.219   5.211  0.6052  0.0591 -2.3903
 3104SOL    HW211513   3.908   3.086   5.282  0.0440  1.5389  0.6293
 3105SOL     OW11514   7.158   5.039   8.371 -0.2782 -0.1938  0.1806
 3105SOL    HW111515   7.179   4.968   8.310 -0.8429  0.6876 -1.0906
 3105SOL    HW211516   7.063   5.043   8.372 -0.2936 -0.5761  1.6131
 3106SOL     OW11517   8.250   1.963   1.306  0.2693  0.0838  0.3631
 3106SOL    HW111518   8.292   2.014   1.375  1.7335  0.1884 -0.5348
 3106SOL    HW211519   8.255   2.019   1.229  2.2466 -1.4529 -0.7486
 3107SOL     OW11520   3.529   0.189   8.217 -0.3580  0.4382 -0.7126
 3107SOL    HW111521   3.507   0.133   8.292 -1.2741  0.4469 -0.9687
 3107SOL    HW211522   3.601   0.143   8.174  2.1776  1.8050  1.7202
 3108SOL     OW11523   7.740   2.579   0.450  0.0614  0.5584  0.5394
 3108SOL    HW111524   7.749   2.656   0.505  0.4669  0.3946  0.7006
 3108SOL    HW211525   7.652   2.546   0.471  0.0244  0.7703  0.7294
 3109SOL     OW11526   8.502   0.939   5.030  0.1986  0.5012  0.2580
 3109SOL    HW111527   8.536   1.029   5.023  2.4651 -0.3940 -1.1207
 3109SOL    HW211528   8.573   0.884   4.998 -1.1153 -1.8298  1.1521
 3110SOL     OW11529   7.556   2.360   3.086 -0.5766  0.2217 -0.1358
 3110SOL    HW111530   7.509   2.441   3.106  0.0739  0.3181  1.0440
 3110SOL    HW211531   7.641   2.370   3.129 -0.7740 -1.4182  0.6978
 3111SOL     OW11532   5.360   7.298   4.392 -0.3517  0.2129  0.8783
 3111SOL    HW111533   5.433   7.268   4.338  1.1906  0.2948  2.8234
 3111SOL    HW211534   5.306   7.350   4.331 -0.3478 -2.1196 -1.2744
 3112SOL     OW11535   5.861   8.885   9.114  0.0169  0.4164 -0.1006
 3112SOL    HW111536   5.932   8.863   9.175 -0.1000  0.0406 -0.1014
 3112SOL    HW211537   5.901   8.879   9.027  0.8207  3.1524 -0.0207
 3113SOL     OW11538   7.649   7.577   7.573 -0.1857  0.3124 -0.5457
 3113SOL    HW111539   7.607   7.528   7.643 -0.4532  1.7383  0.3213
 3113SOL    HW211540   7.717   7.629   7.616 -0.3879  1.2482 -1.3011
 3114SOL     OW11541   0.643   2.406   8.054 -0.0745  0.1469 -0.6807
 3114SOL    HW111542   0.569   2.398   7.994 -1.3487 -0.4097  0.8928
 3114SOL    HW211543   0.657   2.501   8.062 -1.1773  0.2933 -0.3526
 3115SOL     OW11544   5.797   0.935   1.410  0.3093  0.5627 -0.0877
 3115SOL    HW111545   5.792   0.993   1.486  1.8488 -0.0513  0.5184
 3115SOL    HW211546   5.709   0.897   1.403  0.2229  0.3929  1.5779
 3116SOL     OW11547   0.179   7.548   0.435 -0.2522  0.1759  0.0579
 3116SOL    HW111548   0.211   7.624   0.386 -0.7391 -0.2686 -0.9938
 3116SOL    HW211549   0.245   7.480   0.418 -1.0039 -0.3306 -0.9865
 3117SOL     OW11550   3.337   0.783   5.146  0.4605 -0.2903  0.5946
 3117SOL    HW111551   3.253   0.759   5.185 -0.5600 -1.4790 -2.1199
 3117SOL    HW211552   3.329   0.877   5.127 -0.4171 -0.4673  0.0499
 3118SOL     OW11553   5.507   6.209   1.099  0.1847 -0.2925  0.8994
 3118SOL    HW111554   5.475   6.298   1.082  0.9741 -0.2646 -0.5682
 3118SOL    HW211555   5.442   6.152   1.060  1.3729 -0.2522 -1.2843
 3119SOL     OW11556   2.597   8.546   8.034  0.2816 -0.4643  0.1995
 3119SOL    HW111557   2.528   8.577   8.093 -0.4227 -0.0723 -0.8169
 3119SOL    HW211558   2.626   8.463   8.074  0.2678  0.0954  1.4342
 3120SOL     OW11559   1.779   3.471   1.183  0.6002  0.5866  0.3248
 3120SOL    HW111560   1.800   3.548   1.236 -0.9928  0.3879  1.2782
 3120SOL    HW211561   1.818   3.398   1.229 -0.7338  0.4214  1.2322
 3121SOL     OW11562   2.699   3.341   3.218 -0.2307 -0.1095  0.1716
 3121SOL    HW111563   2.613   3.312   3.248  0.0270  0.3384  1.4062
 3121SOL    HW211564   2.680   3.417   3.163 -0.5903  0.4968  1.1059
 3122SOL     OW11565   9.203   7.123   1.877  0.2072 -0.3773  0.1578
 3122SOL    HW111566   9.228   7.215   1.885  0.2698 -0.3062 -0.8041
 3122SOL    HW211567   9.213   7.088   1.966  4.6577 -0.5638 -0.1814
 3123SOL     OW11568   1.038   6.060   2.392 -0.1576  0.0438  0.5856
 3123SOL    HW111569   1.073   6.036   2.306 -1.2674 -0.1679  0.1805
 3123SOL    HW211570   1.088   6.138   2.417  1.2583 -0.7963  0.4689
 3124SOL     OW11571   4.604   9.336   3.303 -0.4178 -0.0071  0.0512
 3124SOL    HW111572   4.650   9.398   3.360 -1.4025 -0.9626  2.0060
 3124SOL    HW211573   4.516   9.330   3.341 -1.1853 -0.5716 -1.7129
 3125SOL     OW11574   3.498   4.347   4.014 -0.3473  0.0825  0.3968
 3125SOL    HW111575   3.571   4.356   3.952 -0.8339 -2.7183 -0.7549
 3125SOL    HW211576   3.536   4.298   4.087 -0.1914  1.9750  1.6576
 3126SOL     OW11577   6.690   7.342   7.724 -0.0183  0.1626 -0.2755
 3126SOL    HW111578   6.626   7.354   7.654 -0.5472  0.4096  0.2433
 3126SOL    HW211579   6.735   7.260   7.702 -1.5891 -0.8745  0.1581
 3127SOL     OW11580   2.169   7.870   5.157  0.1968 -0.1447 -0.1213
 3127SOL    HW111581   2.116   7.937   5.114  0.5163 -0.0453 -0.3599
 3127SOL    HW211582   2.247   7.917   5.188  1.0778 -0.6617 -1.4959
 3128SOL     OW11583   9.039   0.992   7.236  0.4498 -0.6388 -0.1247
 3128SOL    HW111584   9.015   1.073   7.192  0.0672  0.3998  1.8777
 3128SOL    HW211585   9.118   1.014   7.287 -0.3204 -1.1442  1.3602
 3129SOL     OW11586   1.943   4.724   2.334 -0.4896 -0.3080 -0.1290
 3129SOL    HW111587   1.967   4.816   2.345 -0.6086 -0.2116 -0.6318
 3129SOL    HW211588   1.987   4.679   2.406  0.1700  0.0461 -0.3004
 3130SOL     OW11589   9.421   3.538   8.919 -0.3228 -0.3739 -0.3781
 3130SOL    HW111590   9.468   3.458   8.896 -1.0411 -1.1078  0.6193
 3130SOL    HW211591   9.479   3.583   8.981  0.1595 -0.0235 -1.0747
 3131SOL     OW11592   9.334   7.146   9.238 -0.2189 -0.2038 -0.0901
 3131SOL    HW111593   9.265   7.161   9.303  0.9580  1.1528  0.9113
 3131SOL    HW211594   9.301   7.074   9.184 -2.4860  0.5002  0.2344
 3132SOL     OW11595   0.055   7.399   1.226 -0.1181 -0.5055  0.2516
 3132SOL    HW111596  -0.027   7.406   1.276 -0.1211  4.2989  0.0599
 3132SOL    HW211597   0.029   7.415   1.136  0.8267 -0.8821 -0.0994
 3133SOL     OW11598   6.692   1.494   0.848  0.0900  0.8133 -0.1220
 3133SOL    HW111599   6.726   1.497   0.937 -0.2908 -0.4684  0.0813
 3133SOL    HW211600   6.678   1.586   0.824  2.5995  1.3412  0.1829
 3134SOL     OW11601   2.321   4.638   3.752  0.3527  0.1782  0.1752
 3134SOL    HW111602   2.352   4.565   3.806 -0.3419  0.3237  0.7935
 3134SOL    HW211603   2.231   4.614   3.730  1.0567 -0.5473 -2.1271
 3135SOL     OW11604   5.717   4.420   8.033 -0.5766 -0.0890 -0.5783
 3135SOL    HW111605   5.622   4.429   8.022 -0.5848 -0.1743 -0.5719
 3135SOL    HW211606   5.751   4.506   8.009 -0.5624 -0.3776 -1.6192
 3136SOL     OW11607   5.732   4.078   8.435  0.8241  0.7017  0.1433
 3136SOL    HW111608   5.658   4.098   8.492 -0.1061 -0.5981 -0.5559
 3136SOL    HW211609   5.802   4.048   8.493 -0.6101 -2.1231  0.5669
 3137SOL     OW11610   6.521   1.841   7.344  0.2588 -0.0499 -0.5841
 3137SOL    HW111611   6.504   1.897   7.268 -0.8622 -1.8275 -1.7286
 3137SOL    HW211612   6.581   1.774   7.311 -0.4532 -0.9984 -0.0182
 3138SOL     OW11613   3.080   8.518   8.713 -0.5121 -0.2754 -0.7003
 3138SOL    HW111614   3.056   8.445   8.656 -0.4268  0.2343 -1.4097
 3138SOL    HW211615   3.156   8.487   8.763 -1.4544 -1.2243  0.1766
 3139SOL     OW11616   5.369   3.308   7.320 -0.0129  0.2286 -0.1088
 3139SOL    HW111617   5.416   3.238   7.273 -0.7395  0.1176 -0.6897
 3139SOL    HW211618   5.433   3.341   7.383  0.0112 -1.6763  0.9254
 3140SOL     OW11619   4.448   6.160   1.503 -0.0298 -0.4250  0.2150
 3140SOL    HW111620   4.453   6.251   1.475 -0.8832 -1.2198 -3.0081
 3140SOL    HW211621   4.516   6.151   1.570 -1.0880  2.8966  1.9424
 3141SOL     OW11622   6.250   6.915   7.378  0.0147  0.3388  0.3438
 3141SOL    HW111623   6.228   6.994   7.328 -1.0352  0.2511  0.6358
 3141SOL    HW211624   6.217   6.843   7.324  0.0470  0.1683  0.5525
 3142SOL     OW11625   3.698   0.123   2.148 -0.3911 -0.2860 -0.2083
 3142SOL    HW111626   3.777   0.171   2.174  0.7182 -0.6360 -2.6814
 3142SOL    HW211627   3.655   0.180   2.085 -2.3332 -0.0028  1.2518
 3143SOL     OW11628   5.837   0.352   3.827 -0.3228  0.2189 -0.2226
 3143SOL    HW111629   5.901   0.420   3.809 -0.6460  0.4073 -0.6782
 3143SOL    HW211630   5.780   0.389   3.894 -0.6774  0.5172 -0.6827
 3144SOL     OW11631   3.534   9.352   2.690 -0.5286  0.1529 -0.5103
 3144SOL    HW111632   3.454   9.343   2.741 -0.5923  0.6187 -0.5245
 3144SOL    HW211633   3.599   9.300   2.737  0.0972  2.5807  1.4759
 3145SOL     OW11634   5.695   0.064   0.116  0.3114 -0.0967 -0.1149
 3145SOL    HW111635   5.626   0.116   0.074  0.6143 -0.4207 -1.0409
 3145SOL    HW211636   5.650   0.016   0.186 -0.4924 -0.5877 -0.9390
 3146SOL     OW11637   3.063   8.814   6.567  0.2260  0.1261 -0.4750
 3146SOL    HW111638   3.143   8.844   6.609 -0.3189 -1.1673  1.6813
 3146SOL    HW211639   3.009   8.781   6.640 -2.4801  1.3894 -1.7448
 3147SOL     OW11640   6.105   3.375   8.282  0.4680  0.5224 -0.2333
 3147SOL    HW111641   6.125   3.344   8.370  2.2316  0.7397 -0.5205
 3147SOL    HW211642   6.190   3.390   8.242 -0.3095  1.3768 -1.6503
 3148SOL     OW11643   6.933   5.942   3.777 -0.2944 -0.1826  0.1526
 3148SOL    HW111644   6.874   5.994   3.832  1.7133  0.7456  1.5255
 3148SOL    HW211645   6.915   5.973   3.688 -1.2147  0.7531  0.6339
 3149SOL     OW11646   7.079   6.904   7.603 -0.2020  0.2532  0.1595
 3149SOL    HW111647   7.126   6.954   7.537  0.3708 -0.4698  0.0135
 3149SOL    HW211648   7.134   6.910   7.682  0.8232 -1.6376 -0.3492
 3150SOL     OW11649   1.063   4.867   1.135  0.1145 -0.3854 -0.7562
 3150SOL    HW111650   1.078   4.787   1.084  1.4216 -0.0232 -0.9862
 3150SOL    HW211651   1.115   4.934   1.089 -1.3382  0.7199 -0.8560
 3151SOL     OW11652   5.157   7.733   4.049  0.2693 -0.4427 -0.2433
 3151SOL    HW111653   5.152   7.804   4.113  0.1267 -1.7721  1.2616
 3151SOL    HW211654   5.238   7.751   4.001  0.7920  0.1726  0.8273
 3152SOL     OW11655   4.522   2.702   8.717  0.3763 -0.6953  0.0182
 3152SOL    HW111656   4.514   2.644   8.642  2.1243  0.9615 -1.5752
 3152SOL    HW211657   4.500   2.789   8.683  2.0037  0.2324  1.1458
 3153SOL     OW11658   3.807   2.953   3.469  0.3042 -0.6459 -0.0564
 3153SOL    HW111659   3.809   3.047   3.487  2.0697 -0.5742 -0.3743
 3153SOL    HW211660   3.784   2.912   3.552 -0.2581  0.0569  0.1374
 3154SOL     OW11661   4.214   0.337   5.329 -0.1296  0.0038 -0.0454
 3154SOL    HW111662   4.232   0.332   5.423  2.3786  1.8765 -0.3125
 3154SOL    HW211663   4.151   0.408   5.320 -1.3174 -0.9691  0.2488
 3155SOL     OW11664   9.138   7.138   9.439  0.1429 -0.4727 -0.4416
 3155SOL    HW111665   9.181   7.153   9.524  0.9641 -0.2755 -0.8848
 3155SOL    HW211666   9.080   7.214   9.428  0.7669 -0.0041 -0.5058
 3156SOL     OW11667   4.435   3.293   4.642  0.4532  0.5452  0.2102
 3156SOL    HW111668   4.386   3.226   4.689 -0.6676  1.9534  1.1428
 3156SOL    HW211669   4.368   3.342   4.593  1.2549  0.9416 -0.5279
 3157SOL     OW11670   0.611   2.558   2.683 -0.1457 -0.8273 -0.2415
 3157SOL    HW111671   0.586   2.625   2.746 -0.3090 -1.0473 -0.0718
 3157SOL    HW211672   0.691   2.592   2.642 -0.7842 -0.0449 -0.8875
 3158SOL     OW11673   3.737   7.206   0.120  0.2522  0.3889  0.2649
 3158SOL    HW111674   3.757   7.272   0.053 -2.1827  0.0286 -0.9138
 3158SOL    HW211675   3.767   7.124   0.082 -2.3764 -0.0228 -1.1106
 3159SOL     OW11676   8.119   6.445   7.220 -0.4525  0.0670  0.6916
 3159SOL    HW111677   8.082   6.508   7.282  0.5707  0.1972  1.1828
 3159SOL    HW211678   8.136   6.367   7.272  1.7813  0.6663  0.9390
 3160SOL     OW11679   6.534   0.476   4.325 -0.2152  0.2830 -0.6499
 3160SOL    HW111680   6.603   0.539   4.306  0.9793 -0.7522  0.0596
 3160SOL    HW211681   6.556   0.400   4.271  0.4166 -0.8221  1.0723
 3161SOL     OW11682   6.788   9.082   4.225  0.7340 -0.4039 -0.4429
 3161SOL    HW111683   6.814   8.994   4.253 -0.1695 -1.1373 -1.7942
 3161SOL    HW211684   6.696   9.074   4.203  0.2648  1.2489  0.7361
 3162SOL     OW11685   2.653   5.109   1.389 -0.1180  0.0965 -0.2437
 3162SOL    HW111686   2.707   5.139   1.462 -0.2062  0.3518 -0.2823
 3162SOL    HW211687   2.569   5.152   1.403  0.1875  0.9863 -1.0766
 3163SOL     OW11688   8.070   8.681   5.590 -0.5126 -0.2407  0.5697
 3163SOL    HW111689   8.154   8.726   5.595 -0.3200  0.3039 -3.9320
 3163SOL    HW211690   8.016   8.736   5.534 -2.6302 -2.3471  0.3807
 3164SOL     OW11691   8.636   2.979   3.931 -0.5039  0.1670  0.1571
 3164SOL    HW111692   8.624   3.042   3.860  2.3027 -1.8513 -2.3858
 3164SOL    HW211693   8.721   3.001   3.968  0.5059 -1.9281 -0.7406
 3165SOL     OW11694   2.451   5.034   5.530 -0.1795  0.0022 -0.6535
 3165SOL    HW111695   2.483   4.977   5.460 -0.6497  0.8496 -1.5938
 3165SOL    HW211696   2.382   5.085   5.489  0.4161  1.4525  0.0614
 3166SOL     OW11697   3.252   4.662   8.324 -0.1674  0.3490  0.1058
 3166SOL    HW111698   3.220   4.601   8.391 -1.2180  0.3445 -0.3819
 3166SOL    HW211699   3.185   4.661   8.257  0.5906  0.8188 -0.6769
 3167SOL     OW11700   5.134   5.779   3.435  0.3581 -0.3203  0.1533
 3167SOL    HW111701   5.141   5.807   3.343  0.4114  0.2983  0.3419
 3167SOL    HW211702   5.042   5.792   3.456  0.3127 -0.6206  0.1379
 3168SOL     OW11703   0.839   8.228   6.805  0.2106 -0.1586  0.1253
 3168SOL    HW111704   0.758   8.188   6.835  1.3764 -1.2978  1.8906
 3168SOL    HW211705   0.811   8.311   6.765 -1.7563 -0.2181  1.2475
 3169SOL     OW11706   8.165   0.743   6.803  0.2018 -0.0964  0.2637
 3169SOL    HW111707   8.229   0.803   6.766  1.4499 -0.1939  2.1369
 3169SOL    HW211708   8.173   0.664   6.750  0.2634  0.5342 -0.6987
 3170SOL     OW11709   6.439   7.858   6.520  0.2325 -0.3144  0.1927
 3170SOL    HW111710   6.400   7.820   6.441  1.3717  0.2564 -0.6622
 3170SOL    HW211711   6.482   7.938   6.490 -0.4964  0.6742  1.6354
 3171SOL     OW11712   7.463   3.086   4.378  0.1223 -0.2290  0.3426
 3171SOL    HW111713   7.537   3.058   4.324 -0.8047 -1.9516 -0.1033
 3171SOL    HW211714   7.411   3.142   4.320  0.0013 -0.7210 -0.0339
 3172SOL     OW11715   5.271   8.447   6.223 -0.3422 -0.6339  0.2082
 3172SOL    HW111716   5.256   8.528   6.273  0.5987 -0.7123  0.6532
 3172SOL    HW211717   5.184   8.409   6.212 -0.7904  0.3844  0.0847
 3173SOL     OW11718   2.732   2.739   4.599 -0.1568 -0.2190  0.0897
 3173SOL    HW111719   2.721   2.741   4.694 -1.4039  1.4238 -0.0481
 3173SOL    HW211720   2.644   2.729   4.564  0.2861 -0.8778 -0.9174
 3174SOL     OW11721   0.912   1.599   9.238 -0.5377 -0.0413 -0.0463
 3174SOL    HW111722   0.989   1.655   9.253  0.5059 -1.3854 -0.1726
 3174SOL    HW211723   0.875   1.585   9.325 -1.2323  1.3646 -0.0790
 3175SOL     OW11724   4.232   3.882   9.284 -0.1905  0.1128  0.0766
 3175SOL    HW111725   4.278   3.930   9.215  1.4935  0.4863  1.3895
 3175SOL    HW211726   4.182   3.815   9.237  0.3156  0.8190 -1.5438
 3176SOL     OW11727   8.093   1.698   9.366  0.3189  0.1307 -0.2437
 3176SOL    HW111728   8.121   1.789   9.359  0.7152  0.0434  0.1535
 3176SOL    HW211729   8.006   1.696   9.326  0.1722  0.7481  0.0373
 3177SOL     OW11730   6.928   2.816   6.168  0.0724  0.1911  0.0597
 3177SOL    HW111731   6.851   2.761   6.155  0.2612  0.2964 -1.8225
 3177SOL    HW211732   6.969   2.821   6.081  3.1630 -1.2564  1.2801
 3178SOL     OW11733   5.838   4.122   1.428  0.0101 -0.0502 -0.2844
 3178SOL    HW111734   5.891   4.093   1.503 -0.7581 -1.0402 -0.0983
 3178SOL    HW211735   5.865   4.064   1.356 -0.4301 -0.2028 -0.3288
 3179SOL     OW11736   5.313   6.576   5.153  0.1081  0.0617  0.0588
 3179SOL    HW111737   5.315   6.547   5.244 -0.7106 -2.3244 -0.6051
 3179SOL    HW211738   5.390   6.535   5.114  0.1171  0.5709 -0.4621
 3180SOL     OW11739   9.539   2.784   6.071 -0.1235 -0.0336  0.0024
 3180SOL    HW111740   9.454   2.750   6.099 -0.7240  1.3931 -0.0061
 3180SOL    HW211741   9.531   2.793   5.976 -0.5272  1.4777  0.1467
 3181SOL     OW11742   2.387   0.820   4.185  0.3964 -0.3341 -0.0605
 3181SOL    HW111743   2.410   0.760   4.114  1.3763 -1.7382  1.3654
 3181SOL    HW211744   2.329   0.768   4.242  0.6247  0.3232  0.7956
 3182SOL     OW11745   5.567   4.207   8.887 -0.0571  0.7949  0.3614
 3182SOL    HW111746   5.619   4.288   8.886 -1.4351  1.7386  1.7736
 3182SOL    HW211747   5.484   4.232   8.928 -1.3745 -0.8415 -1.1632
 3183SOL     OW11748   7.114   6.305   4.798 -0.3981  0.2208  0.3276
 3183SOL    HW111749   7.166   6.382   4.822 -0.6061  0.0527  1.3807
 3183SOL    HW211750   7.113   6.306   4.702  1.6543  0.1400  0.2641
 3184SOL     OW11751   5.755   6.382   5.361 -0.1832 -0.8975  0.2495
 3184SOL    HW111752   5.709   6.314   5.311 -1.7036 -1.7358  2.6421
 3184SOL    HW211753   5.844   6.380   5.327 -0.9909 -1.7808 -2.0160
 3185SOL     OW11754   5.897   7.379   4.460  0.4105 -0.3833  0.1807
 3185SOL    HW111755   5.816   7.411   4.498 -0.2215 -0.8585 -0.7444
 3185SOL    HW211756   5.878   7.289   4.433  1.2912 -0.5605  0.1137
 3186SOL     OW11757   3.093   0.483   1.579 -0.2412  0.6044 -0.5251
 3186SOL    HW111758   3.003   0.516   1.572 -0.4786  0.2541  0.7046
 3186SOL    HW211759   3.085   0.389   1.562 -0.4106  0.2367  1.4514
 3187SOL     OW11760   2.451   2.588   3.360  0.2403  0.0202  0.4300
 3187SOL    HW111761   2.504   2.661   3.392 -2.0566  1.4056  1.3145
 3187SOL    HW211762   2.413   2.549   3.439  1.1978 -2.0272 -0.0411
 3188SOL     OW11763   4.036   2.431   6.501 -0.0037 -0.1848 -0.3870
 3188SOL    HW111764   3.978   2.356   6.515 -2.3041  1.9724  3.3378
 3188SOL    HW211765   3.981   2.498   6.461  0.6384  1.0232  0.6635
 3189SOL     OW11766   7.880   5.848   9.200 -0.3522 -0.1377 -0.0063
 3189SOL    HW111767   7.834   5.922   9.161  0.0919 -0.2856 -0.8167
 3189SOL    HW211768   7.829   5.771   9.174 -0.5879 -0.1576  0.5015
 3190SOL     OW11769   3.203   7.863   2.628 -0.3534 -0.0934 -0.2942
 3190SOL    HW111770   3.203   7.770   2.605 -2.4195 -0.5092  1.1505
 3190SOL    HW211771   3.145   7.904   2.565 -1.5943 -0.2905  0.6760
 3191SOL     OW11772   0.548   3.424   4.327 -0.7098 -0.6950  0.1479
 3191SOL    HW111773   0.488   3.349   4.324 -0.2320 -1.0850  0.1933
 3191SOL    HW211774   0.610   3.409   4.256 -1.9206  0.8082 -1.3061
 3192SOL     OW11775   4.175   9.330   0.671 -0.3451  0.1043 -0.4130
 3192SOL    HW111776   4.258   9.317   0.626 -0.0643  0.6293 -0.0505
 3192SOL    HW211777   4.145   9.417   0.644 -0.5312  0.1229 -0.1573
 3193SOL     OW11778   9.271   2.658   4.250  0.3201  0.6774 -0.2585
 3193SOL    HW111779   9.341   2.720   4.231 -0.6138  1.4118 -1.4573
 3193SOL    HW211780   9.273   2.595   4.178  0.4106  0.0804  0.2533
 3194SOL     OW11781   7.252   7.326   4.640 -0.0648 -0.0949 -0.2060
 3194SOL    HW111782   7.215   7.313   4.728  0.5252 -0.9032 -0.0663
 3194SOL    HW211783   7.291   7.241   4.618 -0.9248 -0.1617 -1.6068
 3195SOL     OW11784   7.692   8.646   4.360  0.0169  0.2352  0.0441
 3195SOL    HW111785   7.736   8.693   4.430 -0.6314  3.0498 -1.3023
 3195SOL    HW211786   7.763   8.602   4.312  0.7764  0.7278  0.6948
 3196SOL     OW11787   0.302   2.831   5.908  0.0346 -0.1126  0.6925
 3196SOL    HW111788   0.251   2.750   5.901  0.9224 -0.6914  0.8516
 3196SOL    HW211789   0.355   2.819   5.987  1.0269  0.1387  0.0652
 3197SOL     OW11790   4.694   8.917   6.112  0.0029 -0.5674 -0.1537
 3197SOL    HW111791   4.707   8.859   6.187 -0.6095 -0.3732  0.1132
 3197SOL    HW211792   4.711   8.862   6.036  3.9334  0.0410  0.1052
 3198SOL     OW11793   0.291   2.176   4.427  0.2007  0.1510  0.1422
 3198SOL    HW111794   0.223   2.228   4.469  0.1012  0.3987 -0.3134
 3198SOL    HW211795   0.317   2.228   4.351  0.0079 -0.5196 -0.4006
 3199SOL     OW11796   9.326   8.935   1.953  1.0143  0.3313  0.2933
 3199SOL    HW111797   9.346   8.973   1.868  1.6040 -0.8115 -0.1110
 3199SOL    HW211798   9.283   9.005   2.002 -0.1240  0.7684 -1.2314
 3200SOL     OW11799   3.960   1.657   1.603  0.1121  0.2923 -0.2914
 3200SOL    HW111800   3.932   1.749   1.604 -0.3534  0.2846 -3.3597
 3200SOL    HW211801   3.880   1.608   1.618  0.0614  0.3712 -0.3000
 3201SOL     OW11802   1.275   9.421   4.175 -0.4801  0.5458 -0.0840
 3201SOL    HW111803   1.214   9.389   4.241 -0.3134  0.4370  0.0164
 3201SOL    HW211804   1.247   9.511   4.157 -1.7384 -0.0467 -1.2690
 3202SOL     OW11805   7.238   7.402   1.149 -0.1308  0.8698 -0.4321
 3202SOL    HW111806   7.216   7.318   1.187  1.7992  1.1901  1.6009
 3202SOL    HW211807   7.185   7.466   1.196 -0.6144  0.9408 -1.0527
 3203SOL     OW11808   0.413   4.030   8.851  0.0027 -0.3971  0.3512
 3203SOL    HW111809   0.343   3.982   8.808 -0.2657 -0.4587  0.8503
 3203SOL    HW211810   0.374   4.115   8.872 -0.2701 -0.8264  1.6207
 3204SOL     OW11811   1.325   0.879   1.339  0.9700 -0.0814 -0.3176
 3204SOL    HW111812   1.257   0.939   1.308 -0.1242 -1.0055  0.1820
 3204SOL    HW211813   1.342   0.820   1.266 -0.0868 -0.9479  0.0947
 3205SOL     OW11814   4.440   6.956   1.523 -0.0703 -0.0339  0.3081
 3205SOL    HW111815   4.533   6.957   1.549 -0.4735  0.1068  1.8572
 3205SOL    HW211816   4.439   6.994   1.435  1.2480  0.7843  0.6217
 3206SOL     OW11817   6.137   3.350   1.736  0.3484  0.3437 -0.1338
 3206SOL    HW111818   6.107   3.440   1.721 -1.8685 -0.2428  0.4681
 3206SOL    HW211819   6.160   3.318   1.649  0.0502  1.1295 -0.5132
 3207SOL     OW11820   7.705   6.864   5.343  0.1446 -0.1481 -0.4523
 3207SOL    HW111821   7.780   6.915   5.373  0.5529 -1.0766  0.1619
 3207SOL    HW211822   7.653   6.925   5.290  0.8316  0.7664 -0.0866
 3208SOL     OW11823   3.631   5.662   6.421 -0.3028 -0.0476 -0.2405
 3208SOL    HW111824   3.706   5.721   6.425 -1.0371  0.9772 -0.9609
 3208SOL    HW211825   3.651   5.603   6.349  1.0570 -1.6214  1.3414
 3209SOL     OW11826   4.666   2.970   6.964  0.2679 -0.4997 -0.0966
 3209SOL    HW111827   4.612   2.897   6.935  0.1639 -0.1973 -0.6903
 3209SOL    HW211828   4.752   2.932   6.979 -0.1963 -1.0743  1.3052
 3210SOL     OW11829   9.275   7.585   7.770 -0.0972  0.1117  0.2682
 3210SOL    HW111830   9.193   7.634   7.770 -1.1367 -1.5450 -0.2770
 3210SOL    HW211831   9.323   7.618   7.846 -0.8934  1.6792  0.1371
 3211SOL     OW11832   4.116   3.337   2.031  0.1004 -0.0097 -0.1489
 3211SOL    HW111833   4.021   3.329   2.021  0.2990 -0.1127 -2.4708
 3211SOL    HW211834   4.142   3.398   1.962  1.7739 -0.2823  0.2081
 3212SOL     OW11835   8.862   0.531   6.313 -0.4500  0.0868 -0.4158
 3212SOL    HW111836   8.909   0.610   6.342 -1.2490 -0.1114  1.6138
 3212SOL    HW211837   8.931   0.467   6.297  0.1133  0.5539  0.0670
 3213SOL     OW11838   4.573   7.839   8.644  0.0908 -0.1467  0.3713
 3213SOL    HW111839   4.497   7.848   8.587 -0.1625  1.4688  0.9167
 3213SOL    HW211840   4.640   7.894   8.604  1.5318 -2.6046 -0.8837
 3214SOL     OW11841   6.123   8.196   5.780 -0.6478 -0.4927 -0.8416
 3214SOL    HW111842   6.122   8.224   5.871  2.4233 -1.1700 -0.4916
 3214SOL    HW211843   6.131   8.278   5.730 -2.1464 -0.1335 -0.5291
 3215SOL     OW11844   3.418   2.432   3.524  0.1389  0.5012  0.1482
 3215SOL    HW111845   3.492   2.493   3.527  0.0521  0.7296 -1.5988
 3215SOL    HW211846   3.345   2.481   3.563  0.3138  1.1521 -0.3292
 3216SOL     OW11847   7.243   0.470   2.761  0.0535  0.3420  0.1111
 3216SOL    HW111848   7.238   0.428   2.847  1.5676  1.7701  0.9591
 3216SOL    HW211849   7.244   0.398   2.699  0.9525 -0.8275  1.4143
 3217SOL     OW11850   3.206   3.270   3.753 -0.5913  0.4134 -0.2496
 3217SOL    HW111851   3.116   3.249   3.780 -0.6983  2.0620  0.7888
 3217SOL    HW211852   3.228   3.349   3.802  1.5499 -0.1244 -0.2624
 3218SOL     OW11853   2.535   5.366   9.025 -0.0713  0.1425 -0.3393
 3218SOL    HW111854   2.449   5.387   9.063 -0.8201 -1.7102 -0.9057
 3218SOL    HW211855   2.595   5.428   9.066 -1.1023 -0.6371  2.5879
 3219SOL     OW11856   7.222   5.395   0.606 -0.1884 -0.2848  0.1426
 3219SOL    HW111857   7.244   5.450   0.532  0.4029 -2.3406 -1.2990
 3219SOL    HW211858   7.266   5.436   0.681 -1.5972  2.3738 -0.3857
 3220SOL     OW11859   5.975   4.357   8.515  0.6038 -0.0675  0.5468
 3220SOL    HW111860   5.950   4.390   8.428  1.0131  1.4092  0.9510
 3220SOL    HW211861   5.975   4.262   8.506  1.2691  0.0635 -1.2540
 3221SOL     OW11862   0.724   6.189   0.299  0.5855  0.7169 -0.3225
 3221SOL    HW111863   0.738   6.282   0.313 -0.1273  0.9018 -0.7835
 3221SOL    HW211864   0.803   6.147   0.334  0.8838  1.4822 -0.0604
 3222SOL     OW11865   0.048   6.556   5.569 -0.2138  0.8718 -0.9801
 3222SOL    HW111866   0.142   6.574   5.557 -0.2305  1.0597 -0.8484
 3222SOL    HW211867   0.020   6.622   5.633  0.0742 -0.6735  0.8089
 3223SOL     OW11868   4.985   5.412   6.550  0.9653 -0.1342 -0.0099
 3223SOL    HW111869   4.989   5.485   6.489 -1.5787 -1.8448 -2.4436
 3223SOL    HW211870   5.045   5.346   6.513  0.4064 -0.6870  0.0533
 3224SOL     OW11871   0.480   5.372   8.344 -0.1636 -0.3136 -0.5238
 3224SOL    HW111872   0.415   5.337   8.405  0.8151 -1.2053  0.0422
 3224SOL    HW211873   0.563   5.337   8.376  0.5156  0.2720 -1.6198
 3225SOL     OW11874   4.981   3.525   7.529  0.1923 -0.3805 -0.0543
 3225SOL    HW111875   5.035   3.523   7.608  0.3879  0.5869 -0.1528
 3225SOL    HW211876   5.027   3.468   7.467  0.5901 -0.3131  0.1769
 3226SOL     OW11877   9.172   1.643   3.632 -0.7784  0.4649  0.0351
 3226SOL    HW111878   9.114   1.651   3.556 -0.5808 -0.1523 -0.1845
 3226SOL    HW211879   9.172   1.550   3.653  0.1051  0.4649  0.0651
 3227SOL     OW11880   9.445   8.118   5.647 -0.1722  0.3591  0.0326
 3227SOL    HW111881   9.410   8.052   5.588  0.9569 -0.4822  0.2893
 3227SOL    HW211882   9.429   8.084   5.735  1.1270  0.0316  0.1574
 3228SOL     OW11883   0.834   4.258   4.456 -0.3171  0.2413  0.1267
 3228SOL    HW111884   0.756   4.205   4.438 -0.9298  1.3899 -0.7692
 3228SOL    HW211885   0.901   4.195   4.482 -1.6617 -0.7346  1.3462
 3229SOL     OW11886   7.273   6.098   7.651  0.0164  0.3757 -0.3410
 3229SOL    HW111887   7.322   6.167   7.605  2.9504  0.3042  2.3377
 3229SOL    HW211888   7.232   6.144   7.724  1.1731 -0.4899  0.8878
 3230SOL     OW11889   3.367   9.078   6.377 -0.1291  0.1823 -0.2785
 3230SOL    HW111890   3.311   9.099   6.302  0.4971  1.5153 -0.3992
 3230SOL    HW211891   3.452   9.057   6.339 -0.3347 -1.1427 -0.0496
 3231SOL     OW11892   9.095   3.043   8.386  0.7243 -0.0228 -0.4889
 3231SOL    HW111893   9.018   3.099   8.376  0.7072 -0.3352 -2.5011
 3231SOL    HW211894   9.059   2.955   8.401  0.7104  0.0187 -0.2772
 3232SOL     OW11895   0.975   9.056   7.059 -0.2226  0.3098  0.5822
 3232SOL    HW111896   0.973   9.060   6.963  0.9594  1.7201  0.5874
 3232SOL    HW211897   0.893   9.013   7.083 -0.6431  0.1517 -1.0493
 3233SOL     OW11898   4.617   1.857   5.220 -0.4284  0.5053  0.5106
 3233SOL    HW111899   4.623   1.762   5.218  1.9276  0.5824  0.8408
 3233SOL    HW211900   4.570   1.881   5.140 -0.9287 -0.9124  0.3633
 3234SOL     OW11901   6.840   4.050   5.023 -0.5539  0.2880 -0.3443
 3234SOL    HW111902   6.809   4.019   4.938  0.7524 -0.4833 -0.5566
 3234SOL    HW211903   6.926   4.087   5.006 -0.7523  1.1884  0.4701
 3235SOL     OW11904   1.005   1.599   5.620 -0.2154  0.4862  0.1108
 3235SOL    HW111905   1.078   1.595   5.558 -1.5238  2.4447 -1.6915
 3235SOL    HW211906   1.037   1.552   5.697  2.0836 -0.6806 -1.4246
 3236SOL     OW11907   4.642   2.702   5.883 -0.4369  0.2831  0.1910
 3236SOL    HW111908   4.561   2.664   5.916 -0.9605  0.8030 -0.4760
 3236SOL    HW211909   4.621   2.730   5.794  0.2577  1.1123  0.2758
 3237SOL     OW11910   0.512   4.019   3.086  0.5049  0.2863  0.5921
 3237SOL    HW111911   0.576   4.078   3.126  0.5878  2.3887 -2.2576
 3237SOL    HW211912   0.555   3.989   3.006 -0.8796 -0.9086  0.2556
 3238SOL     OW11913   1.949   5.159   9.188  0.0728 -0.4640  0.1009
 3238SOL    HW111914   1.978   5.197   9.106 -0.7148  0.4538  0.2306
 3238SOL    HW211915   1.988   5.071   9.189  1.3212  0.0621 -0.5375
 3239SOL     OW11916   5.784   5.609   6.339  0.5680 -0.6068 -0.1668
 3239SOL    HW111917   5.844   5.684   6.334 -1.7587  1.3979 -0.0699
 3239SOL    HW211918   5.745   5.616   6.425 -1.8784 -0.0632 -1.2386
 3240SOL     OW11919   7.452   9.083   5.316 -0.1375  0.5259  0.2345
 3240SOL    HW111920   7.548   9.088   5.319 -0.2045  2.0174  2.3699
 3240SOL    HW211921   7.423   9.169   5.346 -2.1930  0.5756 -1.6594
 3241SOL     OW11922   8.609   4.877   2.571  0.3166  0.4522  0.4624
 3241SOL    HW111923   8.688   4.914   2.610  1.8965 -1.4912 -0.7186
 3241SOL    HW211924   8.629   4.869   2.478 -1.5215  0.4487  0.0203
 3242SOL     OW11925   1.732   0.452   1.961 -0.9418  0.6315 -0.0958
 3242SOL    HW111926   1.816   0.409   1.975 -1.6128 -1.5885 -2.2781
 3242SOL    HW211927   1.754   0.533   1.915  0.1317  1.3192  1.5360
 3243SOL     OW11928   3.477   1.024   9.508 -0.2722  0.3647 -0.5850
 3243SOL    HW111929   3.478   0.943   9.559  0.5812  0.8511  0.1976
 3243SOL    HW211930   3.546   1.011   9.443 -0.4125  0.3023 -0.7217
 3244SOL     OW11931   3.544   6.280   6.401  0.3493  0.0761 -0.0032
 3244SOL    HW111932   3.628   6.325   6.401  0.0461  0.7528 -2.0744
 3244SOL    HW211933   3.488   6.335   6.346 -1.4950 -0.3048  1.4240
 3245SOL     OW11934   6.265   1.524   2.564  0.1226  0.3804 -0.4510
 3245SOL    HW111935   6.304   1.529   2.651 -1.7430  0.3243  0.4437
 3245SOL    HW211936   6.261   1.430   2.545 -1.2504  0.2445  0.3180
 3246SOL     OW11937   1.743   1.464   1.399 -0.4112  0.0842  0.8366
 3246SOL    HW111938   1.752   1.380   1.444  1.4024 -0.0721  0.2731
 3246SOL    HW211939   1.653   1.490   1.415 -0.7964 -1.5970  1.6742
 3247SOL     OW11940   8.322   3.772   1.826  0.2172  0.5121 -0.2038
 3247SOL    HW111941   8.412   3.745   1.844  0.6041  0.6193 -1.8231
 3247SOL    HW211942   8.269   3.697   1.855  0.7785  0.5443  0.9862
 3248SOL     OW11943   7.060   3.897   3.477  0.4969 -0.0509 -0.9376
 3248SOL    HW111944   6.982   3.918   3.426 -0.4778  0.3975  0.6420
 3248SOL    HW211945   7.028   3.890   3.567  2.1074 -0.9499 -0.3976
 3249SOL     OW11946   4.809   0.018   6.765 -0.4954 -0.3183  0.1801
 3249SOL    HW111947   4.788  -0.075   6.773 -0.1875 -0.3926  0.1310
 3249SOL    HW211948   4.841   0.027   6.675 -0.1291 -0.2437  0.3186
 3250SOL     OW11949   6.765   1.804   4.141  0.4015  0.0642  0.3441
 3250SOL    HW111950   6.801   1.739   4.080 -0.6678 -2.0064  1.7948
 3250SOL    HW211951   6.835   1.869   4.150  1.3809 -0.6441 -1.4681
 3251SOL     OW11952   0.137   9.494   0.047  0.1490  0.0184 -0.0324
 3251SOL    HW111953   0.064   9.446   0.086  0.4055  0.4499  0.9810
 3251SOL    HW211954   0.157   9.564   0.109  0.9232  0.3781 -0.6687
 3252SOL     OW11955   1.419   8.845   6.250  0.1162 -0.1526  0.3903
 3252SOL    HW111956   1.451   8.935   6.245  2.2887 -0.7256  2.0058
 3252SOL    HW211957   1.365   8.844   6.329 -2.4804  0.3587 -1.2834
 3253SOL     OW11958   0.885   7.155   4.116  0.0610 -0.0130 -0.2388
 3253SOL    HW111959   0.933   7.087   4.164  0.2679  2.0326  2.7143
 3253SOL    HW211960   0.793   7.132   4.129  0.1377 -0.4030 -0.3536
 3254SOL     OW11961   7.838   9.466   6.290  0.5109 -0.5816  0.5771
 3254SOL    HW111962   7.780   9.493   6.219  0.5372  0.8207  1.0624
 3254SOL    HW211963   7.787   9.405   6.341 -0.2515 -0.0089  0.5169
 3255SOL     OW11964   8.082   6.108   5.998  0.9319  0.1124 -0.0660
 3255SOL    HW111965   8.033   6.056   5.936 -1.0167  0.6248  0.9603
 3255SOL    HW211966   8.056   6.198   5.980 -0.9073  0.1778  2.3943
 3256SOL     OW11967   9.344   7.964   1.810 -0.4783 -0.0510  0.1309
 3256SOL    HW111968   9.421   8.015   1.835 -0.0404 -0.0491 -1.1371
 3256SOL    HW211969   9.285   7.971   1.885 -1.3291  4.0367 -0.6389
 3257SOL     OW11970   0.662   5.871   7.871  0.1458  0.4559  0.1236
 3257SOL    HW111971   0.629   5.782   7.860  1.6325 -0.2373  0.8938
 3257SOL    HW211972   0.749   5.869   7.831  0.6978  1.2018  1.2160
 3258SOL     OW11973   8.822   5.703   9.304  0.5175  0.2916 -0.6388
 3258SOL    HW111974   8.884   5.634   9.284  0.6858 -0.0098  0.8698
 3258SOL    HW211975   8.752   5.692   9.238  0.5448 -1.2920 -0.4409
 3259SOL     OW11976   2.743   4.353   0.403  0.6401  0.3546 -0.0076
 3259SOL    HW111977   2.821   4.408   0.410  1.5781 -0.8320 -0.7446
 3259SOL    HW211978   2.699   4.385   0.324  0.1192  1.3144  0.6483
 3260SOL     OW11979   4.168   7.402   3.252 -0.7889 -0.1500 -0.0793
 3260SOL    HW111980   4.259   7.426   3.267 -1.0235 -0.4577  2.2989
 3260SOL    HW211981   4.121   7.485   3.249 -0.7479 -0.0214  1.5849
 3261SOL     OW11982   2.382   9.493   6.577 -0.0184  0.0752 -0.0844
 3261SOL    HW111983   2.437   9.560   6.618  0.5035  0.2110 -0.9819
 3261SOL    HW211984   2.301   9.538   6.556 -0.4908 -0.1231  1.2467
 3262SOL     OW11985   2.308   4.004   7.520  0.6913  0.0523 -0.4724
 3262SOL    HW111986   2.366   4.052   7.461 -0.9060  0.3233 -1.8899
 3262SOL    HW211987   2.353   3.921   7.535  0.7425 -0.4036 -2.8347
 3263SOL     OW11988   3.307   7.706   6.874  0.3551 -0.1457 -0.1789
 3263SOL    HW111989   3.267   7.793   6.864 -1.6636 -1.0599 -0.3859
 3263SOL    HW211990   3.247   7.646   6.830  2.0310 -1.6034 -0.5868
 3264SOL     OW11991   3.801   8.569   1.782  0.2047  0.3039 -0.8541
 3264SOL    HW111992   3.741   8.495   1.773 -1.5279  1.4802  0.2498
 3264SOL    HW211993   3.868   8.539   1.843 -0.4887 -0.3574 -0.4010
 3265SOL     OW11994   7.854   3.953   8.189 -0.0034 -0.4026 -0.1083
 3265SOL    HW111995   7.873   4.040   8.225  1.0270  0.2530 -2.1453
 3265SOL    HW211996   7.939   3.912   8.176 -0.4130 -1.1595 -0.5235
 3266SOL     OW11997   8.904   2.184   5.367  0.0319  0.0514  0.1080
 3266SOL    HW111998   8.871   2.256   5.420  0.3799 -1.2767  2.2558
 3266SOL    HW211999   8.917   2.113   5.429  1.3336 -1.3267 -1.6375
 3267SOL     OW12000   1.166   9.136   4.010 -0.2581  0.1955  0.0622
 3267SOL    HW112001   1.132   9.191   3.940  0.1019  0.9488  0.4622
 3267SOL    HW212002   1.232   9.081   3.967 -2.0626 -1.4186 -0.7519
 3268SOL     OW12003   7.024   2.173   5.843 -0.1553 -0.0570 -0.1349
 3268SOL    HW112004   6.992   2.263   5.836 -2.3581 -0.7932 -0.3180
 3268SOL    HW212005   7.055   2.152   5.755 -0.3095  0.2780 -0.2726
 3269SOL     OW12006   8.367   6.802   1.864 -0.0716 -0.4291 -0.4403
 3269SOL    HW112007   8.452   6.815   1.821 -0.0851  1.2910 -0.0401
 3269SOL    HW212008   8.307   6.781   1.792  0.3265  0.2543 -0.9904
 3270SOL     OW12009   1.899   4.466   3.981  0.1270  0.3110  0.5865
 3270SOL    HW112010   1.842   4.393   3.962 -0.7884  1.3363 -0.7774
 3270SOL    HW212011   1.960   4.433   4.047  0.2476 -1.8961 -0.5508
 3271SOL     OW12012   3.523   3.208   4.318  0.3126  0.6509 -0.5565
 3271SOL    HW112013   3.445   3.155   4.304 -1.3575  2.1385  2.1501
 3271SOL    HW212014   3.531   3.260   4.238 -1.5381  0.5068 -0.8880
 3272SOL     OW12015   7.110   6.424   8.965 -0.0654 -0.2464 -0.0812
 3272SOL    HW112016   7.048   6.449   8.896  2.3499  2.2495 -1.5737
 3272SOL    HW212017   7.056   6.415   9.044 -2.4778  0.3965 -1.5498
 3273SOL     OW12018   1.964   5.255   8.381 -0.4629  0.7059 -0.5863
 3273SOL    HW112019   2.032   5.321   8.391  1.8920 -1.4557 -1.2482
 3273SOL    HW212020   1.973   5.199   8.459  0.5755 -1.2732 -2.0352
 3274SOL     OW12021   7.877   0.135   9.402 -0.0430  0.1314  0.4274
 3274SOL    HW112022   7.936   0.202   9.364  1.2054 -1.2876 -0.2387
 3274SOL    HW212023   7.914   0.119   9.489 -0.3879  0.3543  0.6150
 3275SOL     OW12024   7.585   5.639   2.641 -0.2366  0.2265  0.5446
 3275SOL    HW112025   7.607   5.546   2.637 -1.8694 -0.2452  1.4145
 3275SOL    HW212026   7.634   5.678   2.570 -0.9011 -1.6187 -1.0316
 3276SOL     OW12027   1.470   4.076   8.843  0.0494 -0.0562 -0.2033
 3276SOL    HW112028   1.550   4.077   8.895 -0.3351 -1.1358  0.4447
 3276SOL    HW212029   1.401   4.094   8.907 -0.4035 -1.0849 -0.3924
 3277SOL     OW12030   1.274   0.326   2.203 -0.0087  0.3472  0.0330
 3277SOL    HW112031   1.223   0.394   2.248  0.5368  0.1994  0.9069
 3277SOL    HW212032   1.351   0.372   2.169 -0.5645  0.5175 -1.0510
 3278SOL     OW12033   7.056   6.436   3.226  0.1481  0.3795 -0.3337
 3278SOL    HW112034   7.109   6.500   3.273 -2.0018  2.1410 -0.1155
 3278SOL    HW212035   7.072   6.456   3.134 -1.3865  2.1323 -0.2816
 3279SOL     OW12036   4.364   4.637   9.064  0.1292 -0.0780  0.3794
 3279SOL    HW112037   4.273   4.614   9.087 -0.2022  1.2291  0.4518
 3279SOL    HW212038   4.406   4.552   9.049 -0.9992 -0.7364  0.7203
 3280SOL     OW12039   5.808   2.935   4.545 -0.1576  0.3637 -0.2621
 3280SOL    HW112040   5.865   2.991   4.493 -1.4322  1.4017 -0.6171
 3280SOL    HW212041   5.866   2.890   4.606  1.1479  0.5444 -1.3292
 3281SOL     OW12042   4.223   3.020   8.417  0.2225 -0.3419 -0.3911
 3281SOL    HW112043   4.231   2.966   8.338 -1.1469 -1.6655  0.3193
 3281SOL    HW212044   4.177   2.964   8.479 -0.2556  1.2840  0.7731
 3282SOL     OW12045   5.230   5.664   5.468  0.1971  0.4977  0.6938
 3282SOL    HW112046   5.156   5.656   5.408  1.4068  0.1666 -0.7998
 3282SOL    HW212047   5.209   5.741   5.521 -0.6800  1.0820 -0.4517
 3283SOL     OW12048   7.800   3.280   1.090 -0.4397  0.3710  0.1946
 3283SOL    HW112049   7.850   3.205   1.124 -1.0178 -0.6292 -1.0500
 3283SOL    HW212050   7.849   3.357   1.119  0.8609 -0.5198  0.4697
 3284SOL     OW12051   3.291   8.361   9.251 -0.0546 -0.0052 -0.1690
 3284SOL    HW112052   3.227   8.366   9.322 -2.0626 -1.7728 -1.7574
 3284SOL    HW212053   3.290   8.270   9.224  1.8504  0.3054 -1.4644
 3285SOL     OW12054   3.180   6.783   5.906 -0.5442 -0.3408 -0.3262
 3285SOL    HW112055   3.178   6.872   5.941  0.3350 -0.6658  0.5730
 3285SOL    HW212056   3.089   6.754   5.910 -0.3384 -0.8356  2.9773
 3286SOL     OW12057   8.261   3.731   0.891 -0.0349  0.2307 -0.1443
 3286SOL    HW112058   8.252   3.668   0.963 -1.4847 -0.7558 -1.1361
 3286SOL    HW212059   8.242   3.816   0.931  0.5764 -0.1196  0.9267
 3287SOL     OW12060   3.655   5.835   3.485 -0.3186  0.4092 -0.1202
 3287SOL    HW112061   3.701   5.762   3.527 -0.9475  0.5158  0.7878
 3287SOL    HW212062   3.564   5.827   3.515 -0.7635  0.6087 -1.3239
 3288SOL     OW12063   8.583   7.154   7.663  0.0585 -0.7336  0.3350
 3288SOL    HW112064   8.661   7.110   7.696 -0.6003 -1.8921  0.4094
 3288SOL    HW212065   8.608   7.183   7.575  0.5934 -1.0544  0.3737
 3289SOL     OW12066   6.183   4.863   0.220  0.7740  0.0488 -0.0338
 3289SOL    HW112067   6.144   4.926   0.281 -1.5287 -2.8230  1.7462
 3289SOL    HW212068   6.240   4.809   0.274  1.2463 -0.5603 -1.1125
 3290SOL     OW12069   1.832   4.114   7.722  0.3769  0.3733 -0.5310
 3290SOL    HW112070   1.829   4.090   7.815  2.2067  1.1834 -0.2171
 3290SOL    HW212071   1.741   4.107   7.692 -0.1383 -0.5662  1.1353
 3291SOL     OW12072   9.084   5.142   7.871 -0.3523  0.2653 -0.0838
 3291SOL    HW112073   9.088   5.047   7.885  0.9326  0.1200 -1.1751
 3291SOL    HW212074   9.121   5.180   7.950 -0.7854 -0.1365  0.3203
 3292SOL     OW12075   7.322   4.735   7.608 -0.1232  0.0115 -0.1292
 3292SOL    HW112076   7.364   4.771   7.529  0.3443 -0.4719 -0.1046
 3292SOL    HW212077   7.392   4.731   7.672  0.0064 -1.6049 -0.3466
 3293SOL     OW12078   1.516   0.909   4.493 -0.1171  0.1584  0.2667
 3293SOL    HW112079   1.566   0.950   4.423 -0.8637 -1.6360 -1.4303
 3293SOL    HW212080   1.582   0.865   4.548  0.3335 -0.4300 -0.7255
 3294SOL     OW12081   0.507   1.566   4.421  0.4731  0.4642 -0.3923
 3294SOL    HW112082   0.528   1.591   4.331 -0.5061  0.7061 -0.5684
 3294SOL    HW212083   0.437   1.500   4.412  0.6044  0.2416  0.1793
 3295SOL     OW12084   7.540   3.316   3.023  0.7090  0.1122 -0.0030
 3295SOL    HW112085   7.573   3.236   2.983 -0.4764 -0.5573  0.2964
 3295SOL    HW212086   7.446   3.302   3.030  0.3032  2.0375 -1.0311
 3296SOL     OW12087   1.773   5.287   2.553 -0.1451 -0.4065 -0.3561
 3296SOL    HW112088   1.810   5.308   2.467 -0.3675 -0.7462 -0.5404
 3296SOL    HW212089   1.680   5.309   2.545 -0.3758 -1.3957 -0.5433
 3297SOL     OW12090   5.994   7.788   6.554  0.4134  0.2429 -0.0078
 3297SOL    HW112091   6.068   7.847   6.536  1.2735 -0.5269  0.8472
 3297SOL    HW212092   5.929   7.810   6.488  1.3573  1.0403 -0.7092
 3298SOL     OW12093   5.110   5.646   1.853  0.3157  0.4279  0.0232
 3298SOL    HW112094   5.181   5.709   1.841 -0.1408  0.8155 -0.6997
 3298SOL    HW212095   5.044   5.694   1.902  0.7387 -0.0847  1.1271
 3299SOL     OW12096   5.159   4.193   0.610 -0.2721  0.1741  0.8977
 3299SOL    HW112097   5.220   4.121   0.628  1.1059  1.0976  0.1939
 3299SOL    HW212098   5.087   4.180   0.672 -0.3455 -2.0853  0.4415
 3300SOL     OW12099   9.373   5.131   9.364 -0.3245  0.0057 -0.1876
 3300SOL    HW112100   9.427   5.069   9.315  0.3556  1.1118 -0.9117
 3300SOL    HW212101   9.287   5.127   9.322 -0.8655 -1.7895  0.9905
 3301SOL     OW12102   8.919   1.476   5.313  0.0634 -0.5420  0.2649
 3301SOL    HW112103   8.946   1.525   5.235 -0.6017 -0.9913 -0.2639
 3301SOL    HW212104   8.966   1.518   5.386 -0.7025  1.0805 -0.1285
 3302SOL     OW12105   7.513   4.118   2.465  0.1495 -0.2099 -0.2050
 3302SOL    HW112106   7.522   4.202   2.420  2.2427 -0.5254 -0.4602
 3302SOL    HW212107   7.484   4.057   2.397  3.2001 -0.6629 -1.2392
 3303SOL     OW12108   0.294   6.828   2.197  0.5693  0.2808 -0.4142
 3303SOL    HW112109   0.342   6.804   2.276  0.6472  2.3249  0.2174
 3303SOL    HW212110   0.222   6.764   2.191  1.2159 -0.5661  0.6653
 3304SOL     OW12111   8.270   2.149   1.749  0.5215  0.2660 -0.2091
 3304SOL    HW112112   8.205   2.211   1.783  0.3318  1.0215 -1.8656
 3304SOL    HW212113   8.325   2.202   1.691  0.8594 -0.9527 -1.0176
 3305SOL     OW12114   3.491   0.380   5.359 -0.0665 -0.2316  0.2858
 3305SOL    HW112115   3.407   0.367   5.315 -0.2869  1.1114  0.2733
 3305SOL    HW212116   3.552   0.321   5.313 -0.1923  1.3819 -2.1287
 3306SOL     OW12117   0.723   7.136   8.300  0.4031 -0.2548  0.0079
 3306SOL    HW112118   0.693   7.191   8.227  2.5157  0.0847 -0.6552
 3306SOL    HW212119   0.716   7.193   8.377  1.5568  0.6320 -0.5112
 3307SOL     OW12120   0.209   2.502   6.595 -0.6488 -0.4650 -0.8068
 3307SOL    HW112121   0.138   2.497   6.658  0.0406  0.9602  0.1302
 3307SOL    HW212122   0.282   2.457   6.637 -0.4125 -0.1787 -0.9009
 3308SOL     OW12123   6.174   3.488   4.115 -0.4305  0.0889  0.6499
 3308SOL    HW112124   6.166   3.420   4.048  0.5145  0.2778  0.3265
 3308SOL    HW212125   6.116   3.460   4.186 -0.8738 -0.4905  0.0672
 3309SOL     OW12126   2.694   6.076   4.143 -0.3165 -0.3995  0.3790
 3309SOL    HW112127   2.696   6.041   4.232  1.9272  1.6091  1.2530
 3309SOL    HW212128   2.767   6.033   4.099 -0.0877  0.1680  0.1944
 3310SOL     OW12129   8.200   1.245   7.416 -0.1292  0.0756  0.2888
 3310SOL    HW112130   8.240   1.161   7.437  0.5222  0.4384  0.5426
 3310SOL    HW212131   8.237   1.306   7.480 -0.5326  0.5688  0.0612
 3311SOL     OW12132   7.552   5.044   6.117 -0.1114 -0.5049 -0.1142
 3311SOL    HW112133   7.645   5.027   6.108  0.5943  2.7384 -0.1586
 3311SOL    HW212134   7.510   4.983   6.056  1.8090 -2.7364  0.6518
 3312SOL     OW12135   8.938   1.824   4.801  0.0485 -0.1928 -0.1123
 3312SOL    HW112136   8.979   1.905   4.831 -1.5757  0.0335  1.6789
 3312SOL    HW212137   8.853   1.852   4.767  0.3832 -0.9177 -1.6295
 3313SOL     OW12138   1.366   0.421   5.329 -0.4966 -0.5145 -0.4173
 3313SOL    HW112139   1.280   0.420   5.371  0.1224 -1.1342  0.8852
 3313SOL    HW212140   1.363   0.347   5.267 -2.0077  1.4176 -2.8491
 3314SOL     OW12141   8.248   2.221   2.086  0.0800  0.4729  0.0626
 3314SOL    HW112142   8.181   2.155   2.072 -1.7951  1.9775  1.4507
 3314SOL    HW212143   8.257   2.265   2.002  0.3600 -0.6032 -0.4934
 3315SOL     OW12144   4.083   4.368   4.052  0.7115  0.3123 -0.1215
 3315SOL    HW112145   4.015   4.428   4.023 -0.2169  0.2942  1.8781
 3315SOL    HW212146   4.154   4.424   4.084  1.2460  0.3230 -1.2745
 3316SOL     OW12147   6.433   7.502   2.976 -0.2998 -0.1215 -0.2264
 3316SOL    HW112148   6.439   7.412   2.945 -0.0940 -0.3733  0.5063
 3316SOL    HW212149   6.448   7.495   3.071 -0.1990  0.6902 -0.1754
 3317SOL     OW12150   8.010   0.823   7.528  0.6348  0.2103  0.1902
 3317SOL    HW112151   8.048   0.735   7.529 -1.9524 -1.0853 -2.3199
 3317SOL    HW212152   8.053   0.867   7.455  1.4761  0.8963  1.0604
 3318SOL     OW12153   8.503   2.417   2.782 -0.5272 -0.2181  0.3390
 3318SOL    HW112154   8.499   2.449   2.873  1.6933  0.9992  0.0929
 3318SOL    HW212155   8.458   2.485   2.731  0.1921  0.2405  0.3049
 3319SOL     OW12156   8.451   6.524   3.922  0.1547  0.3935  0.2089
 3319SOL    HW112157   8.404   6.465   3.863  0.7998  0.1280 -0.0505
 3319SOL    HW212158   8.536   6.482   3.936 -0.0063  0.4405  1.3655
 3320SOL     OW12159   6.058   8.588   3.262  0.3372  0.2674 -0.7360
 3320SOL    HW112160   6.096   8.647   3.198 -0.2967  0.7530 -0.6677
 3320SOL    HW212161   5.989   8.542   3.214 -1.2264  1.7702 -0.0309
 3321SOL     OW12162   0.816   7.332   2.298  0.2142 -0.0389  0.7621
 3321SOL    HW112163   0.834   7.408   2.241  1.3660  0.7195  2.0509
 3321SOL    HW212164   0.899   7.283   2.298  0.5085  0.4142  2.3767
 3322SOL     OW12165   5.997   1.704   2.156 -0.1012 -0.6429 -0.5417
 3322SOL    HW112166   6.054   1.646   2.104  0.4446 -0.1177 -0.5296
 3322SOL    HW212167   6.046   1.721   2.236 -1.4430 -2.4466  0.7488
 3323SOL     OW12168   8.628   1.185   0.766 -0.5889  0.3889  0.5961
 3323SOL    HW112169   8.653   1.239   0.842  0.3651  0.0119  0.5603
 3323SOL    HW212170   8.584   1.246   0.707 -0.9041  0.7933  1.2291
 3324SOL     OW12171   4.708   7.575   2.608 -0.2246 -0.0533 -0.4518
 3324SOL    HW112172   4.801   7.590   2.592  0.0315 -0.4067  0.6554
 3324SOL    HW212173   4.680   7.520   2.535  0.1065  1.1506 -1.5276
 3325SOL     OW12174   0.779   4.154   1.580 -0.2184 -0.0417 -0.4881
 3325SOL    HW112175   0.729   4.227   1.616 -0.0304  0.0695 -0.4543
 3325SOL    HW212176   0.848   4.138   1.644 -1.2946 -1.3907  0.3872
 3326SOL     OW12177   7.711   0.402   9.423  0.2590  0.1808  0.3561
 3326SOL    HW112178   7.734   0.310   9.440 -2.1198 -0.1071  2.8947
 3326SOL    HW212179   7.626   0.397   9.379  1.0395  1.2059 -1.3509
 3327SOL     OW12180   0.820   1.250   4.170  0.3803 -0.3583  0.1397
 3327SOL    HW112181   0.852   1.284   4.253 -0.1875 -1.3698  0.7904
 3327SOL    HW212182   0.894   1.201   4.133  1.1345  1.3244 -0.7062
 3328SOL     OW12183   9.565   7.132   7.378  0.4100 -0.4408  0.3084
 3328SOL    HW112184   9.509   7.209   7.382 -0.5924 -1.1981  1.9332
 3328SOL    HW212185   9.653   7.166   7.361 -0.2366  0.9103 -0.5085
 3329SOL     OW12186   4.740   4.646   2.804  0.6352 -0.4645 -0.2395
 3329SOL    HW112187   4.721   4.557   2.832  0.2340 -0.6021 -0.9310
 3329SOL    HW212188   4.655   4.682   2.778  0.5346  0.6598  1.5235
 3330SOL     OW12189   6.190   0.683   9.259 -0.3554  0.6339  0.2647
 3330SOL    HW112190   6.135   0.747   9.213 -0.4715  0.6648  0.4469
 3330SOL    HW212191   6.189   0.712   9.350 -0.3231  0.4308  0.3296
 3331SOL     OW12192   3.717   0.069   6.857 -0.2142 -0.7533  0.2655
 3331SOL    HW112193   3.658   0.145   6.862  0.3275 -0.2857 -0.3899
 3331SOL    HW212194   3.671   0.008   6.800 -0.1308 -0.4411 -0.1437
 3332SOL     OW12195   5.866   5.379   5.779  0.5188  0.2964  0.6603
 3332SOL    HW112196   5.957   5.406   5.790  0.9530  0.4283 -2.4080
 3332SOL    HW212197   5.861   5.293   5.822  2.2564  0.0111  0.3584
 3333SOL     OW12198   8.968   4.698   7.409 -0.6828  0.1339 -1.1369
 3333SOL    HW112199   8.963   4.738   7.496  1.4819  0.1528 -0.9870
 3333SOL    HW212200   8.890   4.641   7.405 -1.6486  1.3054  0.1762
 3334SOL     OW12201   1.100   7.481   8.363  0.0451  0.5302 -0.6259
 3334SOL    HW112202   1.141   7.567   8.357  0.1527  0.5611  0.4193
 3334SOL    HW212203   1.006   7.499   8.365  0.0806  0.6611  0.0656
 3335SOL     OW12204   5.214   0.615   2.348  0.0901 -0.3765  0.0287
 3335SOL    HW112205   5.254   0.601   2.434  2.7988 -0.9181 -1.1974
 3335SOL    HW212206   5.190   0.527   2.318  0.0383 -0.3009 -0.1504
 3336SOL     OW12207   7.967   6.415   1.915  0.0941  0.5901 -0.2604
 3336SOL    HW112208   7.987   6.449   1.828  1.4584 -0.8460 -0.5594
 3336SOL    HW212209   7.880   6.375   1.907  0.4808 -0.0916 -1.1440
 3337SOL     OW12210   7.064   7.933   8.099  0.3920 -0.1735 -0.6520
 3337SOL    HW112211   7.017   8.014   8.079  1.1815  0.1699 -1.1614
 3337SOL    HW212212   7.029   7.905   8.184 -0.3408  0.3602 -0.7717
 3338SOL     OW12213   9.128   1.002   2.530 -0.3869  0.3568  0.9922
 3338SOL    HW112214   9.144   1.080   2.583  1.2738  1.8669 -1.4722
 3338SOL    HW212215   9.089   1.036   2.449 -0.4875 -1.4819  0.2218
 3339SOL     OW12216   1.269   5.182   9.003  0.0105 -0.3794  0.1456
 3339SOL    HW112217   1.342   5.132   8.967  1.2988  1.3751  0.1554
 3339SOL    HW212218   1.298   5.207   9.091 -0.3576  0.7602 -0.0335
 3340SOL     OW12219   0.365   9.417   9.466 -0.2591  0.2410 -0.0047
 3340SOL    HW112220   0.443   9.464   9.496 -0.4902  0.7305 -0.1542
 3340SOL    HW212221   0.296   9.444   9.527 -0.1817 -0.6802  0.5158
 3341SOL     OW12222   3.954   4.817   0.628 -0.2447 -0.1547 -0.1757
 3341SOL    HW112223   3.963   4.761   0.551  1.0577 -1.4279  0.8548
 3341SOL    HW212224   4.004   4.773   0.696 -0.5786  1.4248  1.1605
 3342SOL     OW12225   5.496   2.470   3.051 -0.3086 -0.0597  0.3706
 3342SOL    HW112226   5.468   2.393   3.001 -0.9331 -0.9262  1.9847
 3342SOL    HW212227   5.416   2.521   3.062 -0.0627  0.4023  0.0350
 3343SOL     OW12228   6.433   3.709   5.536 -0.0893 -0.8354 -0.6469
 3343SOL    HW112229   6.462   3.620   5.517  0.9888 -1.1557  1.9555
 3343SOL    HW212230   6.508   3.764   5.511 -0.0371 -0.8669 -0.5604
 3344SOL     OW12231   7.302   8.529   0.153 -0.3989 -1.1729 -0.2387
 3344SOL    HW112232   7.233   8.472   0.119 -1.5387  0.1425 -0.2194
 3344SOL    HW212233   7.256   8.610   0.177  1.2705  0.0131 -0.9105
 3345SOL     OW12234   2.858   1.792   8.183  0.7402  0.2787 -0.1648
 3345SOL    HW112235   2.918   1.798   8.258  1.4595  2.2920 -0.8415
 3345SOL    HW212236   2.887   1.861   8.124 -0.3566 -0.7188 -1.9339
 3346SOL     OW12237   8.821   8.494   3.629 -0.4264 -0.3813 -0.0009
 3346SOL    HW112238   8.797   8.508   3.721 -3.5264 -3.7341 -0.0510
 3346SOL    HW212239   8.803   8.577   3.587  0.3589  1.0285  2.2468
 3347SOL     OW12240   2.733   5.364   4.849 -0.6054 -0.7353 -0.0521
 3347SOL    HW112241   2.681   5.444   4.843  1.1887  0.3789 -2.2925
 3347SOL    HW212242   2.793   5.380   4.922  0.2608  0.3654 -0.9635
 3348SOL     OW12243   9.369   7.873   6.520 -0.4173  0.1143  0.4802
 3348SOL    HW112244   9.408   7.809   6.460 -0.8124 -1.2705  1.6469
 3348SOL    HW212245   9.373   7.955   6.472  0.9354 -0.5988 -0.7254
 3349SOL     OW12246   9.369   4.542   5.834 -0.4595 -0.6403 -0.4352
 3349SOL    HW112247   9.413   4.625   5.816 -1.0936 -0.2226 -0.0894
 3349SOL    HW212248   9.427   4.475   5.796  0.3158 -0.0839 -0.2600
 3350SOL     OW12249   5.510   8.839   2.921 -0.2018  0.3233  0.4193
 3350SOL    HW112250   5.556   8.761   2.953 -0.0302  0.2011 -0.1125
 3350SOL    HW212251   5.513   8.900   2.994  1.7945  0.7394  0.0506
 3351SOL     OW12252   2.674   1.881   2.714 -0.0713 -0.0357  0.2182
 3351SOL    HW112253   2.747   1.818   2.721 -0.0703 -0.2379 -1.3238
 3351SOL    HW212254   2.713   1.965   2.740 -0.0668 -0.6158  2.2939
 3352SOL     OW12255   1.749   2.429   4.388 -0.5017  0.5561  0.1800
 3352SOL    HW112256   1.710   2.516   4.377 -1.1649  0.2163 -0.2687
 3352SOL    HW212257   1.705   2.375   4.322 -1.0721 -0.4300  1.3255
 3353SOL     OW12258   1.648   8.058   7.224 -0.1793  0.4865  0.4867
 3353SOL    HW112259   1.726   8.030   7.175 -0.9147  1.2005 -1.1516
 3353SOL    HW212260   1.660   8.152   7.236 -0.0877  0.3518  1.6036
 3354SOL     OW12261   5.815   2.008   9.111  0.1259  0.5432  0.4072
 3354SOL    HW112262   5.891   2.048   9.154  0.6967 -1.7475  1.7056
 3354SOL    HW212263   5.848   1.977   9.027 -0.2072  2.2802 -0.4036
 3355SOL     OW12264   7.321   5.002   1.552 -0.2127  0.0782 -0.1557
 3355SOL    HW112265   7.269   5.082   1.546 -0.8068 -0.2060  0.8910
 3355SOL    HW212266   7.305   4.970   1.641  1.2751 -0.3481 -0.0104
 3356SOL     OW12267   2.278   4.173   3.420  0.1288 -0.4668 -0.0982
 3356SOL    HW112268   2.273   4.102   3.484 -1.3952 -0.8686 -0.6119
 3356SOL    HW212269   2.198   4.223   3.433  1.4939  1.6502  0.7397
 3357SOL     OW12270   4.978   8.899   6.908  0.3146  0.3249  0.0235
 3357SOL    HW112271   5.060   8.875   6.953  0.8900 -2.2409 -2.0953
 3357SOL    HW212272   4.909   8.871   6.968  1.0400 -0.6958  0.4196
 3358SOL     OW12273   5.276   8.722   1.023 -0.3912  0.1261  0.1961
 3358SOL    HW112274   5.365   8.699   0.997 -0.3149  0.1082  0.4758
 3358SOL    HW212275   5.251   8.657   1.088 -0.9262 -0.3817 -0.5021
 3359SOL     OW12276   8.859   7.480   7.564  0.2399  0.4423  0.0986
 3359SOL    HW112277   8.767   7.495   7.585  0.1065 -0.3925  0.1414
 3359SOL    HW212278   8.899   7.567   7.567 -0.6187  0.8584 -0.2810
 3360SOL     OW12279   1.485   5.292   0.711 -0.2081  0.2466 -0.1948
 3360SOL    HW112280   1.537   5.371   0.727  1.2430 -0.6457 -0.2646
 3360SOL    HW212281   1.516   5.230   0.777 -0.4920 -0.6325 -0.8743
 3361SOL     OW12282   0.714   5.247   8.797 -0.2136  0.3621 -0.2232
 3361SOL    HW112283   0.721   5.154   8.821  0.1075  0.8616  1.8667
 3361SOL    HW212284   0.673   5.288   8.873 -0.9485  1.8551 -1.3646
 3362SOL     OW12285   8.164   3.693   5.669  0.2719  0.5748  0.6508
 3362SOL    HW112286   8.136   3.778   5.703 -3.3734 -0.7192  1.2656
 3362SOL    HW212287   8.149   3.632   5.741  1.7999 -0.8012 -0.1311
 3363SOL     OW12288   4.461   8.421   1.524 -0.1095  0.5806  0.3328
 3363SOL    HW112289   4.380   8.389   1.485  0.2023 -0.1806  0.2988
 3363SOL    HW212290   4.484   8.355   1.590  2.4282 -1.2049 -2.1241
 3364SOL     OW12291   8.673   8.166   9.056 -0.0694  0.6022  0.3576
 3364SOL    HW112292   8.718   8.241   9.017 -1.0913  1.5839  0.9891
 3364SOL    HW212293   8.730   8.092   9.038  1.4141  1.6635  0.4639
 3365SOL     OW12294   6.427   4.080   6.088 -0.0044  0.0996  0.0978
 3365SOL    HW112295   6.395   4.164   6.122  0.2664  0.3715 -0.3150
 3365SOL    HW212296   6.479   4.104   6.011  0.3400 -0.4234  0.1676
 3366SOL     OW12297   8.648   2.816   1.073  0.0138 -0.2247 -0.5168
 3366SOL    HW112298   8.678   2.729   1.098  0.7766  0.0698 -0.3732
 3366SOL    HW212299   8.594   2.845   1.147 -0.0128 -0.4668 -0.4430
 3367SOL     OW12300   2.539   0.824   9.122 -0.0501 -0.3288 -0.2563
 3367SOL    HW112301   2.541   0.889   9.193 -0.0574  0.0137 -0.5688
 3367SOL    HW212302   2.626   0.828   9.083  0.2908 -1.2331  0.3634
 3368SOL     OW12303   0.374   6.898   8.763  0.1146 -0.2454 -0.0441
 3368SOL    HW112304   0.286   6.869   8.788 -0.1874  0.0250 -0.7547
 3368SOL    HW212305   0.430   6.822   8.779 -0.2572 -0.4289  0.3924
 3369SOL     OW12306   1.948   2.691   6.902 -0.5665 -0.0596 -0.0007
 3369SOL    HW112307   1.961   2.597   6.891  1.2323  0.1238  0.3270
 3369SOL    HW212308   1.853   2.703   6.893 -0.8728 -1.9378  0.3391
 3370SOL     OW12309   7.315   1.234   7.777  0.2699  0.1986  0.5616
 3370SOL    HW112310   7.307   1.139   7.768  0.1832  0.3655 -1.4220
 3370SOL    HW212311   7.340   1.265   7.690 -1.1049  2.1533  0.7907
 3371SOL     OW12312   7.565   5.664   4.084 -0.5021  0.4900  0.6028
 3371SOL    HW112313   7.614   5.746   4.081  0.2052  0.0941  1.0125
 3371SOL    HW212314   7.619   5.602   4.035 -0.4942 -0.0009  1.2257
 3372SOL     OW12315   3.570   1.943   8.470  0.4069  0.1442  0.1020
 3372SOL    HW112316   3.560   2.015   8.532 -0.1523  0.1447  0.0178
 3372SOL    HW212317   3.507   1.878   8.499 -0.7716  0.6617 -1.1799
 3373SOL     OW12318   0.314   4.501   6.654 -0.5382  0.4947 -0.2456
 3373SOL    HW112319   0.366   4.563   6.603 -1.5945  1.1902 -0.5217
 3373SOL    HW212320   0.356   4.499   6.740 -0.2397  1.2740 -0.3687
 3374SOL     OW12321   8.680   7.721   3.070  0.1273 -0.1721  0.1904
 3374SOL    HW112322   8.693   7.728   2.975 -1.0595 -1.1157 -0.0725
 3374SOL    HW212323   8.711   7.804   3.104  0.4336  0.2521 -1.0473
 3375SOL     OW12324   2.887   6.102   1.143 -0.2533 -0.0727 -0.8047
 3375SOL    HW112325   2.918   6.049   1.217 -0.1776  0.7853 -0.2091
 3375SOL    HW212326   2.915   6.053   1.065  3.1672  0.8834 -0.3440
 3376SOL     OW12327   7.520   0.675   9.190  0.4978  0.3690 -0.0528
 3376SOL    HW112328   7.575   0.752   9.197  0.5117  0.4698 -1.1236
 3376SOL    HW212329   7.580   0.604   9.167  0.5003  0.0063  1.0147
 3377SOL     OW12330   0.815   9.373   2.493 -0.2174 -0.0000 -0.3214
 3377SOL    HW112331   0.910   9.369   2.504  0.2272 -2.5585 -3.5285
 3377SOL    HW212332   0.802   9.417   2.409 -1.9432  0.7205  0.2751
 3378SOL     OW12333   3.653   1.054   5.793 -0.4708  0.2242 -0.8947
 3378SOL    HW112334   3.713   1.042   5.719 -1.5644 -1.6853 -1.5232
 3378SOL    HW212335   3.582   0.992   5.778 -1.1700  0.3747  1.3384
 3379SOL     OW12336   9.398   0.376   7.169  0.3845  0.1262  0.5652
 3379SOL    HW112337   9.331   0.319   7.206  1.0152 -1.1489 -0.1969
 3379SOL    HW212338   9.456   0.397   7.243 -1.3226  2.0518  1.4681
 3380SOL     OW12339   9.350   0.611   5.472 -0.5444  0.4261 -0.4523
 3380SOL    HW112340   9.402   0.686   5.443 -0.2531  1.2908  2.0459
 3380SOL    HW212341   9.356   0.613   5.567 -1.0987 -2.4047 -0.2568
 3381SOL     OW12342   8.991   2.710   0.885  0.3409  0.2330  0.2276
 3381SOL    HW112343   9.019   2.796   0.917 -0.3906  0.6647 -0.2583
 3381SOL    HW212344   9.037   2.698   0.802  0.3115  0.2347  0.2110
 3382SOL     OW12345   0.102   7.862   7.429  0.1445 -0.5146  0.4577
 3382SOL    HW112346   0.186   7.890   7.467  0.3466 -3.0787  2.1551
 3382SOL    HW212347   0.061   7.811   7.498 -1.9699 -0.9344 -1.0275
 3383SOL     OW12348   8.028   1.004   9.316 -0.2488  0.2727  0.2015
 3383SOL    HW112349   8.040   1.093   9.284  0.3074  0.0403 -0.2371
 3383SOL    HW212350   7.936   0.984   9.297  0.6456 -0.8436 -3.8405
 3384SOL     OW12351   7.709   7.904   6.183 -0.1138 -0.5954 -0.3378
 3384SOL    HW112352   7.639   7.888   6.120 -2.1029  1.1410  1.2637
 3384SOL    HW212353   7.692   7.843   6.254  1.7641 -2.1350 -1.1384
 3385SOL     OW12354   5.836   5.288   4.745  0.5824 -0.2164 -1.0597
 3385SOL    HW112355   5.804   5.249   4.664 -2.1395  2.4605 -1.4382
 3385SOL    HW212356   5.905   5.349   4.717 -0.7253  1.1052 -1.5098
 3386SOL     OW12357   4.428   0.155   1.689 -0.2509  0.5496  0.1311
 3386SOL    HW112358   4.441   0.083   1.628 -0.2030 -0.1053  0.8872
 3386SOL    HW212359   4.365   0.121   1.753 -0.1078  1.1242  0.5879
 3387SOL     OW12360   9.209   7.843   8.628  0.0916  0.6911 -0.4695
 3387SOL    HW112361   9.300   7.812   8.626 -0.4752 -1.0931 -0.9450
 3387SOL    HW212362   9.180   7.836   8.537 -1.2529 -1.2389  0.0351
 3388SOL     OW12363   7.282   0.873   1.539  0.6761 -0.1341 -0.4755
 3388SOL    HW112364   7.354   0.857   1.477  1.4937  0.5681  0.2525
 3388SOL    HW212365   7.263   0.966   1.530  1.0127  0.0451  0.5277
 3389SOL     OW12366   4.299   0.416   7.808  0.2359  0.1487 -0.0584
 3389SOL    HW112367   4.280   0.374   7.892  0.5916 -0.4899 -0.2932
 3389SOL    HW212368   4.369   0.478   7.828  0.9250 -0.6191 -0.0436
 3390SOL     OW12369   8.510   2.860   4.406 -0.8423  0.6649  0.0823
 3390SOL    HW112370   8.441   2.796   4.424 -1.8386  1.8286  0.5556
 3390SOL    HW212371   8.472   2.920   4.343  0.5290  0.1002 -1.3555
 3391SOL     OW12372   0.284   4.045   7.274 -0.3652 -0.2774 -0.3141
 3391SOL    HW112373   0.220   3.987   7.234  0.0494  1.2925 -3.5893
 3391SOL    HW212374   0.233   4.094   7.339 -1.7628 -1.1679 -0.6806
 3392SOL     OW12375   6.440   8.044   2.560  0.5356  0.1760 -0.8305
 3392SOL    HW112376   6.382   8.048   2.484  0.7501 -2.4861 -1.2226
 3392SOL    HW212377   6.382   8.049   2.636  0.0036 -0.1808 -1.2073
 3393SOL     OW12378   0.081   9.373   8.618  0.3591 -0.2746  0.0872
 3393SOL    HW112379   0.038   9.300   8.662  1.6451 -0.7299  0.6299
 3393SOL    HW212380   0.118   9.426   8.689  0.8694 -0.0135 -0.3629
 3394SOL     OW12381   7.298   9.532   6.140  0.1244 -0.3460 -0.4694
 3394SOL    HW112382   7.246   9.472   6.087 -0.4399  0.7270 -1.1618
 3394SOL    HW212383   7.330   9.598   6.078  2.2142 -0.8919 -0.0459
 3395SOL     OW12384   3.859   4.239   2.089  0.2412 -0.0351  0.2676
 3395SOL    HW112385   3.819   4.323   2.113  0.7923 -0.1140  1.5222
 3395SOL    HW212386   3.921   4.261   2.019  1.4646  0.8662  1.5887
 3396SOL     OW12387   7.139   7.266   6.868  0.6037  0.5300 -0.0527
 3396SOL    HW112388   7.151   7.208   6.793  0.2070  1.9607 -1.2886
 3396SOL    HW212389   7.163   7.213   6.944  1.2998 -0.8861 -1.2073
 3397SOL     OW12390   2.225   1.882   2.878 -0.4557  0.0438 -0.3563
 3397SOL    HW112391   2.223   1.937   2.957  2.2002 -0.5728  0.2342
 3397SOL    HW212392   2.253   1.941   2.809 -1.3319  0.2532 -0.5403
 3398SOL     OW12393   9.128   5.055   3.808  0.2217  0.4136  0.6731
 3398SOL    HW112394   9.198   4.992   3.828 -0.2518  0.4919  2.8459
 3398SOL    HW212395   9.094   5.027   3.723  0.9051 -1.4648  0.9599
 3399SOL     OW12396   1.032   8.093   6.663  0.1889  0.1481 -0.7691
 3399SOL    HW112397   0.972   8.134   6.725 -0.2804  1.0913 -1.8155
 3399SOL    HW212398   1.007   8.001   6.662  0.5740 -0.0059  0.8397
 3400SOL     OW12399   6.995   4.143   5.757 -0.2552 -0.4222  0.3864
 3400SOL    HW112400   7.025   4.091   5.683  1.1206 -0.6725  1.0871
 3400SOL    HW212401   6.920   4.095   5.793 -0.7231 -0.4625 -0.6250
 3401SOL     OW12402   5.268   6.983   4.720 -0.4708 -0.2160 -0.4054
 3401SOL    HW112403   5.328   6.917   4.756  1.0226  2.1881  1.9290
 3401SOL    HW212404   5.184   6.964   4.762 -0.5335 -1.6404 -1.1319
 3402SOL     OW12405   1.218   5.489   6.463  0.3682  0.2391 -0.2898
 3402SOL    HW112406   1.191   5.425   6.397  1.2899 -1.8742  1.2644
 3402SOL    HW212407   1.297   5.529   6.427  2.2330 -2.5681  0.3909
 3403SOL     OW12408   0.235   0.165   1.114  0.4212 -0.1377 -0.0730
 3403SOL    HW112409   0.208   0.183   1.024 -2.3078 -2.3059  0.1710
 3403SOL    HW212410   0.331   0.173   1.113  0.6361 -1.4509 -3.5263
 3404SOL     OW12411   0.022   8.743   6.235  0.3132 -0.0892 -0.0403
 3404SOL    HW112412  -0.002   8.652   6.250  2.2553 -0.5791  0.4534
 3404SOL    HW212413   0.013   8.755   6.141 -1.9852 -0.1092  0.1166
 3405SOL     OW12414   3.282   0.958   2.290 -0.3998 -0.0190  0.3401
 3405SOL    HW112415   3.269   0.872   2.330  0.0968  0.2353  1.0787
 3405SOL    HW212416   3.359   0.947   2.234 -1.3605 -0.4930 -0.9345
 3406SOL     OW12417   6.366   5.595   0.452 -0.0284 -0.2316  0.3528
 3406SOL    HW112418   6.308   5.671   0.459 -0.7440 -0.8431  1.2116
 3406SOL    HW212419   6.454   5.631   0.461 -0.3237  0.5700  0.1109
 3407SOL     OW12420   2.013   4.705   5.171  0.1058  0.3428 -0.1293
 3407SOL    HW112421   2.070   4.771   5.209 -0.1031  0.1673  0.4999
 3407SOL    HW212422   2.049   4.690   5.083  1.1280  0.1271  0.3042
 3408SOL     OW12423   3.289   1.163   2.493 -0.2713  0.4537 -0.0966
 3408SOL    HW112424   3.266   1.088   2.437  0.5926 -0.1793  0.3812
 3408SOL    HW212425   3.252   1.141   2.578  0.9940 -0.0150  0.3624
 3409SOL     OW12426   6.521   6.207   7.634  0.1158  0.2730  0.2821
 3409SOL    HW112427   6.468   6.275   7.676 -1.8711 -1.2464  0.3689
 3409SOL    HW212428   6.483   6.196   7.547  1.4367  0.3565 -0.3322
 3410SOL     OW12429   2.549   7.851   0.899  0.0813  0.0050  0.1224
 3410SOL    HW112430   2.460   7.885   0.896  0.1452  0.1417 -0.3481
 3410SOL    HW212431   2.571   7.833   0.807 -0.0896 -1.6730  0.3905
 3411SOL     OW12432   0.927   2.238   9.543 -0.1877  0.6839 -0.1080
 3411SOL    HW112433   0.904   2.284   9.462 -0.4316 -0.1123 -0.5034
 3411SOL    HW212434   0.843   2.204   9.575  0.1944 -0.8894 -0.7146
 3412SOL     OW12435   3.548   5.397   2.881 -0.0646 -0.1419 -0.0468
 3412SOL    HW112436   3.554   5.358   2.969  0.5390  0.1499  0.0502
 3412SOL    HW212437   3.478   5.349   2.838  0.2890 -0.9491  0.2633
 3413SOL     OW12438   9.042   5.451   0.234  0.6407  0.2691 -0.4540
 3413SOL    HW112439   9.049   5.426   0.326  0.7243 -2.6261 -1.1666
 3413SOL    HW212440   9.131   5.448   0.201  0.7336  2.1559 -0.4994
 3414SOL     OW12441   1.208   2.993   8.264  0.2886  0.3564  0.0626
 3414SOL    HW112442   1.286   3.031   8.224  1.0594  0.6297  1.7073
 3414SOL    HW212443   1.239   2.910   8.301  0.1675  1.0594  1.8456
 3415SOL     OW12444   2.725   2.733   3.176  0.0939 -0.4206  0.7183
 3415SOL    HW112445   2.660   2.682   3.127 -2.1536  0.5586  2.4740
 3415SOL    HW212446   2.788   2.669   3.208  0.9947 -1.2283 -2.3295
 3416SOL     OW12447   5.320   8.987   2.164 -0.0172 -0.1327 -0.0080
 3416SOL    HW112448   5.230   8.957   2.162 -0.5929  1.5271 -0.9193
 3416SOL    HW212449   5.362   8.944   2.089  0.2296 -1.5872  0.9165
 3417SOL     OW12450   8.642   6.618   2.114  0.3411  0.0563  0.2145
 3417SOL    HW112451   8.604   6.696   2.075 -0.6885 -0.6363 -0.1985
 3417SOL    HW212452   8.627   6.629   2.208 -0.5707 -0.0372  0.0866
 3418SOL     OW12453   2.417   1.346   1.943  0.0438 -0.2999 -0.5821
 3418SOL    HW112454   2.367   1.265   1.946 -0.1662 -0.1837 -0.8207
 3418SOL    HW212455   2.501   1.325   1.984 -0.0089 -0.6354 -0.6444
 3419SOL     OW12456   4.386   7.986   7.688  0.1895 -0.6545 -0.0132
 3419SOL    HW112457   4.416   7.932   7.761  1.5786  0.4821  0.3163
 3419SOL    HW212458   4.362   8.070   7.728 -0.5668 -0.5331 -0.6785
 3420SOL     OW12459   0.396   2.518   4.163 -0.0779  0.6107  0.4277
 3420SOL    HW112460   0.328   2.452   4.179 -0.1819  0.7420  0.5213
 3420SOL    HW212461   0.399   2.570   4.243 -2.6668  3.1779 -0.9451
 3421SOL     OW12462   0.780   6.493   0.256 -0.0964 -0.5070  0.6388
 3421SOL    HW112463   0.870   6.520   0.277  0.3265 -1.3952  0.0315
 3421SOL    HW212464   0.757   6.542   0.177  0.8820 -2.2188 -0.8025
 3422SOL     OW12465   8.320   2.858   0.685  0.0994 -0.1882 -0.0938
 3422SOL    HW112466   8.282   2.890   0.767 -0.8295 -0.2183 -0.5123
 3422SOL    HW212467   8.358   2.936   0.644 -0.9688  0.1601 -0.4601
 3423SOL     OW12468   1.174   2.345   3.758  0.6948 -0.0900  0.1189
 3423SOL    HW112469   1.142   2.342   3.668  1.3294 -0.7290 -0.0940
 3423SOL    HW212470   1.221   2.428   3.764  2.3653 -0.9007 -0.7664
 3424SOL     OW12471   8.715   0.623   6.826 -0.0411 -0.2999  0.4077
 3424SOL    HW112472   8.700   0.658   6.914 -1.0212 -1.4162  0.7118
 3424SOL    HW212473   8.699   0.529   6.834  3.2484 -1.0252 -0.2119
 3425SOL     OW12474   7.448   5.324   4.885 -0.2700  0.4051 -0.1738
 3425SOL    HW112475   7.463   5.333   4.791  0.5464  2.1231  0.0703
 3425SOL    HW212476   7.370   5.376   4.902 -0.0070  0.6898  0.1875
 3426SOL     OW12477   1.530   3.991   7.109  0.2077 -0.0809  0.2540
 3426SOL    HW112478   1.583   3.915   7.133  1.0518  0.7983  1.2214
 3426SOL    HW212479   1.460   3.993   7.174 -0.0857 -0.2959 -0.0519
 3427SOL     OW12480   3.093   6.157   8.210  0.1751 -0.1032 -0.3008
 3427SOL    HW112481   3.048   6.150   8.125  1.6079  1.4958 -1.2623
 3427SOL    HW212482   3.053   6.233   8.252  1.9788  1.5047 -1.2789
 3428SOL     OW12483   9.341   2.532   3.160 -0.1321 -0.1985 -0.1254
 3428SOL    HW112484   9.252   2.538   3.125 -0.7359 -0.4974  1.2975
 3428SOL    HW212485   9.353   2.439   3.179  1.8733 -0.8402 -3.6756
 3429SOL     OW12486   7.388   7.833   8.519  0.0912  0.3835 -0.8774
 3429SOL    HW112487   7.472   7.854   8.560 -0.3537 -0.7556  0.7179
 3429SOL    HW212488   7.323   7.872   8.577 -0.5440 -0.9687 -0.6352
 3430SOL     OW12489   2.876   4.605   3.220 -0.2677 -0.6163 -0.0462
 3430SOL    HW112490   2.877   4.605   3.124  0.1479 -3.9848 -0.1469
 3430SOL    HW212491   2.953   4.553   3.245 -2.6396 -3.4927  1.9048
 3431SOL     OW12492   7.632   7.726   8.162 -0.1018  0.0126  0.4388
 3431SOL    HW112493   7.710   7.764   8.202 -0.1004  0.1112  0.3454
 3431SOL    HW212494   7.658   7.706   8.072 -0.7287  1.8623 -0.2207
 3432SOL     OW12495   7.496   7.115   3.615 -0.1966  0.0497 -0.3827
 3432SOL    HW112496   7.528   7.205   3.617  0.0346 -0.0193 -0.7818
 3432SOL    HW212497   7.572   7.063   3.588  0.6466 -0.7061  2.9133
 3433SOL     OW12498   9.312   9.046   4.382  0.4145  0.3744  0.6491
 3433SOL    HW112499   9.245   9.112   4.360 -0.0406 -0.4436 -0.5552
 3433SOL    HW212500   9.340   9.012   4.297  0.9885 -0.6473  1.2337
 3434SOL     OW12501   3.259   1.220   8.955 -0.3498 -0.4843  0.4101
 3434SOL    HW112502   3.235   1.128   8.944  1.2378 -0.9230  0.4258
 3434SOL    HW212503   3.332   1.219   9.016  1.9796  0.4151 -2.1325
 3435SOL     OW12504   7.974   1.920   1.459 -0.3562 -0.5483 -0.4244
 3435SOL    HW112505   7.968   1.861   1.383 -1.6775  0.4263 -1.1070
 3435SOL    HW212506   8.002   1.863   1.531 -1.2548 -1.9542 -1.1363
 3436SOL     OW12507   5.518   7.018   1.265 -0.1669  0.5484 -0.0281
 3436SOL    HW112508   5.486   7.035   1.176 -2.4005  0.6937  0.7564
 3436SOL    HW212509   5.612   7.002   1.253 -0.4904 -0.0232 -2.4959
 3437SOL     OW12510   0.825   6.668   2.195 -0.0377  0.2014 -0.5548
 3437SOL    HW112511   0.783   6.584   2.180  3.0715 -1.2549 -1.8324
 3437SOL    HW212512   0.819   6.682   2.290 -2.3053 -0.4099 -0.5531
 3438SOL     OW12513   7.814   4.085   0.006  0.6020 -0.0772 -0.5206
 3438SOL    HW112514   7.900   4.120  -0.017  0.3248  0.4017 -0.8613
 3438SOL    HW212515   7.792   4.128   0.088  0.5649  0.0148 -0.5790
 3439SOL     OW12516   3.634   1.597   0.786  0.5015  0.2362 -0.2016
 3439SOL    HW112517   3.624   1.605   0.880 -0.2336  0.5413 -0.3000
 3439SOL    HW212518   3.553   1.554   0.757 -0.4743  2.4355 -0.9859
 3440SOL     OW12519   5.988   7.301   0.111 -0.0866 -0.3893  0.0148
 3440SOL    HW112520   6.074   7.343   0.120 -0.4889  0.3322  0.5467
 3440SOL    HW212521   5.928   7.359   0.156 -0.9499 -0.6334 -0.8043
 3441SOL     OW12522   3.028   6.791   7.965  0.2023 -0.2195  0.0001
 3441SOL    HW112523   3.069   6.726   8.021 -0.1897  1.3844  2.2917
 3441SOL    HW212524   3.030   6.872   8.016 -2.1537  0.8611 -1.4133
 3442SOL     OW12525   7.132   6.714   5.404  0.1206 -0.2179  0.0325
 3442SOL    HW112526   7.142   6.666   5.487  0.5522  2.3868  1.6005
 3442SOL    HW212527   7.050   6.763   5.415  0.5025  0.6291 -0.8374
 3443SOL     OW12528   8.294   7.306   7.324 -0.3459  0.1853  0.0773
 3443SOL    HW112529   8.224   7.253   7.363  0.1866 -0.0563  0.7226
 3443SOL    HW212530   8.298   7.278   7.233 -1.7596  0.9100 -0.2424
 3444SOL     OW12531   6.859   1.074   1.888  0.2895 -0.0240  0.5200
 3444SOL    HW112532   6.840   0.984   1.917  1.7842 -0.3487  0.5943
 3444SOL    HW212533   6.882   1.065   1.796  0.0574  0.3444  0.4259
 3445SOL     OW12534   4.465   2.252   1.783 -0.1906  0.4239 -0.2808
 3445SOL    HW112535   4.443   2.339   1.747  1.6203  1.3447  0.6954
 3445SOL    HW212536   4.427   2.253   1.871 -0.7457 -0.0428 -0.5159
 3446SOL     OW12537   6.258   0.941   0.816  0.8213  0.1143  0.0402
 3446SOL    HW112538   6.169   0.942   0.782  1.3276  0.0331 -1.3290
 3446SOL    HW212539   6.312   0.909   0.744  1.9327 -0.1061  0.9333
 3447SOL     OW12540   1.349   8.015   2.621  0.2379  0.5037 -0.0050
 3447SOL    HW112541   1.378   8.105   2.639  1.8037  0.0745 -0.2327
 3447SOL    HW212542   1.357   8.006   2.526 -3.5395  1.2723 -0.5269
 3448SOL     OW12543   6.859   2.545   9.558  0.1281  0.0602  0.3291
 3448SOL    HW112544   6.799   2.550   9.483  2.0323 -0.5310 -1.3472
 3448SOL    HW212545   6.858   2.633   9.595 -0.0862  0.6941 -1.0860
 3449SOL     OW12546   2.151   3.322   7.840 -0.1365 -0.5993 -0.1458
 3449SOL    HW112547   2.086   3.386   7.810  0.8507  0.1455 -0.7776
 3449SOL    HW212548   2.111   3.281   7.917 -1.5039 -0.4439 -0.7470
 3450SOL     OW12549   3.720   4.396   6.426  0.2977 -0.1361 -0.0352
 3450SOL    HW112550   3.696   4.360   6.340  2.1301  0.8166 -1.0064
 3450SOL    HW212551   3.723   4.490   6.412 -0.0630  0.0830  1.2890
 3451SOL     OW12552   0.225   8.545   9.053 -0.3424 -0.0595  0.2694
 3451SOL    HW112553   0.208   8.618   9.113 -0.1255  0.4221 -0.2462
 3451SOL    HW212554   0.312   8.514   9.076 -0.8618 -0.8607  1.2038
 3452SOL     OW12555   6.086   5.703   0.225 -0.0998 -0.4922  0.7177
 3452SOL    HW112556   6.145   5.778   0.221  1.2102 -1.3070  2.9032
 3452SOL    HW212557   6.144   5.627   0.216 -1.1477 -1.2739  0.4439
 3453SOL     OW12558   9.168   1.361   2.161  0.5055 -0.3379 -0.3542
 3453SOL    HW112559   9.202   1.449   2.143  2.7141 -1.2687 -0.9976
 3453SOL    HW212560   9.211   1.335   2.242  0.1276 -0.9668 -0.3553
 3454SOL     OW12561   2.981   0.958   2.099  0.2606  0.0901 -0.6954
 3454SOL    HW112562   3.057   1.013   2.083  1.0921 -0.8108  0.0188
 3454SOL    HW212563   2.981   0.895   2.028  0.6195 -0.3707 -0.2890
 3455SOL     OW12564   6.713   2.328   8.750 -0.1275 -0.1174  0.3380
 3455SOL    HW112565   6.633   2.347   8.799 -1.7215 -1.5388 -1.4973
 3455SOL    HW212566   6.759   2.411   8.744 -2.7062  1.3539 -0.5511
 3456SOL     OW12567   0.472   7.326   4.103  0.1751 -0.2148 -0.6521
 3456SOL    HW112568   0.391   7.371   4.081 -0.0828  0.0605  0.7192
 3456SOL    HW212569   0.487   7.348   4.195 -0.2001 -3.2412  0.2495
 3457SOL     OW12570   8.553   6.164   4.781 -0.1886 -0.1432 -0.0859
 3457SOL    HW112571   8.578   6.087   4.729  0.5529 -1.2760  1.8322
 3457SOL    HW212572   8.467   6.189   4.746 -0.7981 -2.3031 -0.3170
 3458SOL     OW12573   7.529   4.723   6.274 -0.1735  0.0906 -0.4854
 3458SOL    HW112574   7.622   4.742   6.260  0.0996  0.0943  1.1905
 3458SOL    HW212575   7.504   4.778   6.349 -0.1776 -3.5685  2.4468
 3459SOL     OW12576   4.934   2.472   3.319  0.1638 -0.1002  0.1801
 3459SOL    HW112577   4.953   2.423   3.399  0.1086 -1.7134 -0.7565
 3459SOL    HW212578   4.924   2.405   3.251  1.4660  1.2853 -1.4630
 3460SOL     OW12579   4.571   5.740   6.944  0.5990  0.0712 -0.0752
 3460SOL    HW112580   4.587   5.740   7.039 -1.0724  0.3603  0.2338
 3460SOL    HW212581   4.656   5.759   6.906  0.9821  1.6544  1.4376
 3461SOL     OW12582   4.019   5.802   7.976 -0.1846  0.0002  0.1642
 3461SOL    HW112583   3.996   5.727   7.921  1.1864  0.4663 -1.0908
 3461SOL    HW212584   4.069   5.764   8.048 -0.1374 -0.3745 -0.0598
 3462SOL     OW12585   3.039   3.029   3.915 -0.4784 -0.2756 -0.0699
 3462SOL    HW112586   3.099   2.957   3.931 -0.1082 -0.3195 -1.5414
 3462SOL    HW212587   2.958   3.003   3.959  0.0626 -0.9521  0.5517
 3463SOL     OW12588   3.082   8.633   4.701  0.1440  0.2062  0.0096
 3463SOL    HW112589   3.021   8.560   4.706  0.6556 -0.1972  0.5261
 3463SOL    HW212590   3.128   8.621   4.618  2.2177 -1.7064  1.3278
 3464SOL     OW12591   2.288   0.213   6.274 -0.0376 -0.2355  0.5864
 3464SOL    HW112592   2.270   0.251   6.188  0.0435  0.2144  0.7624
 3464SOL    HW212593   2.382   0.225   6.287  0.2314 -1.7158  0.0781
 3465SOL     OW12594   8.509   2.490   4.085  0.2047 -0.2634  0.0149
 3465SOL    HW112595   8.583   2.442   4.122 -1.1757 -2.4839  0.1283
 3465SOL    HW212596   8.544   2.576   4.063  2.3869 -0.6669  1.5657
 3466SOL     OW12597   2.038   4.260   3.453  0.6405  0.2196 -0.1526
 3466SOL    HW112598   2.009   4.345   3.486  0.2962  0.4110 -0.9134
 3466SOL    HW212599   1.957   4.214   3.430  0.6516 -1.2725  2.4371
 3467SOL     OW12600   2.322   4.596   3.368 -0.0494 -0.8583  0.4299
 3467SOL    HW112601   2.363   4.551   3.442  2.6689  0.0545 -0.3913
 3467SOL    HW212602   2.383   4.583   3.295 -0.7523  1.4068 -0.6787
 3468SOL     OW12603   8.203   3.879   7.030  0.3530 -0.6437 -0.2230
 3468SOL    HW112604   8.192   3.898   7.123  1.2387  1.0007 -0.4225
 3468SOL    HW212605   8.116   3.853   7.000 -0.2855  0.3444  0.7191
 3469SOL     OW12606   7.306   5.482   8.230  0.0043 -0.1371 -0.1770
 3469SOL    HW112607   7.332   5.390   8.219  1.2151  0.2438 -0.7609
 3469SOL    HW212608   7.247   5.499   8.157 -0.0789 -0.4062 -0.1728
 3470SOL     OW12609   5.405   9.049   3.672 -0.1771 -0.2350 -0.3940
 3470SOL    HW112610   5.351   8.994   3.616 -0.3133 -0.8973  0.3659
 3470SOL    HW212611   5.350   9.125   3.692 -1.8823 -2.0267  2.3907
 3471SOL     OW12612   5.663   3.597   4.139 -0.1036  0.2399  0.4859
 3471SOL    HW112613   5.679   3.678   4.189  0.1470 -0.2087  1.1515
 3471SOL    HW212614   5.609   3.624   4.066  2.8109  1.7069 -1.3371
 3472SOL     OW12615   1.708   6.561   2.488  0.9646  0.7232 -0.2094
 3472SOL    HW112616   1.632   6.517   2.527  1.2103  1.1305  0.7646
 3472SOL    HW212617   1.697   6.549   2.394  0.3430 -0.2883 -0.0231
 3473SOL     OW12618   1.534   3.824   4.723  0.2148  0.2552  0.6952
 3473SOL    HW112619   1.518   3.870   4.640 -0.2483 -0.1339  0.5657
 3473SOL    HW212620   1.596   3.881   4.770  0.6611  0.3730 -0.0074
 3474SOL     OW12621   7.189   7.326   8.947 -0.1105 -0.0528  0.5919
 3474SOL    HW112622   7.143   7.338   8.864 -1.3403 -1.0311  1.0989
 3474SOL    HW212623   7.270   7.281   8.923 -0.7406 -0.8903 -0.0363
 3475SOL     OW12624   8.112   7.808   6.361  0.2276 -0.6506 -0.1095
 3475SOL    HW112625   8.079   7.871   6.297  1.0196 -0.6029 -0.4842
 3475SOL    HW212626   8.127   7.859   6.440 -0.7329 -0.7048  0.1204
 3476SOL     OW12627   4.705   6.367   8.900 -0.3504  0.1885  0.2828
 3476SOL    HW112628   4.761   6.414   8.961 -0.1220  0.2829  0.0059
 3476SOL    HW212629   4.731   6.275   8.909  0.3169  0.3024 -0.3116
 3477SOL     OW12630   7.416   4.339   7.646  0.0660 -0.6284  0.3273
 3477SOL    HW112631   7.382   4.250   7.652  0.1675 -0.6014  4.4347
 3477SOL    HW212632   7.340   4.392   7.623 -0.9992 -1.3984  1.8657
 3478SOL     OW12633   8.981   8.613   2.330  0.1471 -0.3702  0.3847
 3478SOL    HW112634   9.057   8.647   2.283 -1.3595  1.5335 -0.8479
 3478SOL    HW212635   8.936   8.691   2.363  0.0921 -1.5414  3.4499
 3479SOL     OW12636   2.674   7.345   5.771 -0.1300  0.5896  0.6051
 3479SOL    HW112637   2.715   7.348   5.685  1.7365 -2.6470  1.2072
 3479SOL    HW212638   2.730   7.397   5.827  0.9406 -0.5084  0.5948
 3480SOL     OW12639   5.774   7.974   4.045  0.1272  0.0211 -0.1985
 3480SOL    HW112640   5.865   7.970   4.073 -0.2577  2.4072  1.8001
 3480SOL    HW212641   5.725   7.930   4.115 -0.4112  0.8406 -0.0422
 3481SOL     OW12642   6.105   4.066   4.987  0.2174  0.4215  0.0816
 3481SOL    HW112643   6.068   4.130   5.047 -1.3118 -1.5221  1.3427
 3481SOL    HW212644   6.102   3.983   5.035  1.1933 -0.8091 -1.8263
 3482SOL     OW12645   4.006   6.126   8.075 -0.1561 -0.5848 -0.1034
 3482SOL    HW112646   3.923   6.143   8.030  0.1468 -0.8293 -0.7744
 3482SOL    HW212647   4.037   6.044   8.036  0.8915  0.0282 -0.6058
 3483SOL     OW12648   1.350   0.396   8.482 -0.0495 -0.0742  0.7862
 3483SOL    HW112649   1.329   0.475   8.531 -0.3274 -0.7085  1.7077
 3483SOL    HW212650   1.381   0.428   8.397 -2.5714  0.9735  0.1728
 3484SOL     OW12651   4.410   3.824   8.885  0.3872 -0.3509  0.6700
 3484SOL    HW112652   4.363   3.902   8.916 -0.9946  0.0681 -2.1604
 3484SOL    HW212653   4.489   3.859   8.842  1.2390 -0.7686  1.8440
 3485SOL     OW12654   0.037   6.183   3.128  0.0320 -0.3734 -0.0201
 3485SOL    HW112655   0.049   6.278   3.133 -0.3062 -0.2029 -1.8386
 3485SOL    HW212656   0.119   6.147   3.162  0.6722  0.5955 -0.4796
 3486SOL     OW12657   3.819   8.546   3.854 -0.6518  0.1490 -0.0430
 3486SOL    HW112658   3.830   8.613   3.787 -1.1897  0.1403 -0.1483
 3486SOL    HW212659   3.739   8.571   3.900 -0.1123  0.3299  0.8126
 3487SOL     OW12660   0.158   2.020   7.236  0.0358  0.5199  0.4943
 3487SOL    HW112661   0.248   1.991   7.250  0.6839  1.9356 -0.4403
 3487SOL    HW212662   0.142   2.006   7.143  0.0893  2.2720  0.1869
 3488SOL     OW12663   8.589   2.737   2.789  0.3785  0.0314  0.2042
 3488SOL    HW112664   8.563   2.796   2.860  0.1668 -0.8943  0.9136
 3488SOL    HW212665   8.547   2.773   2.711 -0.4298  0.3555  0.7723
 3489SOL     OW12666   1.694   8.340   9.102  0.5991 -0.7512  0.2793
 3489SOL    HW112667   1.786   8.368   9.096 -0.1338  1.6831 -0.7529
 3489SOL    HW212668   1.655   8.400   9.166 -0.2639 -1.8379  0.7927
 3490SOL     OW12669   5.078   6.959   8.914  0.3978  0.3341  0.1036
 3490SOL    HW112670   5.046   6.987   8.999 -1.9010 -0.7518 -0.3133
 3490SOL    HW212671   5.159   6.913   8.932 -0.2506 -0.2176  1.7711
 3491SOL     OW12672   7.004   0.621   8.676 -0.6104 -0.2767 -0.3811
 3491SOL    HW112673   7.064   0.607   8.603  1.3761 -0.6522  1.2130
 3491SOL    HW212674   6.993   0.716   8.680  0.2266 -0.1661 -0.4779
 3492SOL     OW12675   8.726   1.632   5.813 -0.1955  0.0604  0.1460
 3492SOL    HW112676   8.732   1.660   5.721 -0.6152  0.8311  0.3462
 3492SOL    HW212677   8.664   1.558   5.811  0.9994 -0.9743 -0.3998
 3493SOL     OW12678   8.053   9.413   6.490 -0.5016 -0.2734  0.1696
 3493SOL    HW112679   8.015   9.492   6.527  0.8556  0.4246  0.1505
 3493SOL    HW212680   8.039   9.420   6.396 -1.4542 -0.6595  0.2784
 3494SOL     OW12681   6.341   7.759   7.878  0.1584 -0.3113  0.5498
 3494SOL    HW112682   6.412   7.803   7.925 -0.5563 -1.0080  2.3570
 3494SOL    HW212683   6.288   7.831   7.843  2.4325  0.2614 -2.0812
 3495SOL     OW12684   3.452   3.863   4.448  0.7371 -0.1115  0.2418
 3495SOL    HW112685   3.441   3.949   4.489 -1.4635 -0.3918  0.3681
 3495SOL    HW212686   3.511   3.878   4.375 -0.7554  1.8456 -0.6358
 3496SOL     OW12687   6.366   1.754   4.921  0.3469  0.2233  1.0297
 3496SOL    HW112688   6.307   1.681   4.940 -0.4116  1.2632  2.8877
 3496SOL    HW212689   6.448   1.712   4.896  0.2142 -1.3025  2.9372
 3497SOL     OW12690   1.683   7.254   5.544  0.1514 -0.1517  0.1556
 3497SOL    HW112691   1.588   7.265   5.538 -0.0342 -1.9328 -1.0677
 3497SOL    HW212692   1.712   7.245   5.453  1.3113 -0.7991  0.5719
 3498SOL     OW12693   4.081   0.757   0.255  0.0667 -0.4429  0.4060
 3498SOL    HW112694   4.129   0.756   0.172 -0.2589  0.5325  0.1924
 3498SOL    HW212695   4.081   0.666   0.283  2.1192 -0.4818  0.4703
 3499SOL     OW12696   3.712   0.376   7.448  0.0284  0.1363 -0.3339
 3499SOL    HW112697   3.764   0.317   7.503 -1.4776  0.5818  1.7225
 3499SOL    HW212698   3.631   0.328   7.430 -0.7323  1.0750  0.4035
 3500SOL     OW12699   4.814   9.485   6.532 -0.3230 -0.4650  0.1834
 3500SOL    HW112700   4.763   9.407   6.511  0.8252 -1.0764 -0.3966
 3500SOL    HW212701   4.857   9.510   6.450  1.6043 -0.9524  0.9871
 3501SOL     OW12702   3.712   5.911   2.520  0.3765 -0.0839  0.1868
 3501SOL    HW112703   3.688   5.851   2.591 -0.0009  0.5087  0.5777
 3501SOL    HW212704   3.726   5.855   2.444  1.0256 -0.7566  0.7881
 3502SOL     OW12705   8.708   7.156   8.621  0.1638 -0.6490  0.0617
 3502SOL    HW112706   8.763   7.130   8.694  0.7239 -0.7019 -0.3753
 3502SOL    HW212707   8.650   7.224   8.657  0.7084 -0.3852  0.4487
 3503SOL     OW12708   0.184   6.606   4.661  0.1390  0.3387 -0.3646
 3503SOL    HW112709   0.240   6.578   4.734 -0.1983  1.5570  0.3881
 3503SOL    HW212710   0.129   6.530   4.642  0.0447  0.0861  0.8429
 3504SOL     OW12711   6.851   8.054   9.386  0.1534 -0.1983  0.1446
 3504SOL    HW112712   6.877   8.039   9.477  0.1958 -1.3962 -0.0555
 3504SOL    HW212713   6.841   7.967   9.348 -0.0687  0.2774 -0.9505
 3505SOL     OW12714   9.498   8.615   7.525 -0.2171  0.0285  0.4425
 3505SOL    HW112715   9.584   8.629   7.564  1.2466 -0.7889 -2.2963
 3505SOL    HW212716   9.458   8.702   7.522  1.0527  0.6278  0.5225
 3506SOL     OW12717   3.448   1.149   1.963  0.5111  0.1326  0.2815
 3506SOL    HW112718   3.509   1.160   1.890  0.8647 -1.0978  0.3596
 3506SOL    HW212719   3.474   1.065   2.003 -0.7552 -0.0460  0.7727
 3507SOL     OW12720   8.675   5.019   1.329 -0.5745  0.2944  0.0268
 3507SOL    HW112721   8.660   4.948   1.267  1.9488  0.0761 -0.4400
 3507SOL    HW212722   8.650   4.983   1.414  0.5905 -1.1589 -0.2137
 3508SOL     OW12723   5.177   3.475   6.770  0.5490  0.3928  0.0888
 3508SOL    HW112724   5.128   3.415   6.826  0.0482  0.9370  0.2476
 3508SOL    HW212725   5.265   3.476   6.808  0.2993  0.5174  0.6812
 3509SOL     OW12726   5.490   5.299   1.300 -0.1427  0.1238  0.6783
 3509SOL    HW112727   5.473   5.213   1.262 -0.3707  0.1599  0.6970
 3509SOL    HW212728   5.494   5.358   1.225 -0.8691  0.2412  0.7222
 3510SOL     OW12729   3.231   8.929   7.752  0.3137 -0.8340  0.6519
 3510SOL    HW112730   3.144   8.964   7.774 -0.3781 -2.1387  0.1292
 3510SOL    HW212731   3.273   8.914   7.837 -0.3657 -1.1185  0.9500
 3511SOL     OW12732   1.129   0.460   6.028 -0.3202 -0.3546  0.1957
 3511SOL    HW112733   1.180   0.541   6.020  0.5701 -0.9743 -0.7309
 3511SOL    HW212734   1.156   0.423   6.112  0.2209 -0.3033  0.0502
 3512SOL     OW12735   0.576   0.628   2.412 -0.1202 -0.0835  0.2145
 3512SOL    HW112736   0.577   0.703   2.471  1.0172 -0.5766  0.8531
 3512SOL    HW212737   0.529   0.660   2.334  0.1857  1.2322  0.5382
 3513SOL     OW12738   4.350   8.875   3.535 -0.8103 -0.0500 -0.1126
 3513SOL    HW112739   4.334   8.912   3.448  0.3402  1.1572  0.1510
 3513SOL    HW212740   4.387   8.947   3.585  0.0473 -1.1608  0.9098
 3514SOL     OW12741   2.379   8.268   4.912 -0.1531 -0.0903 -0.5131
 3514SOL    HW112742   2.448   8.333   4.922  1.4643 -1.6986 -0.7701
 3514SOL    HW212743   2.398   8.201   4.978 -0.4637 -1.3736 -1.6645
 3515SOL     OW12744   2.315   2.137   5.768 -0.2199  0.0202  0.1368
 3515SOL    HW112745   2.334   2.047   5.796  0.8806  0.0048 -0.5932
 3515SOL    HW212746   2.373   2.191   5.821 -0.3605  0.2409  0.0644
 3516SOL     OW12747   3.847   2.721   8.047  0.6867  0.1470 -0.4730
 3516SOL    HW112748   3.831   2.627   8.041  1.1729  0.1166 -1.6145
 3516SOL    HW212749   3.837   2.752   7.957  1.0602  1.0972 -0.1939
 3517SOL     OW12750   7.497   1.204   1.300  0.1082 -0.0786 -0.0121
 3517SOL    HW112751   7.458   1.283   1.263 -0.9726  0.3758  1.9047
 3517SOL    HW212752   7.590   1.223   1.304 -0.1838  1.3595  0.8689
 3518SOL     OW12753   5.156   2.053   0.575 -0.2485  0.5902  0.0959
 3518SOL    HW112754   5.082   2.114   0.576 -0.9297 -0.1892 -0.4453
 3518SOL    HW212755   5.188   2.052   0.665 -1.4585  0.2987  0.5453
 3519SOL     OW12756   4.276   3.140   9.404  0.2460  0.1104  0.5195
 3519SOL    HW112757   4.323   3.073   9.355 -0.1677 -0.9257  1.5041
 3519SOL    HW212758   4.185   3.131   9.377  0.4345  1.4981 -0.6867
 3520SOL     OW12759   3.986   6.313   4.508 -0.4281  0.3771 -0.0572
 3520SOL    HW112760   3.960   6.221   4.505 -0.7523  0.4622  0.0742
 3520SOL    HW212761   3.982   6.336   4.601 -1.8365  0.9315 -0.2274
 3521SOL     OW12762   6.707   7.702   9.163  0.1871 -0.0358 -0.0845
 3521SOL    HW112763   6.650   7.638   9.120 -1.2835  0.7459  0.6256
 3521SOL    HW212764   6.702   7.680   9.256 -2.6919  2.7459  0.5912
 3522SOL     OW12765   3.984   8.947   4.940 -0.1461 -0.8952  0.3315
 3522SOL    HW112766   4.062   8.984   4.900 -0.1894 -1.3865 -0.2119
 3522SOL    HW212767   4.011   8.860   4.971 -0.6361 -1.3216 -0.4183
 3523SOL     OW12768   2.750   8.944   8.133  0.0747 -0.1303 -0.1812
 3523SOL    HW112769   2.784   8.859   8.108  0.8700  0.4501 -1.1156
 3523SOL    HW212770   2.820   8.983   8.186 -0.1849  0.0558  0.0301
 3524SOL     OW12771   3.016   1.428   2.401 -0.2834  0.0634  0.2772
 3524SOL    HW112772   3.062   1.347   2.381  0.3079  0.4832 -0.0983
 3524SOL    HW212773   3.007   1.473   2.317 -1.1806  0.0961  0.3791
 3525SOL     OW12774   6.473   2.289   7.629  0.0472 -0.4656  0.2387
 3525SOL    HW112775   6.437   2.324   7.547  0.1359 -0.1168  0.3455
 3525SOL    HW212776   6.549   2.237   7.601 -0.2448 -0.7942  0.0557
 3526SOL     OW12777   2.624   1.703   2.472 -0.1151  0.0031 -0.1064
 3526SOL    HW112778   2.700   1.751   2.504  0.1545 -0.0544 -0.6382
 3526SOL    HW212779   2.573   1.768   2.424  1.0928 -0.5340 -2.2740
 3527SOL     OW12780   3.755   6.768   3.848  0.7031 -0.1199 -0.9198
 3527SOL    HW112781   3.689   6.776   3.917  1.1686 -0.6160 -0.4172
 3527SOL    HW212782   3.766   6.857   3.815  1.0504  0.2484  0.1735
 3528SOL     OW12783   4.727   6.719   2.076  0.0302 -0.4236 -0.7640
 3528SOL    HW112784   4.634   6.700   2.067  0.1372 -1.9970  0.9245
 3528SOL    HW212785   4.730   6.799   2.128 -0.4045 -0.8804 -0.0104
 3529SOL     OW12786   4.477   6.483   5.396  0.2247 -0.3650  0.2285
 3529SOL    HW112787   4.443   6.534   5.470  1.2580 -0.9479  1.1493
 3529SOL    HW212788   4.467   6.539   5.320  0.5179  0.8531  1.0668
 3530SOL     OW12789   9.218   3.177   0.983 -0.0006 -0.1129  0.2166
 3530SOL    HW112790   9.137   3.228   0.976  0.0010 -0.2106 -0.5641
 3530SOL    HW212791   9.265   3.196   0.902  0.4903 -0.5206  0.4031
 3531SOL     OW12792   6.949   0.750   0.804  0.3296  0.0557 -0.0062
 3531SOL    HW112793   6.978   0.711   0.722 -0.3803  1.0053 -0.7380
 3531SOL    HW212794   6.862   0.785   0.784  0.1639  0.3299  1.1460
 3532SOL     OW12795   1.979   4.731   8.979 -0.0921  0.4934 -0.3122
 3532SOL    HW112796   2.055   4.674   8.978  1.2669  2.2334 -0.6011
 3532SOL    HW212797   1.979   4.773   8.893 -1.4095  0.5234 -0.3256
 3533SOL     OW12798   5.680   8.098   8.854 -0.2038 -0.2620 -0.1417
 3533SOL    HW112799   5.697   8.055   8.770 -0.5367  0.1331 -0.4129
 3533SOL    HW212800   5.591   8.132   8.846 -0.0096  0.3193  0.1372
 3534SOL     OW12801   4.155   0.535   5.567 -0.6900  0.7126  0.0051
 3534SOL    HW112802   4.226   0.597   5.551 -2.3504  2.5865 -0.3702
 3534SOL    HW212803   4.199   0.450   5.572  1.4478  1.6549 -1.3363
 3535SOL     OW12804   2.098   4.323   4.996 -0.3194  0.3632  0.5191
 3535SOL    HW112805   2.165   4.259   4.969  0.2107  0.8995  0.5458
 3535SOL    HW212806   2.030   4.270   5.037  0.6419 -0.0808  1.5991
 3536SOL     OW12807   7.115   5.428   7.724  0.1784  0.0073  0.5232
 3536SOL    HW112808   7.099   5.335   7.705  0.1450 -0.0202  0.6859
 3536SOL    HW212809   7.209   5.432   7.743  0.0926 -0.0677  0.9579
 3537SOL     OW12810   6.498   1.275   0.179  0.2027  1.2046 -0.1001
 3537SOL    HW112811   6.562   1.205   0.194 -1.2017 -0.2562 -0.6767
 3537SOL    HW212812   6.517   1.340   0.247  0.8302 -0.2471  1.1718
 3538SOL     OW12813   9.228   2.959   9.213  0.5982 -0.5515  0.1973
 3538SOL    HW112814   9.225   2.943   9.308  1.8336  1.6138  0.6838
 3538SOL    HW212815   9.143   2.997   9.192  0.6807 -0.0923  0.6679
 3539SOL     OW12816   7.504   5.938   5.584  0.0284  0.6039 -0.2554
 3539SOL    HW112817   7.440   5.964   5.518 -0.1097  0.5585 -0.1394
 3539SOL    HW212818   7.453   5.926   5.664 -0.0561 -0.8599 -0.4967
 3540SOL     OW12819   4.855   5.342   9.365  0.1873  0.4417  0.0452
 3540SOL    HW112820   4.778   5.324   9.312  0.4295 -0.0181 -0.1589
 3540SOL    HW212821   4.845   5.288   9.443  0.3001  0.3873  0.0221
 3541SOL     OW12822   4.782   2.182   8.674  0.4501  0.3141  0.1267
 3541SOL    HW112823   4.732   2.108   8.640  1.3299 -0.3383  0.1923
 3541SOL    HW212824   4.869   2.145   8.692  1.8399  1.9188 -2.4939
 3542SOL     OW12825   0.038   6.585   6.471  0.0707 -0.2984 -0.1448
 3542SOL    HW112826  -0.050   6.575   6.436 -0.1367  0.5924  0.1050
 3542SOL    HW212827   0.059   6.500   6.509 -0.4317 -0.7036 -0.7634
 3543SOL     OW12828   6.265   8.390   9.211 -0.2108 -0.6857  0.4796
 3543SOL    HW112829   6.299   8.311   9.169 -1.6698 -1.3223  0.4308
 3543SOL    HW212830   6.194   8.359   9.266 -0.3771  0.5262  0.9868
 3544SOL     OW12831   6.274   0.140   7.410 -0.6823  0.0680  0.1227
 3544SOL    HW112832   6.216   0.169   7.480 -1.9917  0.5519 -1.1054
 3544SOL    HW212833   6.286   0.218   7.355  0.8324 -0.1305  0.1322
 3545SOL     OW12834   8.508   6.645   4.475  0.5237 -0.2450  0.4414
 3545SOL    HW112835   8.598   6.628   4.505  0.8485  1.1114  0.2645
 3545SOL    HW212836   8.515   6.723   4.421 -0.6857 -0.4736 -0.0679
 3546SOL     OW12837   8.959   9.101   7.292  0.6704  0.3843  0.2261
 3546SOL    HW112838   8.890   9.153   7.252  0.6474 -0.3188 -0.7027
 3546SOL    HW212839   8.929   9.085   7.382 -1.4878 -1.7172 -0.7353
 3547SOL     OW12840   2.658   3.034   8.177  0.2711  0.3319  0.0362
 3547SOL    HW112841   2.572   3.073   8.189 -0.2140 -0.7050 -0.0057
 3547SOL    HW212842   2.660   3.006   8.085 -0.3442 -1.9014  0.6276
 3548SOL     OW12843   5.515   9.025   6.136 -0.3615 -0.0159  0.1989
 3548SOL    HW112844   5.507   9.029   6.231 -1.8889 -1.1009  0.1508
 3548SOL    HW212845   5.567   8.947   6.119 -2.7233 -1.6969  0.1269
 3549SOL     OW12846   2.794   1.590   6.907 -0.1272 -0.0584 -0.4275
 3549SOL    HW112847   2.882   1.609   6.938 -0.7262  0.1372  1.2143
 3549SOL    HW212848   2.808   1.543   6.825  1.5452 -1.5619  0.6444
 3550SOL     OW12849   1.671   5.521   4.721  0.5145 -0.2188  0.1421
 3550SOL    HW112850   1.741   5.574   4.682  0.6929 -0.6132 -0.0699
 3550SOL    HW212851   1.659   5.559   4.808 -0.5780  1.3378 -0.6305
 3551SOL     OW12852   1.967   8.598   1.890  0.0893 -0.3312 -0.3792
 3551SOL    HW112853   2.049   8.643   1.870 -0.2655 -0.2037 -1.6389
 3551SOL    HW212854   1.977   8.567   1.979  0.4432  2.0285  0.4584
 3552SOL     OW12855   1.328   8.080   3.990  0.2036  0.6026 -0.0092
 3552SOL    HW112856   1.292   8.021   3.924 -1.2364  0.2751  1.0359
 3552SOL    HW212857   1.387   8.026   4.041  1.1157  0.7933 -0.8238
 3553SOL     OW12858   5.370   9.235   2.081 -0.7204 -0.0442  0.0423
 3553SOL    HW112859   5.290   9.284   2.100 -0.6934 -0.5198  1.5274
 3553SOL    HW212860   5.354   9.147   2.116  0.2917 -0.2766 -0.0322
 3554SOL     OW12861   3.655   4.534   0.513 -0.2055 -0.5103  0.5537
 3554SOL    HW112862   3.628   4.583   0.435  0.4631  1.8608  1.7184
 3554SOL    HW212863   3.744   4.505   0.494  0.2949  0.8429  0.7379
 3555SOL     OW12864   4.015   8.529   6.356 -0.4885  0.0359  0.0933
 3555SOL    HW112865   3.935   8.481   6.376 -0.7705  1.2605  2.1204
 3555SOL    HW212866   3.985   8.614   6.324  0.0301 -0.3237 -1.4692
 3556SOL     OW12867   7.880   0.914   8.479 -0.0579  0.0869 -0.5767
 3556SOL    HW112868   7.919   0.886   8.562  5.3275 -0.0338 -2.7186
 3556SOL    HW212869   7.909   0.848   8.416  1.3989  3.1822 -3.4730
 3557SOL     OW12870   7.963   1.470   5.821  0.0400 -0.1373  0.1373
 3557SOL    HW112871   8.008   1.541   5.868 -0.4189 -0.2262  0.7238
 3557SOL    HW212872   7.987   1.483   5.730  2.0330 -0.7148  0.5161
 3558SOL     OW12873   4.375   8.011   7.381  0.5731 -0.0893 -0.0137
 3558SOL    HW112874   4.436   8.084   7.376 -1.2573  1.5795  0.6952
 3558SOL    HW212875   4.362   7.997   7.475 -1.1024  0.5142 -0.1125
 3559SOL     OW12876   6.866   8.406   4.290 -0.3520 -0.4813  0.4942
 3559SOL    HW112877   6.897   8.489   4.327  1.2806 -0.8586  0.0872
 3559SOL    HW212878   6.843   8.427   4.200  0.8891 -0.5930  0.1222
 3560SOL     OW12879   0.231   3.607   6.199  0.2495 -0.1932 -0.3518
 3560SOL    HW112880   0.228   3.701   6.218  0.1696 -0.2695  0.0254
 3560SOL    HW212881   0.312   3.577   6.241  0.1528 -0.3359 -0.2661
 3561SOL     OW12882   5.110   2.147   7.913  0.7436 -0.2178 -0.3803
 3561SOL    HW112883   5.124   2.190   7.829 -0.9872 -0.5616 -0.8861
 3561SOL    HW212884   5.066   2.212   7.967  0.6667 -0.4379 -0.1768
 3562SOL     OW12885   2.292   3.982   3.049  0.1469  0.2500  0.2754
 3562SOL    HW112886   2.378   4.018   3.068  0.5075 -0.1377 -0.5905
 3562SOL    HW212887   2.300   3.889   3.069  0.2139  0.0381 -0.6920
 3563SOL     OW12888   1.307   0.217   5.165 -0.4916 -0.1009 -0.1267
 3563SOL    HW112889   1.288   0.135   5.211 -0.4319 -0.2775 -0.4131
 3563SOL    HW212890   1.274   0.202   5.076 -0.2076  0.0763 -0.2616
 3564SOL     OW12891   2.074   2.889   6.334  0.7084  0.3969 -0.0549
 3564SOL    HW112892   2.081   2.905   6.428  1.3306  0.9314 -0.1832
 3564SOL    HW212893   2.001   2.945   6.306 -0.1519 -0.5306  0.2659
 3565SOL     OW12894   0.370   9.054   0.129  0.0904  0.0066  0.2539
 3565SOL    HW112895   0.315   8.980   0.101 -0.7087  0.9988 -0.8781
 3565SOL    HW212896   0.314   9.104   0.188 -0.3119  1.0651 -0.9640
 3566SOL     OW12897   3.472   0.125   0.791  0.1556 -0.2015  0.4390
 3566SOL    HW112898   3.387   0.150   0.757  1.3527  0.4816 -2.3490
 3566SOL    HW212899   3.497   0.049   0.738  1.9924  0.7024 -0.0686
 3567SOL     OW12900   3.544   4.294   0.603 -0.3093  0.5089  0.3748
 3567SOL    HW112901   3.576   4.355   0.536  1.7513  0.2781  1.0706
 3567SOL    HW212902   3.614   4.291   0.668 -1.7852 -0.1218  2.0087
 3568SOL     OW12903   6.911   8.969   4.637 -0.1796 -0.0243  0.2191
 3568SOL    HW112904   6.828   8.997   4.598 -0.1752 -1.7359 -1.1816
 3568SOL    HW212905   6.969   9.045   4.627 -0.8087  0.3116 -1.2885
 3569SOL     OW12906   3.456   9.281   9.506  0.2874  0.0043 -0.4265
 3569SOL    HW112907   3.368   9.279   9.469  0.2085 -0.6170 -0.2309
 3569SOL    HW212908   3.462   9.199   9.555  0.8126  0.2564 -0.0625
 3570SOL     OW12909   6.922   6.458   4.601 -0.1215 -0.4085  0.2913
 3570SOL    HW112910   6.861   6.447   4.528  1.7326 -1.3815 -1.1882
 3570SOL    HW212911   6.989   6.392   4.587  0.8793  0.0944  2.3001
 3571SOL     OW12912   1.268   1.492   0.150 -0.0755  0.4178 -0.0929
 3571SOL    HW112913   1.341   1.445   0.190  0.0164  0.4860 -0.1811
 3571SOL    HW212914   1.217   1.525   0.224  0.0916  0.5403 -0.0328
 3572SOL     OW12915   3.793   5.532   0.424 -0.1979  0.8638 -0.4222
 3572SOL    HW112916   3.756   5.572   0.502  0.4522  0.4487  0.1137
 3572SOL    HW212917   3.887   5.552   0.429  0.0982 -0.4504 -0.2847
 3573SOL     OW12918   8.826   4.524   4.741  0.8179 -0.9125 -0.4598
 3573SOL    HW112919   8.811   4.517   4.647 -2.0795  2.2758 -0.4454
 3573SOL    HW212920   8.742   4.501   4.780  1.1649  0.3175  1.1276
 3574SOL     OW12921   3.539   8.984   8.428 -0.5675  1.1113 -0.3348
 3574SOL    HW112922   3.520   9.078   8.429 -1.2097  1.0069  1.3926
 3574SOL    HW212923   3.485   8.949   8.498 -1.6217 -0.8312 -2.0368
 3575SOL     OW12924   0.437   8.586   0.879 -0.0204 -0.3458 -0.0089
 3575SOL    HW112925   0.399   8.637   0.950 -1.8640  0.0464 -1.1837
 3575SOL    HW212926   0.530   8.605   0.882 -0.1513  0.1815  1.8566
 3576SOL     OW12927   0.570   1.055   8.412  0.2826 -0.1570  0.2082
 3576SOL    HW112928   0.505   1.046   8.482 -0.0470 -0.2880 -0.1084
 3576SOL    HW212929   0.653   1.035   8.453  0.1525  0.2646  0.6854
 3577SOL     OW12930   3.159   9.572   3.339  0.1515 -0.2192  0.1684
 3577SOL    HW112931   3.164   9.648   3.282  0.2884  1.0372  1.7865
 3577SOL    HW212932   3.069   9.572   3.372  0.2684 -0.5168  0.5021
 3578SOL     OW12933   1.694   8.249   2.030  0.3479  0.3443 -0.1031
 3578SOL    HW112934   1.748   8.322   2.060 -2.6275  2.1930  1.3219
 3578SOL    HW212935   1.722   8.175   2.084  0.8575  1.4711  1.2443
 3579SOL     OW12936   6.162   9.315   6.338 -0.3546 -0.5045 -0.1121
 3579SOL    HW112937   6.113   9.243   6.298  0.8701 -1.2747 -0.2879
 3579SOL    HW212938   6.150   9.388   6.278  1.0673 -1.5084 -1.7091
 3580SOL     OW12939   4.420   1.689   8.038  1.1141  0.0973 -0.1908
 3580SOL    HW112940   4.394   1.654   7.953 -0.0993 -0.2737  0.3172
 3580SOL    HW212941   4.485   1.626   8.070  0.6495 -0.4473 -0.2956
 3581SOL     OW12942   5.827   6.257   4.848  0.9781  0.0809  0.2709
 3581SOL    HW112943   5.891   6.235   4.915  0.9774  2.1385  1.0077
 3581SOL    HW212944   5.877   6.301   4.780  0.5018  0.8552  0.4118
 3582SOL     OW12945   7.211   2.459   6.343  0.2669 -0.1167  0.4700
 3582SOL    HW112946   7.140   2.437   6.283  0.1986  0.1068  0.4669
 3582SOL    HW212947   7.190   2.411   6.423 -1.2913  1.9059  1.3842
 3583SOL     OW12948   5.928   3.208   1.529  0.1689  0.2585  0.4073
 3583SOL    HW112949   5.845   3.183   1.489  0.6020 -0.7732  0.1354
 3583SOL    HW212950   5.992   3.146   1.494  0.8985  0.4959  1.2736
 3584SOL     OW12951   3.641   0.143   3.138 -0.5152 -0.0525 -0.4420
 3584SOL    HW112952   3.650   0.238   3.133  3.1717 -0.1812  0.8625
 3584SOL    HW212953   3.633   0.124   3.231 -1.8383 -1.0775 -0.7207
 3585SOL     OW12954   9.506   4.453   2.132  0.1685  0.3378 -0.2031
 3585SOL    HW112955   9.588   4.455   2.182 -0.9751  2.1727  1.7477
 3585SOL    HW212956   9.452   4.387   2.175 -0.7069  1.7144  0.9082
 3586SOL     OW12957   2.574   5.205   3.415 -0.2713  0.2190 -0.1954
 3586SOL    HW112958   2.509   5.200   3.486 -1.0786  1.7195 -0.7745
 3586SOL    HW212959   2.620   5.288   3.432  0.7575 -0.2890 -0.4305
 3587SOL     OW12960   5.576   2.978   7.387  0.3095  0.2834 -0.1190
 3587SOL    HW112961   5.531   3.007   7.466 -0.2572 -0.4737 -0.1503
 3587SOL    HW212962   5.576   3.054   7.329  0.8379  0.8742  0.6574
 3588SOL     OW12963   8.340   8.593   4.673 -0.3842 -0.2887 -0.2737
 3588SOL    HW112964   8.347   8.500   4.695  0.0782 -0.5848 -1.5699
 3588SOL    HW212965   8.278   8.596   4.600 -3.2527  0.8462  2.0204
 3589SOL     OW12966   5.648   7.860   1.473  0.2013 -0.1537 -0.0207
 3589SOL    HW112967   5.564   7.829   1.506  1.2504  0.2414  3.3587
 3589SOL    HW212968   5.635   7.953   1.456 -0.3199 -0.3321 -0.6308
 3590SOL     OW12969   2.322   5.192   7.111  0.6658  0.8148  0.1333
 3590SOL    HW112970   2.344   5.281   7.139  0.9179  0.5135  0.9282
 3590SOL    HW212971   2.397   5.139   7.138 -0.6578 -0.1108  2.2658
 3591SOL     OW12972   0.476   7.328   8.878 -0.5915  0.1199 -0.1838
 3591SOL    HW112973   0.475   7.348   8.784 -0.8350  0.3747 -0.1301
 3591SOL    HW212974   0.411   7.388   8.915 -0.8283 -0.2993  0.0820
 3592SOL     OW12975   7.962   8.839   3.844 -0.4287 -0.5711 -0.2035
 3592SOL    HW112976   7.920   8.907   3.898 -1.3805 -2.4633  1.5763
 3592SOL    HW212977   8.054   8.864   3.841 -1.0863  2.1711 -1.8354
 3593SOL     OW12978   5.861   8.341   8.637  0.3922 -0.2982 -0.6451
 3593SOL    HW112979   5.902   8.268   8.683  0.9398 -0.8935 -2.0215
 3593SOL    HW212980   5.800   8.378   8.701  0.2384 -1.8322  0.1513
 3594SOL     OW12981   3.968   1.782   0.935  0.1036  0.6241 -0.1912
 3594SOL    HW112982   4.033   1.828   0.882  0.8732 -0.2786 -0.0581
 3594SOL    HW212983   3.884   1.822   0.911  0.6389  1.4042 -0.7999
 3595SOL     OW12984   7.259   7.946   6.747  0.1593  0.1996  0.0856
 3595SOL    HW112985   7.284   7.871   6.692 -1.1426 -0.4077  0.2766
 3595SOL    HW212986   7.169   7.927   6.773 -0.0418  1.6281  0.5106
 3596SOL     OW12987   0.387   0.848   0.115  0.0248 -0.0344  0.3021
 3596SOL    HW112988   0.445   0.781   0.150 -0.1270 -1.6752 -2.3221
 3596SOL    HW212989   0.442   0.899   0.056 -0.5553  0.1680 -0.0771
 3597SOL     OW12990   4.296   1.640   6.927  0.1758  0.2099  0.3601
 3597SOL    HW112991   4.388   1.620   6.910  0.0940 -0.5514  0.7621
 3597SOL    HW212992   4.269   1.696   6.854  0.9675  0.4821  0.2690
 3598SOL     OW12993   7.027   7.965   2.539 -0.0650  0.4287  0.1688
 3598SOL    HW112994   7.025   7.958   2.444 -0.3651  1.0549  0.1251
 3598SOL    HW212995   7.018   7.875   2.570 -1.1152  0.3294 -0.3819
 3599SOL     OW12996   4.965   5.273   0.222  0.3292  0.1722 -0.3209
 3599SOL    HW112997   5.029   5.205   0.202 -0.9669 -0.5611 -2.3293
 3599SOL    HW212998   5.016   5.344   0.260  1.9559 -1.2879  0.3782
 3600SOL     OW12999   4.029   8.078   1.024  0.3788  0.4745  0.6518
 3600SOL    HW113000   4.065   8.006   0.971  1.5840  1.6447 -0.1838
 3600SOL    HW213001   4.103   8.108   1.077 -0.9596 -1.1687  3.7267
 3601SOL     OW13002   2.126   7.458   0.807 -0.3319  0.2829  0.1718
 3601SOL    HW113003   2.084   7.461   0.722  0.3165  0.8535 -0.1345
 3601SOL    HW213004   2.054   7.460   0.870 -0.7841  0.6461 -0.3527
 3602SOL     OW13005   2.461   6.094   3.287 -0.0490  0.2999  0.5653
 3602SOL    HW113006   2.512   6.143   3.223 -0.9870  0.5733  0.0036
 3602SOL    HW213007   2.439   6.159   3.355 -0.1519  0.3348  0.5000
 3603SOL     OW13008   3.723   7.809   9.159 -0.0882  0.1466  0.1387
 3603SOL    HW113009   3.807   7.856   9.162 -0.4961  1.1235 -1.8548
 3603SOL    HW213010   3.715   7.781   9.068 -1.6285 -0.5235  0.4566
 3604SOL     OW13011   3.390   3.119   3.609  0.8256  0.1162 -0.0759
 3604SOL    HW113012   3.469   3.171   3.622  0.2027  0.7692  1.2731
 3604SOL    HW213013   3.322   3.165   3.658 -0.8251  0.5128 -2.5482
 3605SOL     OW13014   0.887   1.512   2.066 -0.0610  0.0563 -0.0290
 3605SOL    HW113015   0.895   1.605   2.089 -0.0180 -0.1776  0.9368
 3605SOL    HW213016   0.898   1.510   1.971  1.9493  0.8230  0.1371
 3606SOL     OW13017   6.798   2.581   4.809 -0.2461  0.4856 -1.0041
 3606SOL    HW113018   6.821   2.607   4.720  0.7752  0.1007 -0.8665
 3606SOL    HW213019   6.854   2.636   4.865 -1.1542  0.9976 -0.5826
 3607SOL     OW13020   5.635   1.072   2.808 -0.7283  0.4349  0.2386
 3607SOL    HW113021   5.688   1.096   2.732 -1.0369  1.1663  0.2522
 3607SOL    HW213022   5.660   1.133   2.877  0.0691 -0.6699  0.9721
 3608SOL     OW13023   3.975   4.998   8.074  0.3102 -0.0123  0.0113
 3608SOL    HW113024   3.999   4.988   7.982 -1.1003 -1.2407 -0.2571
 3608SOL    HW213025   4.052   4.967   8.122  1.5006  1.7272 -0.7028
 3609SOL     OW13026   8.091   3.828   8.183  0.5918  0.3263  0.4471
 3609SOL    HW113027   8.180   3.862   8.176  0.7608 -0.3719 -3.2164
 3609SOL    HW213028   8.101   3.734   8.173 -0.5385  0.3193 -1.0158
 3610SOL     OW13029   7.349   6.620   8.908  0.2398  0.1317  0.2922
 3610SOL    HW113030   7.279   6.561   8.934  0.9367 -0.9566 -0.2139
 3610SOL    HW213031   7.401   6.633   8.988 -0.2149  0.4980  0.5312
 3611SOL     OW13032   6.797   8.010   8.338  0.2566 -0.3846 -0.1821
 3611SOL    HW113033   6.821   7.922   8.310  0.8065  0.0473 -1.1385
 3611SOL    HW213034   6.818   8.065   8.262 -0.1450  0.5551  0.3744
 3612SOL     OW13035   2.392   9.170   4.595 -0.1983 -0.2690  0.4849
 3612SOL    HW113036   2.407   9.234   4.664  0.7875  0.4717 -0.3737
 3612SOL    HW213037   2.417   9.086   4.633  0.1271  0.0977  1.0868
 3613SOL     OW13038   0.121   2.736   4.658 -0.2749 -0.0561  0.0897
 3613SOL    HW113039   0.078   2.819   4.636 -1.3372 -0.7914 -0.7354
 3613SOL    HW213040   0.087   2.674   4.594 -0.0006 -1.2797  1.0804
 3614SOL     OW13041   6.421   4.022   1.146  0.1074  0.2747  0.1265
 3614SOL    HW113042   6.441   3.996   1.235  0.3655 -0.3106 -0.1008
 3614SOL    HW213043   6.501   4.007   1.097 -0.3191 -0.3237 -0.4055
 3615SOL     OW13044   3.138   5.147   1.023 -0.2809 -0.8795 -0.0059
 3615SOL    HW113045   3.222   5.133   1.067 -1.1040  0.1860  2.0188
 3615SOL    HW213046   3.082   5.077   1.056 -1.3491  0.7855  2.0072
 3616SOL     OW13047   8.024   5.778   3.845 -0.3733  0.4037 -0.5619
 3616SOL    HW113048   7.997   5.750   3.758 -1.7454 -1.9405  0.5235
 3616SOL    HW213049   8.013   5.701   3.900  2.0523  1.3096  1.4127
 3617SOL     OW13050   8.949   6.543   7.792  0.0925 -0.3981  0.0018
 3617SOL    HW113051   9.039   6.514   7.777 -0.1154  0.0086 -2.4618
 3617SOL    HW213052   8.910   6.546   7.704 -1.6539  1.5787  0.7594
 3618SOL     OW13053   2.317   2.069   1.721 -0.4079  0.4410 -0.3046
 3618SOL    HW113054   2.319   1.992   1.665 -0.0581  0.3866 -0.2187
 3618SOL    HW213055   2.227   2.101   1.715 -0.4416  0.2744 -0.6753
 3619SOL     OW13056   6.466   2.637   4.084  0.2826 -0.3028  0.4001
 3619SOL    HW113057   6.418   2.578   4.026  0.7100 -0.3593  0.0990
 3619SOL    HW213058   6.398   2.678   4.138 -0.0482 -0.8161  0.3825
 3620SOL     OW13059   0.616   2.500   3.322  0.0141 -0.0454  0.4544
 3620SOL    HW113060   0.554   2.428   3.313 -0.3438  0.2637  0.4274
 3620SOL    HW213061   0.702   2.459   3.312 -0.2218 -0.2599 -0.9312
 3621SOL     OW13062   2.483   4.013   3.315  0.0914 -0.1974 -0.0005
 3621SOL    HW113063   2.555   4.020   3.378  0.4366 -1.0437 -0.2911
 3621SOL    HW213064   2.416   4.072   3.349  0.3167 -0.5605  1.1100
 3622SOL     OW13065   1.068   8.672   2.645  0.3112  0.2243  0.1514
 3622SOL    HW113066   1.028   8.622   2.573  1.3078 -0.7898  0.2926
 3622SOL    HW213067   1.082   8.759   2.608  0.2731 -0.1230 -0.7032
 3623SOL     OW13068   8.110   5.538   6.535  0.1948 -0.1602  0.1217
 3623SOL    HW113069   8.146   5.473   6.475  0.1976 -0.3897  0.3730
 3623SOL    HW213070   8.141   5.622   6.500  0.2068 -0.2926 -0.1905
 3624SOL     OW13071   2.220   8.297   6.068 -0.3435  0.1723  0.6763
 3624SOL    HW113072   2.152   8.334   6.125 -0.6463  0.3709  0.1915
 3624SOL    HW213073   2.234   8.363   6.001 -0.8531 -0.5535 -0.1737
 3625SOL     OW13074   0.423   0.026   8.726 -0.0170  0.0660 -0.2386
 3625SOL    HW113075   0.338  -0.017   8.725 -1.5716  2.7552 -3.6058
 3625SOL    HW213076   0.476  -0.024   8.663 -0.5713  0.7674 -1.2971
 3626SOL     OW13077   5.308   8.703   5.932 -0.3576  0.0463 -0.3052
 3626SOL    HW113078   5.366   8.633   5.961 -1.1155 -0.3240  0.3635
 3626SOL    HW213079   5.299   8.689   5.838  2.5937  1.6017 -0.9343
 3627SOL     OW13080   7.611   1.493   7.669  0.3296  0.2653  0.7476
 3627SOL    HW113081   7.699   1.486   7.705  0.7601  0.0617 -0.3002
 3627SOL    HW213082   7.615   1.567   7.609 -0.0504 -0.1061  0.2548
 3628SOL     OW13083   4.259   5.733   0.143 -0.5710  0.0173 -0.2065
 3628SOL    HW113084   4.286   5.821   0.118 -0.5116 -0.4147 -1.7639
 3628SOL    HW213085   4.174   5.720   0.099 -1.0066 -0.3934  0.7184
 3629SOL     OW13086   4.805   3.123   0.704 -0.0261 -0.2701 -0.1873
 3629SOL    HW113087   4.798   3.047   0.647 -0.4075 -0.9136  0.6996
 3629SOL    HW213088   4.886   3.110   0.753  0.1389  0.1254 -0.3455
 3630SOL     OW13089   9.467   6.108   5.541  0.5073  0.2156  0.1612
 3630SOL    HW113090   9.468   6.076   5.631 -2.0085 -0.0854  0.1311
 3630SOL    HW213091   9.502   6.197   5.547  0.0527  0.3242  1.5019
 3631SOL     OW13092   1.880   8.208   2.790 -0.2001  0.0113 -0.3842
 3631SOL    HW113093   1.889   8.113   2.794  1.1378  0.1557  0.6877
 3631SOL    HW213094   1.969   8.241   2.788 -0.5421  1.3202  2.0618
 3632SOL     OW13095   4.914   2.317   2.564 -0.5098  0.3478  0.0688
 3632SOL    HW113096   4.826   2.308   2.526 -1.2260 -2.7043  2.0639
 3632SOL    HW213097   4.968   2.256   2.514  0.4569  1.9614 -0.9253
 3633SOL     OW13098   6.047   5.233   4.903  0.3921 -0.0349  0.1533
 3633SOL    HW113099   6.085   5.145   4.899 -0.6661 -0.4998 -0.0592
 3633SOL    HW213100   5.971   5.229   4.844 -0.5613  0.5562  1.2956
 3634SOL     OW13101   0.011   9.086   3.097  0.0107  0.5216  0.2554
 3634SOL    HW113102  -0.038   9.009   3.126  1.0384 -0.5693 -0.7594
 3634SOL    HW213103   0.063   9.055   3.023  0.1532  2.3067 -0.4571
 3635SOL     OW13104   8.307   1.119   0.255  0.2218  0.2946  0.4076
 3635SOL    HW113105   8.370   1.075   0.198 -0.5342  2.0793 -1.9654
 3635SOL    HW213106   8.308   1.068   0.336  3.8888 -0.4074  0.0978
 3636SOL     OW13107   4.465   0.385   5.824 -0.1615  0.4968  0.0821
 3636SOL    HW113108   4.496   0.428   5.904  0.2832 -0.8580  0.6595
 3636SOL    HW213109   4.523   0.310   5.813  2.0107  2.3712 -3.3697
 3637SOL     OW13110   5.973   5.054   6.223 -0.2982  0.0744  0.1492
 3637SOL    HW113111   5.957   5.148   6.231  1.3672  0.2825  1.4752
 3637SOL    HW213112   6.047   5.037   6.281 -1.9169 -2.4582  1.6238
 3638SOL     OW13113   9.382   8.261   4.487 -0.0832 -0.6193 -0.0395
 3638SOL    HW113114   9.445   8.293   4.551  0.0027  0.4655 -0.6452
 3638SOL    HW213115   9.435   8.211   4.424  0.0102 -0.6502  0.0643
 3639SOL     OW13116   0.879   6.299   2.541 -0.9265  0.4294  0.1704
 3639SOL    HW113117   0.881   6.381   2.591 -4.3092  0.0864  1.1293
 3639SOL    HW213118   0.912   6.234   2.603 -0.3173  0.7434  0.1824
 3640SOL     OW13119   1.215   5.561   7.973  0.3481 -0.1135 -0.1735
 3640SOL    HW113120   1.136   5.603   8.004  0.5512  0.1175  0.0346
 3640SOL    HW213121   1.185   5.477   7.937  0.1769 -0.7242  1.2881
 3641SOL     OW13122   7.683   6.491   7.892  0.4920  0.0170 -0.2457
 3641SOL    HW113123   7.650   6.403   7.911  0.3570 -0.0565 -0.8005
 3641SOL    HW213124   7.754   6.504   7.955  0.4592 -0.4589 -0.1058
 3642SOL     OW13125   3.136   7.030   7.603 -0.5259 -0.3912  0.0695
 3642SOL    HW113126   3.174   6.951   7.642  1.6448 -0.0514 -1.2245
 3642SOL    HW213127   3.207   7.070   7.554 -2.3313  0.8188 -1.7457
 3643SOL     OW13128   5.470   9.333   3.028 -0.4961 -0.1942  0.0162
 3643SOL    HW113129   5.474   9.395   3.102 -0.9700 -1.2557  0.9683
 3643SOL    HW213130   5.390   9.283   3.044  0.7542 -2.2239  0.2637
 3644SOL     OW13131   0.936   2.457   5.857  0.1694  0.4843  0.0356
 3644SOL    HW113132   0.942   2.517   5.932  3.2469 -2.0628  2.0975
 3644SOL    HW213133   0.984   2.502   5.787  0.7609  1.2237  0.8923
 3645SOL     OW13134   3.160   1.023   1.297  0.1344  0.3091 -0.0357
 3645SOL    HW113135   3.229   1.083   1.268  0.4446  0.0749  0.2156
 3645SOL    HW213136   3.207   0.944   1.325 -0.2057  0.2773  0.4621
 3646SOL     OW13137   2.352   7.051   6.997  0.4325 -0.3862  0.1572
 3646SOL    HW113138   2.348   7.133   7.045 -1.9159 -0.7300  0.6726
 3646SOL    HW213139   2.334   6.984   7.063  1.5766 -1.2690 -0.3915
 3647SOL     OW13140   4.399   7.858   3.161  0.2995 -0.5566 -0.0456
 3647SOL    HW113141   4.360   7.904   3.087  1.1979  0.6718  0.2131
 3647SOL    HW213142   4.329   7.854   3.226  0.9857  3.5108  1.2549
 3648SOL     OW13143   1.181   1.768   9.131 -0.5898  0.3729  0.2390
 3648SOL    HW113144   1.164   1.855   9.169 -1.3104  0.8926 -1.1871
 3648SOL    HW213145   1.258   1.736   9.178  0.1408  2.1069  0.3051
 3649SOL     OW13146   1.151   3.145   8.647 -0.5463  0.3052  0.3963
 3649SOL    HW113147   1.098   3.093   8.708 -1.0838  0.1798 -0.1691
 3649SOL    HW213148   1.105   3.139   8.563  0.6588 -0.2620 -0.2457
 3650SOL     OW13149   5.141   3.242   2.940 -0.7791  0.7463  0.4600
 3650SOL    HW113150   5.153   3.333   2.911  1.9359 -0.0422 -1.2329
 3650SOL    HW213151   5.095   3.200   2.868  0.7870  0.1191 -0.2235
 3651SOL     OW13152   6.729   0.150   3.347 -0.2101  0.3178 -0.1176
 3651SOL    HW113153   6.703   0.059   3.359 -0.6157  0.4188 -0.2133
 3651SOL    HW213154   6.732   0.161   3.252  1.9584 -0.1890 -0.1690
 3652SOL     OW13155   5.950   4.417   4.725 -0.1279 -0.4722  0.2341
 3652SOL    HW113156   5.878   4.354   4.730 -0.8483  0.3369  0.3234
 3652SOL    HW213157   5.988   4.416   4.813 -0.9904  0.1845  0.6265
 3653SOL     OW13158   5.627   3.361   1.821  0.0073  0.1919 -0.3998
 3653SOL    HW113159   5.706   3.309   1.835  1.0917  1.4643 -1.4654
 3653SOL    HW213160   5.650   3.448   1.854 -0.0185  1.2276 -2.9040
 3654SOL     OW13161   5.297   9.160   5.211 -0.0914  0.0960 -0.3502
 3654SOL    HW113162   5.254   9.080   5.242 -0.6384  0.3597 -0.4088
 3654SOL    HW213163   5.370   9.129   5.158 -1.7940 -0.4311 -2.5401
 3655SOL     OW13164   3.221   6.551   2.629 -0.1734  0.1403 -0.2617
 3655SOL    HW113165   3.200   6.539   2.537  0.9063 -1.4479 -0.3413
 3655SOL    HW213166   3.138   6.542   2.675 -0.5497 -0.1596 -0.9968
 3656SOL     OW13167   6.522   3.080   6.588 -0.2806  0.0462  0.1660
 3656SOL    HW113168   6.507   3.068   6.682  0.7266 -0.0227  0.3309
 3656SOL    HW213169   6.438   3.060   6.548 -0.7397  0.1219  1.0576
 3657SOL     OW13170   7.801   3.002   3.648 -0.2398  0.2478 -0.0884
 3657SOL    HW113171   7.856   3.026   3.723  0.2697 -0.4149 -0.2465
 3657SOL    HW213172   7.753   3.083   3.627  0.1839  0.6500  0.4599
 3658SOL     OW13173   8.679   3.201   6.246  0.1954 -0.1956  0.7258
 3658SOL    HW113174   8.636   3.130   6.294  0.5476 -0.2439  0.9696
 3658SOL    HW213175   8.769   3.171   6.234 -0.3602 -1.1162 -1.7569
 3659SOL     OW13176   0.365   3.784   7.393 -0.1790  0.5187  0.2407
 3659SOL    HW113177   0.408   3.869   7.397  1.3284 -0.2129  0.6607
 3659SOL    HW213178   0.313   3.786   7.313  1.8175  0.9650 -1.1395
 3660SOL     OW13179   4.826   0.322   8.939 -0.2962  0.1487 -0.1227
 3660SOL    HW113180   4.905   0.345   8.987  0.1584  0.6241 -1.0636
 3660SOL    HW213181   4.767   0.396   8.951  0.6270  1.2711 -1.9832
 3661SOL     OW13182   5.248   6.443   8.754 -0.0517 -0.2155 -0.1529
 3661SOL    HW113183   5.213   6.357   8.730 -1.1812 -0.0324  0.7697
 3661SOL    HW213184   5.343   6.433   8.744  0.0393 -2.2423  1.9257
 3662SOL     OW13185   4.059   7.676   8.158  0.4510  0.4910 -0.2915
 3662SOL    HW113186   4.075   7.586   8.127  1.1559  0.5446 -0.1033
 3662SOL    HW213187   3.983   7.705   8.108 -1.6329 -1.2094  1.6729
 3663SOL     OW13188   2.093   0.812   0.168  0.1290  0.2248  0.5356
 3663SOL    HW113189   2.064   0.813   0.259 -0.0996 -0.7469  0.4834
 3663SOL    HW213190   2.012   0.807   0.117  0.2983 -0.8504  0.3410
 3664SOL     OW13191   7.619   9.552   3.331  0.3963 -0.7074 -0.0826
 3664SOL    HW113192   7.604   9.629   3.276  1.6099 -1.8508 -2.1524
 3664SOL    HW213193   7.710   9.558   3.357 -0.1289 -0.2641  1.7537
 3665SOL     OW13194   1.688   2.362   5.566 -0.0099 -0.3798 -0.0925
 3665SOL    HW113195   1.598   2.349   5.595 -0.9922  0.1488 -2.6238
 3665SOL    HW213196   1.712   2.281   5.522 -0.1065  0.2660 -1.3874
 3666SOL     OW13197   0.103   6.597   6.202 -0.0039  0.0735  0.0803
 3666SOL    HW113198   0.127   6.626   6.290  0.6112 -0.4193  0.0843
 3666SOL    HW213199   0.062   6.673   6.162 -0.7184  0.1698  0.9488
 3667SOL     OW13200   0.837   3.670   8.566  0.2451  0.5236  0.4664
 3667SOL    HW113201   0.822   3.695   8.657  2.0341  0.8417  0.6952
 3667SOL    HW213202   0.865   3.578   8.570  0.7467  0.6661  0.2764
 3668SOL     OW13203   8.799   1.811   6.904 -0.5917  0.0195  0.0234
 3668SOL    HW113204   8.813   1.764   6.986  3.0429 -0.4260 -0.6793
 3668SOL    HW213205   8.815   1.903   6.926  0.1903 -0.0764 -0.1274
 3669SOL     OW13206   1.511   7.825   5.779 -0.3732  0.0578 -0.0997
 3669SOL    HW113207   1.521   7.890   5.850 -0.7445  0.7000 -0.6248
 3669SOL    HW213208   1.600   7.807   5.751 -0.2761  0.5021 -0.0880
 3670SOL     OW13209   3.205   8.798   9.179  0.5449 -0.3975  0.0270
 3670SOL    HW113210   3.256   8.742   9.237  2.4944  1.4412  0.2241
 3670SOL    HW213211   3.214   8.758   9.092  1.4006 -0.7334  0.2641
 3671SOL     OW13212   4.197   5.204   7.614  0.1384 -0.5625  0.1190
 3671SOL    HW113213   4.278   5.202   7.664 -0.1931  0.1107  0.7052
 3671SOL    HW213214   4.184   5.114   7.585  1.2224 -0.6299 -0.2008
 3672SOL     OW13215   3.307   3.320   5.094  0.2008  0.1444  0.1624
 3672SOL    HW113216   3.386   3.293   5.049 -0.1625  1.2814 -1.2150
 3672SOL    HW213217   3.241   3.256   5.067 -0.0037  0.7953 -0.8961
 3673SOL     OW13218   4.693   4.401   7.108  0.4355 -0.1900 -0.3932
 3673SOL    HW113219   4.608   4.436   7.134  0.6685  0.1469 -0.0825
 3673SOL    HW213220   4.754   4.473   7.121  0.8953 -0.6599  0.0866
 3674SOL     OW13221   5.036   7.684   7.733 -0.1233 -0.5344 -0.4358
 3674SOL    HW113222   4.953   7.664   7.689 -0.0198  0.5942 -1.1924
 3674SOL    HW213223   5.070   7.599   7.760 -0.2345 -1.2698 -2.4654
 3675SOL     OW13224   9.231   3.124   7.213 -0.6331 -0.5677  0.1757
 3675SOL    HW113225   9.291   3.138   7.286  1.3341  2.5663 -1.8097
 3675SOL    HW213226   9.149   3.167   7.240  0.2115  0.9505  0.4452
 3676SOL     OW13227   7.603   1.531   0.046  1.1787 -0.2584  0.0102
 3676SOL    HW113228   7.578   1.442   0.073  0.9890 -0.9278 -2.1761
 3676SOL    HW213229   7.521   1.570   0.016  1.4620  0.2595 -0.0937
 3677SOL     OW13230   6.125   5.088   1.792  0.0786 -0.3297  0.2120
 3677SOL    HW113231   6.055   5.123   1.737 -0.9595 -2.9668 -0.2665
 3677SOL    HW213232   6.094   5.100   1.882 -0.2840 -0.1002  0.0560
 3678SOL     OW13233   5.262   7.392   0.971  0.3395 -0.4453 -0.3751
 3678SOL    HW113234   5.317   7.390   0.893  2.3280  0.2618  0.9439
 3678SOL    HW213235   5.296   7.465   1.023 -0.4665 -1.3163  1.4675
 3679SOL     OW13236   5.054   3.338   4.750  0.7851 -0.7633 -0.4210
 3679SOL    HW113237   4.978   3.342   4.691  0.8489 -0.9789 -0.5175
 3679SOL    HW213238   5.020   3.370   4.834  1.0130  0.7977 -0.8900
 3680SOL     OW13239   1.883   3.963   3.842  0.4064 -0.3078 -0.4127
 3680SOL    HW113240   1.879   3.869   3.825  0.7692 -0.3827 -0.1075
 3680SOL    HW213241   1.826   4.002   3.777 -0.4729 -0.8197  0.0369
 3681SOL     OW13242   9.256   7.212   4.866  0.0210 -0.3158 -0.0503
 3681SOL    HW113243   9.281   7.212   4.773 -0.5678  0.8994 -0.2342
 3681SOL    HW213244   9.319   7.153   4.908  0.7488 -0.3224 -1.1077
 3682SOL     OW13245   1.814   4.709   3.661  0.3184  0.0767  0.4796
 3682SOL    HW113246   1.788   4.763   3.735  0.8433  1.3666 -0.2403
 3682SOL    HW213247   1.907   4.691   3.676  0.2330 -0.3178  0.5348
 3683SOL     OW13248   6.110   8.122   3.239 -0.0214 -0.4780  0.7123
 3683SOL    HW113249   6.199   8.095   3.264  0.0788  0.5147  1.4975
 3683SOL    HW213250   6.097   8.206   3.283 -0.0727  1.1376 -2.1312
 3684SOL     OW13251   8.890   8.126   7.149 -0.0606 -0.6233  0.1845
 3684SOL    HW113252   8.812   8.096   7.103  1.1027 -0.1825 -2.2061
 3684SOL    HW213253   8.910   8.211   7.110  1.1979 -0.3762  1.2978
 3685SOL     OW13254   4.474   0.152   8.760 -0.2133  0.1054 -0.4995
 3685SOL    HW113255   4.450   0.212   8.832 -0.1917  0.7048 -0.9853
 3685SOL    HW213256   4.538   0.092   8.800 -1.7442 -0.9022  0.5479
 3686SOL     OW13257   6.235   4.793   0.953  0.7017  0.3266 -0.0508
 3686SOL    HW113258   6.175   4.812   1.025 -1.2134 -1.8668 -0.9704
 3686SOL    HW213259   6.218   4.862   0.889 -0.6109 -0.0240 -0.1174
 3687SOL     OW13260   0.189   0.238   7.278  0.2278  0.0936  0.7100
 3687SOL    HW113261   0.119   0.298   7.301 -0.7958 -0.6760 -0.3077
 3687SOL    HW213262   0.265   0.269   7.329 -0.2538  2.2208  0.2310
 3688SOL     OW13263   7.776   7.142   6.071  0.3520 -0.1069 -0.2744
 3688SOL    HW113264   7.722   7.076   6.114  0.5615 -0.3002 -0.3045
 3688SOL    HW213265   7.840   7.168   6.138  0.2966  0.0335 -0.2762
 3689SOL     OW13266   3.572   2.295   9.413  0.4949 -0.2637 -0.1630
 3689SOL    HW113267   3.522   2.254   9.484  0.8441  0.2481  0.3925
 3689SOL    HW213268   3.545   2.248   9.335 -0.1394 -0.6337  0.2635
 3690SOL     OW13269   8.390   8.181   9.149  0.1628 -0.1090 -0.3053
 3690SOL    HW113270   8.386   8.277   9.154  1.6545 -0.0875  1.9828
 3690SOL    HW213271   8.481   8.162   9.127 -0.0121 -1.0189 -0.2778
 3691SOL     OW13272   6.883   6.962   6.724  0.1967 -0.0212  0.2224
 3691SOL    HW113273   6.829   6.883   6.721 -1.3772  0.9324  1.5941
 3691SOL    HW213274   6.851   7.016   6.652 -0.8619  0.6103  1.1294
 3692SOL     OW13275   9.275   1.065   8.994 -0.0055 -0.3392 -0.0803
 3692SOL    HW113276   9.295   0.986   9.045  0.1076 -0.8018 -0.8338
 3692SOL    HW213277   9.179   1.073   8.998  0.0362 -0.1134  0.5811
 3693SOL     OW13278   8.902   1.175   4.338  0.0436 -0.3914  0.5444
 3693SOL    HW113279   8.824   1.227   4.353  1.5592  1.2918  3.3049
 3693SOL    HW213280   8.913   1.124   4.418  0.5902 -2.3392 -0.6881
 3694SOL     OW13281   8.569   6.456   8.575  0.6908  0.3230  0.3975
 3694SOL    HW113282   8.616   6.491   8.651  2.5440 -0.5442 -0.2932
 3694SOL    HW213283   8.519   6.382   8.609  2.3594 -0.7516  0.6410
 3695SOL     OW13284   8.427   2.804   0.278  0.4071  0.5288  0.1309
 3695SOL    HW113285   8.335   2.784   0.292  0.7863 -0.5575  1.2218
 3695SOL    HW213286   8.474   2.728   0.312  1.7327  1.2668  0.0268
 3696SOL     OW13287   3.383   2.065   3.790  0.4021  0.2281 -0.3231
 3696SOL    HW113288   3.315   2.066   3.724  1.5558 -1.4354 -1.6325
 3696SOL    HW213289   3.461   2.099   3.745  0.8695  0.4121  0.5978
 3697SOL     OW13290   4.816   4.017   1.549  0.6527 -0.1578 -0.4833
 3697SOL    HW113291   4.841   3.988   1.637  0.5927 -1.9333 -1.0146
 3697SOL    HW213292   4.729   3.979   1.535  1.1784 -0.9590 -1.7626
 3698SOL     OW13293   2.566   6.675   8.294 -0.6306  0.6688 -0.4146
 3698SOL    HW113294   2.642   6.680   8.236  0.2299  1.4070  0.7166
 3698SOL    HW213295   2.592   6.726   8.371 -0.5666 -2.5320  1.9025
 3699SOL     OW13296   1.523   1.932   7.755 -0.3622  0.3244  0.3966
 3699SOL    HW113297   1.439   1.907   7.793  0.3899 -1.0633  1.2216
 3699SOL    HW213298   1.576   1.853   7.760  1.4926  1.5482  1.3309
 3700SOL     OW13299   6.980   4.615   5.733  0.4366  0.0599 -0.2467
 3700SOL    HW113300   6.982   4.548   5.665 -4.8228 -1.5871  0.7329
 3700SOL    HW213301   6.945   4.693   5.690 -0.4211 -0.1721  0.0128
 3701SOL     OW13302   6.747   6.554   3.475 -0.1010  0.0795  0.1288
 3701SOL    HW113303   6.811   6.622   3.495  0.0575 -0.3068  0.9789
 3701SOL    HW213304   6.798   6.473   3.472 -0.4693 -0.1578  0.2687
 3702SOL     OW13305   3.546   3.932   0.013  0.0549 -0.5138  0.1176
 3702SOL    HW113306   3.533   3.941   0.108  1.2719 -1.3230  0.4030
 3702SOL    HW213307   3.614   3.996  -0.008  1.3190 -1.7495  0.2321
 3703SOL     OW13308   4.690   6.861   8.289  0.4876  0.0505 -0.1664
 3703SOL    HW113309   4.741   6.938   8.262  0.9172 -0.4809 -0.9160
 3703SOL    HW213310   4.732   6.830   8.368 -0.8563  1.7071  1.2810
 3704SOL     OW13311   3.269   7.501   0.245  0.2528  0.2236 -0.3919
 3704SOL    HW113312   3.249   7.571   0.307  3.2103 -0.7387  1.8616
 3704SOL    HW213313   3.292   7.546   0.164 -0.9795  1.6422  0.0054
 3705SOL     OW13314   4.481   8.817   4.454 -0.5506  0.2833  0.4403
 3705SOL    HW113315   4.547   8.811   4.385 -0.0530  0.2495  0.9202
 3705SOL    HW213316   4.484   8.732   4.497 -1.2878  0.0870  0.1262
 3706SOL     OW13317   3.382   9.231   8.935 -0.2233  0.2985  0.3469
 3706SOL    HW113318   3.333   9.173   8.993 -2.1033  2.2977  0.8788
 3706SOL    HW213319   3.467   9.188   8.925 -1.4955 -2.5322  0.6502
 3707SOL     OW13320   9.539   3.530   1.315 -0.3446  0.2906 -0.1508
 3707SOL    HW113321   9.451   3.501   1.338  0.1473 -1.6618 -0.5303
 3707SOL    HW213322   9.526   3.612   1.268 -1.9596  0.0459 -0.1860
 3708SOL     OW13323   6.484   3.479   4.486 -0.3438  0.0146  0.4603
 3708SOL    HW113324   6.428   3.486   4.563 -3.1219 -1.0677 -1.2990
 3708SOL    HW213325   6.488   3.385   4.467  1.9552  0.0641  0.3384
 3709SOL     OW13326   4.095   7.732   1.827 -0.0206 -0.6559  0.5669
 3709SOL    HW113327   4.048   7.684   1.895 -0.4740 -0.0265  0.7187
 3709SOL    HW213328   4.185   7.736   1.858  0.0682 -1.5730  0.4497
 3710SOL     OW13329   9.082   6.126   6.348 -0.2095  0.3933 -0.5128
 3710SOL    HW113330   9.017   6.056   6.354 -1.1695  1.2435 -0.7902
 3710SOL    HW213331   9.165   6.079   6.340 -0.6957 -0.7106  0.5562
 3711SOL     OW13332   8.937   7.637   6.371 -0.0083  0.5099 -0.0102
 3711SOL    HW113333   8.948   7.564   6.310 -0.3176 -0.5880  1.2040
 3711SOL    HW213334   8.842   7.648   6.378  0.0316  0.7943  0.0917
 3712SOL     OW13335   7.496   5.846   2.068 -0.4476  0.1542 -0.1754
 3712SOL    HW113336   7.444   5.830   1.990 -1.5072 -2.4596  0.9506
 3712SOL    HW213337   7.580   5.876   2.035 -1.7524  1.9200 -2.1552
 3713SOL     OW13338   9.417   0.691   8.735  0.0325  0.4318  0.5311
 3713SOL    HW113339   9.330   0.668   8.703  2.0685 -4.3317 -2.7879
 3713SOL    HW213340   9.414   0.673   8.829 -2.0080 -2.2470  0.0773
 3714SOL     OW13341   3.275   4.797   6.945  0.3968 -0.1391  0.4118
 3714SOL    HW113342   3.181   4.784   6.931  0.5160 -1.1124  0.4330
 3714SOL    HW213343   3.297   4.738   7.017  0.9864  0.2344  0.5455
 3715SOL     OW13344   2.163   7.387   7.962  0.1011 -0.0428  0.4295
 3715SOL    HW113345   2.214   7.314   7.927 -1.1945  0.3975 -2.8038
 3715SOL    HW213346   2.072   7.361   7.950 -0.3940  1.5429  0.4267
 3716SOL     OW13347   6.236   5.580   9.398 -0.1823 -0.2112 -0.1706
 3716SOL    HW113348   6.300   5.508   9.397  1.3077  1.0307  1.0949
 3716SOL    HW213349   6.152   5.536   9.416  0.2831 -1.8512 -1.6396
 3717SOL     OW13350   2.855   8.666   0.953 -0.3820 -0.5316 -0.5867
 3717SOL    HW113351   2.816   8.752   0.970 -1.0527 -0.6314 -1.5227
 3717SOL    HW213352   2.839   8.651   0.860 -1.4251 -2.2410 -0.1671
 3718SOL     OW13353   2.687   3.419   1.356 -0.3929  0.0641  0.2455
 3718SOL    HW113354   2.629   3.410   1.280 -0.5690 -1.7347  0.5376
 3718SOL    HW213355   2.628   3.419   1.431 -0.1330  0.5290  0.4545
 3719SOL     OW13356   2.748   4.607   7.952 -0.0829 -0.2865  0.4161
 3719SOL    HW113357   2.686   4.539   7.926 -1.1499  0.9878 -0.4715
 3719SOL    HW213358   2.811   4.611   7.879  0.5385 -0.9519  0.9019
 3720SOL     OW13359   6.705   8.018   2.863  0.6211 -0.4389  0.4159
 3720SOL    HW113360   6.688   8.047   2.773 -1.6890 -1.8591  0.3242
 3720SOL    HW213361   6.746   7.932   2.852 -0.2021 -0.8753  0.7006
 3721SOL     OW13362   1.403   6.977   9.373  0.0829 -0.1805 -0.1052
 3721SOL    HW113363   1.482   7.026   9.351 -0.5612  1.7902  1.6134
 3721SOL    HW213364   1.355   6.968   9.290  0.9069  0.8627 -0.7117
 3722SOL     OW13365   1.475   4.830   5.716 -0.0154  0.7014  0.6389
 3722SOL    HW113366   1.533   4.840   5.792 -0.7257  0.9280  1.1562
 3722SOL    HW213367   1.477   4.915   5.673  2.8417 -0.2384 -1.4276
 3723SOL     OW13368   2.535   2.685   0.203  0.2350  0.2107 -0.6897
 3723SOL    HW113369   2.482   2.742   0.147  1.0335  0.5781 -1.0891
 3723SOL    HW213370   2.525   2.598   0.166  0.9154  0.4808 -1.5425
 3724SOL     OW13371   2.892   3.373   8.579  0.2922  0.6041 -0.1229
 3724SOL    HW113372   2.799   3.393   8.580 -0.1110 -1.1379  0.1219
 3724SOL    HW213373   2.896   3.278   8.568  1.9665  0.2143  2.7660
 3725SOL     OW13374   6.696   4.004   0.193  0.1001  0.2562 -0.1245
 3725SOL    HW113375   6.688   4.069   0.123 -0.1040 -0.5823 -0.9096
 3725SOL    HW213376   6.620   3.947   0.181  0.0566  0.1036  0.8014
 3726SOL     OW13377   8.910   4.879   9.135  0.2655  0.3060 -0.4621
 3726SOL    HW113378   9.001   4.851   9.123  0.4781  0.5375  0.5432
 3726SOL    HW213379   8.911   4.931   9.215 -0.5593  1.2345 -1.0336
 3727SOL     OW13380   3.019   4.542   6.747 -0.3647  0.0814 -0.6572
 3727SOL    HW113381   2.986   4.453   6.739 -0.4951  0.0191  0.4528
 3727SOL    HW213382   3.016   4.577   6.658 -0.2343 -1.0428 -1.1138
 3728SOL     OW13383   3.562   9.004   5.316 -0.6210  0.4090 -0.6234
 3728SOL    HW113384   3.492   8.966   5.263 -2.1389 -0.0574  1.5655
 3728SOL    HW213385   3.517   9.042   5.391  1.4708  0.5067  0.6591
 3729SOL     OW13386   9.462   6.686   1.454  0.4029  0.0596  0.1388
 3729SOL    HW113387   9.400   6.659   1.522  1.3844 -0.8485  0.7085
 3729SOL    HW213388   9.436   6.776   1.433 -1.7325 -0.6163 -0.3973
 3730SOL     OW13389   4.315   0.972   6.120 -0.5778  0.1062  0.0557
 3730SOL    HW113390   4.289   1.046   6.174 -2.1765  0.7525 -1.4975
 3730SOL    HW213391   4.242   0.910   6.128 -0.6310  0.0200 -0.9748
 3731SOL     OW13392   0.523   1.039   5.477 -0.2256 -0.9950  0.2350
 3731SOL    HW113393   0.528   0.970   5.543 -2.5503 -0.9215  0.5734
 3731SOL    HW213394   0.552   0.997   5.396  0.7090 -1.6522  0.8836
 3732SOL     OW13395   8.724   5.301   6.177  0.2366  0.3452  0.4779
 3732SOL    HW113396   8.629   5.289   6.169  0.0681  1.2045  0.9997
 3732SOL    HW213397   8.760   5.213   6.167 -0.5000  0.1977 -1.1805
 3733SOL     OW13398   9.395   1.426   8.442  0.1936 -0.7878  0.3304
 3733SOL    HW113399   9.343   1.425   8.523 -1.6381 -0.0953 -0.7637
 3733SOL    HW213400   9.340   1.474   8.380  2.0863 -0.2418 -0.9882
 3734SOL     OW13401   7.900   2.868   0.296  0.0828 -0.0795  0.1619
 3734SOL    HW113402   7.847   2.847   0.373  2.1375 -1.3811  1.3287
 3734SOL    HW213403   7.988   2.839   0.320  0.7921 -0.5483 -2.7165
 3735SOL     OW13404   7.781   0.493   5.447  0.0566 -0.3410  0.1482
 3735SOL    HW113405   7.795   0.563   5.383  0.3655 -1.8141 -1.4675
 3735SOL    HW213406   7.688   0.498   5.468  0.2695  1.2184  0.9291
 3736SOL     OW13407   5.842   5.524   2.539 -0.1306 -0.0393  0.4026
 3736SOL    HW113408   5.882   5.578   2.607  0.1171  0.6158 -0.2511
 3736SOL    HW213409   5.761   5.492   2.579 -0.3528  0.9352  0.7515
 3737SOL     OW13410   0.721   0.952   6.201 -0.4816  0.6263  0.3989
 3737SOL    HW113411   0.650   0.895   6.174 -0.5794 -0.2883  2.3766
 3737SOL    HW213412   0.681   1.039   6.208 -0.9961  0.4273 -0.0553
 3738SOL     OW13413   8.082   0.561   4.945  0.4699 -0.1311  0.1699
 3738SOL    HW113414   8.161   0.611   4.964  0.1073  0.1601  0.9627
 3738SOL    HW213415   8.099   0.475   4.983  0.6168 -0.2314 -0.1252
 3739SOL     OW13416   2.218   7.294   5.928  0.1268 -0.1656 -0.6048
 3739SOL    HW113417   2.213   7.368   5.867 -1.8040 -0.6680 -1.1204
 3739SOL    HW213418   2.127   7.265   5.938  0.7515 -1.9659  0.2244
 3740SOL     OW13419   4.341   3.766   9.496 -0.1033  0.3876 -0.4086
 3740SOL    HW113420   4.317   3.675   9.476  0.4414  0.5457 -1.9016
 3740SOL    HW213421   4.309   3.816   9.421 -0.1926  1.4092  0.2885
 3741SOL     OW13422   5.875   2.306   4.942  0.0109 -0.8100  0.2181
 3741SOL    HW113423   5.954   2.357   4.923 -1.0537  0.8519 -0.0175
 3741SOL    HW213424   5.855   2.327   5.033 -0.3144 -0.9713  0.1841
 3742SOL     OW13425   6.429   8.665   7.875  0.5085 -0.2554 -0.1856
 3742SOL    HW113426   6.474   8.583   7.853 -0.1257 -0.3614 -1.1181
 3742SOL    HW213427   6.336   8.644   7.869  0.3107  0.0187  1.5321
 3743SOL     OW13428   4.252   1.807   9.251  0.1033 -0.3759  0.4184
 3743SOL    HW113429   4.254   1.902   9.260  0.5947 -0.5537  2.7928
 3743SOL    HW213430   4.217   1.792   9.163 -0.0678  1.9820  0.0236
 3744SOL     OW13431   0.461   8.077   1.520  0.2628 -0.8813 -0.6328
 3744SOL    HW113432   0.389   8.120   1.565  1.5895 -0.0665  0.7908
 3744SOL    HW213433   0.456   8.108   1.430 -2.2489 -2.2980 -1.0632
 3745SOL     OW13434   5.031   6.973   4.829  0.4885 -0.0141 -0.0051
 3745SOL    HW113435   5.034   7.068   4.838  0.1403 -0.0228  0.1807
 3745SOL    HW213436   4.973   6.957   4.755 -0.5808 -0.1347  0.8484
 3746SOL     OW13437   7.519   7.045   1.636 -0.3004 -0.0288 -0.0168
 3746SOL    HW113438   7.571   7.076   1.710 -0.3833 -0.8303  0.3873
 3746SOL    HW213439   7.583   7.033   1.565  0.3051 -2.1563  0.8244
 3747SOL     OW13440   1.059   2.680   4.351 -0.1150  0.1593  0.2692
 3747SOL    HW113441   1.077   2.769   4.382 -1.3479  1.4555 -2.4127
 3747SOL    HW213442   1.141   2.633   4.365 -0.0199  1.0457  3.6296
 3748SOL     OW13443   4.137   1.137   6.774 -0.2067 -0.1715  0.3105
 3748SOL    HW113444   4.220   1.102   6.807  0.3645 -1.0004 -1.8372
 3748SOL    HW213445   4.071   1.074   6.801  0.3084 -1.0642 -0.4616
 3749SOL     OW13446   7.782   1.860   0.685 -0.4421 -0.0210 -0.2736
 3749SOL    HW113447   7.822   1.787   0.638  0.0730  1.4795 -2.2942
 3749SOL    HW213448   7.688   1.852   0.667 -0.5311 -0.7752  0.4430
 3750SOL     OW13449   7.931   0.126   0.103 -0.1202 -0.0685  0.1357
 3750SOL    HW113450   8.001   0.178   0.144  0.4350 -0.3767 -0.3996
 3750SOL    HW213451   7.863   0.121   0.170  1.7451 -2.6025  2.0351
 3751SOL     OW13452   8.008   1.448   9.435 -0.3196 -0.5544 -0.0922
 3751SOL    HW113453   8.003   1.433   9.529 -0.3571 -1.8410 -0.2894
 3751SOL    HW213454   8.049   1.534   9.427  0.7580 -0.9285  1.0780
 3752SOL     OW13455   1.506   9.140   3.542  0.3187  0.1106  0.0422
 3752SOL    HW113456   1.516   9.106   3.631  0.8204 -0.0143 -0.0571
 3752SOL    HW213457   1.420   9.109   3.513  0.4566 -0.4576  0.2242
 3753SOL     OW13458   8.493   5.871   2.900  0.3797 -0.7488  0.6894
 3753SOL    HW113459   8.559   5.934   2.871 -1.6254  1.2393  0.1750
 3753SOL    HW213460   8.463   5.905   2.984 -1.5048 -0.3155 -0.1045
 3754SOL     OW13461   8.578   1.457   1.594 -0.2017 -0.1878 -0.3134
 3754SOL    HW113462   8.651   1.436   1.535 -0.1523 -2.0677  0.3454
 3754SOL    HW213463   8.620   1.476   1.678 -0.4485 -1.9326  0.2425
 3755SOL     OW13464   1.360   5.755   6.665 -0.5217 -0.5737  0.2359
 3755SOL    HW113465   1.449   5.761   6.699 -0.9277 -0.3854  1.2833
 3755SOL    HW213466   1.358   5.816   6.591  0.0507 -0.1520  0.5665
 3756SOL     OW13467   3.766   5.849   8.070 -0.8652  0.1395 -0.4997
 3756SOL    HW113468   3.858   5.831   8.047 -1.0691  1.5134 -2.6889
 3756SOL    HW213469   3.771   5.922   8.132 -0.4585 -0.4619  0.1882
 3757SOL     OW13470   6.316   4.718   0.569  0.2800  0.5237  0.8179
 3757SOL    HW113471   6.311   4.626   0.594 -0.5814  0.7967  1.7369
 3757SOL    HW213472   6.360   4.717   0.484 -1.2281 -0.9017 -0.0198
 3758SOL     OW13473   2.115   1.178   5.449  0.1933 -0.6388 -0.0152
 3758SOL    HW113474   2.041   1.233   5.476  0.4739  0.5864 -1.5827
 3758SOL    HW213475   2.192   1.233   5.461  0.4695 -0.6047 -1.7621
 3759SOL     OW13476   7.149   5.624   6.340 -0.0061 -0.2030  0.1833
 3759SOL    HW113477   7.171   5.685   6.411  0.6038  0.2111 -0.3409
 3759SOL    HW213478   7.176   5.670   6.261  1.1025 -1.4227 -0.1843
 3760SOL     OW13479   7.523   1.163   3.928 -0.0798  0.2686 -0.4881
 3760SOL    HW113480   7.611   1.161   3.891 -0.4343  1.6862 -1.5021
 3760SOL    HW213481   7.513   1.078   3.971  1.9472  0.2737  0.0892
 3761SOL     OW13482   6.609   7.060   8.732  0.8381  0.2735  0.2573
 3761SOL    HW113483   6.613   6.992   8.799  0.2369 -0.5420 -0.5107
 3761SOL    HW213484   6.527   7.044   8.686  0.1652  2.1687  0.7105
 3762SOL     OW13485   0.055   2.428   9.054  0.1571  0.5331  0.2278
 3762SOL    HW113486   0.046   2.498   8.989  0.7969  1.0735  0.7163
 3762SOL    HW213487   0.045   2.472   9.138  0.1607 -0.0305  0.5256
 3763SOL     OW13488   0.562   4.202   9.192 -0.1630 -0.4210  0.4784
 3763SOL    HW113489   0.513   4.122   9.214 -0.2203 -0.5108  0.0327
 3763SOL    HW213490   0.640   4.198   9.247  1.2393 -2.1962 -1.4841
 3764SOL     OW13491   1.344   8.834   2.267 -0.2518  0.8798 -0.8040
 3764SOL    HW113492   1.338   8.869   2.177 -0.1585 -0.1800 -1.2364
 3764SOL    HW213493   1.321   8.741   2.258 -0.8454  0.9004  0.3755
 3765SOL     OW13494   5.643   3.719   0.553 -0.1457 -0.1108 -0.5449
 3765SOL    HW113495   5.688   3.778   0.613  1.0599 -1.5892  0.0542
 3765SOL    HW213496   5.644   3.766   0.469 -0.3880  1.2663  0.2019
 3766SOL     OW13497   0.341   5.775   5.154  0.0113 -0.1120 -0.0298
 3766SOL    HW113498   0.283   5.759   5.079 -0.4476  3.4332 -0.6233
 3766SOL    HW213499   0.293   5.740   5.229 -1.2415 -0.4631 -0.9534
 3767SOL     OW13500   5.135   6.726   7.341 -0.2412  0.0300  0.3254
 3767SOL    HW113501   5.206   6.783   7.310  0.2745  0.9233  2.8178
 3767SOL    HW213502   5.074   6.721   7.268  2.0987 -0.3156 -1.7349
 3768SOL     OW13503   6.336   5.898   3.190 -0.4381  0.1280 -0.4233
 3768SOL    HW113504   6.423   5.925   3.219 -0.4495 -0.1260 -0.1466
 3768SOL    HW213505   6.351   5.851   3.108 -0.6460  3.3573 -2.5401
 3769SOL     OW13506   1.132   4.780   8.649  0.0260  0.0497 -0.1775
 3769SOL    HW113507   1.185   4.701   8.637  1.7799  1.4527 -2.3657
 3769SOL    HW213508   1.071   4.780   8.575 -0.1724  0.5815 -0.0217
 3770SOL     OW13509   0.397   5.690   0.914  0.5071 -0.1972 -0.5013
 3770SOL    HW113510   0.456   5.686   0.989  1.0508  1.4743 -0.7982
 3770SOL    HW213511   0.440   5.637   0.847  1.2346  0.2760 -0.4192
 3771SOL     OW13512   5.804   4.812   9.364  0.3594  0.4411  0.1834
 3771SOL    HW113513   5.888   4.812   9.319  1.7368  0.3828  2.6146
 3771SOL    HW213514   5.825   4.792   9.455 -2.4547 -0.9951  0.6264
 3772SOL     OW13515   0.259   9.566   0.320 -0.4148 -0.1501 -0.0267
 3772SOL    HW113516   0.204   9.613   0.384 -0.1644  0.2812 -0.1261
 3772SOL    HW213517   0.330   9.627   0.300  1.2629 -1.4589  1.6333
 3773SOL     OW13518   2.126   8.392   4.943 -0.3352 -0.1584 -0.3253
 3773SOL    HW113519   2.105   8.460   4.878 -0.7009  0.2947  0.2501
 3773SOL    HW213520   2.215   8.365   4.921  0.0578  0.9493 -0.2027
 3774SOL     OW13521   2.768   5.874   8.147  0.3249 -0.3945 -0.0149
 3774SOL    HW113522   2.701   5.855   8.212 -0.5054 -0.1233 -0.7629
 3774SOL    HW213523   2.760   5.968   8.132  1.2525 -0.2633  0.2853
 3775SOL     OW13524   5.422   0.254   9.063 -0.1158 -0.0564 -0.0306
 3775SOL    HW113525   5.364   0.211   9.126 -2.0879 -0.6069 -2.0943
 3775SOL    HW213526   5.508   0.255   9.106 -1.2913 -0.6145  2.5133
 3776SOL     OW13527   9.114   8.482   7.745  0.6000 -0.5688 -0.4472
 3776SOL    HW113528   9.062   8.518   7.673  0.4273 -0.8760 -0.4803
 3776SOL    HW213529   9.073   8.398   7.764  0.0684 -0.0838  0.6329
 3777SOL     OW13530   6.529   1.458   5.310  0.0724  0.3855 -0.0161
 3777SOL    HW113531   6.583   1.424   5.382  1.3675 -0.6866 -1.4220
 3777SOL    HW213532   6.476   1.527   5.350  1.6645  0.6976  1.6993
 3778SOL     OW13533   3.770   6.214   9.444 -0.4867  0.0253  0.5521
 3778SOL    HW113534   3.723   6.148   9.393  1.9298 -1.0423 -0.4215
 3778SOL    HW213535   3.788   6.171   9.527 -1.5067  0.5751  1.0761
 3779SOL     OW13536   5.001   6.000   7.951 -0.5535 -0.0034  0.6558
 3779SOL    HW113537   5.060   6.064   7.991 -2.1018 -0.0726  3.2270
 3779SOL    HW213538   4.932   6.052   7.912 -0.3955 -0.0286  0.3393
 3780SOL     OW13539   1.080   1.953   4.638  0.4040  0.9445  0.1458
 3780SOL    HW113540   1.100   2.003   4.718 -1.5032  2.1451 -0.0782
 3780SOL    HW213541   0.991   1.921   4.652 -0.3192  1.9458 -1.8464
 3781SOL     OW13542   8.833   5.119   2.296 -0.7166 -0.2787 -1.0663
 3781SOL    HW113543   8.882   5.040   2.275 -0.6748  0.2138 -3.0195
 3781SOL    HW213544   8.885   5.163   2.364 -1.2864 -2.3860  0.8690
 3782SOL     OW13545   4.374   2.711   1.513 -0.6399  0.2859 -0.3742
 3782SOL    HW113546   4.447   2.653   1.540 -1.2903 -0.5876 -0.4443
 3782SOL    HW213547   4.417   2.792   1.486  0.2747 -0.0125  0.1121
 3783SOL     OW13548   5.063   5.459   8.799 -0.0582  0.5854  0.8430
 3783SOL    HW113549   5.021   5.373   8.795 -0.1827  0.7110 -0.9338
 3783SOL    HW213550   4.992   5.520   8.819 -0.3158  0.5063  0.1806
 3784SOL     OW13551   6.262   8.966   4.810  0.8050  0.5617 -0.6031
 3784SOL    HW113552   6.217   8.884   4.831  0.4353  1.2590  1.5742
 3784SOL    HW213553   6.192   9.031   4.807  1.3443  1.1955  0.1050
 3785SOL     OW13554   3.712   8.644   7.198 -0.8867 -0.1611  0.1757
 3785SOL    HW113555   3.678   8.657   7.109 -0.5214 -2.5861 -0.3845
 3785SOL    HW213556   3.656   8.699   7.253 -4.0867 -1.9373 -1.0488
 3786SOL     OW13557   2.733   0.442   1.227 -0.0699 -0.3736  0.2860
 3786SOL    HW113558   2.717   0.388   1.305 -0.8257 -1.0258 -0.3029
 3786SOL    HW213559   2.646   0.470   1.199  0.0949 -1.0393 -0.9476
 3787SOL     OW13560   0.483   7.032   6.060 -0.0021  0.3825 -0.3635
 3787SOL    HW113561   0.528   6.967   6.007  1.1161  0.0607  0.9144
 3787SOL    HW213562   0.462   7.102   6.000  0.3209 -0.4058 -1.4225
 3788SOL     OW13563   3.610   7.045   3.391 -0.2856 -0.6490  0.5976
 3788SOL    HW113564   3.660   7.019   3.314 -1.1268 -0.4738 -0.0165
 3788SOL    HW213565   3.672   7.097   3.444 -0.4679  1.6268 -1.2722
 3789SOL     OW13566   8.358   5.657   4.408  0.3898  0.6385 -0.3584
 3789SOL    HW113567   8.448   5.624   4.407 -0.1238 -0.8540 -0.2711
 3789SOL    HW213568   8.358   5.724   4.477  1.6870  1.4896 -1.1429
 3790SOL     OW13569   4.781   4.582   3.190 -0.8581 -0.4015 -0.3868
 3790SOL    HW113570   4.842   4.653   3.168 -0.4207 -0.1654  1.3813
 3790SOL    HW213571   4.785   4.523   3.115  2.5631 -1.0609  0.1122
 3791SOL     OW13572   4.034   9.537   8.191  0.5699  0.2088  0.2163
 3791SOL    HW113573   4.078   9.474   8.135  0.1585  0.0353  0.0866
 3791SOL    HW213574   4.075   9.621   8.169  0.3076  0.1650 -0.4455
 3792SOL     OW13575   4.706   2.505   1.315  0.2933 -0.3055 -0.3853
 3792SOL    HW113576   4.668   2.587   1.285 -0.8618 -0.9108 -0.6581
 3792SOL    HW213577   4.721   2.517   1.408 -1.8367 -0.4645  0.0282
 3793SOL     OW13578   4.448   9.201   0.042  0.9499 -0.2970  0.2091
 3793SOL    HW113579   4.388   9.204   0.116  1.0602  1.5591  0.2832
 3793SOL    HW213580   4.413   9.133  -0.016 -1.0055  0.4479  0.4392
 3794SOL     OW13581   1.019   7.736   3.807  0.0243  0.4666 -0.1891
 3794SOL    HW113582   1.070   7.671   3.759 -0.3415  0.3902 -0.4871
 3794SOL    HW213583   1.037   7.819   3.762  1.5307  0.8221  1.0068
 3795SOL     OW13584   4.167   2.226   2.118  0.1795 -0.2552 -0.1482
 3795SOL    HW113585   4.128   2.170   2.185 -0.1752 -1.4132 -1.2780
 3795SOL    HW213586   4.138   2.188   2.035 -0.4867  1.9182 -0.9773
 3796SOL     OW13587   6.118   2.853   3.218  0.6480  0.3305 -0.4022
 3796SOL    HW113588   6.190   2.814   3.267  0.6619 -0.1604 -0.8043
 3796SOL    HW213589   6.113   2.943   3.250 -0.1882 -0.3229  1.4221
 3797SOL     OW13590   7.784   1.858   0.964  0.4070 -0.2860  0.2931
 3797SOL    HW113591   7.776   1.953   0.959  0.1019 -0.3265 -0.0523
 3797SOL    HW213592   7.808   1.831   0.876  1.1601 -0.4716  0.5531
 3798SOL     OW13593   5.209   7.156   7.428 -0.4175 -0.2737  0.5439
 3798SOL    HW113594   5.233   7.221   7.494 -0.0765  1.2197 -0.9665
 3798SOL    HW213595   5.171   7.084   7.478  0.7649  0.3347  2.4347
 3799SOL     OW13596   8.595   1.209   4.694  0.4831 -0.1827 -0.5231
 3799SOL    HW113597   8.540   1.285   4.673  0.1825 -1.0178 -3.0009
 3799SOL    HW213598   8.546   1.134   4.660  1.0938 -1.4725  1.2849
 3800SOL     OW13599   4.268   9.020   3.315  0.6894  0.1917 -0.0916
 3800SOL    HW113600   4.280   8.972   3.233  3.2391  3.4239 -1.8689
 3800SOL    HW213601   4.203   9.087   3.294 -0.1503 -0.1906  1.2066
 3801SOL     OW13602   7.940   8.969   2.756  0.5876  0.5319 -0.3091
 3801SOL    HW113603   7.937   9.057   2.718 -2.6326  1.5812  1.9003
 3801SOL    HW213604   7.877   8.919   2.705  0.1193  0.4349  0.3577
 3802SOL     OW13605   7.137   2.489   2.393 -0.2787  0.2686  0.7242
 3802SOL    HW113606   7.151   2.395   2.406  0.8102  0.3661  0.3227
 3802SOL    HW213607   7.156   2.528   2.478  0.6859  0.2590  0.5276
 3803SOL     OW13608   3.996   4.627   2.033 -0.4272 -0.1817  0.1016
 3803SOL    HW113609   4.037   4.573   1.966 -2.1458 -1.5724  0.1063
 3803SOL    HW213610   4.010   4.578   2.115  2.0061  1.6799  0.9503
 3804SOL     OW13611   8.038   4.227   7.831 -0.2623  0.6991 -0.1543
 3804SOL    HW113612   8.097   4.160   7.866  0.3112  1.4333  0.2960
 3804SOL    HW213613   8.070   4.309   7.867 -1.4670  1.1360 -0.0272
 3805SOL     OW13614   0.879   1.153   2.911 -0.1843  0.3583 -0.3153
 3805SOL    HW113615   0.908   1.232   2.957 -1.2798  0.6837 -0.1521
 3805SOL    HW213616   0.860   1.090   2.982 -2.0391  0.9166 -0.2562
 3806SOL     OW13617   8.799   3.250   8.936 -0.7960  0.0171 -0.1698
 3806SOL    HW113618   8.865   3.290   8.879 -2.3963  1.1725 -1.3102
 3806SOL    HW213619   8.831   3.266   9.025  0.8486 -0.1956 -0.6958
 3807SOL     OW13620   9.053   4.796   0.478  0.3380  0.1652 -1.2712
 3807SOL    HW113621   9.100   4.718   0.511 -0.5186 -0.3798 -1.3083
 3807SOL    HW213622   9.035   4.847   0.557 -1.8207 -1.2016 -0.7958
 3808SOL     OW13623   6.113   7.753   7.175 -0.3236 -0.7972  0.1575
 3808SOL    HW113624   6.113   7.847   7.158  1.3514 -1.1070 -1.9061
 3808SOL    HW213625   6.173   7.743   7.250  0.4908 -0.3177 -0.4085
 3809SOL     OW13626   2.666   3.202   1.925 -0.6941  0.2319 -0.2148
 3809SOL    HW113627   2.728   3.135   1.954 -1.0849 -0.0273  0.0281
 3809SOL    HW213628   2.604   3.155   1.870  0.7748  0.9249 -2.6341
 3810SOL     OW13629   0.832   3.360   4.941 -0.0865  0.2222  0.0349
 3810SOL    HW113630   0.847   3.291   5.006  0.6526  1.2175  0.9675
 3810SOL    HW213631   0.892   3.338   4.869  0.8467  0.4044  0.7437
 3811SOL     OW13632   6.191   3.717   0.950 -0.0566  0.1525 -0.6396
 3811SOL    HW113633   6.174   3.655   1.021  0.3071  1.4677  0.6411
 3811SOL    HW213634   6.260   3.675   0.897  0.7582 -0.1821  0.6525
 3812SOL     OW13635   3.533   4.829   5.619 -0.5803 -0.2037 -0.0789
 3812SOL    HW113636   3.625   4.849   5.603 -0.2636 -0.6794  1.0313
 3812SOL    HW213637   3.502   4.790   5.537  0.4158 -0.7335 -0.2217
 3813SOL     OW13638   2.727   6.700   7.011  0.2502 -0.1004  0.1030
 3813SOL    HW113639   2.821   6.697   7.029  0.2552 -2.7262 -0.0051
 3813SOL    HW213640   2.714   6.783   6.966  2.1529  1.2581  1.8624
 3814SOL     OW13641   7.726   0.238   2.458  0.5353 -0.6031  0.2033
 3814SOL    HW113642   7.801   0.296   2.471 -0.7655  1.1458  0.1392
 3814SOL    HW213643   7.699   0.214   2.546 -0.7673  1.3746  0.3863
 3815SOL     OW13644   7.288   3.708   4.716 -0.2318 -0.2592  0.0673
 3815SOL    HW113645   7.375   3.714   4.677 -1.6922 -0.8452 -3.7276
 3815SOL    HW213646   7.262   3.616   4.704 -1.8005  0.1485  0.0698
 3816SOL     OW13647   3.345   1.859   1.146  0.9045  0.0679  0.1984
 3816SOL    HW113648   3.275   1.869   1.081  0.8908  0.1408  0.2249
 3816SOL    HW213649   3.423   1.892   1.102  0.7487  0.8526  0.4939
 3817SOL     OW13650   6.749   8.451   4.626  0.4969  0.0954 -0.1626
 3817SOL    HW113651   6.739   8.542   4.652 -2.3717  0.0383 -0.7674
 3817SOL    HW213652   6.818   8.417   4.684 -0.3222  1.9106  2.0012
 3818SOL     OW13653   6.839   3.739   2.145  0.3857 -0.0876 -0.0666
 3818SOL    HW113654   6.884   3.674   2.093  0.7253 -0.2717  0.4483
 3818SOL    HW213655   6.746   3.723   2.129  0.4722 -0.5857 -0.0817
 3819SOL     OW13656   0.000   5.640   7.955  0.0258  1.1175  0.0922
 3819SOL    HW113657  -0.077   5.619   7.904 -0.5059  1.4788  0.7271
 3819SOL    HW213658   0.013   5.564   8.012  1.8149 -0.2024 -1.9145
 3820SOL     OW13659   6.898   6.088   4.371  0.1932  0.1710  0.2063
 3820SOL    HW113660   6.888   6.176   4.334  0.2052  0.4010  0.7405
 3820SOL    HW213661   6.813   6.047   4.358  0.9350 -0.7425 -2.5459
 3821SOL     OW13662   7.557   5.303   9.148 -0.0215  0.4553  0.2144
 3821SOL    HW113663   7.611   5.321   9.225  0.8190  1.1860 -0.5185
 3821SOL    HW213664   7.567   5.209   9.133 -0.3885  0.2611  1.1277
 3822SOL     OW13665   0.256   4.117   0.778  0.0485  0.3419 -0.8625
 3822SOL    HW113666   0.307   4.093   0.700  1.0183  0.4917 -0.2989
 3822SOL    HW213667   0.316   4.102   0.851 -0.9754 -0.1714 -0.1014
 3823SOL     OW13668   5.437   0.579   5.042  0.2243 -0.2177 -0.2073
 3823SOL    HW113669   5.532   0.577   5.057  0.1302  0.8351  0.6855
 3823SOL    HW213670   5.403   0.631   5.115 -1.0488 -0.5971 -0.5135
 3824SOL     OW13671   4.029   8.878   7.164  0.1603  0.2250  0.0284
 3824SOL    HW113672   3.960   8.941   7.143  0.5158  0.6047  0.0128
 3824SOL    HW213673   3.987   8.792   7.151  0.2946  0.4234 -2.0591
 3825SOL     OW13674   0.918   8.831   5.518  0.4871 -0.3255  0.4680
 3825SOL    HW113675   0.868   8.767   5.568  0.1053 -0.0868  0.3972
 3825SOL    HW213676   1.000   8.787   5.498  0.2234 -0.8004  0.4087
 3826SOL     OW13677   1.324   4.344   3.893 -0.1739 -0.0177  0.6173
 3826SOL    HW113678   1.317   4.317   3.801  3.7384 -2.0226  0.7066
 3826SOL    HW213679   1.314   4.439   3.891  1.9403  0.2672 -2.2729
 3827SOL     OW13680   6.493   2.739   4.509 -0.1771 -0.2034 -0.2617
 3827SOL    HW113681   6.498   2.742   4.605  0.4233 -0.5666 -0.2761
 3827SOL    HW213682   6.444   2.658   4.490 -1.9704  0.8189 -0.2343
 3828SOL     OW13683   0.675   5.109   2.575  0.1986 -0.0272  0.5497
 3828SOL    HW113684   0.759   5.064   2.569  0.3506  0.1573  1.1689
 3828SOL    HW213685   0.614   5.053   2.527  0.7746  0.0940 -0.3358
 3829SOL     OW13686   6.603   3.407   2.862  0.0528 -0.5683  0.2362
 3829SOL    HW113687   6.513   3.439   2.875 -0.5684 -1.7627 -0.9244
 3829SOL    HW213688   6.654   3.453   2.929 -1.4321  0.0506  1.0031
 3830SOL     OW13689   2.821   6.807   4.357  0.1836 -0.1300  0.5199
 3830SOL    HW113690   2.862   6.792   4.442  3.2940  3.0480 -0.1615
 3830SOL    HW213691   2.746   6.864   4.376  0.5419  0.1175  1.2118
 3831SOL     OW13692   4.951   7.134   4.179 -0.3577 -0.2291  0.7630
 3831SOL    HW113693   5.030   7.082   4.162  0.0275  0.5780  0.0049
 3831SOL    HW213694   4.925   7.109   4.268  1.1319 -0.0231  1.2968
 3832SOL     OW13695   2.888   2.093   4.745 -0.1575  0.1822 -0.4014
 3832SOL    HW113696   2.856   2.082   4.835  0.3004 -1.1540 -0.3872
 3832SOL    HW213697   2.980   2.067   4.749  0.6449  2.6785 -0.7262
 3833SOL     OW13698   2.957   9.245   1.657  0.3927  0.4446 -0.3084
 3833SOL    HW113699   2.990   9.165   1.699 -0.8364 -0.5060 -1.0927
 3833SOL    HW213700   3.007   9.315   1.698 -0.2883 -0.4726  2.3048
 3834SOL     OW13701   2.060   7.801   3.385 -0.0732  0.8676 -0.0378
 3834SOL    HW113702   2.051   7.849   3.303 -4.9218  0.8899  0.1726
 3834SOL    HW213703   2.062   7.869   3.453  1.9790  0.8004  0.0285
 3835SOL     OW13704   8.397   9.037   3.080 -0.3678  0.1198  0.0293
 3835SOL    HW113705   8.434   9.002   2.999 -0.2999  2.0652 -0.8353
 3835SOL    HW213706   8.471   9.038   3.142 -0.1393 -0.3110 -0.2305
 3836SOL     OW13707   5.775   7.710   0.360  0.0516 -0.2600 -0.2120
 3836SOL    HW113708   5.817   7.790   0.392  1.8616 -0.6607 -1.4116
 3836SOL    HW213709   5.724   7.679   0.434  0.7302  1.0688  0.8676
 3837SOL     OW13710   2.685   3.870   6.837  0.0227  0.3220  0.0953
 3837SOL    HW113711   2.597   3.853   6.802 -0.0221  1.5816 -0.4878
 3837SOL    HW213712   2.681   3.840   6.928 -0.3571 -1.5537 -0.4971
 3838SOL     OW13713   7.934   1.285   7.503 -0.1341 -0.3576  0.1606
 3838SOL    HW113714   8.027   1.289   7.482  0.7505 -0.4817  3.4575
 3838SOL    HW213715   7.898   1.368   7.471  1.0258 -0.3901 -1.3141
 3839SOL     OW13716   2.057   7.079   9.227 -0.1603  0.6371 -0.7334
 3839SOL    HW113717   1.983   7.020   9.213 -0.2246  0.7119 -0.7087
 3839SOL    HW213718   2.031   7.160   9.184 -1.1666  1.5104  1.4217
 3840SOL     OW13719   5.532   6.297   3.502  0.0053  0.2152 -0.5265
 3840SOL    HW113720   5.514   6.281   3.410  0.2938 -0.9170 -0.3905
 3840SOL    HW213721   5.558   6.212   3.537 -1.0275  0.4095  0.8116
 3841SOL     OW13722   4.979   3.211   3.350 -0.1233  0.9946  0.6976
 3841SOL    HW113723   5.051   3.241   3.406  1.4978  0.3136 -0.9202
 3841SOL    HW213724   5.015   3.137   3.302 -1.3505  1.6308 -1.3427
 3842SOL     OW13725   6.485   1.925   5.513 -1.0381  0.0755  0.2979
 3842SOL    HW113726   6.577   1.921   5.536 -1.0046 -1.2404  0.0496
 3842SOL    HW213727   6.484   1.942   5.419 -1.0569  0.3004  0.3381
 3843SOL     OW13728   7.626   6.593   4.856  0.2160 -0.0589 -0.3823
 3843SOL    HW113729   7.606   6.552   4.771 -1.7812  0.8531 -0.4224
 3843SOL    HW213730   7.586   6.681   4.849  0.6604  0.2899  1.2346
 3844SOL     OW13731   5.762   6.346   2.817  0.2678  0.3420 -0.0228
 3844SOL    HW113732   5.800   6.381   2.736  0.6173  1.1421  0.4761
 3844SOL    HW213733   5.774   6.251   2.809  2.2045  0.5352  0.0074
 3845SOL     OW13734   8.097   1.019   6.291  0.5853  0.0761  0.1100
 3845SOL    HW113735   8.004   1.004   6.275  0.8956 -0.8007 -1.0194
 3845SOL    HW213736   8.133   0.931   6.305  1.4334  0.2852 -0.6502
 3846SOL     OW13737   0.955   7.145   4.887  0.5087  0.2043 -0.0405
 3846SOL    HW113738   1.006   7.166   4.965 -0.2104 -1.0386  0.7906
 3846SOL    HW213739   0.982   7.057   4.863  0.4239  0.4188 -0.9684
 3847SOL     OW13740   3.151   3.634   3.733  0.4092  0.4396  0.8185
 3847SOL    HW113741   3.139   3.595   3.820 -1.7247  0.7642  0.7279
 3847SOL    HW213742   3.090   3.708   3.731  1.3464  1.2279 -0.5137
 3848SOL     OW13743   4.725   7.250   5.842 -0.0270 -0.4955 -0.3654
 3848SOL    HW113744   4.682   7.173   5.879 -0.5236 -0.1815 -0.2898
 3848SOL    HW213745   4.763   7.295   5.918  0.2441 -0.6485 -0.4072
 3849SOL     OW13746   6.133   0.137   8.909  0.4458 -0.4631 -0.3190
 3849SOL    HW113747   6.147   0.232   8.913  1.1272 -0.5180 -1.0457
 3849SOL    HW213748   6.074   0.124   8.835  0.8766 -0.6493 -0.6349
 3850SOL     OW13749   3.538   2.045   1.784  0.2344  0.1082  0.0792
 3850SOL    HW113750   3.600   1.989   1.832  1.8591  1.6616 -0.1199
 3850SOL    HW213751   3.543   2.129   1.829  0.6632  1.1701 -1.8651
 3851SOL     OW13752   2.404   5.753   3.654  0.1145  0.4167  0.1868
 3851SOL    HW113753   2.383   5.678   3.599  0.5824 -1.1300  2.0398
 3851SOL    HW213754   2.365   5.828   3.608 -1.0899 -1.0387 -1.2722
 3852SOL     OW13755   7.638   0.757   2.044 -0.1995 -0.0721 -0.4332
 3852SOL    HW113756   7.675   0.841   2.071  1.0489 -0.3979 -1.0620
 3852SOL    HW213757   7.643   0.703   2.123 -0.3933  0.2376 -0.2055
 3853SOL     OW13758   7.152   6.249   3.654 -0.0129  0.4785  0.2271
 3853SOL    HW113759   7.206   6.222   3.728 -1.1595  0.4664  1.0895
 3853SOL    HW213760   7.186   6.335   3.630  0.2846  0.5467  0.8681
 3854SOL     OW13761   1.119   3.469   5.525 -0.3515  0.0325  0.7445
 3854SOL    HW113762   1.082   3.527   5.591 -1.1374 -1.4398  1.6794
 3854SOL    HW213763   1.143   3.390   5.574  1.5043 -0.1195 -0.3140
 3855SOL     OW13764   6.172   1.870   7.179  0.0377 -0.0991  0.1062
 3855SOL    HW113765   6.130   1.956   7.182 -0.3739 -0.2196 -1.5217
 3855SOL    HW213766   6.221   1.870   7.097  1.2795 -0.8779  0.8136
 3856SOL     OW13767   3.819   7.910   2.456  0.1032 -0.3119  0.3910
 3856SOL    HW113768   3.788   7.976   2.393 -0.6527 -1.2455 -0.2403
 3856SOL    HW213769   3.830   7.831   2.405  2.1769 -0.4033  0.9157
 3857SOL     OW13770   3.253   3.371   8.818 -0.0868 -0.6430  0.3800
 3857SOL    HW113771   3.281   3.460   8.839  2.9704 -1.2250 -0.7028
 3857SOL    HW213772   3.207   3.379   8.734 -2.1500  0.1745  1.5264
 3858SOL     OW13773   7.221   1.118   3.025  0.2502 -0.1266  0.7611
 3858SOL    HW113774   7.144   1.126   3.080 -0.7506 -1.2544 -0.3862
 3858SOL    HW213775   7.200   1.045   2.965  1.5731  0.5363 -0.5855
 3859SOL     OW13776   3.107   8.934   8.762 -0.1350  0.0554 -0.2401
 3859SOL    HW113777   3.198   8.950   8.790  0.5812 -0.8976 -1.8627
 3859SOL    HW213778   3.111   8.851   8.715 -1.7519  0.2876 -0.8573
 3860SOL     OW13779   4.243   6.289   3.607 -0.0581  0.2814 -0.0161
 3860SOL    HW113780   4.209   6.199   3.616 -0.6110  0.4038 -0.7576
 3860SOL    HW213781   4.167   6.345   3.624 -0.6400  0.5535 -2.8426
 3861SOL     OW13782   3.040   4.853   7.235 -0.3913  0.0404 -0.0366
 3861SOL    HW113783   3.097   4.880   7.163  0.8103  0.6023  1.0920
 3861SOL    HW213784   2.989   4.780   7.199  1.7367 -1.1564 -0.8031
 3862SOL     OW13785   3.211   1.651   2.553  0.3561 -0.2741  0.0515
 3862SOL    HW113786   3.140   1.649   2.617  0.8037 -0.7372  0.5446
 3862SOL    HW213787   3.236   1.559   2.543  1.1655 -0.0714  0.2015
 3863SOL     OW13788   5.635   1.381   6.141 -0.4995  0.0212  0.5597
 3863SOL    HW113789   5.607   1.325   6.068  0.2260  0.2367  0.0983
 3863SOL    HW213790   5.689   1.449   6.099 -0.1710  0.2164  1.2851
 3864SOL     OW13791   3.378   4.818   1.591 -0.1287  0.1363  0.1083
 3864SOL    HW113792   3.309   4.882   1.571  0.5320  0.4659 -1.2575
 3864SOL    HW213793   3.450   4.871   1.625  0.7979  0.3014 -1.9802
 3865SOL     OW13794   1.989   4.876   9.212  0.0287  0.2314  0.4896
 3865SOL    HW113795   1.947   4.826   9.143 -1.5504  0.5509  1.1856
 3865SOL    HW213796   2.068   4.912   9.171  0.9178 -2.2893 -0.1832
 3866SOL     OW13797   5.410   6.629   0.726  0.1062  0.2495  0.4801
 3866SOL    HW113798   5.399   6.553   0.783 -1.6913  0.6426  0.7104
 3866SOL    HW213799   5.422   6.591   0.639  2.5703 -0.3468  1.0095
 3867SOL     OW13800   9.318   7.933   7.598 -0.1837  0.4277 -0.4576
 3867SOL    HW113801   9.228   7.943   7.569  0.1341 -1.0153 -2.1173
 3867SOL    HW213802   9.371   7.949   7.519  0.9004 -0.5321  0.0427
 3868SOL     OW13803   3.636   6.229   4.271 -0.1034 -0.1597 -0.2404
 3868SOL    HW113804   3.711   6.173   4.252 -1.0752 -2.1500  1.3932
 3868SOL    HW213805   3.675   6.311   4.301  1.3621  0.2994 -3.0102
 3869SOL     OW13806   6.941   0.239   5.566 -0.0755 -0.0849  0.2773
 3869SOL    HW113807   6.915   0.327   5.538 -0.7006 -0.9612 -2.1542
 3869SOL    HW213808   6.899   0.181   5.503  2.4128 -1.9768  0.2364
 3870SOL     OW13809   8.357   7.481   3.849 -0.0282  0.0699 -0.2374
 3870SOL    HW113810   8.269   7.445   3.861  0.6790 -1.3392  1.1091
 3870SOL    HW213811   8.349   7.572   3.877 -1.1025  0.0102 -0.3037
 3871SOL     OW13812   5.637   8.158   7.133 -0.1542 -0.4717  0.0774
 3871SOL    HW113813   5.665   8.066   7.134  0.9052 -0.1842 -0.7507
 3871SOL    HW213814   5.670   8.192   7.050 -1.5536  0.3622 -0.1618
 3872SOL     OW13815   2.799   4.411   2.838  0.5956  0.2410  0.0594
 3872SOL    HW113816   2.852   4.491   2.839  1.1647  0.0435 -3.2437
 3872SOL    HW213817   2.862   4.340   2.835  0.1056 -0.2097  0.2706
 3873SOL     OW13818   2.861   7.310   8.772  0.0454  0.0276 -0.3728
 3873SOL    HW113819   2.841   7.397   8.808  0.3276  0.2961 -0.8489
 3873SOL    HW213820   2.942   7.285   8.816  0.4258  0.3841 -0.8607
 3874SOL     OW13821   6.886   2.053   4.495 -0.5766 -0.0663  0.0946
 3874SOL    HW113822   6.956   2.093   4.443 -1.0616  0.9975  0.2097
 3874SOL    HW213823   6.930   1.995   4.556  0.1797  0.3172 -0.0740
 3875SOL     OW13824   7.905   0.220   7.927  0.4240 -0.0369  0.6116
 3875SOL    HW113825   7.988   0.239   7.884 -0.7089  2.2871 -0.7327
 3875SOL    HW213826   7.914   0.256   8.016  1.5289 -1.6627  1.1920
 3876SOL     OW13827   5.308   7.559   7.381 -0.0849  0.3000  0.4642
 3876SOL    HW113828   5.361   7.480   7.369 -2.3210 -1.1100 -0.8067
 3876SOL    HW213829   5.322   7.610   7.302  0.3506  0.5604  0.7051
 3877SOL     OW13830   7.132   6.807   7.073  0.2511 -0.0661 -0.1585
 3877SOL    HW113831   7.112   6.820   7.166 -1.4998 -1.5149 -0.2936
 3877SOL    HW213832   7.050   6.826   7.028  0.6633 -0.8454 -1.2794
 3878SOL     OW13833   6.748   0.493   4.540  0.2327 -0.4627 -0.2707
 3878SOL    HW113834   6.743   0.410   4.494 -0.5232 -0.6737  0.1774
 3878SOL    HW213835   6.658   0.512   4.566  0.5207  0.0585  0.3938
 3879SOL     OW13836   5.490   4.877   2.010  0.0752 -0.0099 -0.8818
 3879SOL    HW113837   5.462   4.823   2.084  0.6375  1.2128  0.2701
 3879SOL    HW213838   5.456   4.965   2.030  3.0312  1.1276 -0.2949
 3880SOL     OW13839   0.088   2.566   7.932 -0.1773 -0.5636  0.2977
 3880SOL    HW113840   0.021   2.629   7.959 -0.4913 -1.5759  1.9657
 3880SOL    HW213841   0.080   2.563   7.836 -1.5546  0.3698  0.3544
 3881SOL     OW13842   1.318   3.277   6.718  0.4663 -0.5245 -0.2615
 3881SOL    HW113843   1.409   3.285   6.746  0.3963 -0.3456 -0.0869
 3881SOL    HW213844   1.276   3.226   6.787  0.3634 -0.3442 -0.1897
 3882SOL     OW13845   9.425   2.874   4.336  0.3791  0.6894  0.1206
 3882SOL    HW113846   9.453   2.879   4.427  2.0618 -1.4404 -0.1948
 3882SOL    HW213847   9.417   2.966   4.309  3.5064  1.4863  1.3875
 3883SOL     OW13848   3.731   7.672   2.973 -0.4054  0.3128  0.0085
 3883SOL    HW113849   3.742   7.692   3.066 -2.0736 -0.6767  0.4707
 3883SOL    HW213850   3.766   7.583   2.963 -1.0238  0.0716 -0.0916
 3884SOL     OW13851   0.167   2.792   4.248 -0.2834  0.0502  0.1462
 3884SOL    HW113852   0.136   2.853   4.315 -1.1258 -0.9214  0.6608
 3884SOL    HW213853   0.259   2.778   4.270  0.1930  1.8430 -0.5420
 3885SOL     OW13854   4.755   7.400   1.042 -0.1408 -0.3139  0.0869
 3885SOL    HW113855   4.841   7.412   1.001 -0.4365  2.7177  0.0996
 3885SOL    HW213856   4.732   7.487   1.076 -3.0429 -1.0966  0.4360
 3886SOL     OW13857   7.910   4.651   2.168  0.3536  0.0298 -0.3215
 3886SOL    HW113858   7.882   4.567   2.206  1.5890 -0.6141 -0.7951
 3886SOL    HW213859   7.999   4.635   2.136 -0.1820  0.8841 -2.4043
 3887SOL     OW13860   0.618   0.715   8.270 -0.1028 -0.2812 -0.1836
 3887SOL    HW113861   0.600   0.714   8.176 -2.2988  1.2713  0.1545
 3887SOL    HW213862   0.671   0.793   8.284  0.0807 -0.4209 -0.0785
 3888SOL     OW13863   2.112   1.829   1.633 -0.0000 -0.0098 -0.3127
 3888SOL    HW113864   2.182   1.768   1.609  0.4709  0.3958  0.0209
 3888SOL    HW213865   2.120   1.839   1.727  0.1504  0.8330 -0.4051
 3889SOL     OW13866   2.381   2.010   6.871  0.0729 -0.2262 -0.1833
 3889SOL    HW113867   2.463   1.979   6.910  0.6924 -0.0803 -1.3420
 3889SOL    HW213868   2.376   1.965   6.787 -0.4357  0.6854 -0.6496
 3890SOL     OW13869   4.893   4.132   8.369 -0.2845  0.4124  0.3939
 3890SOL    HW113870   4.881   4.192   8.443  0.0983 -0.5396  1.2496
 3890SOL    HW213871   4.904   4.046   8.410  0.4425 -0.0579 -0.7568
 3891SOL     OW13872   7.962   5.175   9.028 -0.0685 -0.4488  0.7535
 3891SOL    HW113873   7.970   5.269   9.042  0.2727 -0.3908  0.1961
 3891SOL    HW213874   7.927   5.141   9.111  0.2565  0.1007  1.1198
 3892SOL     OW13875   3.995   9.451   7.818 -0.2274  0.0119  0.6130
 3892SOL    HW113876   3.945   9.369   7.814  2.7259 -1.9129 -0.1004
 3892SOL    HW213877   3.951   9.509   7.757  0.7523 -3.0926 -3.4548
 3893SOL     OW13878   0.432   7.382   1.215  0.1198  0.8143  0.1992
 3893SOL    HW113879   0.411   7.377   1.122  1.7801  1.6946 -0.2607
 3893SOL    HW213880   0.443   7.290   1.241  2.2161  0.6003 -1.1523
 3894SOL     OW13881   6.249   7.477   7.658 -0.3658 -0.2944 -0.1835
 3894SOL    HW113882   6.301   7.399   7.638 -0.7448  0.0561 -2.8146
 3894SOL    HW213883   6.311   7.550   7.651 -0.0727 -0.2425  2.0155
 3895SOL     OW13884   0.146   6.844   5.984  0.3003 -0.1039  0.5094
 3895SOL    HW113885   0.172   6.889   6.064  0.5176  1.5303 -0.4282
 3895SOL    HW213886   0.050   6.841   5.989  0.2829  0.4867  0.5782
 3896SOL     OW13887   4.136   8.305   5.164  0.3755  0.8781  0.4396
 3896SOL    HW113888   4.216   8.266   5.127  0.3742  0.4021  0.9290
 3896SOL    HW213889   4.167   8.363   5.233  0.2343 -0.4737  1.6736
 3897SOL     OW13890   0.093   8.190   6.683  0.1544 -0.4137  0.2123
 3897SOL    HW113891   0.036   8.251   6.636  0.5845  1.5509  2.0548
 3897SOL    HW213892   0.042   8.110   6.688 -2.0412  0.9207  0.7934
 3898SOL     OW13893   5.223   9.350   7.439  0.1921  0.0466  0.4082
 3898SOL    HW113894   5.318   9.357   7.445  0.3343 -1.3388  0.0594
 3898SOL    HW213895   5.200   9.399   7.360  0.1984  3.2028  2.1685
 3899SOL     OW13896   9.398   3.940   1.324 -0.0777 -0.2661 -0.1165
 3899SOL    HW113897   9.352   3.984   1.252  1.0359  0.6924 -0.2871
 3899SOL    HW213898   9.491   3.950   1.301  0.2843 -0.1802  1.3280
 3900SOL     OW13899   9.094   9.402   7.888 -0.2642  0.2793  0.1965
 3900SOL    HW113900   9.044   9.422   7.809 -0.3373  0.9607  0.4127
 3900SOL    HW213901   9.122   9.487   7.921 -1.8949  0.1752  2.0033
 3901SOL     OW13902   4.040   1.295   6.255 -0.2934  0.1549 -0.1619
 3901SOL    HW113903   4.049   1.265   6.346 -2.7250  2.1179  0.8412
 3901SOL    HW213904   4.131   1.304   6.224  0.6249 -0.2711  2.1609
 3902SOL     OW13905   3.076   4.039   2.380  0.2022 -0.6571  0.2292
 3902SOL    HW113906   3.039   3.992   2.306 -0.5770  0.4673 -0.1093
 3902SOL    HW213907   3.171   4.026   2.371  0.0742 -1.1516 -0.5199
 3903SOL     OW13908   7.734   0.038   6.906  0.3429  0.5548 -0.5446
 3903SOL    HW113909   7.732   0.026   7.001  1.4388 -2.8679 -0.8018
 3903SOL    HW213910   7.820   0.076   6.888  0.0064  1.5220 -0.1943
 3904SOL     OW13911   7.494   8.570   3.403 -0.8928  0.2003  0.1431
 3904SOL    HW113912   7.494   8.598   3.494 -0.0847  0.3597  0.1037
 3904SOL    HW213913   7.528   8.480   3.406 -2.5890 -0.4765  0.1753
 3905SOL     OW13914   8.129   5.794   6.404 -0.1609 -0.0480 -0.3646
 3905SOL    HW113915   8.071   5.775   6.331  0.4161  3.2170 -1.8648
 3905SOL    HW213916   8.188   5.863   6.371  0.5719  1.1257  2.9459
 3906SOL     OW13917   3.600   7.412   9.032 -0.2395 -0.2921  0.5378
 3906SOL    HW113918   3.622   7.342   8.970 -2.1188  0.0937 -0.6611
 3906SOL    HW213919   3.518   7.448   8.999  0.7456  2.6439  0.9797
 3907SOL     OW13920   8.148   0.935   0.892 -0.3452 -0.0146  0.3028
 3907SOL    HW113921   8.123   0.880   0.967 -0.0152 -0.4697  0.0822
 3907SOL    HW213922   8.242   0.923   0.883  0.0295  1.8507  1.2523
 3908SOL     OW13923   7.492   0.915   4.050 -0.3013  0.4253 -0.0942
 3908SOL    HW113924   7.499   0.824   4.023  0.1379  0.5562 -0.4279
 3908SOL    HW213925   7.459   0.911   4.140 -0.9482 -0.0357 -0.3480
 3909SOL     OW13926   4.379   3.260   8.390  0.0192 -0.5658  0.1948
 3909SOL    HW113927   4.339   3.175   8.407 -1.7288  0.3268  0.7318
 3909SOL    HW213928   4.438   3.274   8.464  0.1913 -1.2081  0.1896
 3910SOL     OW13929   7.621   2.423   6.377 -0.3802  0.0662  0.1625
 3910SOL    HW113930   7.679   2.351   6.401 -0.0030 -0.0503 -1.0696
 3910SOL    HW213931   7.541   2.407   6.427  0.4330 -0.0593  1.4798
 3911SOL     OW13932   7.846   1.084   2.497 -0.0372 -0.4817  0.3847
 3911SOL    HW113933   7.796   1.098   2.578 -0.9617  0.6196 -0.3463
 3911SOL    HW213934   7.869   1.172   2.468  0.4891 -0.8808 -0.4278
 3912SOL     OW13935   2.720   3.001   1.586  0.1901 -0.2010 -0.9101
 3912SOL    HW113936   2.761   3.086   1.603  1.4161 -0.4982 -2.2519
 3912SOL    HW213937   2.676   3.012   1.502  2.4639 -1.5615 -2.3820
 3913SOL     OW13938   0.548   2.579   0.857 -0.3450 -0.2280  0.5184
 3913SOL    HW113939   0.454   2.593   0.867 -0.1527  0.3871  1.6141
 3913SOL    HW213940   0.587   2.622   0.933  0.8757  0.0847 -0.2500
 3914SOL     OW13941   3.682   4.390   8.248 -0.1220 -0.2565 -0.4763
 3914SOL    HW113942   3.747   4.403   8.178  0.5819 -1.1263 -0.0033
 3914SOL    HW213943   3.601   4.371   8.202 -0.0373  0.7788 -1.0818
 3915SOL     OW13944   1.225   1.487   6.697 -0.8011  0.3665  0.2095
 3915SOL    HW113945   1.248   1.580   6.697 -1.3617  0.5076 -0.2792
 3915SOL    HW213946   1.180   1.474   6.781 -0.4753  0.4723  0.4016
 3916SOL     OW13947   2.586   5.152   5.162  0.6000 -0.3006 -0.1352
 3916SOL    HW113948   2.585   5.173   5.069  2.0944  2.6403  0.3719
 3916SOL    HW213949   2.657   5.088   5.172  1.3349  0.3698 -0.8890
 3917SOL     OW13950   4.768   7.018   0.079 -0.1060  0.1513 -0.0900
 3917SOL    HW113951   4.722   7.100   0.094  1.6102  0.8593  1.6464
 3917SOL    HW213952   4.855   7.044   0.049 -0.1001 -1.0966 -1.2926
 3918SOL     OW13953   5.401   2.946   6.581  0.0280  0.5413 -0.0137
 3918SOL    HW113954   5.305   2.940   6.579  0.0805 -0.6530  0.2043
 3918SOL    HW213955   5.426   2.951   6.489 -0.1849 -0.9150 -0.1837
 3919SOL     OW13956   5.892   3.007   0.643  0.3151  0.2619  0.8275
 3919SOL    HW113957   5.837   2.961   0.580  0.8954  1.0331 -0.2752
 3919SOL    HW213958   5.965   2.948   0.660  0.1047  0.0114  0.8613
 3920SOL     OW13959   3.037   4.997   5.058  0.2226 -0.2915  0.3741
 3920SOL    HW113960   2.968   5.037   5.110  0.1566  0.3940 -0.2218
 3920SOL    HW213961   3.093   5.070   5.031  0.0990 -0.5827 -0.7342
 3921SOL     OW13962   9.317   8.994   4.643 -0.1197  0.3576  0.4987
 3921SOL    HW113963   9.313   9.003   4.548  1.4838  0.1707  0.3804
 3921SOL    HW213964   9.226   9.002   4.672 -0.4781  1.8582 -0.9100
 3922SOL     OW13965   5.475   2.356   1.900 -0.6270 -0.2235 -0.2808
 3922SOL    HW113966   5.439   2.379   1.815  1.8876 -1.1862 -1.7311
 3922SOL    HW213967   5.453   2.429   1.957 -0.5979  1.4668 -2.3401
 3923SOL     OW13968   3.213   8.523   2.045  0.2315 -0.1873  0.0048
 3923SOL    HW113969   3.297   8.479   2.030 -0.5569 -1.7199 -0.1441
 3923SOL    HW213970   3.156   8.487   1.977 -0.6381  0.6061  0.3063
 3924SOL     OW13971   5.819   2.617   9.577 -0.2241  0.7247  0.0497
 3924SOL    HW113972   5.744   2.605   9.635  1.2278 -0.3032  1.8214
 3924SOL    HW213973   5.889   2.563   9.615  1.2356  1.0947 -1.9011
 3925SOL     OW13974   5.333   2.369   8.455 -0.0711 -0.6463 -0.0431
 3925SOL    HW113975   5.342   2.290   8.401 -0.7098 -0.2554 -0.7389
 3925SOL    HW213976   5.422   2.403   8.463  0.3040 -1.7378  0.7506
 3926SOL     OW13977   9.274   3.452   1.767  0.1047 -0.3896 -0.1761
 3926SOL    HW113978   9.245   3.456   1.858 -0.1226 -2.4823 -0.0953
 3926SOL    HW213979   9.368   3.467   1.771 -0.2205  1.9592  0.0785
 3927SOL     OW13980   9.377   4.233   9.141 -0.3283  0.5092  0.6342
 3927SOL    HW113981   9.311   4.166   9.120  2.7173 -2.3604 -0.6798
 3927SOL    HW213982   9.361   4.253   9.234 -1.4719 -2.0341  1.0897
 3928SOL     OW13983   7.290   8.894   1.289  0.6397  0.7828  0.5886
 3928SOL    HW113984   7.228   8.830   1.326  0.4798  0.1747 -0.6741
 3928SOL    HW213985   7.373   8.846   1.283  0.3387  0.4351 -1.0514
 3929SOL     OW13986   1.411   8.935   2.765 -0.0787  0.2407 -0.4083
 3929SOL    HW113987   1.408   8.970   2.675 -2.0618 -1.6473 -1.1592
 3929SOL    HW213988   1.323   8.951   2.800 -0.0268 -1.0462  0.3632
 3930SOL     OW13989   2.870   8.734   7.079 -0.1442  0.2845 -0.1713
 3930SOL    HW113990   2.805   8.669   7.106 -0.2324  0.5130  0.1640
 3930SOL    HW213991   2.838   8.817   7.116 -0.1266  0.5529 -0.7454
 3931SOL     OW13992   6.494   7.413   4.700  0.4413  0.0023  0.0133
 3931SOL    HW113993   6.496   7.503   4.732  2.1957 -0.7636  2.3459
 3931SOL    HW213994   6.586   7.386   4.697 -0.0712 -1.9191  0.0352
 3932SOL     OW13995   5.962   9.431   1.025 -0.4557  0.5142  0.5711
 3932SOL    HW113996   5.960   9.527   1.024 -1.0039  0.5053  0.5308
 3932SOL    HW213997   5.904   9.407   1.097 -2.0885  0.1823 -0.7877
 3933SOL     OW13998   6.198   3.249   7.418 -0.5964 -0.4871  0.0406
 3933SOL    HW113999   6.235   3.314   7.359  0.0454 -0.6158  0.2901
 3933SOL    HW214000   6.272   3.192   7.440 -0.6279  0.0134  1.5862
 3934SOL     OW14001   2.495   6.467   8.919  0.1213 -0.3216  0.0366
 3934SOL    HW114002   2.583   6.484   8.953  0.2283 -0.1512 -0.3153
 3934SOL    HW214003   2.462   6.394   8.972  0.8564 -1.0460 -0.4632
 3935SOL     OW14004   9.424   9.364   9.286  0.2772  0.2975  0.3093
 3935SOL    HW114005   9.357   9.399   9.344 -0.3207 -1.6876  0.8927
 3935SOL    HW214006   9.398   9.393   9.199 -1.3642 -0.4327  0.5278
 3936SOL     OW14007   7.128   4.529   8.207 -0.0765 -0.2314 -0.6161
 3936SOL    HW114008   7.188   4.484   8.266  0.3287  0.3873 -0.5527
 3936SOL    HW214009   7.090   4.460   8.153 -1.0355 -0.9212  0.8721
 3937SOL     OW14010   5.096   9.365   1.306 -0.0981 -0.1458 -0.5360
 3937SOL    HW114011   5.140   9.323   1.232  1.8481 -1.1029  1.0805
 3937SOL    HW214012   5.065   9.292   1.360  0.4500  0.5124  0.6896
 3938SOL     OW14013   7.137   2.913   8.907 -0.6821 -0.2195 -0.3075
 3938SOL    HW114014   7.121   2.990   8.962  1.0217 -0.0142 -0.0493
 3938SOL    HW214015   7.063   2.912   8.846 -0.3933  2.0358 -0.7837
 3939SOL     OW14016   4.107   5.472   1.613 -0.2975  0.0279  0.4458
 3939SOL    HW114017   4.046   5.416   1.565 -0.8839 -1.0319  2.3065
 3939SOL    HW214018   4.191   5.427   1.607  0.1210  0.9431 -1.2192
 3940SOL     OW14019   1.901   1.225   3.629  0.1636 -0.0474  0.0913
 3940SOL    HW114020   1.808   1.210   3.642  0.4891 -1.4740  1.0330
 3940SOL    HW214021   1.930   1.268   3.709  0.7431 -1.8689  0.9130
 3941SOL     OW14022   4.432   3.293   8.880  0.5341 -0.3253  0.2376
 3941SOL    HW114023   4.434   3.224   8.814 -0.2043 -0.8161  0.7246
 3941SOL    HW214024   4.340   3.319   8.886  0.7237  0.3276  0.4474
 3942SOL     OW14025   4.620   9.359   1.175 -0.1730 -0.2072  0.0872
 3942SOL    HW114026   4.626   9.441   1.126 -1.0292  0.1255  0.5314
 3942SOL    HW214027   4.547   9.312   1.135  0.1262 -0.6270  0.0282
 3943SOL     OW14028   8.241   4.802   0.783 -0.5267 -0.5020 -0.3418
 3943SOL    HW114029   8.202   4.881   0.744 -2.1636 -1.8790 -1.6853
 3943SOL    HW214030   8.166   4.753   0.817  0.5510 -1.0436  1.3546
 3944SOL     OW14031   6.368   6.492   2.166  0.0499 -0.2688  0.4313
 3944SOL    HW114032   6.407   6.579   2.171  1.1596 -0.6099 -1.4103
 3944SOL    HW214033   6.274   6.508   2.155  0.1369  0.6612  0.9604
 3945SOL     OW14034   5.060   6.601   1.289 -0.0889  0.3821  0.3180
 3945SOL    HW114035   5.046   6.639   1.202 -0.2264  1.9006  0.9701
 3945SOL    HW214036   4.973   6.605   1.331  0.3051  1.2592  1.1035
 3946SOL     OW14037   3.510   3.601   4.163  0.5261  0.8893 -0.7131
 3946SOL    HW114038   3.526   3.523   4.109  0.5970 -1.0915  1.9517
 3946SOL    HW214039   3.425   3.585   4.204  1.7144  0.7910  1.9606
 3947SOL     OW14040   1.985   6.244   3.216  0.5708  0.0772 -0.3667
 3947SOL    HW114041   2.013   6.275   3.131  0.3265  0.7895 -0.1964
 3947SOL    HW214042   2.010   6.313   3.277  0.0140 -0.0491  0.0224
 3948SOL     OW14043   8.496   0.167   7.474 -0.3124 -0.1195  0.0061
 3948SOL    HW114044   8.553   0.116   7.530 -2.6631  0.7941  3.5822
 3948SOL    HW214045   8.407   0.137   7.497 -1.5349  2.5077 -0.9075
 3949SOL     OW14046   4.822   6.207   1.958 -0.2888 -0.5658 -0.1079
 3949SOL    HW114047   4.769   6.196   2.036 -2.5701 -0.4702 -1.5649
 3949SOL    HW214048   4.823   6.301   1.942 -0.3865 -0.6386 -0.5591
 3950SOL     OW14049   3.845   6.574   5.596 -0.4580  0.6312 -0.3671
 3950SOL    HW114050   3.822   6.535   5.512 -0.5920 -2.9667  1.1541
 3950SOL    HW214051   3.761   6.603   5.632 -0.6109  0.7534 -0.8180
 3951SOL     OW14052   3.760   9.085   8.650  0.2940 -0.4709 -0.2370
 3951SOL    HW114053   3.841   9.035   8.656  0.7976 -0.0366 -2.5792
 3951SOL    HW214054   3.716   9.051   8.572 -1.3836 -0.1078  0.5008
 3952SOL     OW14055   6.201   6.501   9.293  0.1324 -0.1444  0.5742
 3952SOL    HW114056   6.282   6.452   9.282  0.8699  1.4082 -1.5292
 3952SOL    HW214057   6.137   6.453   9.240  0.2906 -0.0416  0.2903
 3953SOL     OW14058   0.725   7.040   5.498  0.6769 -0.1696  0.0232
 3953SOL    HW114059   0.735   7.012   5.406  2.8803 -0.6911  0.3547
 3953SOL    HW214060   0.639   7.080   5.502  0.6080  0.0561 -2.3378
 3954SOL     OW14061   7.639   1.712   3.822 -0.2445 -0.7793  0.2816
 3954SOL    HW114062   7.597   1.666   3.895  0.1032  0.5859  1.3837
 3954SOL    HW214063   7.717   1.752   3.860  0.8359 -1.3695 -1.2231
 3955SOL     OW14064   2.715   3.931   1.292  0.0637  0.3880 -0.1983
 3955SOL    HW114065   2.651   3.878   1.246 -0.0273  0.6928 -0.4262
 3955SOL    HW214066   2.665   3.973   1.363 -0.2275  1.4204 -0.9826
 3956SOL     OW14067   2.771   8.157   1.392 -0.2213 -0.0721  0.5538
 3956SOL    HW114068   2.750   8.247   1.416 -0.9825 -0.0053 -0.2989
 3956SOL    HW214069   2.717   8.103   1.450 -0.2604  0.0364  0.6182
 3957SOL     OW14070   8.828   4.567   5.820 -0.3101 -0.0788 -0.3338
 3957SOL    HW114071   8.797   4.516   5.895 -0.6647  1.6413  0.7463
 3957SOL    HW214072   8.748   4.594   5.775 -0.1046 -0.9161 -1.2424
 3958SOL     OW14073   6.070   4.444   6.387 -0.0442 -0.6229 -0.1707
 3958SOL    HW114074   6.034   4.363   6.352 -1.4426 -0.1677  0.1355
 3958SOL    HW214075   5.993   4.496   6.412  0.8280  0.5263  0.2475
 3959SOL     OW14076   3.881   1.328   0.762 -0.1719 -0.1330 -0.4021
 3959SOL    HW114077   3.940   1.260   0.729 -0.4914 -0.1991 -0.8493
 3959SOL    HW214078   3.937   1.406   0.770  0.0230 -0.2451 -0.6393
 3960SOL     OW14079   4.428   0.740   8.959 -0.5273 -0.0766 -0.3213
 3960SOL    HW114080   4.363   0.796   9.001  0.5942 -0.0644  1.5301
 3960SOL    HW214081   4.509   0.792   8.961  0.0474 -0.9349 -0.5114
 3961SOL     OW14082   8.649   1.407   5.236  0.5144 -0.2784  0.2447
 3961SOL    HW114083   8.743   1.422   5.246  0.4889  0.0166  0.0494
 3961SOL    HW214084   8.616   1.488   5.200 -0.1013  0.3166  2.0370
 3962SOL     OW14085   8.049   2.253   1.855  0.1434 -0.1763  0.5021
 3962SOL    HW114086   8.012   2.339   1.838 -0.2687 -0.1440  1.4570
 3962SOL    HW214087   7.973   2.197   1.872  0.4682 -0.3278  1.5588
 3963SOL     OW14088   2.444   1.873   6.654 -0.5681  0.5258  0.6195
 3963SOL    HW114089   2.423   1.785   6.623  0.7789  0.4599 -0.1657
 3963SOL    HW214090   2.428   1.930   6.579  0.7167  0.6438  0.4208
 3964SOL     OW14091   6.865   5.601   4.598  0.5267 -0.3842 -0.3560
 3964SOL    HW114092   6.882   5.639   4.684 -0.4726  0.5443 -0.5336
 3964SOL    HW214093   6.798   5.534   4.613  0.4050 -0.2719 -0.3878
 3965SOL     OW14094   4.860   2.947   6.069  0.3704 -0.5819 -0.0988
 3965SOL    HW114095   4.853   3.033   6.110  0.0484 -0.6031 -0.1096
 3965SOL    HW214096   4.870   2.886   6.142 -1.4976 -0.7628  0.0348
 3966SOL     OW14097   8.912   2.188   8.910  0.5960  0.5109  0.5108
 3966SOL    HW114098   8.869   2.245   8.846  1.0284  0.7517  0.4357
 3966SOL    HW214099   8.865   2.104   8.903 -0.4650  1.0281  1.0662
 3967SOL     OW14100   1.613   0.094   7.164 -0.2353  0.2428  0.3914
 3967SOL    HW114101   1.664   0.032   7.112 -0.5329  0.9215 -0.7594
 3967SOL    HW214102   1.632   0.071   7.255  0.7733 -0.6086 -0.0127
 3968SOL     OW14103   3.653   0.557   6.721 -0.6987 -0.1339  0.2363
 3968SOL    HW114104   3.713   0.524   6.788  1.0726  0.3787 -1.0122
 3968SOL    HW214105   3.663   0.497   6.647 -0.3371  0.9721 -0.6443
 3969SOL     OW14106   2.715   8.038   3.878 -0.1424 -0.2157 -0.6436
 3969SOL    HW114107   2.792   8.018   3.824 -0.8401 -1.7482 -1.1140
 3969SOL    HW214108   2.663   7.958   3.876 -0.5770 -0.0516  1.6764
 3970SOL     OW14109   1.144   0.522   2.413 -0.2983 -0.6486  0.3875
 3970SOL    HW114110   1.087   0.558   2.482 -0.6788 -0.2751 -0.1131
 3970SOL    HW214111   1.086   0.510   2.338 -0.0383 -1.7363  0.3484
 3971SOL     OW14112   8.538   3.041   0.401  0.0148 -0.0270  0.1666
 3971SOL    HW114113   8.505   3.077   0.483  0.1042 -0.8731  0.5830
 3971SOL    HW214114   8.487   2.962   0.386  1.8170 -1.3895  0.8517
 3972SOL     OW14115   5.373   0.386   9.321 -0.5651  0.2907 -0.4292
 3972SOL    HW114116   5.299   0.329   9.339 -1.3983  0.8868 -1.7604
 3972SOL    HW214117   5.429   0.379   9.398 -1.1623 -1.4898 -0.1255
 3973SOL     OW14118   2.064   7.922   4.026  0.4837  0.2655 -0.1556
 3973SOL    HW114119   2.090   8.014   4.017 -2.4929  1.2273 -0.2102
 3973SOL    HW214120   2.001   7.923   4.099 -0.3662 -1.5558 -0.8131
 3974SOL     OW14121   8.470   2.302   5.472 -0.2434  0.5956  0.6110
 3974SOL    HW114122   8.434   2.378   5.516  1.3118  1.2095  0.9119
 3974SOL    HW214123   8.563   2.302   5.497 -0.0247 -0.8903 -0.0891
 3975SOL     OW14124   5.631   1.641   6.667 -0.3516 -0.5150 -0.0395
 3975SOL    HW114125   5.538   1.634   6.689 -0.9721 -1.8638 -2.7221
 3975SOL    HW214126   5.638   1.724   6.620 -0.2855 -0.5939 -0.1696
 3976SOL     OW14127   1.761   5.884   6.424  0.3402 -0.7040 -0.1890
 3976SOL    HW114128   1.781   5.791   6.437 -0.3621 -0.6864  1.1587
 3976SOL    HW214129   1.839   5.929   6.456 -0.0347 -0.7801  0.8549
 3977SOL     OW14130   8.347   7.059   2.227 -0.2638 -0.2833 -0.1009
 3977SOL    HW114131   8.263   7.086   2.263  0.6477  3.0881 -0.1704
 3977SOL    HW214132   8.329   7.044   2.134 -0.8970 -0.3049  0.0173
 3978SOL     OW14133   1.033   1.628   1.009  0.1764 -0.5603  0.1805
 3978SOL    HW114134   1.024   1.683   1.087  2.5133 -0.4019  0.4158
 3978SOL    HW214135   1.063   1.544   1.043 -0.1737 -0.9435 -0.4467
 3979SOL     OW14136   4.201   1.182   8.076  0.0367 -0.1256 -0.3641
 3979SOL    HW114137   4.177   1.270   8.046 -0.2595 -0.3190 -0.6961
 3979SOL    HW214138   4.121   1.131   8.068 -0.3021  0.0255  1.5634
 3980SOL     OW14139   6.932   0.389   8.457 -0.5787  0.9765 -0.0122
 3980SOL    HW114140   6.857   0.426   8.503 -0.2090  0.4528  1.0443
 3980SOL    HW214141   6.996   0.460   8.454 -0.9479  1.2924 -0.5421
 3981SOL     OW14142   4.135   0.580   7.495 -0.1962 -0.0506 -0.8046
 3981SOL    HW114143   4.106   0.492   7.475 -0.4090 -0.0640 -0.4531
 3981SOL    HW214144   4.187   0.570   7.575 -1.9381  0.4105  0.4524
 3982SOL     OW14145   4.056   1.824   3.838  0.6018 -0.2813  0.1667
 3982SOL    HW114146   4.126   1.795   3.898 -0.2130 -1.9128  0.4017
 3982SOL    HW214147   4.003   1.883   3.891  2.8043  2.5622 -0.5793
 3983SOL     OW14148   8.967   8.180   6.851 -0.2566  0.3429 -0.0474
 3983SOL    HW114149   9.049   8.196   6.899  0.6941 -1.3911 -0.9906
 3983SOL    HW214150   8.955   8.086   6.855 -1.0092  0.3183 -1.8346
 3984SOL     OW14151   1.994   7.266   4.394  0.6107  0.6973 -0.2554
 3984SOL    HW114152   1.898   7.262   4.404  0.7865 -1.1105  1.2730
 3984SOL    HW214153   2.011   7.225   4.309  0.1542 -1.6012  0.7026
 3985SOL     OW14154   1.957   3.269   0.879 -0.0148 -0.1098  0.2535
 3985SOL    HW114155   1.893   3.212   0.921  0.2506  0.4390  1.4460
 3985SOL    HW214156   2.041   3.241   0.915  0.7509 -2.0735 -2.6479
 3986SOL     OW14157   2.647   6.217   6.303  0.1961  0.4192 -0.3076
 3986SOL    HW114158   2.662   6.299   6.255 -0.0070 -0.2010 -1.4611
 3986SOL    HW214159   2.633   6.151   6.234 -0.1602 -0.4864  0.6119
 3987SOL     OW14160   8.420   1.068   8.865 -0.3221  0.1564 -0.2726
 3987SOL    HW114161   8.486   1.045   8.799 -1.5675  0.1646 -1.5748
 3987SOL    HW214162   8.466   1.061   8.949  1.1134 -0.5675 -1.0842
 3988SOL     OW14163   8.577   3.055   7.037 -0.0728  0.0408 -0.2757
 3988SOL    HW114164   8.672   3.044   7.044  0.1188  0.9186 -1.3069
 3988SOL    HW214165   8.549   2.985   6.978  0.1727  0.7545 -1.2608
 3989SOL     OW14166   8.257   4.815   8.963 -0.5845 -0.1112 -0.3595
 3989SOL    HW114167   8.341   4.859   8.949 -0.5217  0.0165  0.3766
 3989SOL    HW214168   8.269   4.727   8.926 -0.5768  0.3380 -1.4634
 3990SOL     OW14169   7.678   1.155   4.956 -0.4178  0.1030 -0.7702
 3990SOL    HW114170   7.663   1.063   4.933  1.2024 -0.1401 -0.9402
 3990SOL    HW214171   7.759   1.178   4.911 -1.6958  2.1611 -2.1882
 3991SOL     OW14172   7.635   1.441   7.040 -0.1792  0.0332 -0.0273
 3991SOL    HW114173   7.584   1.371   7.000 -0.8241  1.2025 -1.3323
 3991SOL    HW214174   7.724   1.426   7.009 -0.4290  0.1425 -0.8192
 3992SOL     OW14175   1.118   7.988   9.111  0.2398  0.0266  0.3016
 3992SOL    HW114176   1.059   7.916   9.133  0.1020  0.0671  0.0634
 3992SOL    HW214177   1.203   7.947   9.098 -0.2324 -0.3718 -1.8258
 3993SOL     OW14178   8.878   2.772   1.838 -0.4791 -0.2057  0.2885
 3993SOL    HW114179   8.801   2.792   1.785 -0.1405 -0.0080 -0.1403
 3993SOL    HW214180   8.860   2.813   1.923 -0.1203  1.3378 -0.3466
 3994SOL     OW14181   5.402   2.694   9.436 -0.3190  0.3099 -0.0984
 3994SOL    HW114182   5.397   2.785   9.407 -0.7606 -0.1271 -1.4659
 3994SOL    HW214183   5.353   2.693   9.518 -1.5860  1.0361 -0.7983
 3995SOL     OW14184   6.522   2.791   0.140 -0.3369  0.2168  0.0689
 3995SOL    HW114185   6.429   2.792   0.117 -0.2830  0.8185 -0.1480
 3995SOL    HW214186   6.529   2.726   0.210 -0.9042  0.1024  0.0244
 3996SOL     OW14187   8.614   3.403   0.170  0.4059  0.3800  0.2139
 3996SOL    HW114188   8.592   3.417   0.078  0.9816  2.0810  0.3023
 3996SOL    HW214189   8.529   3.393   0.213  0.1474 -1.1518 -0.5596
 3997SOL     OW14190   0.787   8.471   6.665 -0.1513 -0.2827  0.7257
 3997SOL    HW114191   0.717   8.444   6.606  0.1933 -0.5402  0.4310
 3997SOL    HW214192   0.770   8.564   6.682 -0.3037 -0.2324  0.3001
 3998SOL     OW14193   7.887   6.748   5.158  0.7451 -0.1502  0.2201
 3998SOL    HW114194   7.827   6.756   5.232  1.6005  0.1008  0.9116
 3998SOL    HW214195   7.889   6.836   5.119  0.5875 -0.1840  0.1371
 3999SOL     OW14196   1.313   3.405   9.360  0.6861 -0.5576 -0.6601
 3999SOL    HW114197   1.331   3.437   9.449  0.5166 -1.6990 -0.1935
 3999SOL    HW214198   1.399   3.379   9.327  0.8863  0.7452 -1.2041
 4000SOL     OW14199   5.037   4.349   0.899 -0.0106  0.8505  0.4370
 4000SOL    HW114200   5.127   4.321   0.916 -0.4589 -2.7909 -2.0247
 4000SOL    HW214201   4.993   4.344   0.984  1.2935 -1.0794  1.0626
 4001SOL     OW14202   1.729   0.932   7.366 -0.3428 -0.2910  0.1224
 4001SOL    HW114203   1.744   1.007   7.308 -0.5556 -0.8181 -0.6158
 4001SOL    HW214204   1.709   0.859   7.308  1.5578 -1.3713  0.7264
 4002SOL     OW14205   2.870   0.441   8.269 -0.7870 -0.1993 -0.1260
 4002SOL    HW114206   2.873   0.501   8.194 -1.3616 -0.9081 -0.7270
 4002SOL    HW214207   2.926   0.482   8.334 -0.7633  0.7409 -0.7168
 4003SOL     OW14208   7.864   0.478   0.277  0.0868 -0.4134  0.1417
 4003SOL    HW114209   7.813   0.534   0.219 -0.7143 -0.3226  0.8990
 4003SOL    HW214210   7.885   0.534   0.352 -1.4607 -1.3002  1.3073
 4004SOL     OW14211   8.723   7.573   0.438 -0.2371  0.1241  0.1225
 4004SOL    HW114212   8.662   7.644   0.421 -0.9703 -0.3414  0.7381
 4004SOL    HW214213   8.736   7.531   0.352  1.0172  1.5978 -0.4534
 4005SOL     OW14214   7.782   6.597   5.900 -0.3450 -0.3560  0.2435
 4005SOL    HW114215   7.797   6.531   5.831  1.8652  2.6916 -2.5104
 4005SOL    HW214216   7.845   6.574   5.969  1.8181 -0.1905 -1.5374
 4006SOL     OW14217   4.707   9.327   3.923  0.0501  0.2483  0.1718
 4006SOL    HW114218   4.726   9.275   3.846 -0.0721  0.1667  0.1964
 4006SOL    HW214219   4.742   9.414   3.903  0.0552  0.2166  0.0411
 4007SOL     OW14220   4.628   9.513   8.603 -0.3764 -0.1924 -0.5582
 4007SOL    HW114221   4.713   9.473   8.584 -0.6018 -1.2925  0.6502
 4007SOL    HW214222   4.631   9.597   8.556  1.2761 -0.3078 -0.7285
 4008SOL     OW14223   2.707   4.676   4.651 -0.0648 -0.5913  0.5942
 4008SOL    HW114224   2.619   4.646   4.673  0.2979  0.1216  3.3660
 4008SOL    HW214225   2.700   4.771   4.645  0.1749 -0.6400 -1.2227
 4009SOL     OW14226   4.452   8.132   4.160 -0.4429 -0.3109  0.3581
 4009SOL    HW114227   4.486   8.049   4.193 -1.3444 -0.2710  1.4312
 4009SOL    HW214228   4.525   8.169   4.109 -0.3460 -2.1875 -0.9500
 4010SOL     OW14229   9.542   5.991   8.367  0.9046  0.6494 -0.5972
 4010SOL    HW114230   9.475   5.993   8.434 -0.5424  1.9239 -1.9946
 4010SOL    HW214231   9.607   6.056   8.396  1.8572 -0.9227  0.9895
 4011SOL     OW14232   9.149   4.465   8.965 -0.3395  0.0363 -0.5055
 4011SOL    HW114233   9.238   4.498   8.948  0.8782 -2.0436  1.3128
 4011SOL    HW214234   9.145   4.383   8.917 -0.2903 -1.1441  1.4068
 4012SOL     OW14235   0.128   4.297   7.156 -0.3619  0.1833  0.3061
 4012SOL    HW114236   0.179   4.216   7.169 -0.6587  0.0155  0.4444
 4012SOL    HW214237   0.049   4.283   7.208 -0.3957  0.5818  0.3578
 4013SOL     OW14238   6.611   4.612   5.209 -0.2906  0.0683 -0.2387
 4013SOL    HW114239   6.625   4.526   5.250  0.0354 -0.9249 -2.3116
 4013SOL    HW214240   6.666   4.611   5.131 -1.3040  1.6556 -1.0256
 4014SOL     OW14241   9.068   9.005   5.200  0.0702 -0.1133 -0.0367
 4014SOL    HW114242   9.122   9.019   5.122 -1.6199 -0.4365 -1.3096
 4014SOL    HW214243   9.035   9.091   5.222  2.6334  0.4639  1.9917
 4015SOL     OW14244   5.008   7.632   2.622 -0.1865  0.3663  0.3459
 4015SOL    HW114245   5.040   7.560   2.676 -3.1650 -0.6128  0.9990
 4015SOL    HW214246   4.983   7.699   2.684 -1.2749  0.2597  0.0369
 4016SOL     OW14247   3.769   4.939   8.945 -0.1197 -0.0977 -0.0413
 4016SOL    HW114248   3.864   4.953   8.940 -0.1929  0.0225 -1.4210
 4016SOL    HW214249   3.741   4.993   9.020  0.7583  0.6828 -0.2574
 4017SOL     OW14250   2.748   9.310   7.743 -0.5760  0.4163 -0.9600
 4017SOL    HW114251   2.713   9.250   7.809  0.8852  0.5577 -0.0081
 4017SOL    HW214252   2.675   9.368   7.721 -0.7204  1.3908  1.7512
 4018SOL     OW14253   7.367   5.267   3.986 -0.1747  0.3016  0.0167
 4018SOL    HW114254   7.450   5.240   3.947  0.2013 -1.0289  1.6097
 4018SOL    HW214255   7.324   5.185   4.011 -1.4192  1.0149  0.3203
 4019SOL     OW14256   1.953   8.531   2.562 -0.3015 -0.0707 -0.2763
 4019SOL    HW114257   1.951   8.604   2.499 -1.4677  0.9051  0.8461
 4019SOL    HW214258   1.980   8.572   2.644  1.2500 -1.3393 -0.1111
 4020SOL     OW14259   0.694   3.256   5.319 -0.3251 -0.2059 -0.1457
 4020SOL    HW114260   0.725   3.341   5.352 -1.6603  0.3644 -0.2951
 4020SOL    HW214261   0.770   3.218   5.275  0.1779  1.1064 -0.4595
 4021SOL     OW14262   1.603   0.081   3.347  0.1089 -0.4523  0.4832
 4021SOL    HW114263   1.642   0.133   3.277  0.3803 -0.7910  0.3816
 4021SOL    HW214264   1.534   0.137   3.383  0.7571  0.2008  0.7305
 4022SOL     OW14265   2.351   3.822   0.057 -0.3252 -0.4392  0.6321
 4022SOL    HW114266   2.256   3.814   0.062 -0.4681 -0.6616 -1.3774
 4022SOL    HW214267   2.382   3.736   0.029  0.3785 -0.1317  0.4231
 4023SOL     OW14268   1.017   3.354   5.280 -0.2701 -0.3977 -0.0474
 4023SOL    HW114269   1.034   3.393   5.366 -1.2165  0.6271 -0.2975
 4023SOL    HW214270   1.076   3.400   5.220 -1.1057  0.4364 -0.2741
 4024SOL     OW14271   2.637   1.503   4.908  0.5119 -0.2809 -0.1532
 4024SOL    HW114272   2.666   1.519   4.818  0.9770  3.7044  0.5083
 4024SOL    HW214273   2.683   1.569   4.960 -1.1955 -1.1882  2.7439
 4025SOL     OW14274   4.304   4.597   7.684  0.4223  0.0398  0.4960
 4025SOL    HW114275   4.309   4.644   7.601  1.6824  0.3287  0.7150
 4025SOL    HW214276   4.384   4.546   7.688  0.4290  0.1080  1.5802
 4026SOL     OW14277   5.717   8.066   6.590  0.5254  0.1994 -0.5235
 4026SOL    HW114278   5.630   8.105   6.583  0.1948 -0.2138  0.8405
 4026SOL    HW214279   5.710   7.982   6.545 -0.9431 -1.5351  2.5792
 4027SOL     OW14280   2.607   8.360   7.518  0.2336  0.2515 -0.1796
 4027SOL    HW114281   2.539   8.317   7.571  1.1846  1.8532  2.5620
 4027SOL    HW214282   2.566   8.443   7.490  1.2875  1.8419  2.5781
 4028SOL     OW14283   3.156   7.095   6.230 -0.4796  0.5063  0.1769
 4028SOL    HW114284   3.144   7.047   6.312 -1.7024 -0.4623 -0.5310
 4028SOL    HW214285   3.242   7.067   6.198 -1.0637 -1.0765 -0.1039
 4029SOL     OW14286   8.531   1.349   0.555 -0.0487  0.4434  0.0094
 4029SOL    HW114287   8.525   1.442   0.533 -0.0745  0.6183  0.7030
 4029SOL    HW214288   8.606   1.316   0.505  1.6845  1.4769  1.7857
 4030SOL     OW14289   1.065   2.972   5.254 -0.5278 -0.5536  0.0303
 4030SOL    HW114290   1.126   3.000   5.185 -0.1130 -0.3230  0.4819
 4030SOL    HW214291   1.101   3.011   5.334  0.1860 -2.5415  0.7336
 4031SOL     OW14292   4.940   7.278   3.234  0.1702  0.4947 -0.1677
 4031SOL    HW114293   4.847   7.275   3.255  0.6956  0.3355  2.3725
 4031SOL    HW214294   4.967   7.187   3.234  0.6751  0.6369  0.8878
 4032SOL     OW14295   3.451   5.321   4.549 -0.5481 -0.0251  0.4344
 4032SOL    HW114296   3.496   5.241   4.523  0.8890  0.3359  1.6796
 4032SOL    HW214297   3.519   5.388   4.547 -1.4185  0.8864  0.7584
 4033SOL     OW14298   8.188   0.385   3.582 -0.3638  0.1557  0.1798
 4033SOL    HW114299   8.125   0.345   3.521 -0.8435  0.7276  0.2919
 4033SOL    HW214300   8.135   0.410   3.657 -0.2458  1.8129 -0.2530
 4034SOL     OW14301   2.322   6.755   8.532  0.4226  0.6617  0.2592
 4034SOL    HW114302   2.287   6.668   8.551  0.2409  0.7741  0.4451
 4034SOL    HW214303   2.410   6.739   8.499  1.2913  0.5520  2.5064
 4035SOL     OW14304   1.924   9.384   7.479 -0.5389  0.7664 -0.3771
 4035SOL    HW114305   1.950   9.312   7.537  1.2861  0.6239 -1.3259
 4035SOL    HW214306   1.833   9.364   7.456 -0.4722 -0.5445  0.3863
 4036SOL     OW14307   1.564   0.009   5.217  0.0201 -0.2814  0.3684
 4036SOL    HW114308   1.601  -0.076   5.237 -0.6242 -0.5453  0.4770
 4036SOL    HW214309   1.585   0.024   5.125 -0.6383 -0.9769  0.0917
 4037SOL     OW14310   2.946   4.639   4.265 -0.2632  0.2049 -0.5800
 4037SOL    HW114311   2.914   4.594   4.344  1.3763 -1.0021 -0.5424
 4037SOL    HW214312   3.000   4.710   4.298  0.1550 -0.0963 -0.6135
 4038SOL     OW14313   0.987   6.316   8.568 -0.2199  0.6700  0.6941
 4038SOL    HW114314   1.004   6.222   8.570  0.5140  0.7884  0.3304
 4038SOL    HW214315   0.937   6.330   8.488 -1.3168  0.4445  1.3150
 4039SOL     OW14316   9.311   7.745   4.354  0.1693 -0.6520  0.0538
 4039SOL    HW114317   9.340   7.784   4.437  0.4213 -0.6837 -0.0178
 4039SOL    HW214318   9.355   7.797   4.287 -0.2490 -0.4552 -0.0693
 4040SOL     OW14319   3.134   6.599   2.983  0.0468  0.4242  0.2648
 4040SOL    HW114320   3.171   6.687   2.989  1.0641  0.4454 -3.5528
 4040SOL    HW214321   3.210   6.541   2.982 -0.5411 -0.3860  1.1745
 4041SOL     OW14322   1.433   3.566   2.269 -0.1054 -0.4494  0.3318
 4041SOL    HW114323   1.501   3.498   2.276  0.3042 -0.1891 -0.7848
 4041SOL    HW214324   1.471   3.642   2.312  0.5254 -0.1669 -0.6879
 4042SOL     OW14325   9.032   6.876   0.496  0.1876 -0.2351 -0.0169
 4042SOL    HW114326   9.126   6.866   0.478  0.2089 -2.0800  0.9331
 4042SOL    HW214327   8.990   6.859   0.413  0.6875  1.0900 -0.5741
 4043SOL     OW14328   6.608   3.738   3.559  0.2744 -0.5144  0.6410
 4043SOL    HW114329   6.692   3.767   3.595 -0.2201  0.7782  0.8286
 4043SOL    HW214330   6.607   3.643   3.573  0.9016 -0.3112  2.3481
 4044SOL     OW14331   1.724   0.013   6.095 -0.4353 -0.0636 -0.0145
 4044SOL    HW114332   1.779   0.052   6.162 -0.0386  1.2633 -1.0703
 4044SOL    HW214333   1.727   0.075   6.022 -3.0261 -0.1005 -0.2538
 4045SOL     OW14334   6.666   6.305   5.618  0.2600 -0.1206 -0.5525
 4045SOL    HW114335   6.741   6.363   5.604 -3.0913  4.6378 -0.9405
 4045SOL    HW214336   6.635   6.284   5.530 -0.8209  0.8630 -0.4235
 4046SOL     OW14337   1.484   1.845   8.080 -0.5070 -0.2389  0.1818
 4046SOL    HW114338   1.544   1.772   8.063 -0.9903 -0.2962 -1.5058
 4046SOL    HW214339   1.397   1.808   8.067 -1.0896 -0.4340  3.6558
 4047SOL     OW14340   8.754   0.393   4.596  0.1548 -0.1751 -0.7015
 4047SOL    HW114341   8.670   0.392   4.642 -0.7854 -0.5591 -2.3322
 4047SOL    HW214342   8.771   0.301   4.576  0.4312  0.0015 -1.2842
 4048SOL     OW14343   7.038   8.503   7.627 -0.2662  0.2569  0.3671
 4048SOL    HW114344   6.993   8.551   7.697  0.0850  0.4554  0.4544
 4048SOL    HW214345   7.118   8.553   7.610 -0.8611  0.8213 -0.9302
 4049SOL     OW14346   9.579   1.349   1.492 -0.6192  0.3510 -0.0530
 4049SOL    HW114347   9.520   1.280   1.463 -1.1388  1.0484 -0.6978
 4049SOL    HW214348   9.521   1.422   1.516 -0.0040  1.3866 -1.5966
 4050SOL     OW14349   2.764   1.222   4.920  0.3095  0.1319 -0.2392
 4050SOL    HW114350   2.702   1.295   4.912 -0.0717 -0.1791 -0.1250
 4050SOL    HW214351   2.756   1.174   4.837 -0.3947 -0.5296  0.2042
 4051SOL     OW14352   4.516   9.008   7.304 -0.3719  0.1404 -0.3506
 4051SOL    HW114353   4.481   9.056   7.229 -0.1068  0.8407 -0.0341
 4051SOL    HW214354   4.517   9.073   7.375 -1.0005 -0.6134  0.3675
 4052SOL     OW14355   9.082   3.368   0.719 -0.0079  0.1309  0.6951
 4052SOL    HW114356   9.139   3.342   0.791  0.3060  0.2604  0.4954
 4052SOL    HW214357   9.140   3.369   0.642 -0.2119  0.5552  0.5469
 4053SOL     OW14358   0.668   6.036   3.086 -0.1450 -0.7700 -0.1980
 4053SOL    HW114359   0.635   5.992   3.007 -1.3943  0.1436 -0.2276
 4053SOL    HW214360   0.758   6.005   3.095 -0.4309 -1.9799 -1.1772
 4054SOL     OW14361   7.242   8.471   1.037 -0.7023  0.3974 -0.0877
 4054SOL    HW114362   7.169   8.483   1.097 -1.1945 -2.0574 -0.1018
 4054SOL    HW214363   7.211   8.406   0.974  1.3732 -0.4904 -0.2781
 4055SOL     OW14364   3.090   8.431   1.761 -0.2607  0.1475  1.2748
 4055SOL    HW114365   3.178   8.466   1.748  0.5832 -1.4739  2.4069
 4055SOL    HW214366   3.080   8.365   1.692 -1.1514  1.2413  0.3003
 4056SOL     OW14367   3.353   2.715   7.543 -0.2143  0.3749 -0.3506
 4056SOL    HW114368   3.279   2.775   7.528  1.3157  2.8671  1.3479
 4056SOL    HW214369   3.427   2.758   7.501  0.5325 -1.5943 -1.1507
 4057SOL     OW14370   8.487   5.071   9.203 -0.0486  0.2811  0.3980
 4057SOL    HW114371   8.426   5.056   9.276 -0.8491 -1.2995 -0.5438
 4057SOL    HW214372   8.435   5.116   9.137  0.7027  1.7989  0.7898
 4058SOL     OW14373   0.675   4.064   0.706  0.5765 -0.3945 -0.4700
 4058SOL    HW114374   0.756   4.088   0.752  0.5978 -0.6116 -0.3973
 4058SOL    HW214375   0.623   4.018   0.771  0.5264 -0.5330 -0.6074
 4059SOL     OW14376   1.875   3.493   0.758 -0.2529  0.5970  0.5893
 4059SOL    HW114377   1.840   3.539   0.835  0.1462  0.8045  0.6501
 4059SOL    HW214378   1.920   3.416   0.794  0.7676  1.2062  0.6492
 4060SOL     OW14379   1.243   8.691   9.532 -0.7002  0.0480 -0.1341
 4060SOL    HW114380   1.169   8.632   9.516  0.0442 -0.8206 -0.5100
 4060SOL    HW214381   1.314   8.654   9.479  0.0031  0.8639  0.2199
 4061SOL     OW14382   2.334   0.095   2.062  0.6073  0.2779 -0.4089
 4061SOL    HW114383   2.310   0.151   2.136  1.0642 -0.4988  0.3426
 4061SOL    HW214384   2.424   0.119   2.043  1.2898 -1.1392  0.8306
 4062SOL     OW14385   5.575   3.468   3.367  0.2331 -0.2964  0.1573
 4062SOL    HW114386   5.587   3.511   3.451 -1.7894 -1.0660  0.8927
 4062SOL    HW214387   5.500   3.513   3.327  0.1522 -0.9845 -0.4963
 4063SOL     OW14388   0.099   2.599   7.662  0.0522  0.4674  0.1596
 4063SOL    HW114389   0.095   2.694   7.652 -1.0654  0.2808 -1.5760
 4063SOL    HW214390   0.163   2.571   7.596  0.2462 -0.0145  0.5439
 4064SOL     OW14391   0.001   9.037   5.068 -0.0637  0.1948 -1.2065
 4064SOL    HW114392  -0.012   8.988   4.987  0.7681  0.9646 -1.8354
 4064SOL    HW214393  -0.045   9.119   5.054 -0.5113  0.0519 -0.6071
 4065SOL     OW14394   0.593   8.216   6.432 -0.3282 -0.6778 -0.0605
 4065SOL    HW114395   0.511   8.171   6.410 -1.2303  0.4889  0.7823
 4065SOL    HW214396   0.580   8.246   6.522  1.4183 -1.2891  0.4332
 4066SOL     OW14397   1.202   6.931   1.672  0.3416  0.1875  0.4921
 4066SOL    HW114398   1.258   6.961   1.601 -0.6682  0.7756 -0.0785
 4066SOL    HW214399   1.157   7.010   1.702 -2.4948 -0.6512 -1.1214
 4067SOL     OW14400   5.206   5.233   3.647  0.1195  0.4844 -0.4373
 4067SOL    HW114401   5.148   5.168   3.687  2.1782 -1.3742 -0.2623
 4067SOL    HW214402   5.228   5.196   3.562  1.1021  1.1023 -0.4613
 4068SOL     OW14403   5.673   0.543   6.815  0.5108 -0.4781 -0.2834
 4068SOL    HW114404   5.685   0.601   6.739  0.3643 -1.1624 -0.8419
 4068SOL    HW214405   5.758   0.502   6.828  0.3591 -0.8573 -0.4921
 4069SOL     OW14406   9.281   8.253   3.025 -0.6833  0.1818 -0.3075
 4069SOL    HW114407   9.259   8.344   3.006  0.8236  0.6935  0.2324
 4069SOL    HW214408   9.199   8.215   3.058 -1.4611  1.1902 -1.0223
 4070SOL     OW14409   5.337   1.798   0.659  0.1414  0.0097  0.4699
 4070SOL    HW114410   5.308   1.763   0.575 -0.0765 -0.4903  0.7516
 4070SOL    HW214411   5.277   1.871   0.677 -0.2574 -0.3335  0.5313
 4071SOL     OW14412   1.263   7.013   0.356  0.0594 -0.4680  0.5369
 4071SOL    HW114413   1.202   6.945   0.330 -0.6455 -0.3134  1.7307
 4071SOL    HW214414   1.277   7.065   0.277 -0.6612 -1.0300  0.0383
 4072SOL     OW14415   1.027   4.482   0.036 -0.2943  0.2131  0.3735
 4072SOL    HW114416   1.122   4.494   0.039 -0.2803  0.2166 -0.0424
 4072SOL    HW214417   1.012   4.399   0.081 -0.0731  0.1147  0.2709
 4073SOL     OW14418   8.072   2.437   1.463  0.2154 -0.0649  0.5231
 4073SOL    HW114419   8.071   2.346   1.493 -1.7065 -0.5811 -0.8622
 4073SOL    HW214420   8.034   2.433   1.374  0.9467  1.9748  0.0661
 4074SOL     OW14421   5.445   7.291   4.639  0.0855  0.4452  0.2233
 4074SOL    HW114422   5.409   7.271   4.552 -1.2708  0.9741  0.6343
 4074SOL    HW214423   5.529   7.334   4.621 -0.2238  0.6301 -0.8370
 4075SOL     OW14424   3.919   8.262   7.671  0.7487 -0.3101 -0.1557
 4075SOL    HW114425   3.944   8.354   7.671 -0.2231 -0.0309 -0.4382
 4075SOL    HW214426   3.963   8.225   7.748  2.3005  0.0422 -0.8347
 4076SOL     OW14427   0.921   7.208   9.303  0.3011  0.0866  0.6798
 4076SOL    HW114428   0.937   7.165   9.386 -0.3728 -3.6783 -0.9380
 4076SOL    HW214429   0.997   7.186   9.249 -0.2286  0.6521 -0.3325
 4077SOL     OW14430   8.834   5.451   8.266 -0.1974  0.1312 -0.1432
 4077SOL    HW114431   8.843   5.536   8.223 -0.0487  1.2427  1.9536
 4077SOL    HW214432   8.908   5.400   8.234 -1.2519  0.1026 -2.7921
 4078SOL     OW14433   6.815   2.883   8.008 -0.0671  0.2030 -0.0630
 4078SOL    HW114434   6.789   2.945   7.940 -1.0703 -0.9943 -0.8073
 4078SOL    HW214435   6.786   2.923   8.089 -0.1139  1.0055 -0.4638
 4079SOL     OW14436   3.996   9.419   6.765 -0.3560  0.3115  1.0207
 4079SOL    HW114437   4.043   9.388   6.842  0.2339  0.5564  0.7611
 4079SOL    HW214438   3.923   9.358   6.754 -1.4285  1.1970  2.7433
 4080SOL     OW14439   6.350   5.636   4.658  0.0387 -0.2316 -0.1072
 4080SOL    HW114440   6.291   5.569   4.693 -0.0838  0.6340  1.4323
 4080SOL    HW214441   6.299   5.679   4.589 -0.4287 -0.7344 -0.0782
 4081SOL     OW14442   6.911   7.461   3.020  0.3709 -0.1553  0.2517
 4081SOL    HW114443   6.988   7.457   2.964 -1.1146  1.5079 -2.0836
 4081SOL    HW214444   6.837   7.471   2.960 -1.8012 -2.2486  2.3345
 4082SOL     OW14445   5.372   5.115   2.074 -0.4504 -0.2857  0.5107
 4082SOL    HW114446   5.378   5.210   2.063 -1.3758 -0.3554 -0.8298
 4082SOL    HW214447   5.279   5.095   2.064 -0.0756 -1.5042 -1.0417
 4083SOL     OW14448   5.982   8.291   7.117  0.5455 -0.0059  0.0694
 4083SOL    HW114449   5.988   8.386   7.129  0.5664  0.1564 -1.0936
 4083SOL    HW214450   5.901   8.278   7.069  0.5908 -0.5734  0.1408
 4084SOL     OW14451   0.235   6.798   3.178 -0.2420  0.1016 -0.2164
 4084SOL    HW114452   0.175   6.866   3.209 -1.0785 -0.7932  0.1558
 4084SOL    HW214453   0.306   6.847   3.135 -1.0390  1.1910 -0.3344
 4085SOL     OW14454   2.162   7.055   2.617 -0.0237 -0.6294  0.3767
 4085SOL    HW114455   2.090   7.071   2.679 -0.1490  1.4260 -0.2076
 4085SOL    HW214456   2.240   7.080   2.666  0.0078 -0.3039  0.1670
 4086SOL     OW14457   2.999   8.727   8.347 -0.0044 -0.2182 -0.3674
 4086SOL    HW114458   2.939   8.705   8.276  0.9752 -0.2750 -1.2041
 4086SOL    HW214459   2.961   8.805   8.387 -0.3353  0.0990 -1.2612
 4087SOL     OW14460   4.841   5.615   8.906  0.7576 -0.0003 -0.9139
 4087SOL    HW114461   4.772   5.554   8.934  1.2303 -0.9906 -1.8173
 4087SOL    HW214462   4.794   5.682   8.855  0.3257 -0.0159 -0.5485
 4088SOL     OW14463   8.137   3.962   5.729 -0.6261 -0.2672 -0.0831
 4088SOL    HW114464   8.164   4.044   5.770 -0.5964 -0.3475  0.0604
 4088SOL    HW214465   8.076   3.988   5.660 -1.6180 -0.2056  0.7928
 4089SOL     OW14466   1.836   7.686   5.915  0.4999  0.2259 -0.4160
 4089SOL    HW114467   1.793   7.741   5.850  2.8882  0.7185 -1.6859
 4089SOL    HW214468   1.878   7.748   5.975  1.8351 -0.1836 -0.8969
 4090SOL     OW14469   4.163   1.426   7.063 -0.2833 -0.0784 -0.1723
 4090SOL    HW114470   4.212   1.488   7.009 -0.3705 -0.1260 -0.3070
 4090SOL    HW214471   4.087   1.403   7.010  1.1651 -2.4876 -1.3330
 4091SOL     OW14472   0.428   9.066   2.585 -0.3879  0.4048  0.1964
 4091SOL    HW114473   0.507   9.118   2.598 -1.8896  2.7014  0.6312
 4091SOL    HW214474   0.422   9.055   2.490 -0.8492  2.4493 -0.0519
 4092SOL     OW14475   3.859   7.395   4.854 -0.6914  0.3637 -0.5738
 4092SOL    HW114476   3.947   7.397   4.816  0.1080 -0.9397  1.0412
 4092SOL    HW214477   3.864   7.452   4.931 -0.4875 -1.5347  0.9040
 4093SOL     OW14478   4.847   4.439   3.481  0.6180  0.0373  0.6954
 4093SOL    HW114479   4.926   4.450   3.533  0.1096  0.9416  1.3096
 4093SOL    HW214480   4.878   4.410   3.396  1.4739 -1.5137  1.4985
 4094SOL     OW14481   1.527   2.638   5.565 -0.1097  0.3639  0.1619
 4094SOL    HW114482   1.589   2.653   5.495 -2.0931  1.5226 -1.4580
 4094SOL    HW214483   1.469   2.570   5.532  1.1599 -1.9402  2.3117
 4095SOL     OW14484   6.728   8.083   8.586 -0.1361  0.8258  0.2115
 4095SOL    HW114485   6.782   8.094   8.508 -1.1589  1.9116 -0.3826
 4095SOL    HW214486   6.676   8.004   8.569 -0.3219  1.0319 -0.2043
 4096SOL     OW14487   5.525   4.648   7.972  0.2627  0.9350 -0.3864
 4096SOL    HW114488   5.613   4.658   7.937  0.2804 -0.8885 -0.9542
 4096SOL    HW214489   5.537   4.630   8.065  0.6535 -1.0329 -0.7628
 4097SOL     OW14490   3.237   7.833   0.115 -0.2836 -0.2398  0.1169
 4097SOL    HW114491   3.274   7.753   0.076 -0.8115 -0.0989 -0.6913
 4097SOL    HW214492   3.271   7.904   0.060 -0.5251  0.0177  0.3023
 4098SOL     OW14493   8.336   8.245   7.052  0.2661  0.0815 -0.2946
 4098SOL    HW114494   8.299   8.331   7.032  2.6768  1.2628 -0.1050
 4098SOL    HW214495   8.283   8.184   7.002 -0.8887  1.7786 -1.2661
 4099SOL     OW14496   8.478   0.591   5.992  0.0986 -0.2283  0.2444
 4099SOL    HW114497   8.526   0.543   6.060  0.1312 -0.6452 -0.0694
 4099SOL    HW214498   8.536   0.588   5.915 -0.2274 -0.3289  0.0028
 4100SOL     OW14499   8.740   0.739   8.674  0.1441  0.7079  0.0023
 4100SOL    HW114500   8.835   0.746   8.684  0.1528 -0.3948  0.7127
 4100SOL    HW214501   8.706   0.734   8.763 -0.2589 -2.8034 -0.2376
 4101SOL     OW14502   8.779   5.459   7.095  0.0423 -0.1739  0.2964
 4101SOL    HW114503   8.691   5.427   7.078 -0.0011  0.2301 -0.2483
 4101SOL    HW214504   8.788   5.536   7.040  0.2854  0.5238  1.2822
 4102SOL     OW14505   3.761   3.670   5.752 -0.0949  0.0426  0.2653
 4102SOL    HW114506   3.730   3.682   5.662 -0.8731  0.2901  0.5605
 4102SOL    HW214507   3.815   3.748   5.768 -1.4947  0.9816  0.6397
 4103SOL     OW14508   9.047   6.951   4.673 -0.3302 -0.7734 -0.1493
 4103SOL    HW114509   9.067   6.860   4.697  1.3182 -0.1994  0.7871
 4103SOL    HW214510   9.117   6.977   4.614 -1.0408 -0.2221 -0.7765
 4104SOL     OW14511   4.919   3.158   7.434 -0.2178  0.0517 -0.1413
 4104SOL    HW114512   5.003   3.127   7.467  0.3918  1.3266 -0.4180
 4104SOL    HW214513   4.888   3.219   7.502  0.1540  1.2706 -1.0281
 4105SOL     OW14514   3.403   1.709   1.367  0.0469  0.3263 -0.7933
 4105SOL    HW114515   3.419   1.778   1.431 -1.1126 -0.0236 -0.1019
 4105SOL    HW214516   3.363   1.754   1.292  1.0448  0.6733 -1.1388
 4106SOL     OW14517   3.282   3.429   3.270 -0.8555  0.0736 -0.3378
 4106SOL    HW114518   3.222   3.437   3.344 -0.5917 -0.1890 -0.0920
 4106SOL    HW214519   3.241   3.363   3.213 -0.6738 -0.2917 -0.0463
 4107SOL     OW14520   3.137   3.783   6.981  0.2880 -0.4269 -0.2032
 4107SOL    HW114521   3.078   3.728   7.032 -0.0649 -0.1225 -0.2775
 4107SOL    HW214522   3.111   3.769   6.890  1.3887 -1.5249 -0.3740
 4108SOL     OW14523   2.179   2.078   3.086  0.2554 -0.2951  0.3408
 4108SOL    HW114524   2.195   2.075   3.180  0.6047  0.5121  0.3080
 4108SOL    HW214525   2.090   2.114   3.078  0.2789 -0.2332  0.3579
 4109SOL     OW14526   2.931   4.997   1.227  0.0600 -0.0833  0.1780
 4109SOL    HW114527   2.851   4.952   1.199 -0.0179 -1.1171  1.9114
 4109SOL    HW214528   2.924   5.085   1.190 -0.7279 -0.8698 -1.6662
 4110SOL     OW14529   8.572   8.982   7.828  0.5736  0.0945 -0.0390
 4110SOL    HW114530   8.570   8.948   7.739  0.3139  0.6464 -0.2502
 4110SOL    HW214531   8.587   8.906   7.883 -2.1557 -0.7257 -0.3048
 4111SOL     OW14532   0.210   8.163   8.736 -0.3448  0.3132 -0.2514
 4111SOL    HW114533   0.206   8.216   8.816 -0.6446 -1.7125  1.1410
 4111SOL    HW214534   0.303   8.153   8.718 -0.2462 -0.1690  0.5120
 4112SOL     OW14535   3.701   8.206   6.870 -0.4981 -0.2619 -0.3135
 4112SOL    HW114536   3.650   8.154   6.931 -1.5279  0.7417 -0.2970
 4112SOL    HW214537   3.753   8.265   6.925 -0.2839 -0.3916 -0.3719
 4113SOL     OW14538   3.414   3.104   8.607 -0.6125  0.1009 -0.2288
 4113SOL    HW114539   3.461   3.023   8.628 -2.3849 -1.0671 -0.4855
 4113SOL    HW214540   3.476   3.174   8.625  1.0168 -1.3231 -0.0812
 4114SOL     OW14541   5.010   6.801   2.180 -0.7072 -0.8226 -0.7127
 4114SOL    HW114542   5.008   6.822   2.087  2.8189  0.3164 -0.6653
 4114SOL    HW214543   4.985   6.882   2.224 -0.9957 -0.9478 -0.6422
 4115SOL     OW14544   1.745   3.869   2.680  0.1323  0.4478  0.4024
 4115SOL    HW114545   1.796   3.801   2.635  1.6440  1.6381  0.2564
 4115SOL    HW214546   1.790   3.880   2.764 -1.8343 -0.7567  1.7166
 4116SOL     OW14547   8.099   4.723   1.700 -0.2423  0.3278  1.0651
 4116SOL    HW114548   8.090   4.630   1.721  0.4300 -0.0592 -0.2770
 4116SOL    HW214549   8.056   4.733   1.615 -0.2948  1.2371  1.1915
 4117SOL     OW14550   0.920   3.615   5.709 -0.5256 -0.7426 -0.0257
 4117SOL    HW114551   0.955   3.587   5.794  0.0888 -1.1870 -0.4169
 4117SOL    HW214552   0.827   3.593   5.713 -0.7216  0.1358  0.9027
 4118SOL     OW14553   6.258   0.137   6.632 -0.0144  0.2295 -0.2324
 4118SOL    HW114554   6.240   0.097   6.547  0.8995  0.2040 -0.4292
 4118SOL    HW214555   6.335   0.090   6.665  0.5662  1.2543 -0.0860
 4119SOL     OW14556   1.427   3.377   8.155  0.6512 -0.3134 -0.0144
 4119SOL    HW114557   1.445   3.384   8.249  0.6011  0.2915 -0.0444
 4119SOL    HW214558   1.433   3.467   8.123 -0.3541 -0.3755 -0.4091
 4120SOL     OW14559   3.898   5.585   4.339  0.2449  0.0609 -0.2344
 4120SOL    HW114560   3.915   5.502   4.295  1.0981  0.3545 -0.4660
 4120SOL    HW214561   3.956   5.647   4.296 -1.6381  1.1835 -1.2702
 4121SOL     OW14562   3.724   0.136   8.595  0.4224  0.6827 -0.3264
 4121SOL    HW114563   3.639   0.093   8.582  1.0611 -1.1968  1.1880
 4121SOL    HW214564   3.777   0.108   8.521  0.5552 -0.4468  0.1844
 4122SOL     OW14565   1.189   1.969   5.097  0.2049  0.0746 -0.2248
 4122SOL    HW114566   1.184   1.920   5.179  0.0773  0.1388 -0.1951
 4122SOL    HW214567   1.100   1.968   5.062 -0.0578  1.2835  0.3636
 4123SOL     OW14568   4.082   7.056   1.145 -0.2805 -0.4495  0.5111
 4123SOL    HW114569   4.094   7.042   1.239 -1.3918 -2.4962  0.4077
 4123SOL    HW214570   3.988   7.047   1.132 -0.1549 -0.0237 -0.7921
 4124SOL     OW14571   8.446   3.175   6.811  0.5108 -0.6341 -0.2116
 4124SOL    HW114572   8.384   3.239   6.846  2.0542  0.8709 -0.0770
 4124SOL    HW214573   8.493   3.142   6.887  0.0150 -1.6435 -0.3267
 4125SOL     OW14574   8.171   3.498   5.256  0.1833 -0.4878 -0.0642
 4125SOL    HW114575   8.166   3.586   5.218  0.5985  0.1784  1.3612
 4125SOL    HW214576   8.213   3.445   5.188 -2.1215 -0.1678 -1.8813
 4126SOL     OW14577   1.668   3.422   2.271 -0.3514 -0.1851 -0.1285
 4126SOL    HW114578   1.617   3.341   2.268 -0.6731  0.0374 -0.9209
 4126SOL    HW214579   1.744   3.404   2.215  1.0493 -0.8935  1.8855
 4127SOL     OW14580   3.473   2.362   7.183  0.2994  0.3836  0.1089
 4127SOL    HW114581   3.458   2.415   7.262  0.7555  0.2060  0.3143
 4127SOL    HW214582   3.548   2.403   7.140  1.8883 -1.2113  1.2645
 4128SOL     OW14583   2.571   8.920   2.069 -0.2781 -0.6959  0.0145
 4128SOL    HW114584   2.615   9.001   2.045 -0.2071 -1.0455 -1.1182
 4128SOL    HW214585   2.630   8.851   2.039 -1.0787 -1.1697 -0.5131
 4129SOL     OW14586   6.241   7.048   6.900  0.2999 -0.0494 -0.0488
 4129SOL    HW114587   6.148   7.058   6.883  0.5266 -0.3719 -1.6362
 4129SOL    HW214588   6.263   6.962   6.864  1.0940 -0.2866  0.9352
 4130SOL     OW14589   6.427   0.092   5.614  0.7052 -0.1868  0.3281
 4130SOL    HW114590   6.404   0.184   5.600 -1.6766 -0.9282 -1.2526
 4130SOL    HW214591   6.473   0.067   5.534  0.2130 -0.6617  0.1822
 4131SOL     OW14592   9.016   0.386   3.285  0.0040 -0.1488 -0.2166
 4131SOL    HW114593   9.000   0.481   3.292  0.6588 -0.0085 -0.6146
 4131SOL    HW214594   9.052   0.374   3.198  0.2489 -0.7233 -0.0399
 4132SOL     OW14595   5.050   7.946   6.290 -0.8078 -0.1290 -0.1419
 4132SOL    HW114596   5.067   7.856   6.261 -1.6793  0.3243 -2.2717
 4132SOL    HW214597   5.133   7.992   6.276 -0.7594 -0.2961 -0.4159
 4133SOL     OW14598   7.278   7.221   9.484 -0.0040 -0.2425  0.1855
 4133SOL    HW114599   7.267   7.308   9.522  0.3818  1.7001 -3.6095
 4133SOL    HW214600   7.195   7.205   9.437  0.7451 -0.8515 -0.9881
 4134SOL     OW14601   9.471   2.724   6.572  0.1539 -0.2880 -0.1949
 4134SOL    HW114602   9.483   2.818   6.555 -0.6883 -0.0771  0.3314
 4134SOL    HW214603   9.559   2.691   6.590  0.3757  0.5392  0.2800
 4135SOL     OW14604   3.478   0.155   3.535  0.7785 -0.6359  0.0957
 4135SOL    HW114605   3.561   0.177   3.493  1.4567 -2.9708  0.0671
 4135SOL    HW214606   3.447   0.238   3.572  2.2810  0.6161 -1.3069
 4136SOL     OW14607   0.973   7.189   5.158  0.3874 -0.8746  0.4765
 4136SOL    HW114608   0.944   7.249   5.226  0.8012  2.1165 -1.8002
 4136SOL    HW214609   1.065   7.172   5.178  0.1306 -1.2132  1.4182
 4137SOL     OW14610   0.873   3.209   7.525  0.1025  0.0071 -0.1021
 4137SOL    HW114611   0.954   3.229   7.477 -0.5149 -0.2612 -1.2948
 4137SOL    HW214612   0.814   3.281   7.503 -0.0559  0.1049  0.6211
 4138SOL     OW14613   5.831   3.460   9.148 -0.0183 -0.5329  0.0760
 4138SOL    HW114614   5.756   3.476   9.206 -0.5188  0.3423 -0.7962
 4138SOL    HW214615   5.830   3.534   9.087  0.3521 -1.5698 -1.2099
 4139SOL     OW14616   5.979   3.994   6.426  0.0371 -0.5257  0.5058
 4139SOL    HW114617   6.008   4.063   6.366 -2.0374 -1.3610 -1.5621
 4139SOL    HW214618   5.917   4.038   6.484  1.7810  0.1970  1.9481
 4140SOL     OW14619   2.695   5.412   8.635  0.4116  0.0681 -0.3357
 4140SOL    HW114620   2.688   5.352   8.560 -2.1977  0.7128 -0.7240
 4140SOL    HW214621   2.686   5.499   8.597  2.9124  0.6999  0.3659
 4141SOL     OW14622   0.112   9.154   6.395 -0.1945  0.0625 -0.6483
 4141SOL    HW114623   0.100   9.247   6.415  0.4268  0.1047 -0.4711
 4141SOL    HW214624   0.024   9.117   6.405 -0.6569  0.8148 -1.7631
 4142SOL     OW14625   4.135   5.535   0.301  0.4543 -0.2647 -0.2374
 4142SOL    HW114626   4.179   5.468   0.249  0.8108 -0.5144  0.3757
 4142SOL    HW214627   4.203   5.600   0.320  0.3981 -0.3167  0.1500
 4143SOL     OW14628   8.519   2.828   6.275  0.0344  0.3876  0.1448
 4143SOL    HW114629   8.427   2.840   6.301  0.3284  1.3719  0.7835
 4143SOL    HW214630   8.515   2.771   6.198 -1.0709 -0.1030  0.5416
 4144SOL     OW14631   8.803   7.399   7.893 -0.2252 -0.2398 -0.3069
 4144SOL    HW114632   8.806   7.493   7.908 -0.5835 -0.3927  0.8112
 4144SOL    HW214633   8.712   7.382   7.866  0.7134  0.2246 -4.3328
 4145SOL     OW14634   1.006   1.247   0.781  0.3449  0.2940  0.3712
 4145SOL    HW114635   0.918   1.286   0.786 -0.2403 -1.0139  0.6057
 4145SOL    HW214636   1.048   1.273   0.863 -0.4626 -0.5236  1.0673
 4146SOL     OW14637   1.836   7.597   4.759 -0.2267  0.3034 -0.3073
 4146SOL    HW114638   1.786   7.675   4.783 -2.5826 -1.1345 -0.2513
 4146SOL    HW214639   1.787   7.558   4.687 -1.0825 -2.8742  1.7985
 4147SOL     OW14640   3.572   4.410   7.239 -0.3377 -0.5971 -0.4538
 4147SOL    HW114641   3.598   4.363   7.159 -0.7956  0.9695 -1.5722
 4147SOL    HW214642   3.565   4.501   7.212 -1.9887 -0.2331  1.0115
 4148SOL     OW14643   2.679   1.752   3.076  0.1267  0.0751 -0.2789
 4148SOL    HW114644   2.760   1.755   3.127  0.4410  0.0533 -0.7759
 4148SOL    HW214645   2.626   1.823   3.112 -0.2475 -0.8301  1.0547
 4149SOL     OW14646   3.611   3.029   3.042 -0.5621  0.0208  0.1844
 4149SOL    HW114647   3.641   2.997   2.957  1.6736  1.0982  0.4896
 4149SOL    HW214648   3.643   2.963   3.104 -0.6755  0.1077  0.3358
 4150SOL     OW14649   9.504   4.073   6.217 -0.2031  0.5015 -0.3544
 4150SOL    HW114650   9.422   4.093   6.264  0.0365 -1.2536  0.9212
 4150SOL    HW214651   9.573   4.102   6.277  0.1233  0.4209 -0.6914
 4151SOL     OW14652   8.043   7.571   2.913 -0.1054 -0.0291 -0.0405
 4151SOL    HW114653   7.953   7.543   2.899 -0.8925  2.5707 -0.6485
 4151SOL    HW214654   8.096   7.496   2.886 -2.0446 -1.2540 -0.6243
 4152SOL     OW14655   6.662   5.387   3.951  0.1614 -0.2091  0.2119
 4152SOL    HW114656   6.708   5.471   3.954  2.6098 -1.3968 -1.0125
 4152SOL    HW214657   6.716   5.333   3.893 -2.5156 -1.9552 -0.8235
 4153SOL     OW14658   9.387   4.060   8.752 -0.0499  0.2233 -0.6281
 4153SOL    HW114659   9.409   4.013   8.833  2.2578  1.7732 -0.2342
 4153SOL    HW214660   9.392   3.994   8.684  3.9567 -0.1625 -0.2115
 4154SOL     OW14661   4.680   1.399   7.655  0.4750 -0.2042  0.1440
 4154SOL    HW114662   4.768   1.366   7.668  0.3812  0.2985  2.4180
 4154SOL    HW214663   4.689   1.495   7.658 -0.1421 -0.1423  0.2842
 4155SOL     OW14664   5.631   9.048   6.969  0.9670  0.2273  0.4518
 4155SOL    HW114665   5.576   9.096   7.031 -2.7088 -2.2020 -0.5262
 4155SOL    HW214666   5.589   9.063   6.884  1.8421 -1.7237 -0.3952
 4156SOL     OW14667   8.047   2.255   2.540 -0.2811 -0.1940 -0.4638
 4156SOL    HW114668   7.970   2.258   2.597  0.1501  0.9380  0.0961
 4156SOL    HW214669   8.103   2.188   2.580 -0.2707  0.1314  0.0828
 4157SOL     OW14670   7.824   0.059   5.301 -0.3528  0.4923 -0.4306
 4157SOL    HW114671   7.901   0.023   5.257  1.1848  0.7872  1.8467
 4157SOL    HW214672   7.812   0.003   5.378 -0.6940  2.0942  0.7351
 4158SOL     OW14673   0.920   5.221   2.436 -0.5178  0.0720 -0.2264
 4158SOL    HW114674   0.882   5.271   2.508  0.8607  0.7635  0.0479
 4158SOL    HW214675   0.913   5.129   2.464 -0.4909  0.3014  0.5519
 4159SOL     OW14676   2.713   6.673   2.249  0.0028 -0.6726  0.2312
 4159SOL    HW114677   2.763   6.631   2.318 -1.8597 -1.9875  0.8714
 4159SOL    HW214678   2.696   6.761   2.282 -0.5596 -1.1699  1.3330
 4160SOL     OW14679   3.880   7.776   0.605  0.0228  0.2304 -1.1149
 4160SOL    HW114680   3.832   7.857   0.586 -0.6282  0.0125 -0.4413
 4160SOL    HW214681   3.959   7.805   0.651 -0.1606  0.4827 -0.9590
 4161SOL     OW14682   5.407   0.650   0.361 -0.5789  0.5732  0.1723
 4161SOL    HW114683   5.400   0.600   0.279 -1.4654 -1.1681  1.2380
 4161SOL    HW214684   5.370   0.591   0.428  1.3023  1.3978  2.0506
 4162SOL     OW14685   3.267   0.701   8.045 -0.5959  0.1162 -0.0611
 4162SOL    HW114686   3.179   0.736   8.034  0.0960  1.8461 -0.4299
 4162SOL    HW214687   3.261   0.611   8.013 -1.6288  1.0397 -2.7350
 4163SOL     OW14688   2.494   0.606   1.414  0.0244  0.6095 -0.0347
 4163SOL    HW114689   2.478   0.568   1.327  1.0156  1.1142 -0.4608
 4163SOL    HW214690   2.521   0.532   1.468  1.1857  0.5534 -0.6545
 4164SOL     OW14691   0.019   1.961   0.978  0.1686  0.1303 -0.5599
 4164SOL    HW114692   0.056   1.876   0.957  0.1689 -0.0319  0.0674
 4164SOL    HW214693  -0.071   1.941   1.007  0.1564  0.3437 -0.4487
 4165SOL     OW14694   2.250   5.060   4.062 -0.5441  0.2737 -0.4949
 4165SOL    HW114695   2.267   4.970   4.090  1.2491  1.1084  1.3901
 4165SOL    HW214696   2.200   5.099   4.134 -0.0111  1.1878 -0.6027
 4166SOL     OW14697   0.671   3.619   9.360 -0.2164 -0.2745  0.5069
 4166SOL    HW114698   0.709   3.703   9.382 -0.6707  0.0147  0.2047
 4166SOL    HW214699   0.620   3.594   9.437  0.6676 -0.7245  0.9647
 4167SOL     OW14700   6.972   6.002   1.822 -0.5364 -0.2316 -0.2896
 4167SOL    HW114701   6.912   5.927   1.817 -1.4049  0.3726  0.5847
 4167SOL    HW214702   6.955   6.040   1.908 -0.1903  1.0284 -0.7594
 4168SOL     OW14703   5.581   5.680   3.903  0.6083 -0.2999  0.2601
 4168SOL    HW114704   5.654   5.656   3.845  0.9207  0.2854  0.4013
 4168SOL    HW214705   5.619   5.744   3.963 -0.3139  0.8904 -0.3925
 4169SOL     OW14706   0.132   0.508   1.224  0.1569 -0.0954  0.1351
 4169SOL    HW114707   0.159   0.443   1.288  0.6776  0.3698  0.4027
 4169SOL    HW214708   0.198   0.502   1.155  0.3711  0.3340  0.2964
 4170SOL     OW14709   6.342   7.873   5.552 -0.1485 -0.0262  0.5673
 4170SOL    HW114710   6.329   7.781   5.528 -1.3990  0.4387 -0.6243
 4170SOL    HW214711   6.419   7.900   5.502 -3.8108  1.5192 -5.1570
 4171SOL     OW14712   9.418   7.968   1.307  0.2157 -0.4776  0.3617
 4171SOL    HW114713   9.452   7.879   1.302  0.9838 -0.3190  2.0662
 4171SOL    HW214714   9.490   8.023   1.275  0.3198 -0.3803  0.7518
 4172SOL     OW14715   3.146   2.221   2.062  0.1237 -0.2036  0.2108
 4172SOL    HW114716   3.084   2.291   2.079 -0.8989 -0.6217 -1.5355
 4172SOL    HW214717   3.229   2.266   2.045 -0.3055  0.5347  0.0259
 4173SOL     OW14718   5.387   5.860   3.827  0.1140 -0.0813 -0.3219
 4173SOL    HW114719   5.433   5.781   3.796  1.1932  0.9714 -1.5458
 4173SOL    HW214720   5.414   5.869   3.918  0.7847 -0.5858 -0.4599
 4174SOL     OW14721   4.273   2.060   8.271  0.3996 -0.0417 -0.3282
 4174SOL    HW114722   4.325   2.026   8.198  0.2188 -0.8912 -0.0733
 4174SOL    HW214723   4.290   1.999   8.343 -1.2088 -0.5598 -0.3355
 4175SOL     OW14724   7.640   8.051   4.277  0.2090  0.1806 -0.1387
 4175SOL    HW114725   7.629   8.105   4.356  1.8013  1.4436 -0.7115
 4175SOL    HW214726   7.557   8.006   4.267 -0.4985  1.0221  1.5130
 4176SOL     OW14727   9.350   6.747   6.318  0.4497  0.0202 -0.4198
 4176SOL    HW114728   9.260   6.751   6.285 -0.2119  0.3559  1.3338
 4176SOL    HW214729   9.384   6.664   6.284 -0.5791 -0.2077 -0.9357
 4177SOL     OW14730   7.110   8.269   8.451  0.0280  0.6173  0.2657
 4177SOL    HW114731   7.111   8.350   8.503 -0.1196  1.3048 -0.7532
 4177SOL    HW214732   7.203   8.250   8.435  0.0598  1.4646 -0.7471
 4178SOL     OW14733   8.303   7.846   3.666 -1.0248 -0.0139 -0.7422
 4178SOL    HW114734   8.209   7.855   3.649 -1.7276 -2.1482  1.4630
 4178SOL    HW214735   8.315   7.879   3.755  0.1050 -0.8209 -0.5733
 4179SOL     OW14736   4.692   1.685   7.562 -0.9021 -0.4795  0.8511
 4179SOL    HW114737   4.779   1.692   7.601 -0.4222  0.5782 -0.3393
 4179SOL    HW214738   4.690   1.755   7.497 -1.2531 -2.7723 -1.7800
 4180SOL     OW14739   7.082   4.585   6.332  0.1155  0.1902 -0.1531
 4180SOL    HW114740   7.161   4.602   6.281 -1.1520  1.2206 -1.8573
 4180SOL    HW214741   7.088   4.492   6.356  1.0595 -0.1544 -1.6238
 4181SOL     OW14742   3.594   4.719   5.875 -0.0913 -0.0071 -0.4135
 4181SOL    HW114743   3.561   4.809   5.875  0.4838  0.2042 -0.5899
 4181SOL    HW214744   3.583   4.689   5.785  0.8133  0.2959 -0.6342
 4182SOL     OW14745   4.883   2.331   4.375  0.1018  0.0694  0.2705
 4182SOL    HW114746   4.849   2.405   4.325 -0.5656  0.4889  1.2951
 4182SOL    HW214747   4.977   2.330   4.356  0.1251  1.2066  0.2466
 4183SOL     OW14748   4.773   5.147   4.093  0.0233 -0.4540  0.4039
 4183SOL    HW114749   4.761   5.129   4.000 -0.5529  1.9109 -0.0542
 4183SOL    HW214750   4.696   5.199   4.117  1.7529  1.8589  1.3192
 4184SOL     OW14751   2.595   7.816   4.585  0.5324  0.7385  0.4213
 4184SOL    HW114752   2.526   7.826   4.520 -0.0726 -0.8024  0.7803
 4184SOL    HW214753   2.554   7.765   4.656  1.9730 -0.0709  0.7085
 4185SOL     OW14754   7.521   3.272   7.533 -0.2705  0.0038 -0.3100
 4185SOL    HW114755   7.559   3.225   7.608 -1.4228 -0.2027  0.1608
 4185SOL    HW214756   7.473   3.345   7.573 -0.6066  0.0974 -0.8798
 4186SOL     OW14757   8.069   0.519   7.172  0.5098 -0.3028 -0.0080
 4186SOL    HW114758   8.096   0.449   7.114 -1.7994  0.1185 -1.7170
 4186SOL    HW214759   7.996   0.562   7.127 -1.1735  0.3191  3.0001
 4187SOL     OW14760   4.259   7.776   5.567 -0.5095 -0.2859  0.5516
 4187SOL    HW114761   4.310   7.731   5.500 -0.9032 -0.6548  0.4967
 4187SOL    HW214762   4.205   7.708   5.607 -0.0336 -0.1395  1.4780
 4188SOL     OW14763   1.202   1.383   9.496  0.1930 -0.6766 -0.3905
 4188SOL    HW114764   1.131   1.439   9.463  2.1585  0.4101 -3.2581
 4188SOL    HW214765   1.230   1.425   9.577 -1.0003  0.1577 -0.3843
 4189SOL     OW14766   8.693   3.684   3.474 -0.3119  0.4905 -0.3310
 4189SOL    HW114767   8.744   3.719   3.546  1.4814 -0.4002 -1.1057
 4189SOL    HW214768   8.680   3.759   3.415  0.4121  0.6555 -0.2868
 4190SOL     OW14769   0.576   9.106   5.286  0.8466 -0.1667 -0.3229
 4190SOL    HW114770   0.500   9.161   5.305  0.0527 -0.5460 -2.1032
 4190SOL    HW214771   0.573   9.037   5.353  0.3859  0.5461  0.4089
 4191SOL     OW14772   3.572   6.475   2.480 -1.1098  0.2212 -0.5950
 4191SOL    HW114773   3.542   6.492   2.569 -0.0009  2.4331 -0.5500
 4191SOL    HW214774   3.661   6.442   2.490 -1.2676 -0.3005 -0.8726
 4192SOL     OW14775   5.582   0.684   3.176  0.2568 -0.2752  0.0979
 4192SOL    HW114776   5.547   0.755   3.230 -2.6681 -2.0778  0.8089
 4192SOL    HW214777   5.673   0.675   3.204 -0.4149  0.6069  2.8581
 4193SOL     OW14778   8.707   4.950   8.713 -0.0555  0.2040 -0.6036
 4193SOL    HW114779   8.666   5.013   8.654 -0.4578 -1.1888 -1.8622
 4193SOL    HW214780   8.639   4.929   8.777 -0.8462 -0.9702 -1.7976
 4194SOL     OW14781   8.144   4.290   2.789  0.4852  0.1825  0.1014
 4194SOL    HW114782   8.184   4.243   2.715 -0.6567 -1.9241  0.7449
 4194SOL    HW214783   8.204   4.275   2.862  1.7297  2.4522 -0.3614
 4195SOL     OW14784   7.816   9.461   4.997 -0.1924  0.1598  0.2351
 4195SOL    HW114785   7.778   9.419   5.074  0.4763 -1.6457 -0.3736
 4195SOL    HW214786   7.909   9.469   5.017  0.2739 -1.7078 -0.8952
 4196SOL     OW14787   7.597   4.854   4.066  0.1920  0.1707 -0.1364
 4196SOL    HW114788   7.592   4.908   4.145  0.5749  0.2926 -0.1937
 4196SOL    HW214789   7.688   4.826   4.062  0.4423  1.0711 -1.1245
 4197SOL     OW14790   3.748   3.192   8.420 -0.2829 -0.1247 -0.2213
 4197SOL    HW114791   3.696   3.112   8.407 -1.1172  0.4751 -0.7212
 4197SOL    HW214792   3.699   3.242   8.485 -0.7599  0.7925 -1.2596
 4198SOL     OW14793   3.608   0.260   2.514 -0.4178  0.4792 -0.6690
 4198SOL    HW114794   3.657   0.308   2.580  0.7978 -0.0377 -1.1721
 4198SOL    HW214795   3.517   0.264   2.544  0.1941 -0.5566  1.5511
 4199SOL     OW14796   8.993   6.160   9.565 -0.3207 -0.3749  0.8186
 4199SOL    HW114797   8.964   6.069   9.557 -1.3521  0.0918 -1.8165
 4199SOL    HW214798   9.036   6.179   9.482 -0.3272  1.6177  1.2180
 4200SOL     OW14799   9.449   5.374   1.524 -0.3909  0.1020 -0.2017
 4200SOL    HW114800   9.520   5.368   1.587  0.1223  0.4164 -0.7366
 4200SOL    HW214801   9.369   5.371   1.577  0.0307  0.4094  0.4600
 4201SOL     OW14802   3.741   2.221   4.303 -0.9550 -0.3445 -0.0765
 4201SOL    HW114803   3.755   2.272   4.383  0.7587 -0.9715  0.0484
 4201SOL    HW214804   3.821   2.171   4.291 -2.3827 -2.7200 -0.4465
 4202SOL     OW14805   2.620   3.282   8.420 -0.2113  0.3660 -0.5354
 4202SOL    HW114806   2.640   3.201   8.467 -1.2148 -0.7704 -1.9708
 4202SOL    HW214807   2.694   3.294   8.361 -0.6862 -0.2703 -1.2758
 4203SOL     OW14808   4.917   6.322   6.961  0.2051  0.1456 -0.6828
 4203SOL    HW114809   4.923   6.408   6.920 -0.7258  0.4622 -0.1561
 4203SOL    HW214810   4.909   6.339   7.054  3.2054 -0.5887 -0.1778
 4204SOL     OW14811   6.011   4.977   3.098  0.1516  0.2015 -0.2476
 4204SOL    HW114812   5.922   4.992   3.066  0.4414  1.6641 -0.4657
 4204SOL    HW214813   6.000   4.954   3.190 -0.5551 -1.7971 -0.7777
 4205SOL     OW14814   1.827   6.903   4.633  0.8909 -0.4151 -0.1295
 4205SOL    HW114815   1.881   6.829   4.662 -1.2103 -2.2116 -0.5909
 4205SOL    HW214816   1.774   6.926   4.709  1.0826  0.2339 -0.1823
 4206SOL     OW14817   2.757   7.932   0.219 -0.4351  0.0621 -0.1212
 4206SOL    HW114818   2.755   7.843   0.184  1.0269  0.0724 -0.3205
 4206SOL    HW214819   2.753   7.920   0.314 -2.6410 -0.0552 -0.1780
 4207SOL     OW14820   8.920   1.373   5.695 -0.3196  0.0960  0.0812
 4207SOL    HW114821   8.935   1.462   5.662 -1.7824  1.9919  3.8987
 4207SOL    HW214822   8.825   1.365   5.701 -0.2078 -1.6817  0.0680
 4208SOL     OW14823   0.198   4.853   6.596  0.2599  0.3639 -0.9909
 4208SOL    HW114824   0.108   4.886   6.586 -1.0511 -2.6256 -0.2924
 4208SOL    HW214825   0.227   4.890   6.679 -0.3719  1.3147 -1.1817
 4209SOL     OW14826   3.508   7.502   1.970 -0.6605 -0.6107  0.2884
 4209SOL    HW114827   3.572   7.553   1.919 -0.1068 -0.5574  1.0284
 4209SOL    HW214828   3.425   7.516   1.924 -0.3753  0.3329  0.0262
 4210SOL     OW14829   5.126   2.324   0.826 -0.3875 -0.0745  0.1947
 4210SOL    HW114830   5.194   2.308   0.760 -0.9460 -0.0470 -0.4065
 4210SOL    HW214831   5.165   2.386   0.887 -0.0044  0.2451 -0.3660
 4211SOL     OW14832   4.471   7.618   3.748 -0.1635 -0.2794 -0.4934
 4211SOL    HW114833   4.457   7.713   3.740 -0.9092 -0.4101 -0.8000
 4211SOL    HW214834   4.563   7.606   3.724  0.3492  0.5314  0.9685
 4212SOL     OW14835   5.752   0.599   1.982 -0.1654  0.3801  0.4887
 4212SOL    HW114836   5.660   0.624   1.983 -0.1069  0.6145  0.2945
 4212SOL    HW214837   5.799   0.681   2.000  0.0901  0.7937 -1.7607
 4213SOL     OW14838   1.419   2.394   1.745 -0.2959  0.1859 -0.5898
 4213SOL    HW114839   1.490   2.336   1.718  0.6935  0.1562  1.8283
 4213SOL    HW214840   1.396   2.365   1.833 -0.7413  2.5450  0.1414
 4214SOL     OW14841   2.037   4.023   4.361 -0.1257 -0.4415  0.1698
 4214SOL    HW114842   2.105   3.969   4.322  1.3900  0.2782  1.6725
 4214SOL    HW214843   2.059   4.026   4.454 -0.9676  1.5820  0.3664
 4215SOL     OW14844   0.439   9.162   4.087  0.3664 -0.6334  0.7110
 4215SOL    HW114845   0.476   9.242   4.050 -0.2758 -0.3472  0.6711
 4215SOL    HW214846   0.515   9.106   4.104  0.6931 -0.6799 -0.7849
 4216SOL     OW14847   2.104   0.531   1.169  0.2765  0.5980  0.1750
 4216SOL    HW114848   2.058   0.452   1.196  0.9015  0.0669 -0.2647
 4216SOL    HW214849   2.056   0.603   1.209  0.2295 -0.0622  1.3327
 4217SOL     OW14850   3.497   0.844   4.825 -0.1121  0.2561  0.4428
 4217SOL    HW114851   3.499   0.937   4.848 -2.1395  0.1983  1.0928
 4217SOL    HW214852   3.407   0.830   4.793  0.4487 -1.2788 -0.5767
 4218SOL     OW14853   7.063   1.743   9.294 -0.5988 -0.5943  0.5595
 4218SOL    HW114854   7.122   1.701   9.232 -0.3112  1.1600 -0.4320
 4218SOL    HW214855   6.977   1.706   9.275 -0.1186 -1.9144  0.8513
 4219SOL     OW14856   4.068   5.020   6.403  0.0462 -0.2177  0.1085
 4219SOL    HW114857   4.100   5.105   6.432 -0.6550 -0.4006  1.5467
 4219SOL    HW214858   3.986   5.007   6.452 -0.5886 -1.1101 -1.1304
 4220SOL     OW14859   9.118   1.118   1.489  0.1521  0.3188  0.0148
 4220SOL    HW114860   9.203   1.113   1.533  0.4307 -1.6624 -0.6233
 4220SOL    HW214861   9.134   1.171   1.410  0.5434  0.7927  0.4120
 4221SOL     OW14862   6.561   2.023   1.432  0.0113  0.2958  0.4665
 4221SOL    HW114863   6.523   1.967   1.500  0.9632 -0.1765  0.6267
 4221SOL    HW214864   6.590   1.962   1.364 -0.1272  0.6998  0.0396
 4222SOL     OW14865   0.872   3.282   4.385 -0.2632  0.0945 -0.0681
 4222SOL    HW114866   0.881   3.376   4.366  0.8619 -0.0916 -0.5500
 4222SOL    HW214867   0.930   3.240   4.322 -1.2095 -0.9736 -0.2376
 4223SOL     OW14868   0.526   6.868   7.789  0.2092 -0.0145 -0.1652
 4223SOL    HW114869   0.490   6.863   7.878 -0.6707 -1.0083 -0.5577
 4223SOL    HW214870   0.484   6.945   7.750 -0.7649 -0.5925 -0.2879
 4224SOL     OW14871   0.832   8.322   2.337 -0.1654 -0.2829  0.0734
 4224SOL    HW114872   0.838   8.304   2.244 -1.4496 -0.7253  0.0544
 4224SOL    HW214873   0.885   8.401   2.350 -1.1628  0.6655 -1.3027
 4225SOL     OW14874   6.190   6.769   1.975 -0.0479  0.4012 -0.2791
 4225SOL    HW114875   6.113   6.808   1.935 -0.1308  0.5341  0.0050
 4225SOL    HW214876   6.263   6.796   1.919 -0.1140  0.9021 -0.1269
 4226SOL     OW14877   1.902   0.889   0.661  0.2694  0.9191  0.3135
 4226SOL    HW114878   1.844   0.813   0.661  1.8545 -0.3647  0.6834
 4226SOL    HW214879   1.873   0.941   0.587 -1.3638  0.3664  0.5211
 4227SOL     OW14880   5.254   4.959   3.177 -0.3162 -0.0096  0.1931
 4227SOL    HW114881   5.317   4.905   3.225 -0.9906  0.1396  1.2749
 4227SOL    HW214882   5.171   4.945   3.222 -0.8009  0.7992 -0.4232
 4228SOL     OW14883   7.008   8.761   8.021  0.2624  0.3019  0.5377
 4228SOL    HW114884   7.095   8.788   7.994  0.2950  0.1475  0.4889
 4228SOL    HW214885   7.023   8.701   8.094  0.1130  2.9412  2.9257
 4229SOL     OW14886   0.708   8.550   4.568  0.5061 -0.1518  0.1898
 4229SOL    HW114887   0.626   8.529   4.524  0.0239  2.8955 -0.6142
 4229SOL    HW214888   0.753   8.610   4.508  1.9156  0.6231  1.9085
 4230SOL     OW14889   2.974   8.420   5.005  0.4179 -0.4791  0.1880
 4230SOL    HW114890   2.954   8.386   5.093 -2.0812  0.3037  0.0117
 4230SOL    HW214891   3.044   8.363   4.973  1.1932 -0.9888  2.5371
 4231SOL     OW14892   6.146   3.634   4.910  0.2979  0.4298 -0.7546
 4231SOL    HW114893   6.199   3.677   4.843 -1.9513  2.5131 -1.3368
 4231SOL    HW214894   6.105   3.560   4.864  1.3684 -0.2252 -0.7076
 4232SOL     OW14895   7.840   0.914   8.945 -0.4556  0.4333 -0.6483
 4232SOL    HW114896   7.798   0.884   9.026  2.0349 -2.7543 -0.3559
 4232SOL    HW214897   7.888   0.992   8.972 -3.2564  2.1724 -0.2524
 4233SOL     OW14898   8.858   7.368   2.198 -0.0078 -0.8835 -0.5151
 4233SOL    HW114899   8.850   7.380   2.104 -0.5964  1.9538 -0.1801
 4233SOL    HW214900   8.952   7.363   2.214  0.4061  2.9013 -0.9345
 4234SOL     OW14901   1.001   8.219   7.014  0.1402 -0.2783 -0.1041
 4234SOL    HW114902   0.950   8.239   6.936  0.0342  0.8759  0.2366
 4234SOL    HW214903   1.068   8.156   6.985  0.6730  0.8149 -1.3183
 4235SOL     OW14904   6.252   4.847   8.292  0.0719  0.0920 -0.2712
 4235SOL    HW114905   6.211   4.789   8.356 -0.0784  0.2038 -0.2651
 4235SOL    HW214906   6.308   4.905   8.345  0.9036 -0.6093 -0.3570
 4236SOL     OW14907   7.113   2.300   7.401 -0.2978 -0.1801  0.2915
 4236SOL    HW114908   7.031   2.336   7.434 -0.1895 -0.6028  1.0377
 4236SOL    HW214909   7.112   2.320   7.307 -0.7778  0.7143  0.4788
 4237SOL     OW14910   7.078   6.583   0.826 -0.1052  0.1678  0.5620
 4237SOL    HW114911   7.059   6.647   0.758  0.6218 -1.0289 -0.8014
 4237SOL    HW214912   7.173   6.571   0.822 -0.4578 -3.0055 -1.1571
 4238SOL     OW14913   0.919   1.826   6.141 -0.4179 -0.4022 -0.2638
 4238SOL    HW114914   0.867   1.818   6.220 -1.2483 -0.0492 -0.7608
 4238SOL    HW214915   0.883   1.761   6.081  0.8489 -1.3568 -0.0293
 4239SOL     OW14916   1.765   2.602   2.720 -0.5663 -0.5313 -0.0701
 4239SOL    HW114917   1.711   2.586   2.798 -0.0672 -1.9365  0.0207
 4239SOL    HW214918   1.834   2.535   2.726 -0.1796 -0.2613 -1.4054
 4240SOL     OW14919   0.338   5.664   8.853 -0.2606 -0.1394  0.3296
 4240SOL    HW114920   0.400   5.622   8.912 -0.4463 -0.1647  0.5047
 4240SOL    HW214921   0.252   5.642   8.888 -0.3591  0.7991  0.7161
 4241SOL     OW14922   4.772   2.361   7.971  0.5910  0.5006  0.0990
 4241SOL    HW114923   4.857   2.389   8.005  1.1699 -1.2651  0.1974
 4241SOL    HW214924   4.789   2.343   7.878  0.3386  0.0955  0.1310
 4242SOL     OW14925   1.697   3.665   5.255  0.2470  0.4980 -0.0778
 4242SOL    HW114926   1.731   3.576   5.247  0.9466  0.7872 -0.3643
 4242SOL    HW214927   1.757   3.708   5.316 -1.3342  0.1730  1.8425
 4243SOL     OW14928   5.661   8.238   3.142  0.1349  0.1617 -0.2119
 4243SOL    HW114929   5.597   8.281   3.086  0.6770 -0.3279 -1.2260
 4243SOL    HW214930   5.650   8.144   3.125  0.4338  0.0160  0.3536
 4244SOL     OW14931   3.233   1.914   0.697 -0.0644 -0.4055  0.0417
 4244SOL    HW114932   3.155   1.865   0.673 -0.2442  0.4378 -1.1542
 4244SOL    HW214933   3.208   2.006   0.689  0.6045 -0.0988  1.1556
 4245SOL     OW14934   2.039   5.492   3.604 -0.1288  0.2439  0.1666
 4245SOL    HW114935   2.047   5.402   3.574  1.3325  0.9113 -1.6122
 4245SOL    HW214936   2.129   5.525   3.606 -0.4338  1.1803  2.5123
 4246SOL     OW14937   4.554   3.393   2.002 -0.5049  0.0615  0.4885
 4246SOL    HW114938   4.571   3.318   2.060 -0.2967  0.9722  1.6414
 4246SOL    HW214939   4.628   3.451   2.015 -1.3497  1.1236  0.7065
 4247SOL     OW14940   7.180   7.302   8.368 -0.5340  0.6087 -0.4539
 4247SOL    HW114941   7.179   7.366   8.439 -0.6306  0.5682 -0.4190
 4247SOL    HW214942   7.184   7.217   8.411 -0.2559  0.5940 -0.5013
 4248SOL     OW14943   4.409   3.178   7.167 -0.0048 -0.1136  0.3318
 4248SOL    HW114944   4.347   3.203   7.235 -1.7986  0.1174 -1.3060
 4248SOL    HW214945   4.469   3.118   7.211 -1.3442 -0.3088  2.0072
 4249SOL     OW14946   6.124   0.434   4.097 -0.2934 -0.1137  0.2975
 4249SOL    HW114947   6.036   0.397   4.097 -0.1304 -0.5058  0.2097
 4249SOL    HW214948   6.113   0.523   4.065 -0.5775 -0.3662 -0.3244
 4250SOL     OW14949   4.035   6.668   6.158  0.3699  0.0294 -0.1311
 4250SOL    HW114950   4.023   6.684   6.252  2.5651 -0.8102  0.3496
 4250SOL    HW214951   3.978   6.593   6.139 -2.2416  1.8631 -0.1849
 4251SOL     OW14952   5.473   7.205   2.902 -0.3424 -0.0005  0.2922
 4251SOL    HW114953   5.458   7.146   2.976 -0.5574  1.5291  1.5183
 4251SOL    HW214954   5.560   7.242   2.919  0.0090 -0.3094 -0.7381
 4252SOL     OW14955   5.394   4.333   2.325 -0.8368  0.3505 -0.5959
 4252SOL    HW114956   5.469   4.301   2.376 -1.7839 -0.8188  0.1528
 4252SOL    HW214957   5.374   4.261   2.265 -1.0685  0.8500 -1.1255
 4253SOL     OW14958   1.205   5.677   6.169 -0.1156  0.1638 -0.1775
 4253SOL    HW114959   1.157   5.728   6.104 -2.5333 -0.3529  1.0933
 4253SOL    HW214960   1.137   5.627   6.215  1.8139 -1.7365  0.7793
 4254SOL     OW14961   6.148   9.199   0.089 -0.5361 -0.4035 -0.0002
 4254SOL    HW114962   6.074   9.216   0.030 -1.1266  1.3180  1.1484
 4254SOL    HW214963   6.210   9.269   0.071 -0.4216 -0.2507  0.9484
 4255SOL     OW14964   0.675   4.448   2.942  0.6196  0.0317  0.1765
 4255SOL    HW114965   0.658   4.529   2.894  0.2614 -0.6473 -0.8780
 4255SOL    HW214966   0.617   4.383   2.901  2.7471 -1.3895 -0.7625
 4256SOL     OW14967   9.439   7.640   8.032 -0.2445 -0.1125 -0.4052
 4256SOL    HW114968   9.390   7.697   8.091 -2.5943 -2.6057  0.2286
 4256SOL    HW214969   9.528   7.640   8.067 -0.6605  1.5207  0.7647
 4257SOL     OW14970   7.020   8.167   5.225 -0.0418 -0.0962 -0.2576
 4257SOL    HW114971   7.110   8.147   5.199 -0.3682  0.5908 -2.1014
 4257SOL    HW214972   7.001   8.251   5.182 -1.7109 -0.4541 -0.2870
 4258SOL     OW14973   5.517   3.776   0.912 -0.3434  0.5987  0.1737
 4258SOL    HW114974   5.557   3.691   0.898 -0.8204  0.1157  1.5359
 4258SOL    HW214975   5.476   3.798   0.828 -0.3247 -0.5619 -0.1502
 4259SOL     OW14976   7.675   7.208   4.616 -0.7176  0.4588  0.1524
 4259SOL    HW114977   7.750   7.158   4.648 -1.0404 -0.6750 -0.8167
 4259SOL    HW214978   7.650   7.263   4.691  1.0461  0.8426  0.5066
 4260SOL     OW14979   1.094   0.281   1.173  0.7215 -0.7599 -0.4252
 4260SOL    HW114980   1.190   0.288   1.171  0.5701  2.4918 -1.4833
 4260SOL    HW214981   1.066   0.307   1.085 -1.1504 -2.3743 -0.3730
 4261SOL     OW14982   9.075   5.023   6.249  0.2144 -0.3559 -0.3179
 4261SOL    HW114983   9.159   4.988   6.218 -0.4609 -0.9227 -1.5669
 4261SOL    HW214984   9.014   5.007   6.177 -1.1092 -0.4679  0.7857
 4262SOL     OW14985   4.211   6.730   1.498 -0.0357 -0.3501  0.1752
 4262SOL    HW114986   4.115   6.733   1.504 -0.0552 -0.2810 -0.1356
 4262SOL    HW214987   4.236   6.655   1.551 -0.4094 -1.6163 -1.3368
 4263SOL     OW14988   3.654   1.329   9.350 -0.4940 -0.3051 -0.3600
 4263SOL    HW114989   3.609   1.390   9.409 -1.5074 -0.7844 -0.6073
 4263SOL    HW214990   3.728   1.296   9.401 -0.8114 -0.0018  0.3084
 4264SOL     OW14991   6.678   3.963   3.883  0.1236  0.0630  0.1803
 4264SOL    HW114992   6.705   3.872   3.890  2.4516  0.7630  1.1943
 4264SOL    HW214993   6.730   4.010   3.948 -0.5942  2.2157 -0.6691
 4265SOL     OW14994   4.687   3.214   2.252  0.7028 -0.1946  0.1653
 4265SOL    HW114995   4.759   3.237   2.311 -0.3495  1.2044  0.9736
 4265SOL    HW214996   4.610   3.257   2.290 -0.7022 -2.1053 -0.3515
 4266SOL     OW14997   7.401   9.078   1.114  0.3470 -0.2355 -0.0573
 4266SOL    HW114998   7.483   9.066   1.162 -0.3425 -1.4085  0.8650
 4266SOL    HW214999   7.333   9.045   1.173 -0.8368  0.9605 -0.6866
 4267SOL     OW15000   2.035   7.093   7.085 -0.4764 -0.5010  0.1757
 4267SOL    HW115001   1.988   7.176   7.097  1.4719  0.7848 -0.6349
 4267SOL    HW215002   1.991   7.053   7.010 -0.9051  0.1960  0.0364
 4268SOL     OW15003   4.746   8.720   8.436 -0.2394  0.1084  0.2534
 4268SOL    HW115004   4.762   8.649   8.498 -1.9641  0.9049  1.7168
 4268SOL    HW215005   4.709   8.678   8.359  0.9085 -0.7935  0.1689
 4269SOL     OW15006   3.147   8.672   2.872  0.0624  0.2354  0.6335
 4269SOL    HW115007   3.203   8.643   2.799 -0.1918 -1.2291  0.9901
 4269SOL    HW215008   3.208   8.705   2.937  0.6955 -2.4134  1.5049
 4270SOL     OW15009   4.946   2.190   8.220  0.0204  0.4376 -0.5437
 4270SOL    HW115010   4.977   2.210   8.308  1.0606  0.7821 -0.9641
 4270SOL    HW215011   4.963   2.270   8.170 -0.9517  0.3955 -0.9699
 4271SOL     OW15012   3.197   7.890   7.937  0.3408 -0.3643  0.5377
 4271SOL    HW115013   3.166   7.980   7.948 -0.6948 -0.7815  1.1313
 4271SOL    HW215014   3.121   7.835   7.955 -0.6872 -1.3354 -5.0609
 4272SOL     OW15015   3.508   1.720   0.113  0.4121  0.2305  0.0600
 4272SOL    HW115016   3.579   1.701   0.174  0.6651 -1.8652 -0.8041
 4272SOL    HW215017   3.430   1.682   0.154  0.3868 -0.2246 -0.3917
 4273SOL     OW15018   5.691   2.722   5.351 -0.8773  0.0655  0.7649
 4273SOL    HW115019   5.766   2.772   5.382 -0.2030  0.3962 -1.2385
 4273SOL    HW215020   5.672   2.758   5.264 -2.2747 -1.1448  0.5243
 4274SOL     OW15021   8.974   7.948   4.274 -0.0100  0.3679  0.0040
 4274SOL    HW115022   9.032   7.954   4.350 -1.4762 -1.5219  1.3895
 4274SOL    HW215023   9.030   7.916   4.204  0.8046 -0.8117  1.1343
 4275SOL     OW15024   2.970   7.899   7.124 -0.3620  0.5662  0.3337
 4275SOL    HW115025   3.022   7.974   7.153  0.2435 -0.5060  2.1670
 4275SOL    HW215026   2.999   7.883   7.034 -1.8875  3.6536 -0.8462
 4276SOL     OW15027   0.050   2.147   6.200  0.8106 -0.9693 -0.4762
 4276SOL    HW115028   0.039   2.127   6.293  0.6558  1.3120  0.0472
 4276SOL    HW215029  -0.027   2.107   6.158 -0.5825  0.2466  0.7882
 4277SOL     OW15030   5.095   3.835   5.030 -0.2164  0.0515  0.5213
 4277SOL    HW115031   5.024   3.799   5.083  0.6291 -1.6016  0.5897
 4277SOL    HW215032   5.085   3.795   4.944  0.5757 -0.1502  0.5121
 4278SOL     OW15033   1.241   4.313   5.220  0.3920 -0.5639 -0.6101
 4278SOL    HW115034   1.288   4.377   5.273  0.8737  0.2276 -1.9318
 4278SOL    HW215035   1.198   4.256   5.283  1.2901  0.0710  0.6177
 4279SOL     OW15036   6.869   2.562   5.613 -0.5022  1.0748 -0.4865
 4279SOL    HW115037   6.946   2.510   5.591  0.0453  1.1064  1.2064
 4279SOL    HW215038   6.795   2.508   5.587  0.0664  0.9351 -1.9017
 4280SOL     OW15039   6.745   4.894   2.724 -0.3314 -0.6552  0.2126
 4280SOL    HW115040   6.652   4.907   2.741 -0.3761 -0.6954  0.0090
 4280SOL    HW215041   6.775   4.835   2.793 -0.0515  0.7610  1.3291
 4281SOL     OW15042   8.411   3.583   2.394 -0.2557  0.2469 -0.0067
 4281SOL    HW115043   8.484   3.581   2.457 -1.2363 -0.4203  1.1692
 4281SOL    HW215044   8.335   3.604   2.448 -1.0099  0.4200 -1.1257
 4282SOL     OW15045   2.408   9.376   5.185 -0.2546 -0.4351  0.3975
 4282SOL    HW115046   2.460   9.383   5.265  0.4052 -0.3101 -0.0362
 4282SOL    HW215047   2.371   9.463   5.173  1.2473  0.1298 -0.4885
 4283SOL     OW15048   8.483   4.609   9.543 -0.5168  0.2819 -0.4833
 4283SOL    HW115049   8.504   4.544   9.610 -0.8139  1.0375  0.3554
 4283SOL    HW215050   8.567   4.630   9.502 -0.1346  0.7089  0.4875
 4284SOL     OW15051   5.100   1.623   2.598  0.2640  0.0157 -0.8535
 4284SOL    HW115052   5.124   1.622   2.690 -0.5336  3.4039 -0.4982
 4284SOL    HW215053   5.006   1.608   2.597  0.4218 -1.0424 -1.2456
 4285SOL     OW15054   2.359   9.450   5.776 -0.4244  0.1249 -0.2162
 4285SOL    HW115055   2.278   9.469   5.729  0.3441 -0.3331 -1.8209
 4285SOL    HW215056   2.349   9.360   5.807 -0.8529  0.3581  0.3408
 4286SOL     OW15057   0.181   9.260   7.996 -0.1129 -0.1994 -0.2331
 4286SOL    HW115058   0.260   9.207   7.987 -0.8304 -0.9741 -2.8761
 4286SOL    HW215059   0.210   9.350   7.984  0.3703 -0.5033 -1.5157
 4287SOL     OW15060   3.833   9.150   3.654  0.4396 -0.5282 -0.6397
 4287SOL    HW115061   3.787   9.188   3.579  2.0840 -1.0243 -1.9582
 4287SOL    HW215062   3.772   9.161   3.727 -0.3255  1.9830 -1.5414
 4288SOL     OW15063   1.847   3.476   9.179  0.0910  0.1613 -0.6055
 4288SOL    HW115064   1.851   3.459   9.273  0.0221  1.7035 -0.3015
 4288SOL    HW215065   1.805   3.398   9.142 -1.0726  0.0785  0.8047
 4289SOL     OW15066   6.222   5.031   2.220  0.2527 -0.3142  0.2232
 4289SOL    HW115067   6.311   4.996   2.224  0.3933 -0.0498 -0.4905
 4289SOL    HW215068   6.216   5.091   2.294  0.6606 -0.3478  0.2822
 4290SOL     OW15069   4.211   8.480   5.369 -0.0424  0.2081  0.0399
 4290SOL    HW115070   4.167   8.436   5.441  0.8199 -0.8265 -0.0542
 4290SOL    HW215071   4.298   8.440   5.365  0.5544  1.5002 -0.4332
 4291SOL     OW15072   7.058   5.423   0.143  0.4744  0.0115  0.2864
 4291SOL    HW115073   7.106   5.408   0.224 -0.5496  0.8050  1.0608
 4291SOL    HW215074   7.107   5.493   0.099  0.5536  0.1640  0.6160
 4292SOL     OW15075   7.441   3.360   0.153  0.0208 -0.0961 -0.2614
 4292SOL    HW115076   7.429   3.392   0.243  0.4350 -0.1966 -0.1675
 4292SOL    HW215077   7.525   3.395   0.126  0.9105 -1.7939  0.1558
 4293SOL     OW15078   2.104   8.345   9.278  0.2498  0.2233  0.1192
 4293SOL    HW115079   2.183   8.295   9.257  1.0352  0.8182  1.5231
 4293SOL    HW215080   2.134   8.413   9.338 -1.7042 -1.1664  2.9246
 4294SOL     OW15081   7.475   6.534   1.019  0.5263  0.6874 -0.1152
 4294SOL    HW115082   7.518   6.465   0.967 -0.5291  0.4875 -0.7537
 4294SOL    HW215083   7.546   6.573   1.069  1.1717 -0.8242  0.2264
 4295SOL     OW15084   2.758   9.313   2.899 -0.3395 -0.1324  0.3988
 4295SOL    HW115085   2.692   9.245   2.889  0.0442 -0.4327 -0.1654
 4295SOL    HW215086   2.841   9.265   2.907  0.0234  0.2731 -0.7709
 4296SOL     OW15087   6.481   7.330   3.546 -0.3934  0.4104 -0.0240
 4296SOL    HW115088   6.445   7.290   3.466 -2.0097  0.4356  0.6498
 4296SOL    HW215089   6.552   7.386   3.515  0.4240 -1.1833 -1.2312
 4297SOL     OW15090   2.473   0.751   0.092 -0.0756 -0.4723 -0.0379
 4297SOL    HW115091   2.558   0.780   0.126 -0.6589  0.6887  0.4692
 4297SOL    HW215092   2.480   0.762  -0.003 -0.2044  1.1602  0.1252
 4298SOL     OW15093   7.443   7.922   1.372  0.0514 -0.3905  0.0974
 4298SOL    HW115094   7.531   7.956   1.357  0.0255 -0.8777 -1.3009
 4298SOL    HW215095   7.456   7.831   1.399 -0.0048 -0.2545  0.5952
 4299SOL     OW15096   0.201   4.208   2.750 -0.0586  0.3777  0.2784
 4299SOL    HW115097   0.216   4.147   2.677  0.5013  2.0633 -1.0949
 4299SOL    HW215098   0.123   4.256   2.725 -0.6172  0.1161  1.4537
 4300SOL     OW15099   3.018   2.943   3.021 -0.0999 -0.3410 -0.2268
 4300SOL    HW115100   2.959   3.011   2.988  0.5815 -0.0986 -0.9793
 4300SOL    HW215101   3.101   2.960   2.978  0.3203 -1.1433  0.2336
 4301SOL     OW15102   8.280   7.168   0.167 -0.1362  0.0915  0.0991
 4301SOL    HW115103   8.314   7.080   0.155  0.2368  0.2469 -0.0124
 4301SOL    HW215104   8.215   7.160   0.237  2.3387  0.3045  2.6093
 4302SOL     OW15105   0.135   0.865   6.523 -0.2939  0.2425  0.2230
 4302SOL    HW115106   0.110   0.889   6.433  0.5733  1.7820  0.3570
 4302SOL    HW215107   0.083   0.922   6.579 -0.1871 -0.0922  0.6671
 4303SOL     OW15108   6.845   6.506   6.415 -0.5036  0.1389  0.2637
 4303SOL    HW115109   6.890   6.589   6.430  0.8120 -0.5024  0.0444
 4303SOL    HW215110   6.785   6.524   6.343 -0.2614  0.9198  0.2497
 4304SOL     OW15111   3.186   3.349   1.531  0.1593 -0.3317  0.8579
 4304SOL    HW115112   3.255   3.386   1.477  0.9328 -0.2271  1.8984
 4304SOL    HW215113   3.140   3.425   1.567 -0.7656 -0.3990 -0.1491
 4305SOL     OW15114   8.620   1.661   8.182 -0.4674 -0.0617 -0.1758
 4305SOL    HW115115   8.559   1.591   8.204  1.6155 -1.4631  1.5939
 4305SOL    HW215116   8.579   1.740   8.217 -1.6597 -0.7946  0.1520
 4306SOL     OW15117   2.901   8.389   0.827 -0.2130 -0.7128 -0.2650
 4306SOL    HW115118   2.917   8.341   0.746 -0.7594 -0.4892 -0.5174
 4306SOL    HW215119   2.839   8.458   0.801 -0.7488 -0.9175  0.4339
 4307SOL     OW15120   0.898   6.968   3.105  0.4214  0.5898  0.0143
 4307SOL    HW115121   0.852   6.884   3.110  0.6989  0.5176  2.5220
 4307SOL    HW215122   0.967   6.954   3.041  1.1415 -1.4780  1.1584
 4308SOL     OW15123   2.960   4.159   6.077  0.7484  0.0931 -0.0634
 4308SOL    HW115124   2.886   4.100   6.086 -0.6557  1.7366 -0.2992
 4308SOL    HW215125   2.986   4.179   6.167  2.4259 -2.1859  0.0600
 4309SOL     OW15126   4.834   5.386   4.829  0.6610 -0.3961  0.0003
 4309SOL    HW115127   4.849   5.359   4.920  2.2881  0.2803 -0.0365
 4309SOL    HW215128   4.761   5.448   4.835 -1.1170 -2.3811  0.4487
 4310SOL     OW15129   7.315   3.819   5.568 -0.1436 -0.4235  0.7567
 4310SOL    HW115130   7.389   3.796   5.624 -0.5703 -2.4684  0.5585
 4310SOL    HW215131   7.351   3.817   5.479  0.0157  0.5877  0.7919
 4311SOL     OW15132   9.234   3.607   4.159  0.0844  0.1596 -0.4599
 4311SOL    HW115133   9.300   3.607   4.089 -0.6950  1.0501 -1.2221
 4311SOL    HW215134   9.253   3.528   4.209  0.6581 -0.5109 -1.6834
 4312SOL     OW15135   3.145   3.019   8.604  0.3562 -0.1522  0.6853
 4312SOL    HW115136   3.154   2.943   8.662  1.9949 -0.6757 -0.1857
 4312SOL    HW215137   3.234   3.054   8.598  0.3580 -0.4451 -1.9224
 4313SOL     OW15138   0.560   6.482   6.853 -0.0910 -0.8531 -0.3021
 4313SOL    HW115139   0.622   6.522   6.792  0.0452 -1.5234 -0.6102
 4313SOL    HW215140   0.488   6.545   6.859 -0.4509 -1.1100 -1.7284
 4314SOL     OW15141   9.057   8.109   5.482 -0.5045  0.0579  0.7212
 4314SOL    HW115142   8.999   8.178   5.515  0.8202  2.3323 -1.3074
 4314SOL    HW215143   9.144   8.132   5.516 -0.0241 -0.5460 -0.0611
 4315SOL     OW15144   4.741   9.352   9.336 -0.6874 -0.5115  0.0367
 4315SOL    HW115145   4.799   9.426   9.355 -2.1409  0.1757  2.1433
 4315SOL    HW215146   4.756   9.334   9.243  0.7843  1.4569 -0.1907
 4316SOL     OW15147   4.427   4.735   6.267  0.5385  0.0837 -0.0207
 4316SOL    HW115148   4.410   4.661   6.209  0.7203  0.4220 -0.5138
 4316SOL    HW215149   4.364   4.725   6.338 -0.0438 -0.0371 -0.5507
 4317SOL     OW15150   0.473   4.598   6.043 -0.3374  0.3275  0.3216
 4317SOL    HW115151   0.555   4.550   6.052 -0.6563 -0.3062 -0.0575
 4317SOL    HW215152   0.412   4.552   6.101 -1.1917 -1.0224 -1.5088
 4318SOL     OW15153   1.975   2.476   6.747  0.6927 -0.0598  0.0705
 4318SOL    HW115154   1.929   2.428   6.679 -1.3158  0.7069  0.8189
 4318SOL    HW215155   2.017   2.549   6.701  1.5545 -0.9992 -0.6794
 4319SOL     OW15156   0.415   1.172   2.958 -0.0787  0.1182 -0.6298
 4319SOL    HW115157   0.484   1.114   2.927  0.0744 -1.8091  2.7758
 4319SOL    HW215158   0.457   1.224   3.026 -1.4049  0.6357 -0.1805
 4320SOL     OW15159   3.861   1.117   5.241 -0.6297  0.0605  0.5373
 4320SOL    HW115160   3.797   1.083   5.180 -1.3054 -0.0212  1.2810
 4320SOL    HW215161   3.900   1.192   5.195 -0.2330 -0.7402 -0.4757
 4321SOL     OW15162   5.778   6.047   3.713 -0.0141 -0.8428  0.2879
 4321SOL    HW115163   5.777   6.119   3.650  0.6436 -0.2253  0.9559
 4321SOL    HW215164   5.691   6.007   3.706 -0.5120  0.2291  0.1502
 4322SOL     OW15165   7.450   4.759   2.005 -0.2724 -0.4317  0.0021
 4322SOL    HW115166   7.536   4.722   1.988 -0.2292 -0.5718  0.5318
 4322SOL    HW215167   7.395   4.726   1.933 -0.1677 -1.3004  0.3137
 4323SOL     OW15168   0.047   7.947   7.844  0.6682 -0.2991  0.1701
 4323SOL    HW115169   0.072   8.023   7.791  0.9984 -0.8894 -0.5317
 4323SOL    HW215170   0.006   7.887   7.782 -0.2432 -0.4000  0.8530
 4324SOL     OW15171   4.949   8.159   9.247  0.3376 -0.4009 -0.2563
 4324SOL    HW115172   4.965   8.229   9.183 -0.3016 -1.6878 -1.8969
 4324SOL    HW215173   4.972   8.078   9.200 -0.5073 -1.4169  1.0134
 4325SOL     OW15174   9.125   6.139   7.017 -0.0360 -0.2696  0.7016
 4325SOL    HW115175   9.098   6.112   6.929 -0.3585  1.8735  0.0876
 4325SOL    HW215176   9.214   6.104   7.026  0.2305 -0.0187 -0.7186
 4326SOL     OW15177   8.811   0.261   1.718 -0.5757  0.1374  0.2628
 4326SOL    HW115178   8.893   0.224   1.751 -1.4270 -0.5362  1.7139
 4326SOL    HW215179   8.794   0.337   1.773 -0.5735  0.7125 -0.5082
 4327SOL     OW15180   3.269   2.765   2.885  0.0924  0.0295  0.1785
 4327SOL    HW115181   3.304   2.708   2.953 -0.0603  0.7988  0.9330
 4327SOL    HW215182   3.339   2.772   2.820  0.3520 -0.4852  0.3996
 4328SOL     OW15183   6.595   9.132   3.193  0.4184 -0.2994 -0.0508
 4328SOL    HW115184   6.620   9.085   3.114 -0.4264  0.1924 -0.6245
 4328SOL    HW215185   6.652   9.209   3.195  1.8611 -1.3374  0.9340
 4329SOL     OW15186   3.202   9.556   5.740 -0.3073 -0.1835  0.9856
 4329SOL    HW115187   3.283   9.605   5.731 -0.5953  0.1014 -0.4622
 4329SOL    HW215188   3.228   9.470   5.773  0.6009 -0.1104  0.4856
 4330SOL     OW15189   8.400   3.596   3.167  0.1923  0.1050 -0.5749
 4330SOL    HW115190   8.435   3.626   3.083  2.8740 -0.9595  0.0620
 4330SOL    HW215191   8.442   3.652   3.232  0.0622 -0.6561  0.1896
 4331SOL     OW15192   0.684   6.424   2.166  0.5957  0.4899 -0.1469
 4331SOL    HW115193   0.664   6.346   2.218 -0.1713 -0.0951 -1.2569
 4331SOL    HW215194   0.632   6.412   2.086  0.2045  2.3076 -0.1960
 4332SOL     OW15195   3.793   8.915   5.437  0.3326  0.4930 -1.0612
 4332SOL    HW115196   3.790   8.860   5.516 -0.4837  1.5202 -0.3540
 4332SOL    HW215197   3.709   8.961   5.436  0.7281  1.2393 -2.0003
 4333SOL     OW15198   8.533   3.974   4.284 -0.5935  0.3467  0.5463
 4333SOL    HW115199   8.444   3.961   4.317 -0.9538  1.8239  0.2313
 4333SOL    HW215200   8.521   3.993   4.191 -0.1746  2.7181  0.9277
 4334SOL     OW15201   5.852   4.561   5.922  0.0157  0.2149 -0.3716
 4334SOL    HW115202   5.778   4.613   5.953  1.3680  1.5508  0.8006
 4334SOL    HW215203   5.884   4.516   6.000 -0.2501 -1.3089 -1.1000
 4335SOL     OW15204   9.301   3.873   6.878 -0.5894 -0.1255  0.7100
 4335SOL    HW115205   9.247   3.933   6.827 -0.8887 -0.1492  0.9950
 4335SOL    HW215206   9.340   3.814   6.814  0.1670  0.7261  0.3652
 4336SOL     OW15207   2.175   6.926   1.787  0.0676  0.0469 -0.4653
 4336SOL    HW115208   2.132   6.900   1.869  0.4427  0.4080 -0.1488
 4336SOL    HW215209   2.257   6.967   1.815  1.0738 -1.4661 -1.1044
 4337SOL     OW15210   8.157   3.722   5.120 -0.3336 -0.0940  0.2033
 4337SOL    HW115211   8.253   3.722   5.121 -0.3226  1.0554  0.9980
 4337SOL    HW215212   8.133   3.784   5.052 -0.5218 -0.5886 -0.1843
 4338SOL     OW15213   4.138   6.752   7.931  0.5079 -0.2690 -0.0912
 4338SOL    HW115214   4.218   6.773   7.884  0.2364  1.5910  0.2150
 4338SOL    HW215215   4.159   6.673   7.981  1.8362 -0.3295 -0.7095
 4339SOL     OW15216   8.694   6.966   3.480  0.7313 -0.2928 -0.0636
 4339SOL    HW115217   8.777   6.953   3.527  1.0772  0.7686 -0.3506
 4339SOL    HW215218   8.715   7.030   3.412 -0.5699  0.8727  0.5765
 4340SOL     OW15219   2.251   0.324   6.024  0.2212  0.4673  0.6594
 4340SOL    HW115220   2.309   0.400   6.014 -1.7046  1.6970 -2.4423
 4340SOL    HW215221   2.246   0.285   5.937 -0.2118 -2.2713  1.8042
 4341SOL     OW15222   5.374   8.386   3.718  0.0633  0.0266 -0.1104
 4341SOL    HW115223   5.463   8.383   3.684  0.3966 -0.1231  0.7775
 4341SOL    HW215224   5.322   8.419   3.644  0.3989 -2.4085 -1.5423
 4342SOL     OW15225   3.088   3.598   1.583  0.0628 -0.5867  0.4294
 4342SOL    HW115226   3.013   3.611   1.524 -0.6266 -0.1401  1.3793
 4342SOL    HW215227   3.049   3.589   1.670  1.1250 -0.2420  0.9561
 4343SOL     OW15228   0.343   0.422   9.008 -0.7165  0.8081 -0.4973
 4343SOL    HW115229   0.269   0.437   9.067 -0.0706  1.4555  0.1700
 4343SOL    HW215230   0.421   0.429   9.063 -0.1643 -0.9755 -0.9612
 4344SOL     OW15231   8.186   0.397   6.729  0.2046  0.3324 -0.1925
 4344SOL    HW115232   8.260   0.339   6.745  0.8818  1.4535  1.0032
 4344SOL    HW215233   8.118   0.366   6.788  0.3512  0.3869  0.0059
 4345SOL     OW15234   0.159   5.586   3.837 -0.4175 -0.2664  0.2566
 4345SOL    HW115235   0.240   5.592   3.887 -0.2742 -0.9846  0.1135
 4345SOL    HW215236   0.095   5.551   3.899 -0.1930 -1.3403 -0.1047
 4346SOL     OW15237   1.949   1.180   7.616  0.3680 -0.3536 -0.1557
 4346SOL    HW115238   1.962   1.240   7.690 -1.5222  0.5056 -0.4602
 4346SOL    HW215239   1.886   1.116   7.647 -0.6655  0.1831 -1.0756
 4347SOL     OW15240   3.891   1.927   7.340  0.0703  0.3626 -0.4854
 4347SOL    HW115241   3.979   1.925   7.379  0.0719  1.6899 -0.3883
 4347SOL    HW215242   3.832   1.942   7.415 -0.3262 -1.1323 -0.4572
 4348SOL     OW15243   8.010   6.518   2.591 -0.3982  0.6458  0.0667
 4348SOL    HW115244   7.930   6.477   2.555 -0.5713 -0.2601  1.4282
 4348SOL    HW215245   8.008   6.497   2.684  1.1751  1.0714  0.2193
 4349SOL     OW15246   7.819   9.026   6.951  0.2041 -0.3124  0.5385
 4349SOL    HW115247   7.836   9.078   6.872  1.5481 -1.5358 -0.0258
 4349SOL    HW215248   7.871   9.069   7.019 -0.4188  0.3415  0.6171
 4350SOL     OW15249   7.664   7.198   5.246 -0.6483 -0.1702  0.2197
 4350SOL    HW115250   7.606   7.273   5.236 -1.9618 -0.9314  1.6670
 4350SOL    HW215251   7.656   7.174   5.339  0.4681 -1.5228  0.0027
 4351SOL     OW15252   8.427   1.281   5.427  0.2717  0.4359 -0.5764
 4351SOL    HW115253   8.441   1.291   5.332  2.0687 -0.1330 -0.3950
 4351SOL    HW215254   8.417   1.187   5.440 -0.1607  0.5292 -0.2158
 4352SOL     OW15255   4.236   5.755   5.356  0.0244 -0.1902  0.4633
 4352SOL    HW115256   4.163   5.817   5.360 -0.1288 -0.4362  2.9740
 4352SOL    HW215257   4.313   5.808   5.375  0.4377 -0.1149 -1.2352
 4353SOL     OW15258   5.600   4.200   4.251 -0.1695  0.3481 -0.4224
 4353SOL    HW115259   5.604   4.287   4.289 -0.6221  0.2378 -0.1124
 4353SOL    HW215260   5.547   4.149   4.312  1.4469 -0.5993  0.2772
 4354SOL     OW15261   3.498   8.484   6.811  0.2355 -0.1082  0.4806
 4354SOL    HW115262   3.461   8.445   6.732  0.2918 -1.6389  1.1704
 4354SOL    HW215263   3.592   8.468   6.803  0.3274  0.3953  0.5193
 4355SOL     OW15264   8.292   9.251   2.668  0.0180  0.1019  0.3939
 4355SOL    HW115265   8.257   9.237   2.756 -1.1966  0.6359  0.0157
 4355SOL    HW215266   8.327   9.340   2.670 -0.6301  0.3674  0.1499
 4356SOL     OW15267   1.612   0.373   0.460  0.8929 -0.6090  0.6619
 4356SOL    HW115268   1.685   0.333   0.412  0.7674 -1.8835  1.4705
 4356SOL    HW215269   1.540   0.310   0.451 -0.0637  0.5199  0.0727
 4357SOL     OW15270   7.539   9.410   3.811 -0.2899 -0.1321 -0.2937
 4357SOL    HW115271   7.564   9.322   3.785 -1.0670 -0.3356 -0.3856
 4357SOL    HW215272   7.493   9.445   3.734 -0.5038  0.1281 -0.0493
 4358SOL     OW15273   8.671   2.983   9.270 -0.1583 -0.1827 -0.1764
 4358SOL    HW115274   8.724   2.910   9.303  0.4647 -0.1074 -0.9984
 4358SOL    HW215275   8.693   2.989   9.177 -1.6257 -0.1619 -0.5460
 4359SOL     OW15276   1.688   2.654   1.840  0.3179  0.2254  0.0461
 4359SOL    HW115277   1.727   2.723   1.786 -1.3616  0.5411 -0.8221
 4359SOL    HW215278   1.756   2.586   1.843  0.7033  0.4343 -2.0227
 4360SOL     OW15279   4.703   5.772   2.495 -0.3853 -0.0289 -0.0387
 4360SOL    HW115280   4.675   5.863   2.503 -0.5835 -0.0789 -0.1806
 4360SOL    HW215281   4.657   5.727   2.565  0.3938  0.1397  0.6040
 4361SOL     OW15282   9.552   5.542   9.123  0.4851 -0.0104 -0.1999
 4361SOL    HW115283   9.469   5.555   9.169  0.0050 -0.4075 -0.9378
 4361SOL    HW215284   9.611   5.609   9.159 -0.2194  0.4165  0.1694
 4362SOL     OW15285   6.834   4.674   8.012  0.0749  0.3302  0.0436
 4362SOL    HW115286   6.913   4.682   7.958  0.0583  1.3326  0.1354
 4362SOL    HW215287   6.866   4.637   8.095  0.4616  0.7339  0.0824
 4363SOL     OW15288   8.503   8.717   2.174 -0.5427 -0.0230 -0.7958
 4363SOL    HW115289   8.575   8.680   2.225 -1.9585 -1.1384  0.4634
 4363SOL    HW215290   8.468   8.643   2.125 -1.9972  0.0717  0.0451
 4364SOL     OW15291   6.086   8.461   8.522  0.3741 -0.3582  0.0132
 4364SOL    HW115292   6.093   8.485   8.430  0.2584 -0.7592 -0.0980
 4364SOL    HW215293   6.003   8.415   8.530  0.8632 -1.2484  0.1142
 4365SOL     OW15294   5.166   4.521   3.232 -0.1332  0.4196 -0.7641
 4365SOL    HW115295   5.106   4.498   3.303 -1.4422  0.1608 -1.9270
 4365SOL    HW215296   5.219   4.442   3.218 -1.7300 -0.5026 -1.8839
 4366SOL     OW15297   8.913   3.236   8.296 -0.1047  0.5436  0.6094
 4366SOL    HW115298   8.832   3.280   8.273 -0.5302  0.3926  1.7394
 4366SOL    HW215299   8.976   3.307   8.312 -0.6252  0.7623  1.8410
 4367SOL     OW15300   6.309   1.862   5.689 -0.1184  0.8956  0.1318
 4367SOL    HW115301   6.365   1.824   5.756 -1.6312 -0.8290  0.5055
 4367SOL    HW215302   6.368   1.881   5.616  0.9129 -1.2391  0.3338
 4368SOL     OW15303   0.989   5.135   0.542 -0.0100 -0.0538  0.3447
 4368SOL    HW115304   0.948   5.104   0.462 -0.2171 -1.5884  1.0015
 4368SOL    HW215305   1.031   5.217   0.518  0.8675 -1.0221 -1.6108
 4369SOL     OW15306   0.779   8.670   3.373 -0.0284  0.0587 -0.1072
 4369SOL    HW115307   0.752   8.649   3.284  0.8515 -0.7183 -0.2009
 4369SOL    HW215308   0.860   8.621   3.386  0.3154  0.8494  0.8224
 4370SOL     OW15309   7.102   5.288   2.513  0.0630  0.1974  0.0689
 4370SOL    HW115310   7.109   5.239   2.595 -0.2319  1.2517  0.7516
 4370SOL    HW215311   7.143   5.232   2.447  1.2616 -0.2331  1.1387
 4371SOL     OW15312   0.988   8.266   1.504  0.2554 -0.2138  0.6887
 4371SOL    HW115313   1.040   8.339   1.538  0.0965  0.5073 -0.5391
 4371SOL    HW215314   1.044   8.224   1.440 -0.1824 -0.2623  0.3337
 4372SOL     OW15315   6.227   6.949   6.237  0.0802 -0.4612 -0.1680
 4372SOL    HW115316   6.195   6.859   6.238 -0.8739 -0.2319 -2.7445
 4372SOL    HW215317   6.323   6.941   6.237  0.0588 -1.6536 -2.7045
 4373SOL     OW15318   6.060   6.257   1.014  0.1875  0.1520  0.0139
 4373SOL    HW115319   6.028   6.262   1.104  1.3424  0.4871  0.4242
 4373SOL    HW215320   6.154   6.243   1.023  0.0629 -1.7672 -1.1462
 4374SOL     OW15321   0.333   3.123   7.315  0.1161 -0.0351  0.0435
 4374SOL    HW115322   0.417   3.116   7.361 -0.2460 -0.0813  0.7211
 4374SOL    HW215323   0.315   3.217   7.315 -0.2337 -0.0959  0.6611
 4375SOL     OW15324   3.465   6.019   5.323 -0.5729  0.6270 -0.5821
 4375SOL    HW115325   3.450   5.980   5.238 -1.8591 -1.8309  0.6691
 4375SOL    HW215326   3.389   5.994   5.375  1.6530 -0.9542  2.2362
 4376SOL     OW15327   0.246   2.911   2.281  0.2522  0.2418  0.1071
 4376SOL    HW115328   0.152   2.909   2.298 -0.5446 -1.5128 -3.5176
 4376SOL    HW215329   0.265   3.003   2.264 -0.8221  0.5950  0.7160
 4377SOL     OW15330   1.735   2.082   1.130 -0.3090 -0.6925  0.2198
 4377SOL    HW115331   1.730   2.147   1.060 -1.0119 -0.0773  0.8194
 4377SOL    HW215332   1.643   2.059   1.148 -0.1052 -1.2567  0.5619
 4378SOL     OW15333   1.284   9.156   1.316  0.4206 -0.5647  0.3276
 4378SOL    HW115334   1.255   9.183   1.403 -1.8935 -2.0790  0.1021
 4378SOL    HW215335   1.259   9.229   1.259 -1.5338 -1.1203  0.4078
 4379SOL     OW15336   5.047   8.685   0.421 -0.0188  0.0961  0.8473
 4379SOL    HW115337   4.961   8.715   0.391  0.9238  2.0722 -0.0260
 4379SOL    HW215338   5.079   8.629   0.350  0.5074  1.5309 -0.0884
 4380SOL     OW15339   1.235   6.412   6.982 -0.1976  0.4446 -0.1432
 4380SOL    HW115340   1.195   6.404   6.896 -2.0119  1.9619  0.4840
 4380SOL    HW215341   1.170   6.378   7.043  0.9127 -0.2835  0.6825
 4381SOL     OW15342   2.193   6.176   4.377  0.0009  0.4253  0.0554
 4381SOL    HW115343   2.236   6.142   4.456  0.3168 -1.8492 -1.0310
 4381SOL    HW215344   2.259   6.167   4.308 -0.7298  1.0904 -0.7449
 4382SOL     OW15345   9.289   2.957   4.069  0.8613  0.4425  0.3227
 4382SOL    HW115346   9.308   2.999   4.153 -0.2946 -0.2334  0.9517
 4382SOL    HW215347   9.348   2.881   4.067  0.3537  0.0283  0.8839
 4383SOL     OW15348   6.288   7.176   7.660  0.2380  0.3606 -0.1652
 4383SOL    HW115349   6.215   7.179   7.722  2.0251  1.1423  2.0545
 4383SOL    HW215350   6.364   7.203   7.712  2.0602 -0.0798 -2.4538
 4384SOL     OW15351   5.837   4.457   7.148 -0.3471 -0.0228 -0.0744
 4384SOL    HW115352   5.845   4.445   7.242 -0.6353 -0.0054 -0.0460
 4384SOL    HW215353   5.781   4.535   7.139 -1.2443 -0.6741 -0.2578
 4385SOL     OW15354   0.316   4.679   7.260 -0.3659 -0.2804 -0.2443
 4385SOL    HW115355   0.254   4.622   7.214 -1.2674 -1.8932  2.6872
 4385SOL    HW215356   0.263   4.753   7.289 -0.1785 -0.0859 -0.3936
 4386SOL     OW15357   5.041   3.819   7.152 -0.8689  0.1539 -0.1705
 4386SOL    HW115358   5.119   3.863   7.185 -0.3610 -0.0524 -1.0854
 4386SOL    HW215359   4.977   3.889   7.138 -1.4117  0.1775  2.0276
 4387SOL     OW15360   3.213   5.704   0.087  0.3140 -0.2192  0.3331
 4387SOL    HW115361   3.235   5.694  -0.006  2.6338 -1.8323  0.9590
 4387SOL    HW215362   3.295   5.685   0.133 -1.0670 -0.7037  2.7692
 4388SOL     OW15363   7.613   2.487   1.324  0.3852  0.2785  0.5408
 4388SOL    HW115364   7.637   2.409   1.374  1.4726  1.8368  2.6170
 4388SOL    HW215365   7.637   2.465   1.234  0.9220 -1.6713  1.0966
 4389SOL     OW15366   3.464   6.542   4.605  0.4795  0.1509 -0.0702
 4389SOL    HW115367   3.461   6.602   4.679  0.2747  1.4949 -1.1397
 4389SOL    HW215368   3.446   6.596   4.528  0.4667 -1.2401 -1.0990
 4390SOL     OW15369   2.761   0.251   0.227  0.3404  0.1765  0.5761
 4390SOL    HW115370   2.703   0.314   0.184 -0.3017  0.7075  2.1725
 4390SOL    HW215371   2.791   0.194   0.155  0.3009  1.7727 -0.7656
 4391SOL     OW15372   4.209   5.588   4.807  0.0400  0.6676  0.0664
 4391SOL    HW115373   4.116   5.581   4.827  0.0068  2.5161  0.7503
 4391SOL    HW215374   4.234   5.676   4.836  2.0919  0.0901  0.2396
 4392SOL     OW15375   4.083   0.702   0.848 -0.2749 -0.0636 -0.1702
 4392SOL    HW115376   4.123   0.688   0.763  1.4375  1.2567  0.3624
 4392SOL    HW215377   4.143   0.661   0.910  0.2268  1.7750  0.6313
 4393SOL     OW15378   2.067   7.530   6.702  0.4235  0.0452  0.0193
 4393SOL    HW115379   1.980   7.527   6.741  1.2946  2.0021  2.3954
 4393SOL    HW215380   2.053   7.550   6.610 -1.6445 -0.6769  0.1461
 4394SOL     OW15381   5.241   0.911   4.981  0.0117  0.3235  0.2242
 4394SOL    HW115382   5.212   0.820   4.987  0.9086  0.0301  0.2178
 4394SOL    HW215383   5.161   0.962   4.995 -0.7417 -0.4638 -1.0139
 4395SOL     OW15384   8.158   9.362   3.669 -0.5482  0.6445  0.6432
 4395SOL    HW115385   8.099   9.295   3.634 -0.3015  0.7904 -0.0682
 4395SOL    HW215386   8.214   9.315   3.730  0.3320 -0.0360 -0.6441
 4396SOL     OW15387   2.205   5.603   3.914 -0.3143 -0.0284 -0.0625
 4396SOL    HW115388   2.213   5.696   3.896  1.2470 -0.0813  0.2255
 4396SOL    HW215389   2.277   5.583   3.974 -2.7673 -0.7169  2.9083
 4397SOL     OW15390   8.640   3.068   5.355  0.3710  0.0197  0.0357
 4397SOL    HW115391   8.663   3.156   5.323  0.9176 -0.6597 -1.5263
 4397SOL    HW215392   8.623   3.081   5.448  0.4195  1.7939 -0.1568
 4398SOL     OW15393   4.225   9.368   5.831 -0.3586 -0.3915  0.0478
 4398SOL    HW115394   4.314   9.331   5.828  0.4809  1.5386 -1.7191
 4398SOL    HW215395   4.239   9.461   5.848 -1.7758  0.4531 -2.7974
 4399SOL     OW15396   5.723   7.489   3.273 -0.4931  0.0665 -0.0066
 4399SOL    HW115397   5.720   7.555   3.204  0.4515  1.3502  1.1111
 4399SOL    HW215398   5.643   7.503   3.324 -0.7808 -0.3272 -0.3446
 4400SOL     OW15399   6.283   1.361   4.837 -0.0029 -0.6478  0.1176
 4400SOL    HW115400   6.372   1.368   4.873  0.8782  0.2807 -2.0482
 4400SOL    HW215401   6.287   1.285   4.779 -1.5114 -2.3600  2.0708
 4401SOL     OW15402   9.242   9.326   8.326  0.6758 -0.2464  0.0698
 4401SOL    HW115403   9.209   9.400   8.275  2.7849 -0.1097 -1.2322
 4401SOL    HW215404   9.171   9.262   8.324 -1.4100  1.8462  1.6594
 4402SOL     OW15405   3.055   5.706   4.605 -0.3781 -0.2671 -0.0632
 4402SOL    HW115406   3.123   5.773   4.604 -2.4137  1.9095  0.0748
 4402SOL    HW215407   3.051   5.673   4.515  1.0518 -0.6943  0.0087
 4403SOL     OW15408   1.256   0.758   3.700  0.3489  0.4216 -0.3113
 4403SOL    HW115409   1.254   0.842   3.655  0.3240  1.5251  1.6537
 4403SOL    HW215410   1.331   0.764   3.760 -0.5699 -0.3205  0.9688
 4404SOL     OW15411   4.758   6.712   2.383  0.3388  0.3523 -0.1157
 4404SOL    HW115412   4.838   6.739   2.427  0.7825 -0.9376 -0.1160
 4404SOL    HW215413   4.766   6.748   2.294  0.3688  1.2161  0.2266
 4405SOL     OW15414   4.452   2.407   1.020  0.3320  0.1723 -0.3541
 4405SOL    HW115415   4.453   2.487   1.073 -0.6979  0.1292 -0.2440
 4405SOL    HW215416   4.370   2.363   1.045  0.9531 -0.9892 -0.3054
 4406SOL     OW15417   3.656   7.041   8.244 -0.2235  0.6088 -0.1069
 4406SOL    HW115418   3.655   6.963   8.189  1.8643 -0.8546  1.7812
 4406SOL    HW215419   3.579   7.032   8.301  1.0520 -1.1972  1.4469
 4407SOL     OW15420   8.852   5.828   2.215 -0.1840 -0.1031  0.4893
 4407SOL    HW115421   8.883   5.818   2.305  2.3622  0.6517 -0.2288
 4407SOL    HW215422   8.889   5.753   2.169  0.7516  0.8908 -0.4353
 4408SOL     OW15423   3.905   3.636   3.663 -0.1853  0.1098  0.6431
 4408SOL    HW115424   3.906   3.552   3.617  1.1158  0.3289  0.2123
 4408SOL    HW215425   3.865   3.697   3.601 -1.6339 -0.2735  1.1622
 4409SOL     OW15426   8.767   5.822   6.679 -0.1100  0.1689 -0.2019
 4409SOL    HW115427   8.809   5.906   6.693 -0.2320  0.3593 -0.9112
 4409SOL    HW215428   8.690   5.843   6.625  0.0144 -0.4228 -0.6233
 4410SOL     OW15429   6.451   5.578   8.702 -0.9381 -0.1143  0.0372
 4410SOL    HW115430   6.411   5.493   8.720 -0.4212 -0.0745  1.5231
 4410SOL    HW215431   6.529   5.580   8.757 -0.3402  0.8947 -0.7989
 4411SOL     OW15432   0.631   7.089   4.171  0.8993 -0.1960 -0.4057
 4411SOL    HW115433   0.659   7.011   4.219  0.6364  0.1226  0.2817
 4411SOL    HW215434   0.571   7.056   4.105 -0.1127 -0.4671  0.6173
 4412SOL     OW15435   6.266   6.050   5.949 -0.2967 -0.5442 -0.1809
 4412SOL    HW115436   6.213   6.086   6.019 -0.4190 -0.3874 -0.3528
 4412SOL    HW215437   6.223   5.967   5.927 -0.9920 -0.0093 -0.9121
 4413SOL     OW15438   5.431   3.642   6.605 -0.5983  0.2050  0.2971
 4413SOL    HW115439   5.502   3.586   6.574 -1.5799 -1.0644  0.2492
 4413SOL    HW215440   5.421   3.619   6.697 -0.7590  0.5901  0.3753
 4414SOL     OW15441   5.789   4.996   5.263  0.4920 -0.1930  0.6495
 4414SOL    HW115442   5.860   4.954   5.310  1.3666  0.0847 -0.3958
 4414SOL    HW215443   5.825   5.080   5.235 -0.5244  0.3217  0.8374
 4415SOL     OW15444   6.473   2.947   9.352 -0.0846 -0.0961  0.0734
 4415SOL    HW115445   6.396   2.945   9.410  0.1335 -1.5734  0.3595
 4415SOL    HW215446   6.438   2.929   9.265 -0.2403  0.7463 -0.0450
 4416SOL     OW15447   6.819   0.687   1.587 -0.3586 -0.2018 -0.0983
 4416SOL    HW115448   6.801   0.776   1.557  0.2769  0.0864  0.3368
 4416SOL    HW215449   6.855   0.642   1.511  0.0559  0.1519 -0.1168
 4417SOL     OW15450   2.829   6.569   2.476  0.2479  0.0413  0.0379
 4417SOL    HW115451   2.797   6.621   2.550 -1.3842 -0.0080 -0.6056
 4417SOL    HW215452   2.874   6.495   2.518 -0.6389  0.0184  1.0032
 4418SOL     OW15453   5.427   5.539   6.468  0.2584 -0.3762 -0.0063
 4418SOL    HW115454   5.332   5.537   6.478  0.4261 -1.0548  1.9773
 4418SOL    HW215455   5.454   5.448   6.484  1.1283 -0.6590 -2.5710
 4419SOL     OW15456   3.849   0.661   7.446 -0.1240 -0.2721 -0.2405
 4419SOL    HW115457   3.791   0.735   7.465  0.0003  0.4711 -2.4684
 4419SOL    HW215458   3.790   0.590   7.422 -0.1946  0.3144 -1.9406
 4420SOL     OW15459   3.601   6.865   6.759  0.6107 -0.3671  0.4023
 4420SOL    HW115460   3.618   6.891   6.849  0.8868  0.7046  0.0594
 4420SOL    HW215461   3.666   6.915   6.707  1.7682 -2.4163 -0.2269
 4421SOL     OW15462   0.315   2.218   7.859  0.4451  0.8784  0.1191
 4421SOL    HW115463   0.369   2.139   7.868  0.7331  1.1936  1.2975
 4421SOL    HW215464   0.370   2.288   7.893 -0.6247  1.2423  1.1494
 4422SOL     OW15465   5.928   3.250   3.012 -0.1862 -0.5406 -0.7720
 4422SOL    HW115466   5.943   3.322   3.073 -2.1519  0.0403 -0.9043
 4422SOL    HW215467   5.870   3.190   3.059 -0.3542 -0.9300 -1.4549
 4423SOL     OW15468   8.704   6.472   8.120  0.3514  0.4363  0.1555
 4423SOL    HW115469   8.793   6.436   8.114 -0.4111 -1.7590  0.8057
 4423SOL    HW215470   8.691   6.518   8.037  1.2468 -1.3503 -1.0431
 4424SOL     OW15471   6.462   5.820   7.066  0.3245 -0.5478  0.1175
 4424SOL    HW115472   6.465   5.775   6.982 -1.7565  0.7224 -0.7481
 4424SOL    HW215473   6.480   5.912   7.044  0.5741 -0.3341  1.1863
 4425SOL     OW15474   7.336   9.153   0.633  0.0805 -0.3143  0.0704
 4425SOL    HW115475   7.253   9.110   0.654 -0.4188  0.3824 -0.4336
 4425SOL    HW215476   7.403   9.087   0.653 -0.5925 -0.8968  0.4456
 4426SOL     OW15477   7.953   8.248   0.384  0.4233  0.2451 -0.0154
 4426SOL    HW115478   8.015   8.319   0.402 -0.1873  0.5051  1.1523
 4426SOL    HW215479   7.908   8.234   0.467 -0.5067 -0.5032 -0.6278
 4427SOL     OW15480   8.016   0.359   8.235 -0.6395 -0.0890 -0.2427
 4427SOL    HW115481   8.097   0.311   8.219 -0.1981  0.5979 -0.0959
 4427SOL    HW215482   8.036   0.449   8.210 -0.6918  0.5304  1.8132
 4428SOL     OW15483   4.081   6.858   9.448 -0.4933 -0.7237 -0.1984
 4428SOL    HW115484   4.012   6.817   9.397  0.4302 -1.0964 -1.1959
 4428SOL    HW215485   4.136   6.903   9.383 -1.8501  2.8364  0.8542
 4429SOL     OW15486   6.872   0.623   2.994 -0.0409 -0.1434  0.0768
 4429SOL    HW115487   6.916   0.569   3.060  0.7520  0.8122  0.3516
 4429SOL    HW215488   6.790   0.650   3.036  1.2368  1.9210  1.4257
 4430SOL     OW15489   1.465   2.276   5.249 -0.2853  0.6794 -0.0560
 4430SOL    HW115490   1.469   2.358   5.199  0.7645  1.7790  1.6890
 4430SOL    HW215491   1.378   2.241   5.231  0.4591  0.2794 -3.6114
 4431SOL     OW15492   7.479   7.992   2.824 -0.1683  0.1873  0.1421
 4431SOL    HW115493   7.403   7.955   2.870 -0.9240 -1.2115 -2.0826
 4431SOL    HW215494   7.542   7.920   2.822  2.1188  1.8358  3.5086
 4432SOL     OW15495   2.035   3.110   7.254 -0.0479  0.1095 -0.0580
 4432SOL    HW115496   2.093   3.037   7.233  2.3910  1.4447  1.6036
 4432SOL    HW215497   1.962   3.070   7.302  1.5861 -1.2134  1.4536
 4433SOL     OW15498   4.617   0.913   2.032  0.0096 -0.8868  0.1120
 4433SOL    HW115499   4.676   0.939   2.103  0.2278 -0.1425 -0.3353
 4433SOL    HW215500   4.648   0.826   2.006  2.0867  0.1673 -1.2910
 4434SOL     OW15501   5.711   7.215   5.849  0.8979 -0.0447 -0.4064
 4434SOL    HW115502   5.661   7.291   5.817  0.0944 -0.1287  0.5895
 4434SOL    HW215503   5.796   7.223   5.807  0.5911  1.0281 -0.8673
 4435SOL     OW15504   0.629   8.588   3.161 -0.1354  0.2634  0.1014
 4435SOL    HW115505   0.612   8.586   3.067 -0.7436  1.0567  0.1879
 4435SOL    HW215506   0.579   8.515   3.196  0.1526 -0.0830 -0.1942
 4436SOL     OW15507   4.115   1.673   7.740 -0.2146  0.1699  0.1106
 4436SOL    HW115508   4.117   1.749   7.682  2.4279 -0.1239 -0.3275
 4436SOL    HW215509   4.178   1.612   7.700 -1.9020 -2.0793  0.6992
 4437SOL     OW15510   6.973   9.470   8.307 -0.2369  0.3153  0.6644
 4437SOL    HW115511   6.947   9.562   8.308  2.2224  1.1396 -0.8791
 4437SOL    HW215512   7.068   9.472   8.299 -0.1322 -2.3637  0.1882
 4438SOL     OW15513   7.932   7.035   7.019  0.1793 -0.3243  0.6968
 4438SOL    HW115514   7.915   7.101   7.086  1.4576  0.9706 -0.1970
 4438SOL    HW215515   7.851   7.030   6.969  0.6006  1.9516 -0.3362
 4439SOL     OW15516   7.834   7.499   8.055 -0.2733 -0.1636  0.1684
 4439SOL    HW115517   7.785   7.428   8.012  0.4976 -0.4062 -0.3279
 4439SOL    HW215518   7.915   7.458   8.085  0.0085  0.4217  0.2197
 4440SOL     OW15519   4.938   3.051   5.848 -0.7839  0.5496 -0.0116
 4440SOL    HW115520   4.914   3.008   5.931 -1.3194 -0.1108 -0.4967
 4440SOL    HW215521   4.958   2.979   5.788  0.3117  1.0409 -0.2632
 4441SOL     OW15522   4.033   5.224   3.318  0.3742 -0.0788  0.2136
 4441SOL    HW115523   4.104   5.159   3.312  1.9320  1.6770 -2.2000
 4441SOL    HW215524   4.005   5.237   3.227  0.1471  2.6277  0.6057
 4442SOL     OW15525   7.851   4.658   0.297 -0.4305 -0.2278  0.2276
 4442SOL    HW115526   7.795   4.690   0.368  1.6941  0.9166  1.4866
 4442SOL    HW215527   7.894   4.581   0.334  1.1747  0.7502  0.4422
 4443SOL     OW15528   3.771   5.193   4.256  0.2809 -0.1112 -0.2400
 4443SOL    HW115529   3.849   5.139   4.243  0.3218 -0.2174  0.4108
 4443SOL    HW215530   3.804   5.283   4.262  0.3203 -0.1254 -0.2467
 4444SOL     OW15531   1.114   4.464   5.843  0.3935 -0.2537 -0.2703
 4444SOL    HW115532   1.179   4.480   5.775  2.2941 -0.5178  1.3999
 4444SOL    HW215533   1.155   4.495   5.923 -1.6320 -0.2885  0.8378
 4445SOL     OW15534   8.232   6.360   1.750  0.3017 -0.5102  0.1725
 4445SOL    HW115535   8.194   6.382   1.665  0.6463  1.7799  0.5497
 4445SOL    HW215536   8.160   6.369   1.812 -0.1357 -2.8942  0.1158
 4446SOL     OW15537   0.054   5.819   4.021  0.0497  0.1579 -0.2688
 4446SOL    HW115538   0.127   5.768   4.056  0.6328 -0.2559 -2.0015
 4446SOL    HW215539   0.085   5.850   3.936 -0.5804  2.7969  0.3773
 4447SOL     OW15540   5.384   2.367   2.516  0.1135  0.1230  0.0032
 4447SOL    HW115541   5.339   2.367   2.432 -0.0895  0.6500  0.1081
 4447SOL    HW215542   5.444   2.292   2.511 -0.9264 -0.7219 -0.0472
 4448SOL     OW15543   3.134   5.380   3.320 -0.6209 -0.9046 -0.2781
 4448SOL    HW115544   3.126   5.466   3.278 -2.5431 -1.1925 -0.6034
 4448SOL    HW215545   3.059   5.330   3.286 -0.9048 -1.9236  1.7185
 4449SOL     OW15546   2.733   8.205   7.104 -0.2609  0.0056  0.2285
 4449SOL    HW115547   2.815   8.170   7.070 -0.0654 -0.4482  1.1147
 4449SOL    HW215548   2.671   8.132   7.097 -0.2680 -0.0314  0.6485
 4450SOL     OW15549   5.217   0.050   5.174 -0.0608  0.0503 -0.5261
 4450SOL    HW115550   5.148   0.055   5.241 -0.7606  0.9797 -1.2804
 4450SOL    HW215551   5.196   0.121   5.114  1.1582 -0.1205 -1.1695
 4451SOL     OW15552   6.591   3.785   9.103 -0.2188  0.4580  0.3840
 4451SOL    HW115553   6.528   3.819   9.166 -0.3686  0.8981 -0.0062
 4451SOL    HW215554   6.585   3.843   9.028  0.7219  0.5661  0.3795
 4452SOL     OW15555   2.572   5.013   6.823  0.7599 -0.0826  0.1092
 4452SOL    HW115556   2.580   4.932   6.772 -0.0364  0.2794 -0.6246
 4452SOL    HW215557   2.629   5.075   6.779  0.3516  0.1294 -0.1198
 4453SOL     OW15558   2.733   2.828   3.662 -0.3387  0.6197 -0.3649
 4453SOL    HW115559   2.661   2.872   3.706 -0.0814 -0.6157  1.4545
 4453SOL    HW215560   2.782   2.787   3.734  2.0669  1.2586 -1.5489
 4454SOL     OW15561   4.822   6.492   1.994 -0.3995  0.2498 -0.1933
 4454SOL    HW115562   4.775   6.570   2.022 -1.0343 -0.6061  1.2087
 4454SOL    HW215563   4.914   6.518   1.996 -0.3625  0.2752  2.8728
 4455SOL     OW15564   1.103   7.226   4.659  0.4912  0.0705  0.3468
 4455SOL    HW115565   1.133   7.295   4.718  0.4225 -0.0079  0.4722
 4455SOL    HW215566   1.090   7.150   4.715 -1.2520  0.4656  0.5415
 4456SOL     OW15567   5.747   2.495   1.636  0.5455 -0.3594 -0.3552
 4456SOL    HW115568   5.781   2.467   1.721  1.1662  0.1961 -0.4110
 4456SOL    HW215569   5.652   2.498   1.647  0.5416 -1.3311 -0.0049
 4457SOL     OW15570   4.965   9.530   5.623  0.0454  0.5561  0.1395
 4457SOL    HW115571   4.879   9.520   5.663  0.1065 -2.9254 -0.2851
 4457SOL    HW215572   5.027   9.499   5.689  0.4423 -1.7093 -1.1651
 4458SOL     OW15573   6.295   3.724   4.106  0.0935  0.3761 -0.6917
 4458SOL    HW115574   6.248   3.643   4.126 -0.9306  1.1515  0.1324
 4458SOL    HW215575   6.255   3.756   4.025 -0.0802  0.4910 -0.5609
 4459SOL     OW15576   0.397   0.514   7.992 -0.3641 -0.2353 -0.1537
 4459SOL    HW115577   0.354   0.489   7.910  0.0701 -0.4812 -0.3083
 4459SOL    HW215578   0.367   0.450   8.056  0.8652 -1.2865 -0.5833
 4460SOL     OW15579   9.040   1.771   2.464  0.2226  0.0846  0.4776
 4460SOL    HW115580   8.995   1.772   2.548  2.0642  1.6947  1.5034
 4460SOL    HW215581   9.058   1.863   2.445  1.7422 -0.4055 -0.6238
 4461SOL     OW15582   8.608   1.239   5.609 -0.2766 -0.2166 -0.6556
 4461SOL    HW115583   8.580   1.255   5.519 -0.9944  4.9630  0.1672
 4461SOL    HW215584   8.529   1.251   5.661  0.8939  1.3754  0.8828
 4462SOL     OW15585   6.850   0.566   7.574 -0.5280 -0.0524  0.3282
 4462SOL    HW115586   6.836   0.586   7.481 -1.4547 -0.7085  0.3103
 4462SOL    HW215587   6.793   0.491   7.590  0.4891 -0.6551  1.1551
 4463SOL     OW15588   4.504   4.871   8.124 -0.0055 -0.1199 -0.8736
 4463SOL    HW115589   4.526   4.935   8.192  0.8405 -0.9838 -0.2970
 4463SOL    HW215590   4.581   4.869   8.067  0.3644 -1.2629 -0.3617
 4464SOL     OW15591   3.902   1.197   1.111  0.1963 -0.6877  0.2033
 4464SOL    HW115592   3.813   1.205   1.077  0.6414  0.3964 -0.7863
 4464SOL    HW215593   3.951   1.265   1.064  1.0615  0.2355  2.3195
 4465SOL     OW15594   5.843   1.260   4.086  0.0165 -0.0507  0.3142
 4465SOL    HW115595   5.858   1.354   4.084 -0.7110  0.0786  0.4975
 4465SOL    HW215596   5.808   1.242   4.173 -1.7097 -0.1603 -0.3438
 4466SOL     OW15597   3.736   3.997   2.033 -0.2671  0.0638  0.2924
 4466SOL    HW115598   3.783   4.045   2.101  1.9364 -0.9561 -0.4154
 4466SOL    HW215599   3.748   4.050   1.954 -1.1133  0.2258  0.2557
 4467SOL     OW15600   4.497   5.369   8.685 -0.2767 -0.0429 -0.1222
 4467SOL    HW115601   4.487   5.453   8.730  0.4212  0.9513 -1.7407
 4467SOL    HW215602   4.493   5.304   8.755  1.7200  1.4673  1.5244
 4468SOL     OW15603   0.343   4.879   5.169  0.3025  0.7223 -0.1967
 4468SOL    HW115604   0.423   4.932   5.171  1.0018 -0.2327  2.7651
 4468SOL    HW215605   0.374   4.789   5.154 -0.1050  0.2939  1.2914
 4469SOL     OW15606   0.564   9.087   6.110  0.3868  0.2336 -0.3095
 4469SOL    HW115607   0.561   9.091   6.015  1.1212 -0.2961 -0.3627
 4469SOL    HW215608   0.640   9.034   6.130  0.8501  1.1937  0.5982
 4470SOL     OW15609   4.723   4.900   7.932  0.4847 -0.8321  0.7799
 4470SOL    HW115610   4.663   4.871   7.864  0.1348 -1.7828  1.4763
 4470SOL    HW215611   4.801   4.928   7.885 -1.2336  2.6339 -0.3616
 4471SOL     OW15612   3.610   4.797   0.153 -0.0576  0.4052  0.6481
 4471SOL    HW115613   3.678   4.864   0.159  0.0206  0.4292 -0.3903
 4471SOL    HW215614   3.591   4.790   0.059  0.7046 -1.8005  0.6160
 4472SOL     OW15615   3.647   0.913   6.773 -0.1514 -0.5399 -0.2290
 4472SOL    HW115616   3.643   0.818   6.771  0.9041 -0.8032  3.0354
 4472SOL    HW215617   3.619   0.936   6.862  1.5240  2.0074 -0.2566
 4473SOL     OW15618   6.487   7.228   2.848  0.1436  0.2858 -0.4792
 4473SOL    HW115619   6.433   7.150   2.832 -0.9775  1.3734 -2.4270
 4473SOL    HW215620   6.577   7.197   2.838 -0.1846 -1.1216  0.6570
 4474SOL     OW15621   4.555   0.050   2.412 -0.2590 -0.3001  0.2279
 4474SOL    HW115622   4.522   0.051   2.501 -1.1767 -0.3800 -0.1012
 4474SOL    HW215623   4.477   0.038   2.357  0.4598 -2.1561 -0.4920
 4475SOL     OW15624   4.644   8.852   3.029  0.4701  0.8170  0.0704
 4475SOL    HW115625   4.686   8.918   2.975 -0.7617  1.3267 -0.3148
 4475SOL    HW215626   4.710   8.827   3.093  1.3869  1.4624 -0.6013
 4476SOL     OW15627   4.079   7.170   6.601  0.3785  0.4549 -0.0687
 4476SOL    HW115628   4.007   7.206   6.550 -0.7391 -3.3303 -1.4448
 4476SOL    HW215629   4.131   7.121   6.538  1.8452 -0.2443  1.6135
 4477SOL     OW15630   4.882   0.335   4.280  0.2451 -0.1234  0.0639
 4477SOL    HW115631   4.955   0.365   4.334  0.6420 -2.3585  0.8659
 4477SOL    HW215632   4.812   0.399   4.296  1.6620  1.4784  0.0721
 4478SOL     OW15633   7.019   6.847   8.929  0.1054  0.1239 -0.4994
 4478SOL    HW115634   7.031   6.910   9.000 -0.1441  0.5213 -0.8051
 4478SOL    HW215635   7.020   6.901   8.850  0.0244 -0.2762 -0.7719
 4479SOL     OW15636   5.707   2.304   9.068 -0.3285 -0.3263  0.7682
 4479SOL    HW115637   5.776   2.241   9.087  0.7340  0.5280 -0.0987
 4479SOL    HW215638   5.715   2.369   9.138  1.0777  0.8038 -0.3767
 4480SOL     OW15639   9.518   2.064   6.883  0.1162  0.0844  0.2302
 4480SOL    HW115640   9.586   2.070   6.815  0.7492 -1.5560  0.6712
 4480SOL    HW215641   9.436   2.072   6.835  0.5666 -0.5608 -0.6741
 4481SOL     OW15642   6.048   7.626   7.524  0.0288 -0.3971  0.1105
 4481SOL    HW115643   5.975   7.610   7.585 -0.5767  0.0221 -0.4824
 4481SOL    HW215644   6.109   7.555   7.541  0.5414  0.4647  2.1754
 4482SOL     OW15645   2.028   5.846   1.819  0.1329 -0.8758  0.0734
 4482SOL    HW115646   2.009   5.807   1.904  0.0646 -0.1464  0.4006
 4482SOL    HW215647   2.100   5.794   1.784 -0.1557 -1.4765  0.3671
 4483SOL     OW15648   2.782   0.994   5.166 -0.3593  0.4696 -0.2127
 4483SOL    HW115649   2.751   1.084   5.160 -2.1989 -0.0582  0.6043
 4483SOL    HW215650   2.780   0.974   5.260 -2.5407 -1.2232 -0.5459
 4484SOL     OW15651   6.489   3.919   8.310  0.3935 -0.3029  0.0546
 4484SOL    HW115652   6.466   3.980   8.240 -0.6701  0.4946  1.0628
 4484SOL    HW215653   6.527   3.973   8.379 -1.0764 -0.6368  1.1955
 4485SOL     OW15654   5.401   2.553   1.731  0.0241 -0.3941  0.2889
 4485SOL    HW115655   5.445   2.638   1.729 -1.0934  0.2013 -0.4927
 4485SOL    HW215656   5.350   2.551   1.649 -0.6257 -1.4485  0.7025
 4486SOL     OW15657   2.231   8.691   7.868  0.6045  0.3296  0.8260
 4486SOL    HW115658   2.313   8.655   7.902  0.5743  1.0242  1.6664
 4486SOL    HW215659   2.168   8.677   7.939 -0.4440 -1.6823 -0.4230
 4487SOL     OW15660   3.020   8.938   1.521 -0.0952 -0.0069  0.1110
 4487SOL    HW115661   2.998   8.974   1.607  0.1320 -1.0484  0.6224
 4487SOL    HW215662   3.019   8.843   1.534  1.2632 -0.1577 -0.7013
 4488SOL     OW15663   7.500   6.290   1.562  0.0384  0.1977 -0.1866
 4488SOL    HW115664   7.452   6.340   1.628 -3.1117 -0.0602 -2.0727
 4488SOL    HW215665   7.527   6.356   1.498  0.5891  0.0932 -0.0675
 4489SOL     OW15666   6.667   1.894   6.592  0.0066  0.1400 -0.5939
 4489SOL    HW115667   6.747   1.936   6.625  0.9227  0.2727 -2.7694
 4489SOL    HW215668   6.596   1.937   6.640  1.1739  0.7264  0.6960
 4490SOL     OW15669   3.534   3.226   1.899  0.7156 -0.1913 -0.3091
 4490SOL    HW115670   3.470   3.275   1.951 -1.1179 -2.2866 -0.4231
 4490SOL    HW215671   3.597   3.194   1.963 -0.2321 -0.8436  0.3259
 4491SOL     OW15672   8.599   6.307   3.382 -0.2277  0.0800  0.1012
 4491SOL    HW115673   8.527   6.302   3.319 -1.3872 -1.2235  1.4356
 4491SOL    HW215674   8.676   6.277   3.334 -1.4656 -2.9587 -0.2048
 4492SOL     OW15675   1.194   6.391   5.913 -0.1861  0.1814  0.7603
 4492SOL    HW115676   1.193   6.300   5.885  2.1568  0.0095  0.9802
 4492SOL    HW215677   1.234   6.439   5.840 -1.2399  1.0137  0.7069
 4493SOL     OW15678   9.483   9.509   0.219 -0.8217  1.0223  0.0519
 4493SOL    HW115679   9.511   9.482   0.307 -0.6677  1.4385  0.1342
 4493SOL    HW215680   9.412   9.571   0.236 -1.5932  0.2133 -0.1478
 4494SOL     OW15681   4.284   9.519   2.879 -0.0838 -0.4215  0.3023
 4494SOL    HW115682   4.219   9.585   2.855 -1.5220 -1.6663  0.6441
 4494SOL    HW215683   4.319   9.549   2.963 -0.5282  0.0494  0.3232
 4495SOL     OW15684   4.149   8.158   7.493  0.1209  0.3687 -0.2059
 4495SOL    HW115685   4.222   8.219   7.498  1.0857 -0.6548 -1.2853
 4495SOL    HW215686   4.139   8.125   7.583  0.1174  1.4659  0.2116
 4496SOL     OW15687   9.161   2.289   2.281  0.2542 -0.1655  0.0308
 4496SOL    HW115688   9.069   2.297   2.254  0.4214 -0.1602 -0.5593
 4496SOL    HW215689   9.208   2.273   2.199  0.7297 -0.5907  0.3804
 4497SOL     OW15690   7.632   4.541   4.836  0.0875  0.1117  0.0505
 4497SOL    HW115691   7.591   4.618   4.796  0.3123 -0.5358 -1.4860
 4497SOL    HW215692   7.723   4.567   4.850 -0.4607  1.0596  2.1443
 4498SOL     OW15693   8.277   8.858   5.616  0.7144  0.3037  0.4660
 4498SOL    HW115694   8.368   8.879   5.595  0.1432  0.7973 -1.8360
 4498SOL    HW215695   8.229   8.939   5.598 -0.1240  0.2772  2.3508
 4499SOL     OW15696   2.578   4.452   8.902  0.1504 -0.2032  0.3865
 4499SOL    HW115697   2.643   4.414   8.844  0.8507  2.0790 -0.4292
 4499SOL    HW215698   2.607   4.542   8.915 -2.5275  0.7389  0.4524
 4500SOL     OW15699   5.454   6.337   0.826  0.0672 -0.0274  0.4007
 4500SOL    HW115700   5.479   6.341   0.734 -0.7636  2.7587  0.2290
 4500SOL    HW215701   5.434   6.244   0.841 -2.0542 -0.2718 -2.8856
 4501SOL     OW15702   8.035   5.750   5.989 -0.6232 -0.5115 -0.0304
 4501SOL    HW115703   7.995   5.772   5.905 -0.1474 -1.7892 -0.6350
 4501SOL    HW215704   8.060   5.834   6.027 -1.0733  0.1098 -1.0580
 4502SOL     OW15705   8.474   1.330   3.378 -0.6096  0.1100  0.2188
 4502SOL    HW115706   8.417   1.271   3.428 -1.2846  0.6780  0.1374
 4502SOL    HW215707   8.476   1.411   3.430  1.3709 -0.3902  1.0196
 4503SOL     OW15708   8.073   9.554   5.021  0.0434 -0.0041  0.2439
 4503SOL    HW115709   8.076   9.507   4.938 -1.0088 -0.9043  0.6723
 4503SOL    HW215710   8.038   9.640   4.999 -0.8390 -0.4513 -0.1804
 4504SOL     OW15711   8.516   6.889   4.337 -0.0183  0.2188  0.7199
 4504SOL    HW115712   8.473   6.934   4.265 -1.1186  0.7644  1.6953
 4504SOL    HW215713   8.591   6.944   4.358  0.6004 -0.1930 -0.2935
 4505SOL     OW15714   0.500   4.136   3.889 -0.3417  0.1419  0.1493
 4505SOL    HW115715   0.411   4.164   3.910 -0.5467 -1.9064  2.4167
 4505SOL    HW215716   0.555   4.182   3.952  0.1896  0.9349 -0.8560
 4506SOL     OW15717   9.426   7.155   7.632  0.3465 -0.4598  0.1047
 4506SOL    HW115718   9.392   7.245   7.634 -0.6367 -0.8068  1.7543
 4506SOL    HW215719   9.486   7.153   7.558  0.6414  1.6521  0.2217
 4507SOL     OW15720   7.943   5.979   3.600  0.0078 -0.6516 -0.1001
 4507SOL    HW115721   7.948   5.890   3.636  0.5043 -1.1349 -1.3321
 4507SOL    HW215722   7.982   5.973   3.513 -1.8346  0.3107 -1.0676
 4508SOL     OW15723   5.965   3.689   3.927 -0.2819  0.3938  0.2858
 4508SOL    HW115724   6.015   3.613   3.957  0.5107  1.4090  1.6118
 4508SOL    HW215725   6.021   3.764   3.944 -2.0110  1.5336  1.3664
 4509SOL     OW15726   9.283   9.447   5.656  0.0609  0.4594 -0.0934
 4509SOL    HW115727   9.209   9.387   5.650  0.0048  0.5539 -0.3550
 4509SOL    HW215728   9.290   9.467   5.749 -0.0868  0.2554 -0.0375
 4510SOL     OW15729   5.184   6.267   4.352 -0.2486 -0.3158  0.3104
 4510SOL    HW115730   5.139   6.309   4.425 -2.4540 -0.8465 -0.6486
 4510SOL    HW215731   5.276   6.292   4.363 -1.0283  2.5603  1.2487
 4511SOL     OW15732   8.205   1.206   6.065 -0.2687 -0.1628  0.2762
 4511SOL    HW115733   8.150   1.154   6.124 -3.0021  0.4519 -1.5599
 4511SOL    HW215734   8.159   1.289   6.056  1.2086  0.5620 -1.0486
 4512SOL     OW15735   1.530   7.687   2.237  0.3703 -0.0787  0.0865
 4512SOL    HW115736   1.501   7.610   2.188 -0.5267  0.1651  0.2095
 4512SOL    HW215737   1.547   7.754   2.170 -0.0605 -0.0039  0.0443
 4513SOL     OW15738   8.571   8.830   2.926  0.3469  0.3469  0.5465
 4513SOL    HW115739   8.528   8.745   2.912  1.4910 -0.2017  0.2441
 4513SOL    HW215740   8.576   8.869   2.839  1.1891  0.0477  0.4605
 4514SOL     OW15741   6.958   8.936   0.800 -0.7674  0.5858  0.3501
 4514SOL    HW115742   6.937   8.962   0.890  0.4394 -0.8817  1.1002
 4514SOL    HW215743   6.971   8.841   0.805 -1.9378  0.2636 -1.6449
 4515SOL     OW15744   8.539   5.071   2.786 -0.0144 -0.1445  0.2779
 4515SOL    HW115745   8.606   5.094   2.722  0.5226  0.2164  0.9579
 4515SOL    HW215746   8.515   4.981   2.763  0.0237  0.0425 -0.5440
 4516SOL     OW15747   6.266   1.553   1.246  0.1310  0.0647 -0.3819
 4516SOL    HW115748   6.343   1.496   1.243  0.7422  0.8894 -0.6966
 4516SOL    HW215749   6.264   1.596   1.161 -1.1852 -0.5755 -0.7039
 4517SOL     OW15750   8.085   4.012   7.267  0.3179 -0.6964  0.2805
 4517SOL    HW115751   8.001   4.021   7.222  0.1821 -1.1004  0.4514
 4517SOL    HW215752   8.083   4.079   7.336  0.8014  0.3813 -0.7220
 4518SOL     OW15753   5.399   0.087   5.370  0.0055  0.0477  0.2168
 4518SOL    HW115754   5.348   0.049   5.299 -0.3433  3.9682 -1.9080
 4518SOL    HW215755   5.387   0.181   5.360  3.7066  0.9823  2.7143
 4519SOL     OW15756   7.241   5.659   3.886 -0.1571 -0.2650 -0.0598
 4519SOL    HW115757   7.190   5.701   3.955 -1.0011  0.5310 -1.1267
 4519SOL    HW215758   7.191   5.581   3.863 -0.2388 -0.1593 -0.2428
 4520SOL     OW15759   2.488   8.616   0.075  0.5828 -0.2418 -0.5842
 4520SOL    HW115760   2.393   8.618   0.081  0.6567  0.1063  0.8644
 4520SOL    HW215761   2.518   8.679   0.141  1.8333 -1.4422  0.0541
 4521SOL     OW15762   5.544   0.423   5.618 -0.4807  0.1803  0.2769
 4521SOL    HW115763   5.615   0.472   5.659 -0.1245 -0.7049  0.7501
 4521SOL    HW215764   5.580   0.336   5.604 -0.7969  0.2776 -1.3638
 4522SOL     OW15765   7.188   7.488   5.037  0.2238 -0.2330  0.8879
 4522SOL    HW115766   7.269   7.533   5.014 -1.0178  1.3671 -0.6402
 4522SOL    HW215767   7.168   7.518   5.125 -0.6221  2.4435 -0.1159
 4523SOL     OW15768   8.790   0.016   2.243 -0.2293  0.7268 -0.1810
 4523SOL    HW115769   8.850   0.021   2.168  0.3053 -0.5563  0.1327
 4523SOL    HW215770   8.704   0.036   2.207  0.0608  0.3716 -1.0853
 4524SOL     OW15771   7.317   4.953   2.224  0.5479  0.2084  0.0173
 4524SOL    HW115772   7.368   4.881   2.188 -0.0967 -0.2465 -0.0207
 4524SOL    HW215773   7.268   4.914   2.297 -1.1375  0.1516 -1.0807
 4525SOL     OW15774   7.158   6.163   7.915  0.6905 -0.9356  0.7843
 4525SOL    HW115775   7.127   6.080   7.880  0.9785 -0.4762 -0.6192
 4525SOL    HW215776   7.078   6.207   7.945  0.3080 -0.9699 -0.1365
 4526SOL     OW15777   0.291   0.845   8.806  0.7828 -0.6720 -0.2525
 4526SOL    HW115778   0.259   0.890   8.884 -0.4001 -3.7024  1.1362
 4526SOL    HW215779   0.367   0.795   8.835  1.2909 -0.6421 -1.4362
 4527SOL     OW15780   9.516   5.263   9.174 -0.1914  0.5912  0.6510
 4527SOL    HW115781   9.444   5.222   9.223 -1.8863  1.3644 -1.0626
 4527SOL    HW215782   9.487   5.353   9.158  1.1988  0.9564 -0.0196
 4528SOL     OW15783   5.889   7.392   3.957  0.7294  0.1123 -0.1463
 4528SOL    HW115784   5.861   7.428   3.873  0.6623 -0.1841 -0.2499
 4528SOL    HW215785   5.972   7.436   3.976  1.9485 -1.5097 -1.4882
 4529SOL     OW15786   0.128   7.624   0.709 -0.0031  0.3261 -0.6269
 4529SOL    HW115787   0.100   7.539   0.743 -1.3503  0.4644 -1.2780
 4529SOL    HW215788   0.157   7.605   0.619 -0.2487  0.5290 -0.7518
 4530SOL     OW15789   2.136   0.618   3.579 -0.5735 -0.2074 -0.4544
 4530SOL    HW115790   2.219   0.600   3.623  0.1127 -0.2730 -1.7199
 4530SOL    HW215791   2.078   0.546   3.606  0.0786 -0.6778 -0.2879
 4531SOL     OW15792   8.827   4.745   0.344 -0.3563 -0.0427  0.2544
 4531SOL    HW115793   8.766   4.714   0.410 -0.0491  0.0893  0.6037
 4531SOL    HW215794   8.909   4.762   0.392 -0.1423  0.0894 -0.1485
 4532SOL     OW15795   6.252   0.243   3.367 -0.5649 -0.2473 -0.2222
 4532SOL    HW115796   6.297   0.328   3.364 -1.7159  0.3636 -0.9421
 4532SOL    HW215797   6.174   0.259   3.420 -0.2202 -1.1720  0.6069
 4533SOL     OW15798   0.952   4.755   1.685 -0.2221  0.4946  0.0072
 4533SOL    HW115799   0.934   4.833   1.737 -1.5675  0.1004  0.1801
 4533SOL    HW215800   0.870   4.737   1.640  0.3906 -0.2151 -0.8639
 4534SOL     OW15801   8.740   3.789   4.359 -0.2279 -0.1328 -0.5049
 4534SOL    HW115802   8.821   3.788   4.307  0.1904 -1.4123  0.1228
 4534SOL    HW215803   8.676   3.834   4.304  1.2382  2.1251 -0.4738
 4535SOL     OW15804   9.297   0.075   7.187 -0.3399  0.0152  0.3450
 4535SOL    HW115805   9.216   0.027   7.173 -0.5692  0.3252  0.5924
 4535SOL    HW215806   9.290   0.108   7.277 -0.2826  0.6930  0.1012
 4536SOL     OW15807   4.293   1.401   0.773  0.0369 -0.6856 -0.0098
 4536SOL    HW115808   4.207   1.430   0.744 -0.5455 -2.8207 -0.5849
 4536SOL    HW215809   4.294   1.419   0.867 -1.5349 -1.7062  0.2384
 4537SOL     OW15810   8.285   3.554   5.946 -0.4701  0.2850 -0.0128
 4537SOL    HW115811   8.272   3.617   6.016 -3.0574  0.0456 -0.1667
 4537SOL    HW215812   8.272   3.468   5.987 -0.5154  0.0610 -0.4784
 4538SOL     OW15813   7.598   6.016   6.528 -0.0088  0.1095  0.1844
 4538SOL    HW115814   7.563   5.992   6.613 -2.4682 -0.3106 -0.8509
 4538SOL    HW215815   7.692   6.027   6.542 -0.2881 -0.3272  2.8261
 4539SOL     OW15816   7.405   7.963   4.507  0.2233 -0.3439 -0.6309
 4539SOL    HW115817   7.362   8.042   4.475 -0.6738 -0.6437 -0.1860
 4539SOL    HW215818   7.421   7.979   4.600  0.5728 -0.4567 -0.6675
 4540SOL     OW15819   3.660   8.303   2.065 -0.3391 -0.4664  0.0037
 4540SOL    HW115820   3.623   8.218   2.088  0.5497 -1.0526 -0.6640
 4540SOL    HW215821   3.618   8.325   1.981 -0.8332 -0.0684  0.3488
 4541SOL     OW15822   3.213   0.293   0.491 -0.4682  0.2895 -0.6773
 4541SOL    HW115823   3.248   0.219   0.442  0.6333  0.6984 -0.5499
 4541SOL    HW215824   3.175   0.350   0.424 -1.6820 -0.5544 -0.7367
 4542SOL     OW15825   3.108   6.583   3.532  0.1819  0.8460  0.1797
 4542SOL    HW115826   3.075   6.514   3.589  1.0444  2.8872  3.4951
 4542SOL    HW215827   3.107   6.546   3.444  1.4808 -3.6597  1.8179
 4543SOL     OW15828   1.534   1.339   7.740  0.1107  0.0960 -0.4676
 4543SOL    HW115829   1.606   1.392   7.774 -0.8950  1.7705 -0.7945
 4543SOL    HW215830   1.512   1.279   7.811  0.3305  1.1483  0.5319
 4544SOL     OW15831   6.173   2.678   4.029  0.6375  0.0093 -0.0534
 4544SOL    HW115832   6.209   2.699   4.115  1.1659 -0.6515 -0.1136
 4544SOL    HW215833   6.143   2.587   4.036  0.0815  0.1584 -0.3731
 4545SOL     OW15834   2.198   3.662   5.202  0.3489 -0.4584 -0.1255
 4545SOL    HW115835   2.286   3.675   5.239  0.2655  0.6034 -0.2754
 4545SOL    HW215836   2.212   3.653   5.108  0.3736 -1.2404 -0.0578
 4546SOL     OW15837   9.178   1.901   3.366 -0.0943 -0.0065  0.1270
 4546SOL    HW115838   9.098   1.859   3.398 -0.5153  0.6509 -0.0319
 4546SOL    HW215839   9.160   1.995   3.373  0.0574  0.1576 -1.4049
 4547SOL     OW15840   1.772   0.385   4.927  0.1694  0.3508 -0.3376
 4547SOL    HW115841   1.763   0.434   5.009  2.4047 -2.7247  1.9683
 4547SOL    HW215842   1.864   0.396   4.903  0.4417 -1.7117 -0.3673
 4548SOL     OW15843   0.617   7.794   5.978  0.5879  0.0557 -0.1204
 4548SOL    HW115844   0.687   7.804   5.914 -0.4218 -0.0577 -1.2711
 4548SOL    HW215845   0.653   7.831   6.059  2.6428 -1.6633 -0.1637
 4549SOL     OW15846   7.465   3.238   6.548  0.2528 -0.8134 -0.5925
 4549SOL    HW115847   7.545   3.257   6.598 -0.4363 -1.1953  0.7001
 4549SOL    HW215848   7.484   3.155   6.503  0.5764 -0.9221 -0.2624
 4550SOL     OW15849   5.093   7.403   1.921  0.1662  0.0714 -0.8807
 4550SOL    HW115850   5.143   7.444   1.850  0.1917  0.7736 -0.4747
 4550SOL    HW215851   5.159   7.357   1.972 -0.0408 -1.6936 -2.1163
 4551SOL     OW15852   0.461   7.142   1.887 -0.0506  0.4786  0.4233
 4551SOL    HW115853   0.428   7.163   1.800  1.8822 -0.9693 -0.7491
 4551SOL    HW215854   0.383   7.119   1.938 -1.3257  2.3197 -0.5849
 4552SOL     OW15855   9.045   5.795   9.066  0.0498 -0.3140 -0.0291
 4552SOL    HW115856   8.987   5.846   9.122  2.9534  1.2914  1.7991
 4552SOL    HW215857   9.017   5.704   9.079 -2.4700  0.3935  0.0873
 4553SOL     OW15858   2.244   3.702   3.796  0.1994  0.2549  0.1355
 4553SOL    HW115859   2.291   3.755   3.732 -1.6194  0.7691 -0.8562
 4553SOL    HW215860   2.209   3.766   3.858 -0.5043  0.0480 -0.0441
 4554SOL     OW15861   9.196   7.421   8.746  0.0794  0.4189 -0.8295
 4554SOL    HW115862   9.289   7.439   8.761 -0.4299  2.3334  0.3434
 4554SOL    HW215863   9.183   7.333   8.782  0.8021  1.3886  2.0721
 4555SOL     OW15864   6.515   7.642   4.154 -0.3459  0.7693 -0.3383
 4555SOL    HW115865   6.602   7.677   4.132 -0.3125  0.8604 -0.0547
 4555SOL    HW215866   6.489   7.595   4.075  0.6817 -0.6746  0.1468
 4556SOL     OW15867   3.423   3.649   6.072  0.0124 -0.1717 -0.0612
 4556SOL    HW115868   3.335   3.679   6.047  0.0098 -0.0290  0.1183
 4556SOL    HW215869   3.458   3.609   5.992  0.4965  1.3961 -0.6592
 4557SOL     OW15870   2.120   1.168   6.000 -0.1171 -0.4435 -0.4618
 4557SOL    HW115871   2.147   1.260   5.992 -0.1303 -0.3462  0.4226
 4557SOL    HW215872   2.024   1.172   6.003 -0.1042 -0.4431 -0.0071
 4558SOL     OW15873   6.864   5.988   9.557  0.1339 -0.0648 -0.2251
 4558SOL    HW115874   6.863   5.942   9.641  0.0303  2.0092  0.9812
 4558SOL    HW215875   6.773   5.987   9.528 -0.0558  0.3025  0.3383
 4559SOL     OW15876   6.756   7.762   0.865  0.2573 -0.3371 -0.1559
 4559SOL    HW115877   6.769   7.829   0.932  0.0284 -0.1895 -0.2571
 4559SOL    HW215878   6.664   7.738   0.873  0.4943 -1.1151  0.3176
 4560SOL     OW15879   1.700   0.767   8.126 -0.2127  0.0913  0.2330
 4560SOL    HW115880   1.712   0.758   8.031  1.4618 -0.5910  0.4768
 4560SOL    HW215881   1.608   0.794   8.136 -0.3313  0.5081 -1.5888
 4561SOL     OW15882   8.385   4.805   4.619  0.0042 -0.4271 -0.0699
 4561SOL    HW115883   8.417   4.802   4.709 -0.0400 -0.7996 -0.0653
 4561SOL    HW215884   8.457   4.846   4.570  0.0490 -0.2715  0.1238
 4562SOL     OW15885   8.764   5.318   5.065  0.4278  0.0713  0.3509
 4562SOL    HW115886   8.827   5.265   5.113 -1.6560 -1.8907  1.0803
 4562SOL    HW215887   8.701   5.255   5.030 -2.3540  2.0063  1.4863
 4563SOL     OW15888   5.547   3.868   6.404 -0.1616  0.1672  0.1422
 4563SOL    HW115889   5.480   3.917   6.355  1.2537  0.4105 -1.6458
 4563SOL    HW215890   5.515   3.778   6.402 -0.1658  0.1773 -1.2310
 4564SOL     OW15891   2.659   8.049   6.776 -0.3806  0.1176 -0.4482
 4564SOL    HW115892   2.577   8.077   6.735  0.1229  1.2719 -0.7168
 4564SOL    HW215893   2.679   8.119   6.838 -0.0702 -0.6158  0.2975
 4565SOL     OW15894   3.899   5.039   6.152  0.6259 -0.4531  0.2113
 4565SOL    HW115895   3.928   5.005   6.237 -0.4313 -1.3338  0.2527
 4565SOL    HW215896   3.975   5.031   6.095  0.8206 -1.5420  0.6123
 4566SOL     OW15897   4.540   4.451   5.539 -0.1033 -0.0205  0.1702
 4566SOL    HW115898   4.617   4.396   5.557  0.5728  1.1504  0.9900
 4566SOL    HW215899   4.567   4.506   5.465 -1.2870 -1.7054 -1.6219
 4567SOL     OW15900   3.736   2.637   1.817 -0.7456 -0.3802  0.0966
 4567SOL    HW115901   3.681   2.613   1.742 -1.0119  1.5448 -0.3793
 4567SOL    HW215902   3.679   2.626   1.893 -1.2105 -0.1508 -0.2134
 4568SOL     OW15903   8.717   3.196   4.625  0.2281  0.1721 -0.2432
 4568SOL    HW115904   8.749   3.276   4.583 -0.1723  0.6448  0.3262
 4568SOL    HW215905   8.766   3.126   4.584  1.2834  0.7912 -0.0764
 4569SOL     OW15906   4.253   8.906   8.518 -0.7058  0.3381 -0.8752
 4569SOL    HW115907   4.321   8.850   8.554 -2.3482 -0.0215  2.0311
 4569SOL    HW215908   4.251   8.982   8.577 -2.2627  0.6907 -1.3290
 4570SOL     OW15909   0.331   1.055   3.816 -0.1895 -0.4366 -0.1589
 4570SOL    HW115910   0.242   1.082   3.796 -0.5550 -1.2824  0.2917
 4570SOL    HW215911   0.350   0.985   3.754 -0.3251 -1.1701  0.6134
 4571SOL     OW15912   7.263   5.533   0.338  0.1204 -0.3710  0.0404
 4571SOL    HW115913   7.341   5.478   0.350  0.7223  0.6388  0.8591
 4571SOL    HW215914   7.298   5.617   0.308 -0.6670  0.0393  0.2603
 4572SOL     OW15915   1.292   4.931   7.017  0.6778 -0.1596  0.3616
 4572SOL    HW115916   1.299   4.899   6.927 -0.8283 -0.9787  0.4898
 4572SOL    HW215917   1.247   5.015   7.009 -1.6326 -1.3027  0.4422
 4573SOL     OW15918   6.847   7.519   6.157 -0.2393  0.0285 -0.0524
 4573SOL    HW115919   6.791   7.486   6.227 -1.0505  1.0720 -0.1761
 4573SOL    HW215920   6.804   7.491   6.076 -0.7146  0.9612 -0.1496
 4574SOL     OW15921   1.628   4.227   8.666 -0.0576 -0.6997  0.2392
 4574SOL    HW115922   1.571   4.195   8.735 -0.3730 -2.1841 -0.6733
 4574SOL    HW215923   1.669   4.149   8.629 -0.9916 -0.1502 -2.2042
 4575SOL     OW15924   7.783   8.074   3.313 -0.1410  0.1231  0.4250
 4575SOL    HW115925   7.709   8.013   3.313 -0.0755  0.0363 -0.1218
 4575SOL    HW215926   7.747   8.155   3.349 -0.8931  0.5211 -1.1094
 4576SOL     OW15927   7.976   7.294   1.015 -0.2162  0.4971  0.0017
 4576SOL    HW115928   7.903   7.232   1.018  1.0980 -1.0810  0.8136
 4576SOL    HW215929   8.017   7.276   0.930  0.3285  0.0418  0.3569
 4577SOL     OW15930   7.195   6.315   8.584 -0.1216  0.1788 -0.0052
 4577SOL    HW115931   7.274   6.262   8.596 -0.8957 -1.6677 -2.2454
 4577SOL    HW215932   7.227   6.400   8.554  1.0686  0.4140  1.7682
 4578SOL     OW15933   5.182   6.924   1.232 -0.1519 -0.5968 -0.4797
 4578SOL    HW115934   5.100   6.942   1.277 -0.0626 -0.4457 -0.3764
 4578SOL    HW215935   5.192   6.997   1.170 -0.1309 -0.6528 -0.5431
 4579SOL     OW15936   5.560   1.723   4.829  0.4455  0.2831  0.4573
 4579SOL    HW115937   5.633   1.779   4.804 -0.5845  1.0530 -0.9819
 4579SOL    HW215938   5.547   1.741   4.922  1.4604  0.8517  0.5016
 4580SOL     OW15939   0.609   1.558   0.281  0.0008 -0.2338 -0.0054
 4580SOL    HW115940   0.623   1.646   0.318  3.0264 -0.6516  0.1324
 4580SOL    HW215941   0.633   1.499   0.353  1.6614 -1.0821 -1.1852
 4581SOL     OW15942   4.391   5.558   1.909  0.0026 -0.0505  0.0593
 4581SOL    HW115943   4.307   5.547   1.952 -0.3003  0.7835 -0.3058
 4581SOL    HW215944   4.455   5.525   1.972 -0.6678 -1.6894 -0.0934
 4582SOL     OW15945   1.178   9.228   4.582 -0.3832  0.1297 -0.4956
 4582SOL    HW115946   1.107   9.191   4.635 -0.8675  1.1055 -0.4206
 4582SOL    HW215947   1.181   9.174   4.504  1.0712 -2.0203  0.9467
 4583SOL     OW15948   2.848   4.507   4.478  0.2149 -0.3482  0.1920
 4583SOL    HW115949   2.785   4.548   4.537 -2.0592 -0.4722 -2.0133
 4583SOL    HW215950   2.829   4.414   4.484  1.6869 -0.6231  1.0855
 4584SOL     OW15951   0.171   8.639   1.150  0.3756  0.3795 -0.5770
 4584SOL    HW115952   0.117   8.566   1.120 -0.6249 -0.2186  2.3375
 4584SOL    HW215953   0.119   8.717   1.131 -1.2890 -0.1384  1.5009
 4585SOL     OW15954   8.051   8.339   7.902  0.2750  0.2230 -0.2910
 4585SOL    HW115955   8.114   8.269   7.923  0.3151  0.2419 -0.3464
 4585SOL    HW215956   8.098   8.394   7.839  0.1277  0.1216 -0.4886
 4586SOL     OW15957   1.633   8.565   5.712  0.3248  0.1064 -0.2213
 4586SOL    HW115958   1.582   8.567   5.792 -1.8901  0.5209 -1.5524
 4586SOL    HW215959   1.683   8.484   5.717 -2.8313 -2.0173 -0.1698
 4587SOL     OW15960   0.381   6.481   6.552  0.0750 -0.0825 -0.3925
 4587SOL    HW115961   0.388   6.575   6.569  0.1502  0.0092 -0.9304
 4587SOL    HW215962   0.344   6.446   6.633  2.2939  0.0581  0.7588
 4588SOL     OW15963   4.865   7.358   6.347  0.3873  0.4921  0.3459
 4588SOL    HW115964   4.950   7.347   6.389 -0.7600  1.8660  3.3087
 4588SOL    HW215965   4.804   7.310   6.404 -1.0509  1.0250 -0.6933
 4589SOL     OW15966   6.591   6.516   0.953  0.2313 -0.2760 -0.4433
 4589SOL    HW115967   6.500   6.506   0.925  0.5835 -0.9856 -1.4081
 4589SOL    HW215968   6.618   6.602   0.921  0.1377 -0.4042 -0.8627
 4590SOL     OW15969   1.027   4.325   6.218  0.3732 -0.4032  0.0421
 4590SOL    HW115970   1.020   4.239   6.178  0.9020 -0.0327 -0.8833
 4590SOL    HW215971   1.076   4.311   6.298  1.5111 -0.7958 -0.6995
 4591SOL     OW15972   0.999   0.963   9.114  0.3572  0.5055  0.1328
 4591SOL    HW115973   0.910   0.996   9.116  0.5440  1.0538  2.7952
 4591SOL    HW215974   0.996   0.889   9.053 -1.6328  1.1537 -0.6159
 4592SOL     OW15975   4.287   7.349   2.806  0.2768  0.2447  0.2948
 4592SOL    HW115976   4.303   7.407   2.733 -0.2841  2.0063  1.5113
 4592SOL    HW215977   4.247   7.404   2.873 -0.3122 -1.5491  1.5070
 4593SOL     OW15978   1.361   6.465   6.469 -0.4503 -0.1178  0.5268
 4593SOL    HW115979   1.392   6.494   6.555  1.7850  0.9559 -0.5694
 4593SOL    HW215980   1.268   6.490   6.468  0.0020  1.8397  1.8291
 4594SOL     OW15981   2.750   9.035   0.704  0.2958 -0.0740  0.8249
 4594SOL    HW115982   2.670   8.985   0.689  0.3884 -0.5025  1.7424
 4594SOL    HW215983   2.797   8.986   0.771  0.7714  0.8076  1.1507
 4595SOL     OW15984   9.217   2.258   9.378  0.1586  0.0090  0.5367
 4595SOL    HW115985   9.175   2.179   9.344 -1.1637  0.5381  0.8830
 4595SOL    HW215986   9.293   2.271   9.321  1.0019 -2.0590  1.0758
 4596SOL     OW15987   0.762   2.200   4.487  1.0233 -0.3900 -0.1991
 4596SOL    HW115988   0.701   2.250   4.432  1.0518  0.9496  0.9291
 4596SOL    HW215989   0.766   2.114   4.446 -1.2686 -0.3829 -0.6027
 4597SOL     OW15990   3.557   1.890   5.452 -0.6668 -0.7637 -0.1966
 4597SOL    HW115991   3.626   1.916   5.513 -1.4997  1.0112  0.0440
 4597SOL    HW215992   3.485   1.861   5.508 -1.5850  1.2541 -0.2452
 4598SOL     OW15993   8.251   2.386   4.212 -0.0943 -0.1143  0.3056
 4598SOL    HW115994   8.180   2.447   4.191 -0.1231  0.4777  1.9842
 4598SOL    HW215995   8.326   2.417   4.161 -0.8086 -0.2812 -0.8811
 4599SOL     OW15996   3.709   4.969   1.417 -0.0679 -0.0809 -0.2853
 4599SOL    HW115997   3.784   4.915   1.392 -0.8501 -2.7201  2.4247
 4599SOL    HW215998   3.633   4.924   1.380 -0.6204  0.0582  0.6387
 4600SOL     OW15999   0.882   3.187   5.129 -0.7609  0.0435  0.5738
 4600SOL    HW116000   0.903   3.096   5.152  0.6552  0.2234  0.0840
 4600SOL    HW216001   0.950   3.239   5.172 -1.1467  0.8105  0.2647
 4601SOL     OW16002   9.059   9.482   7.185  0.1984 -0.1121  0.0333
 4601SOL    HW116003   9.015   9.542   7.246  1.7825  1.9909 -0.7913
 4601SOL    HW216004   9.020   9.502   7.100  0.1032 -0.9350 -0.1249
 4602SOL     OW16005   6.687   9.505   9.340  0.1788 -0.8505  0.1730
 4602SOL    HW116006   6.611   9.545   9.297  0.1883 -0.0959  0.8225
 4602SOL    HW216007   6.651   9.431   9.388 -0.8496  1.4500  3.3244
 4603SOL     OW16008   5.032   2.645   8.413 -0.4060  0.2321 -0.0107
 4603SOL    HW116009   4.967   2.578   8.391 -0.7826  0.2005  1.1411
 4603SOL    HW216010   4.987   2.703   8.474  1.0393 -0.5378  1.8706
 4604SOL     OW16011   2.601   9.544   5.617 -1.3480 -0.3441  0.3318
 4604SOL    HW116012   2.685   9.546   5.663 -1.0306 -0.7115 -0.2160
 4604SOL    HW216013   2.535   9.553   5.685 -0.8496  0.2941  0.7375
 4605SOL     OW16014   1.921   7.602   2.831  0.1490  0.3716  0.4404
 4605SOL    HW116015   1.937   7.514   2.864 -1.0167  0.4179  1.1820
 4605SOL    HW216016   1.833   7.624   2.861 -0.0603  1.3215 -0.7804
 4606SOL     OW16017   6.955   6.904   6.092  0.1234  0.1721 -0.3618
 4606SOL    HW116018   6.906   6.869   6.018 -1.4223  1.2877  0.1049
 4606SOL    HW216019   7.008   6.974   6.054 -0.9060  0.9561 -0.3782
 4607SOL     OW16020   6.863   5.783   0.190  0.2409  0.2355  0.7631
 4607SOL    HW116021   6.929   5.742   0.247 -0.0078 -1.9000 -0.3833
 4607SOL    HW216022   6.803   5.826   0.251  2.4720  2.0515  1.8636
 4608SOL     OW16023   7.754   7.856   5.660 -0.3103 -0.0392  0.3360
 4608SOL    HW116024   7.660   7.874   5.659 -0.2958  0.4490 -3.1602
 4608SOL    HW216025   7.794   7.937   5.691 -0.9828  0.0580  0.9695
 4609SOL     OW16026   2.850   6.679   4.658  0.8264 -0.0423  0.3298
 4609SOL    HW116027   2.843   6.586   4.635  1.1458  0.2048 -0.8380
 4609SOL    HW216028   2.869   6.679   4.752  1.4283 -1.1741  0.2274
 4610SOL     OW16029   8.469   2.818   6.923  0.1182 -0.7348 -0.1038
 4610SOL    HW116030   8.384   2.855   6.945  1.0833  1.2074  0.5479
 4610SOL    HW216031   8.461   2.794   6.830 -0.6293  0.9675 -0.5138
 4611SOL     OW16032   5.387   7.821   1.574  0.7800  0.2714  0.2616
 4611SOL    HW116033   5.322   7.816   1.645 -0.2182 -1.4958 -0.6979
 4611SOL    HW216034   5.409   7.729   1.556  0.7302  0.6551 -1.9472
 4612SOL     OW16035   0.018   2.094   7.856 -0.1811  0.2862  0.2121
 4612SOL    HW116036   0.013   2.181   7.818 -0.3360 -0.1741 -0.8609
 4612SOL    HW216037   0.095   2.054   7.815  0.9773  0.5130  2.0167
 4613SOL     OW16038   7.113   5.402   6.036 -0.2319  0.0070 -0.1344
 4613SOL    HW116039   7.157   5.382   5.954 -0.6132  1.1573 -0.6406
 4613SOL    HW216040   7.175   5.374   6.104 -0.1708 -1.5280 -0.7754
 4614SOL     OW16041   6.211   7.373   8.268 -0.3258  0.0800  0.6765
 4614SOL    HW116042   6.188   7.458   8.229 -1.4589 -0.1870  0.7281
 4614SOL    HW216043   6.305   7.364   8.252 -0.7505 -0.0830 -2.1350
 4615SOL     OW16044   8.398   4.521   6.968 -0.1980  0.1173  0.0808
 4615SOL    HW116045   8.475   4.524   7.023 -1.7490  2.6574  2.3606
 4615SOL    HW216046   8.426   4.562   6.885  1.6056 -1.8246 -0.3490
 4616SOL     OW16047   1.181   8.032   0.279  0.4292 -0.0511 -0.7027
 4616SOL    HW116048   1.181   7.997   0.368 -0.5962 -0.4335 -0.8296
 4616SOL    HW216049   1.190   8.127   0.290  1.8617 -0.2124 -0.2865
 4617SOL     OW16050   2.647   1.148   0.296  0.0813 -0.6970  0.3136
 4617SOL    HW116051   2.644   1.157   0.391  0.2566 -0.7775  0.3261
 4617SOL    HW216052   2.556   1.160   0.268  0.5061  3.3418  0.1146
 4618SOL     OW16053   1.077   7.166   1.861  0.1121  0.2538  0.4259
 4618SOL    HW116054   1.092   7.253   1.898 -1.1768  1.3795 -1.4633
 4618SOL    HW216055   1.018   7.182   1.787 -1.3596 -2.4139  0.8899
 4619SOL     OW16056   7.189   0.383   1.227  0.0973 -0.3005  0.1896
 4619SOL    HW116057   7.174   0.290   1.207 -0.3100  0.0936 -1.4966
 4619SOL    HW216058   7.221   0.383   1.317  1.6809 -2.2252 -0.3046
 4620SOL     OW16059   9.085   2.856   4.399  0.0766  0.7084 -0.0601
 4620SOL    HW116060   9.159   2.833   4.343  0.1498 -1.1553  0.7278
 4620SOL    HW216061   9.039   2.773   4.412 -0.8933  1.4285  1.2479
 4621SOL     OW16062   6.393   5.278   3.441 -0.3893  0.0237 -0.3475
 4621SOL    HW116063   6.335   5.340   3.396 -0.3055  0.1040 -0.3466
 4621SOL    HW216064   6.426   5.327   3.516 -0.8761 -0.2589  0.0505
 4622SOL     OW16065   6.022   5.512   7.661  0.1362  0.0637 -0.1318
 4622SOL    HW116066   5.992   5.587   7.610 -1.3478 -0.0284  0.5450
 4622SOL    HW216067   5.969   5.439   7.628  0.2507 -0.3037  0.4873
 4623SOL     OW16068   5.042   5.520   5.015  0.3092  0.4272  0.1825
 4623SOL    HW116069   5.023   5.446   4.957 -0.1235  0.4446  0.3012
 4623SOL    HW216070   4.962   5.573   5.013  0.7792  1.1485 -0.2848
 4624SOL     OW16071   4.727   5.792   9.340  0.0453  0.2589 -0.2083
 4624SOL    HW116072   4.807   5.740   9.326 -0.0075 -0.1397  0.9112
 4624SOL    HW216073   4.759   5.880   9.358  0.1484  0.5530 -1.6616
 4625SOL     OW16074   7.080   2.854   5.935 -0.0471 -0.3952 -0.2192
 4625SOL    HW116075   7.168   2.828   5.907  0.6886  0.3891  1.2460
 4625SOL    HW216076   7.047   2.907   5.862  2.4955  3.0640  0.8887
 4626SOL     OW16077   0.941   8.848   8.602  0.2359  0.5560  0.0686
 4626SOL    HW116078   0.903   8.761   8.596 -0.3667  0.9219 -2.4388
 4626SOL    HW216079   0.866   8.905   8.621 -0.0171  0.9089 -1.8208
 4627SOL     OW16080   1.011   8.137   8.553  0.0108 -0.1706  0.0971
 4627SOL    HW116081   1.005   8.059   8.608 -1.1924 -0.1639 -0.0047
 4627SOL    HW216082   1.105   8.149   8.538  0.1877 -1.8501 -0.2563
 4628SOL     OW16083   1.742   7.220   2.847  0.7778  0.2833  0.2544
 4628SOL    HW116084   1.739   7.215   2.942  0.3015 -0.6591  0.1948
 4628SOL    HW216085   1.692   7.299   2.825  1.6951  1.0501  0.8151
 4629SOL     OW16086   9.052   7.334   7.383 -0.2197  0.3057 -0.3477
 4629SOL    HW116087   9.113   7.288   7.441 -0.1693  1.4021  0.5096
 4629SOL    HW216088   8.991   7.377   7.443 -2.7941 -1.9397 -1.1532
 4630SOL     OW16089   7.270   2.811   8.394  0.5277 -0.0565 -0.1653
 4630SOL    HW116090   7.175   2.808   8.392  0.3882  2.6036 -1.0744
 4630SOL    HW216091   7.292   2.860   8.473  1.1034  0.0287 -0.3694
 4631SOL     OW16092   4.773   8.240   3.153 -0.7150  0.6187  0.6107
 4631SOL    HW116093   4.864   8.243   3.185 -0.3820  0.5936 -0.3077
 4631SOL    HW216094   4.780   8.200   3.066 -1.8389 -1.3035  1.3457
 4632SOL     OW16095   1.314   8.510   1.149 -0.8060 -0.1412 -0.0821
 4632SOL    HW116096   1.343   8.599   1.131  0.9973 -0.8239 -0.8784
 4632SOL    HW216097   1.393   8.457   1.139 -1.9503 -1.9073 -0.2588
 4633SOL     OW16098   1.257   8.853   1.012  0.2291  0.0482  0.8006
 4633SOL    HW116099   1.305   8.777   0.981 -1.0830 -0.8403  0.8546
 4633SOL    HW216100   1.284   8.863   1.103 -1.0120 -1.5852  1.3992
 4634SOL     OW16101   0.875   9.469   4.673  0.2747 -0.0528 -0.1092
 4634SOL    HW116102   0.922   9.389   4.697 -0.4418 -0.7447 -0.9324
 4634SOL    HW216103   0.881   9.472   4.577 -0.1856  0.5768 -0.1224
 4635SOL     OW16104   8.727   7.904   6.824  0.0490  0.4912  0.1708
 4635SOL    HW116105   8.747   7.951   6.743 -0.2646  0.5821  0.1453
 4635SOL    HW216106   8.807   7.910   6.876 -0.5873  2.7731  1.0055
 4636SOL     OW16107   1.347   8.080   1.906 -0.0978 -0.4130  0.5118
 4636SOL    HW116108   1.287   8.078   1.832 -0.7340  0.1276  1.0010
 4636SOL    HW216109   1.430   8.108   1.869 -0.2013 -0.9358 -0.1295
 4637SOL     OW16110   2.786   8.618   6.490 -0.1763 -0.3526 -0.1931
 4637SOL    HW116111   2.815   8.541   6.539 -0.1362  0.6186  1.4019
 4637SOL    HW216112   2.855   8.635   6.427  1.0281 -0.1762  1.1311
 4638SOL     OW16113   1.137   8.561   0.425  0.4221 -0.5984  0.3812
 4638SOL    HW116114   1.225   8.599   0.432  0.9016 -1.6217  0.0339
 4638SOL    HW216115   1.110   8.547   0.516  0.9671 -1.0507  0.4803
 4639SOL     OW16116   6.716   1.499   3.471 -0.2387  0.0501 -0.3684
 4639SOL    HW116117   6.629   1.511   3.511 -0.0432  0.8914 -0.1902
 4639SOL    HW216118   6.766   1.576   3.498  1.1289 -1.2549  1.0152
 4640SOL     OW16119   3.436   5.920   5.037  0.0618  0.2517  0.2052
 4640SOL    HW116120   3.495   5.964   4.975  0.2831  0.4493  0.5537
 4640SOL    HW216121   3.461   5.828   5.032 -1.4552 -0.1190 -1.7092
 4641SOL     OW16122   1.354   6.193   8.959  0.6665 -0.6989 -0.3098
 4641SOL    HW116123   1.364   6.098   8.962 -0.7659 -0.9291 -1.6180
 4641SOL    HW216124   1.279   6.212   9.016 -0.1946 -0.5868 -1.4358
 4642SOL     OW16125   7.268   6.042   7.354  0.0890  0.6924 -0.3394
 4642SOL    HW116126   7.332   5.973   7.369 -0.7064 -0.1302 -0.6609
 4642SOL    HW216127   7.237   6.065   7.442 -1.6063 -1.2805 -0.3434
 4643SOL     OW16128   4.662   1.253   1.687  0.4264  0.1244 -0.2433
 4643SOL    HW116129   4.581   1.235   1.640 -0.0102  0.6811  0.2813
 4643SOL    HW216130   4.713   1.173   1.679 -1.1468 -1.1295  1.4375
 4644SOL     OW16131   7.651   3.011   7.227  0.6147  0.3611 -0.4045
 4644SOL    HW116132   7.681   2.968   7.308 -0.2419 -1.6524 -1.0862
 4644SOL    HW216133   7.640   3.102   7.252  0.0692 -0.2446  1.8817
 4645SOL     OW16134   8.974   9.402   4.417  0.3422  0.0723  0.0467
 4645SOL    HW116135   8.990   9.393   4.511 -0.2506  0.1200  0.1607
 4645SOL    HW216136   8.880   9.383   4.407  1.1036 -3.9019 -1.0643
 4646SOL     OW16137   3.852   5.902   8.456 -0.3311 -0.2526 -0.1655
 4646SOL    HW116138   3.832   5.968   8.389 -0.4830  0.0831  0.2104
 4646SOL    HW216139   3.778   5.842   8.453 -0.4993 -0.0523 -0.0716
 4647SOL     OW16140   6.366   9.567   8.462  0.2343 -0.3002  0.8636
 4647SOL    HW116141   6.282   9.591   8.499 -0.1648  0.4512 -0.4476
 4647SOL    HW216142   6.345   9.519   8.382  1.0266  0.3021  0.2709
 4648SOL     OW16143   3.411   6.258   6.078  0.2098  0.6938 -0.1788
 4648SOL    HW116144   3.394   6.193   6.146  2.1973  1.1606  0.8228
 4648SOL    HW216145   3.404   6.208   5.996  2.8894 -1.1873  0.5884
 4649SOL     OW16146   3.228   5.454   8.444 -0.6742  0.0493 -0.2574
 4649SOL    HW116147   3.268   5.465   8.357  1.4576  2.2277  0.8778
 4649SOL    HW216148   3.264   5.372   8.477  0.5679  0.4741 -0.4781
 4650SOL     OW16149   6.924   9.506   5.191 -0.2266  0.2275  0.2099
 4650SOL    HW116150   6.979   9.483   5.267  1.2707 -0.3922 -1.0174
 4650SOL    HW216151   6.952   9.594   5.167  1.1103 -0.5130 -1.1092
 4651SOL     OW16152   7.270   7.670   6.568  0.3675  0.1122  0.8113
 4651SOL    HW116153   7.358   7.702   6.547 -0.0485  0.7901  0.0141
 4651SOL    HW216154   7.284   7.581   6.599  1.2165 -0.3729 -0.7941
 4652SOL     OW16155   2.244   3.086   2.035  0.1993 -1.3009  0.0275
 4652SOL    HW116156   2.274   3.162   2.085 -2.4931 -0.3379  0.3426
 4652SOL    HW216157   2.299   3.014   2.066 -1.0302 -0.7172  4.2700
 4653SOL     OW16158   4.933   1.683   7.681 -0.3374 -0.0622  0.1884
 4653SOL    HW116159   4.999   1.670   7.612 -0.4077  1.0440 -0.0949
 4653SOL    HW216160   4.960   1.763   7.726 -1.7630  0.7105 -0.2702
 4654SOL     OW16161   1.908   3.114   7.596  0.1864  0.3559 -0.2004
 4654SOL    HW116162   1.848   3.052   7.637 -0.5690  1.2938  0.1558
 4654SOL    HW216163   1.966   3.060   7.542  0.2841 -0.7720  0.9749
 4655SOL     OW16164   1.836   5.837   9.086  0.4463  0.5170 -0.0580
 4655SOL    HW116165   1.890   5.911   9.113 -0.7299  1.1978  0.5616
 4655SOL    HW216166   1.789   5.868   9.009  0.9933 -0.0953 -0.6464
 4656SOL     OW16167   7.530   3.270   1.086  0.0803 -0.3875  0.4058
 4656SOL    HW116168   7.511   3.352   1.130 -1.3641 -0.1571 -0.5669
 4656SOL    HW216169   7.624   3.272   1.070 -0.0464  1.4332 -0.2646
 4657SOL     OW16170   2.780   3.152   0.394  0.1564  0.2778  0.4274
 4657SOL    HW116171   2.738   3.129   0.477 -2.1553 -2.1945 -1.2682
 4657SOL    HW216172   2.790   3.069   0.348  1.4718  1.5444 -1.7771
 4658SOL     OW16173   6.906   1.175   2.341  0.2307 -0.3425 -0.0874
 4658SOL    HW116174   6.869   1.091   2.312  1.1688  0.0033 -2.5332
 4658SOL    HW216175   6.995   1.154   2.368  0.9681 -0.0074 -2.0661
 4659SOL     OW16176   6.986   4.640   1.843  0.0554 -0.5505 -0.5604
 4659SOL    HW116177   6.948   4.558   1.811 -1.1211  0.2177 -1.2165
 4659SOL    HW216178   7.045   4.614   1.913 -0.6227 -1.9188 -0.4721
 4660SOL     OW16179   4.720   0.017   7.550 -0.6052 -0.1140 -0.1797
 4660SOL    HW116180   4.764  -0.059   7.587  0.3786  1.1032  1.2461
 4660SOL    HW216181   4.656   0.043   7.617  0.1642  1.2329  0.0622
 4661SOL     OW16182   0.218   4.586   1.936  0.6974  0.0647  0.2636
 4661SOL    HW116183   0.211   4.662   1.880 -1.0855 -0.1180  0.1894
 4661SOL    HW216184   0.175   4.612   2.018  0.9461 -0.5270  0.5922
 4662SOL     OW16185   1.276   5.692   0.721  0.4608 -0.1094 -0.1822
 4662SOL    HW116186   1.266   5.693   0.816 -0.2689 -0.1660 -0.2540
 4662SOL    HW216187   1.247   5.605   0.694  0.0543  0.1239 -0.5170
 4663SOL     OW16188   1.979   2.398   5.891 -0.0292  0.2871  0.1607
 4663SOL    HW116189   1.887   2.424   5.887 -0.0635  0.3425  1.0734
 4663SOL    HW216190   1.990   2.338   5.817 -0.4702  1.2602 -0.7169
 4664SOL     OW16191   9.053   6.539   9.307 -0.5696  0.2141  0.0279
 4664SOL    HW116192   9.043   6.580   9.392 -0.9055  1.6877 -0.6878
 4664SOL    HW216193   8.987   6.581   9.252 -0.7160 -1.0837 -0.8375
 4665SOL     OW16194   8.426   3.672   5.091 -0.1015 -0.1996 -0.8621
 4665SOL    HW116195   8.386   3.705   5.011  0.0697 -2.0674 -1.7648
 4665SOL    HW216196   8.421   3.577   5.083  2.4104 -0.4885  0.0710
 4666SOL     OW16197   1.918   0.265   1.757  0.1245  0.0700 -0.2730
 4666SOL    HW116198   1.980   0.331   1.728  0.0311  0.0326 -0.5681
 4666SOL    HW216199   1.936   0.254   1.850 -0.9391  1.6942  0.1668
 4667SOL     OW16200   7.223   3.725   1.939  0.1150 -0.5605 -0.1388
 4667SOL    HW116201   7.185   3.700   1.855  1.1534 -0.4374 -0.6598
 4667SOL    HW216202   7.170   3.798   1.969  0.7298  0.4792 -1.4929
 4668SOL     OW16203   5.012   8.402   5.899  0.2916  0.1201 -0.5157
 4668SOL    HW116204   4.933   8.358   5.930 -0.2433  1.4667  0.1073
 4668SOL    HW216205   5.036   8.353   5.820 -1.3897 -0.0847 -0.9509
 4669SOL     OW16206   2.624   5.486   1.774 -0.2135 -0.1261  0.2415
 4669SOL    HW116207   2.642   5.399   1.737  0.4648 -0.7280  1.8903
 4669SOL    HW216208   2.700   5.539   1.749 -0.8378  0.1475 -1.1519
 4670SOL     OW16209   7.123   0.120   0.970 -0.0737 -0.2606 -0.1379
 4670SOL    HW116210   7.179   0.182   0.924 -0.1734  1.7032  2.2224
 4670SOL    HW216211   7.137   0.037   0.923  2.1085  0.9048 -1.7597
 4671SOL     OW16212   2.815   4.266   3.854  0.1209 -0.0763 -0.1518
 4671SOL    HW116213   2.885   4.280   3.917  0.4809  0.3827 -0.6397
 4671SOL    HW216214   2.783   4.354   3.833 -1.5882 -0.3394  1.1346
 4672SOL     OW16215   4.979   9.574   0.692 -0.0244 -0.2907  0.2835
 4672SOL    HW116216   4.903   9.521   0.668  0.0631 -1.2264  1.9249
 4672SOL    HW216217   4.990   9.559   0.786 -0.5351  3.3415  1.0742
 4673SOL     OW16218   1.934   1.043   7.936  0.1062 -0.0998 -0.5037
 4673SOL    HW116219   1.878   1.032   7.859  0.6753  0.3069 -0.9829
 4673SOL    HW216220   1.995   0.969   7.932  0.1889 -0.0326 -0.4907
 4674SOL     OW16221   7.956   5.299   7.950  0.4317  0.1476  0.4470
 4674SOL    HW116222   7.964   5.361   7.878  0.0176  0.2693  0.5020
 4674SOL    HW216223   7.893   5.340   8.010  1.3464  0.3962  1.2499
 4675SOL     OW16224   0.167   8.747   3.294 -0.0051 -0.0846  0.0956
 4675SOL    HW116225   0.120   8.709   3.220  0.4453  0.0691 -0.2717
 4675SOL    HW216226   0.098   8.783   3.350 -0.2635  1.8661 -1.3594
 4676SOL     OW16227   6.244   4.711   7.861  0.3369  0.1376  0.1480
 4676SOL    HW116228   6.261   4.805   7.863 -0.2790  0.2383  1.5707
 4676SOL    HW216229   6.331   4.672   7.850  0.5567  0.8708 -0.8784
 4677SOL     OW16230   7.763   3.083   2.507 -0.0884  0.6295  0.5465
 4677SOL    HW116231   7.846   3.071   2.553  0.9484  1.6553 -0.9770
 4677SOL    HW216232   7.737   2.994   2.481  2.7880  0.4987 -2.6501
 4678SOL     OW16233   4.320   6.738   2.933  0.4033 -0.3470 -0.0196
 4678SOL    HW116234   4.384   6.760   3.001  0.6501  1.1332 -0.7084
 4678SOL    HW216235   4.372   6.695   2.864  0.6818  0.8570 -0.5799
 4679SOL     OW16236   4.624   2.554   7.266  0.0821  0.2440 -0.7905
 4679SOL    HW116237   4.588   2.546   7.355  0.2710 -1.2999 -0.8314
 4679SOL    HW216238   4.583   2.633   7.231 -0.6092  0.4332  0.3889
 4680SOL     OW16239   9.484   1.477   0.361 -0.5499  0.1114 -0.4001
 4680SOL    HW116240   9.529   1.452   0.442 -0.5840 -0.5728 -0.5831
 4680SOL    HW216241   9.410   1.417   0.356 -0.0615 -0.4358 -1.3832
 4681SOL     OW16242   5.315   2.997   1.968 -0.2678 -0.4492 -0.3304
 4681SOL    HW116243   5.302   2.904   1.983 -0.1201 -0.6703 -1.5281
 4681SOL    HW216244   5.393   3.019   2.018 -1.1933 -0.6055  1.2538
 4682SOL     OW16245   0.800   6.975   0.831 -0.4164 -0.1854 -0.3025
 4682SOL    HW116246   0.746   6.995   0.754  1.0009  0.4623 -1.1752
 4682SOL    HW216247   0.878   6.933   0.795  0.2059 -0.0183  0.8039
 4683SOL     OW16248   3.659   2.832   3.266  0.0402  0.1679  0.6678
 4683SOL    HW116249   3.705   2.896   3.321  0.4933  1.0928 -0.7107
 4683SOL    HW216250   3.729   2.779   3.228 -0.1868  0.1815  0.2256
 4684SOL     OW16251   0.817   1.622   9.534  0.5314 -0.4319 -0.3664
 4684SOL    HW116252   0.837   1.580   9.618  0.4622 -0.0362 -0.1515
 4684SOL    HW216253   0.787   1.709   9.557  1.2767 -0.0382 -0.8424
 4685SOL     OW16254   3.207   4.168   5.037  0.0891  0.3943  0.2831
 4685SOL    HW116255   3.239   4.138   4.951 -2.8735 -0.0692 -0.7645
 4685SOL    HW216256   3.171   4.255   5.019 -3.0045 -0.7639  0.3274
 4686SOL     OW16257   3.474   3.545   8.312  0.0609 -0.5459 -0.1957
 4686SOL    HW116258   3.507   3.596   8.238 -0.1590 -1.0028 -0.6141
 4686SOL    HW216259   3.526   3.575   8.386  0.7145 -0.5225 -0.6522
 4687SOL     OW16260   1.237   0.716   0.579  0.2986  0.1189  0.2230
 4687SOL    HW116261   1.295   0.746   0.650 -0.1890 -0.7391  1.0056
 4687SOL    HW216262   1.279   0.748   0.499  2.9184 -1.9997  0.5836
 4688SOL     OW16263   6.831   5.583   9.490 -0.7570 -0.0847 -0.0426
 4688SOL    HW116264   6.874   5.665   9.513 -1.6606  1.1554 -2.4435
 4688SOL    HW216265   6.857   5.522   9.559  3.8085  0.8773 -0.6083
 4689SOL     OW16266   6.176   6.527   2.493 -1.0160  0.5895 -0.3224
 4689SOL    HW116267   6.248   6.582   2.461 -0.2211  0.1806  0.7303
 4689SOL    HW216268   6.219   6.451   2.532 -2.0532 -0.0137 -0.3195
 4690SOL     OW16269   8.350   1.855   3.513  0.0014  0.1206 -0.1473
 4690SOL    HW116270   8.355   1.765   3.483 -2.9203 -0.3138  0.3892
 4690SOL    HW216271   8.276   1.892   3.466  0.7427  2.0770  0.1214
 4691SOL     OW16272   7.909   5.790   1.664  0.0353  0.0423  0.4624
 4691SOL    HW116273   7.846   5.720   1.678 -0.9238  0.7491 -0.1686
 4691SOL    HW216274   7.857   5.870   1.670  1.0127  0.6759  0.6612
 4692SOL     OW16275   7.860   9.236   7.781 -0.2463 -0.0284  0.8600
 4692SOL    HW116276   7.787   9.200   7.731 -1.6753  1.9828  1.3815
 4692SOL    HW216277   7.819   9.275   7.859  1.3837  1.0334  1.2444
 4693SOL     OW16278   9.440   4.931   4.983 -0.0195 -0.0153  0.2910
 4693SOL    HW116279   9.468   4.848   4.943  2.2081  0.2660  1.1093
 4693SOL    HW216280   9.521   4.980   4.994 -1.3314  2.4982 -0.5563
 4694SOL     OW16281   0.323   5.868   7.486 -0.1903 -0.0002  0.0897
 4694SOL    HW116282   0.346   5.901   7.400  1.1311  0.1508  0.4789
 4694SOL    HW216283   0.228   5.851   7.482  0.2629 -2.6948 -2.2893
 4695SOL     OW16284   4.240   2.633   8.839 -0.8835 -0.6846 -0.3561
 4695SOL    HW116285   4.154   2.593   8.827 -1.2513 -0.3344  0.9652
 4695SOL    HW216286   4.295   2.564   8.874 -1.0555 -0.5027  0.2843
 4696SOL     OW16287   9.574   0.451   4.807  0.3423 -0.1682 -0.5987
 4696SOL    HW116288   9.655   0.448   4.756 -0.1429 -1.2191 -1.3308
 4696SOL    HW216289   9.517   0.510   4.757  1.4279  2.5766  1.1611
 4697SOL     OW16290   6.043   6.282   0.154 -0.0242  0.4241  0.1492
 4697SOL    HW116291   6.026   6.311   0.065 -0.2511  0.6284  0.2568
 4697SOL    HW216292   6.059   6.188   0.147 -2.1586  0.0294  0.1744
 4698SOL     OW16293   0.345   7.343   0.967  0.5253  0.2674 -0.2137
 4698SOL    HW116294   0.283   7.361   0.897  0.1851  0.0393  0.0275
 4698SOL    HW216295   0.366   7.250   0.958  3.4334  0.9795 -2.4038
 4699SOL     OW16296   7.101   6.607   2.412 -0.1446 -0.1012  0.2353
 4699SOL    HW116297   7.171   6.667   2.384 -1.2110  1.9972  1.7791
 4699SOL    HW216298   7.027   6.628   2.355 -1.0364  1.3030  1.8219
 4700SOL     OW16299   0.802   1.905   6.415  0.2389 -0.4967 -0.2663
 4700SOL    HW116300   0.747   1.828   6.399  1.0307 -1.3819  1.1864
 4700SOL    HW216301   0.870   1.875   6.475  1.4184  0.9808 -0.8067
 4701SOL     OW16302   1.442   2.992   0.289  0.1516 -0.2046 -0.3128
 4701SOL    HW116303   1.481   3.074   0.317  0.3630 -0.6774  0.8339
 4701SOL    HW216304   1.491   2.924   0.337 -0.4602 -0.9519 -0.7171
 4702SOL     OW16305   7.229   8.013   1.721  0.2307 -0.4015  0.5256
 4702SOL    HW116306   7.321   8.037   1.719 -0.0750  0.8180 -0.9583
 4702SOL    HW216307   7.226   7.929   1.766  2.0277 -0.3372  0.8005
 4703SOL     OW16308   3.811   8.267   2.339 -0.2511 -0.6458 -0.1208
 4703SOL    HW116309   3.746   8.257   2.269  0.1070  0.0962 -0.5712
 4703SOL    HW216310   3.895   8.246   2.298  0.2418  1.7476 -0.5163
 4704SOL     OW16311   1.814   5.735   5.441 -0.7687 -0.1560  0.1407
 4704SOL    HW116312   1.796   5.770   5.528 -0.8540 -0.8533  0.4107
 4704SOL    HW216313   1.820   5.812   5.385 -1.1587  0.2755  0.6797
 4705SOL     OW16314   2.480   9.170   1.445 -0.3537  0.3484 -0.9346
 4705SOL    HW116315   2.498   9.106   1.514  1.8613  0.6964 -1.1319
 4705SOL    HW216316   2.413   9.128   1.391  0.0594 -1.2263 -0.2861
 4706SOL     OW16317   0.660   4.118   8.308 -1.0275 -0.0894  0.3273
 4706SOL    HW116318   0.566   4.132   8.313 -1.3276 -1.1659 -1.4836
 4706SOL    HW216319   0.677   4.043   8.364 -1.3546 -0.3063  0.1383
 4707SOL     OW16320   7.056   0.305   4.794 -0.3240 -0.4786 -0.3551
 4707SOL    HW116321   7.019   0.220   4.769  1.2250 -1.2994  0.0324
 4707SOL    HW216322   7.141   0.284   4.834  0.2686  1.2777 -0.6000
 4708SOL     OW16323   0.492   6.917   3.452 -0.1672  0.3260  0.0920
 4708SOL    HW116324   0.470   6.826   3.429 -1.3332  0.6893 -0.2861
 4708SOL    HW216325   0.455   6.969   3.380 -0.0431  1.1539  0.6193
 4709SOL     OW16326   0.409   9.308   4.848  0.0536 -0.0288  0.2084
 4709SOL    HW116327   0.465   9.383   4.830 -0.7133  0.3273 -0.7735
 4709SOL    HW216328   0.379   9.279   4.762 -0.5534 -0.7772  0.6532
 4710SOL     OW16329   8.412   2.400   2.257  0.3288 -0.2371 -0.1670
 4710SOL    HW116330   8.352   2.347   2.204  0.7432 -1.6900  0.7640
 4710SOL    HW216331   8.490   2.346   2.265  1.8274  1.6280 -1.3846
 4711SOL     OW16332   5.257   7.577   7.901 -0.2708  0.1104 -0.6714
 4711SOL    HW116333   5.307   7.659   7.903 -0.8526  0.4517  0.8112
 4711SOL    HW216334   5.303   7.520   7.963  0.0470 -0.6536 -1.5900
 4712SOL     OW16335   6.762   5.209   4.286 -0.0662 -0.1412  0.5089
 4712SOL    HW116336   6.854   5.183   4.281 -0.5127 -2.1318  1.4209
 4712SOL    HW216337   6.719   5.156   4.218 -0.9872 -1.8563  2.3081
 4713SOL     OW16338   8.687   1.316   6.266  0.2064 -0.1606 -0.2836
 4713SOL    HW116339   8.656   1.405   6.253 -0.3751  0.1258  2.4449
 4713SOL    HW216340   8.623   1.261   6.221 -0.4426  0.7325 -0.4773
 4714SOL     OW16341   2.414   5.233   7.812 -0.2879 -0.3233  0.2476
 4714SOL    HW116342   2.459   5.223   7.896  0.7157  0.7871 -0.1293
 4714SOL    HW216343   2.361   5.154   7.804  0.6384 -1.0868  1.3028
 4715SOL     OW16344   5.218   2.164   1.701 -0.3063 -0.8420  0.4381
 4715SOL    HW116345   5.156   2.231   1.730  1.3748  0.2128  1.8056
 4715SOL    HW216346   5.237   2.114   1.781  0.5990 -1.1252  0.0550
 4716SOL     OW16347   6.794   8.437   7.980 -0.4572 -0.2624  0.3128
 4716SOL    HW116348   6.745   8.374   7.928 -0.4507 -0.8659  1.0190
 4716SOL    HW216349   6.744   8.446   8.061 -1.0064  1.4307 -0.1706
 4717SOL     OW16350   7.386   1.658   9.521  0.1588  0.2188 -0.7297
 4717SOL    HW116351   7.356   1.702   9.442  1.1533 -1.4892 -2.1069
 4717SOL    HW216352   7.347   1.571   9.517  1.2631 -0.3362 -0.0078
 4718SOL     OW16353   4.599   3.888   0.340  0.3718  0.4423 -0.1257
 4718SOL    HW116354   4.532   3.846   0.286  1.3025  1.0167 -1.7976
 4718SOL    HW216355   4.677   3.891   0.284  2.0133 -0.6928  1.9125
 4719SOL     OW16356   7.385   6.591   7.933 -0.5024  0.6169 -0.2553
 4719SOL    HW116357   7.289   6.594   7.933 -0.5103  0.5352  0.5850
 4719SOL    HW216358   7.409   6.600   8.025  0.3461  2.0579 -0.6001
 4720SOL     OW16359   6.435   9.026   1.695 -0.3491 -0.0006 -0.3768
 4720SOL    HW116360   6.340   9.022   1.683 -0.9429 -3.4556  3.2619
 4720SOL    HW216361   6.468   8.948   1.652  0.9243  1.1638 -1.5853
 4721SOL     OW16362   1.606   1.818   2.309  0.0509 -0.0565 -0.2960
 4721SOL    HW116363   1.571   1.729   2.308 -0.7911  0.2065  1.6533
 4721SOL    HW216364   1.529   1.874   2.314  0.6040  0.7531 -0.6976
 4722SOL     OW16365   1.854   4.865   0.405  0.1062 -0.2706  0.3789
 4722SOL    HW116366   1.930   4.900   0.452 -0.9499  2.2327  0.3672
 4722SOL    HW216367   1.887   4.789   0.358  2.5883  0.7086  0.4232
 4723SOL     OW16368   7.854   2.210   6.072  0.6798 -0.0746 -0.0327
 4723SOL    HW116369   7.856   2.297   6.110  1.9950 -0.6792  1.3621
 4723SOL    HW216370   7.807   2.156   6.136  1.0912 -0.6691 -0.2143
 4724SOL     OW16371   6.700   6.724   5.417  0.2617 -0.4811 -0.0449
 4724SOL    HW116372   6.676   6.671   5.340  0.6606 -0.7850  0.0345
 4724SOL    HW216373   6.620   6.772   5.439  0.5579  0.8266 -1.6185
 4725SOL     OW16374   1.527   7.177   3.894 -0.9117  0.2597 -0.5057
 4725SOL    HW116375   1.578   7.246   3.853 -0.5421  0.5466  0.4355
 4725SOL    HW216376   1.436   7.204   3.882 -0.7586  1.2395  0.3985
 4726SOL     OW16377   7.268   6.431   2.172 -0.1804  0.5075  0.5248
 4726SOL    HW116378   7.173   6.437   2.165 -0.3527  0.3088  2.3825
 4726SOL    HW216379   7.286   6.337   2.171 -0.2549  0.4389  2.7214
 4727SOL     OW16380   8.023   4.668   4.010  0.1887  0.4865 -0.8106
 4727SOL    HW116381   7.992   4.602   4.072 -0.5067  0.7058 -0.9121
 4727SOL    HW216382   8.113   4.643   3.991  0.0773 -0.1756 -0.5031
 4728SOL     OW16383   9.487   2.196   2.438  0.5443  0.1896  0.0883
 4728SOL    HW116384   9.440   2.139   2.377  1.0792  1.1652 -1.2656
 4728SOL    HW216385   9.499   2.142   2.516 -2.6620 -0.1654  0.4611
 4729SOL     OW16386   8.568   7.829   2.095  0.2913 -0.4245 -0.5784
 4729SOL    HW116387   8.652   7.858   2.060 -0.7657  0.5545 -2.4474
 4729SOL    HW216388   8.590   7.758   2.156  2.5714  1.0471  0.4120
 4730SOL     OW16389   6.430   0.324   5.254  0.0779 -0.4686  0.0277
 4730SOL    HW116390   6.501   0.388   5.247 -0.6917  0.2811 -1.5248
 4730SOL    HW216391   6.431   0.278   5.171 -0.4292 -1.3583  0.5067
 4731SOL     OW16392   0.581   0.355   2.297 -0.6525 -0.6315  0.4016
 4731SOL    HW116393   0.496   0.360   2.255  0.1732  1.8803 -1.2289
 4731SOL    HW216394   0.591   0.441   2.340  0.7880 -1.1221  1.1137
 4732SOL     OW16395   7.835   3.344   5.561 -0.0459 -0.5975 -0.6049
 4732SOL    HW116396   7.864   3.434   5.580  3.5417 -1.8255  0.7141
 4732SOL    HW216397   7.823   3.343   5.466 -1.8677  1.6250 -0.4975
 4733SOL     OW16398   5.613   4.033   7.689  0.4213  0.0085  0.0457
 4733SOL    HW116399   5.587   3.995   7.605 -0.7810  1.8571 -0.4735
 4733SOL    HW216400   5.585   4.125   7.683 -1.2640 -0.2016  3.1132
 4734SOL     OW16401   4.974   1.918   2.255 -0.0285 -0.5450  0.3150
 4734SOL    HW116402   4.982   1.989   2.319 -1.0964 -0.0990 -0.0260
 4734SOL    HW216403   4.894   1.872   2.279 -0.3402 -0.4916 -0.5629
 4735SOL     OW16404   4.693   8.740   6.344  0.5923  0.2323 -0.7319
 4735SOL    HW116405   4.733   8.653   6.348  0.2058  0.0421 -1.0196
 4735SOL    HW216406   4.686   8.767   6.436  0.1899 -0.2737 -0.6114
 4736SOL     OW16407   5.451   9.085   1.753  0.3872  0.0001  0.3447
 4736SOL    HW116408   5.438   9.028   1.829  0.7254  0.4318  0.7309
 4736SOL    HW216409   5.531   9.054   1.712  1.1586  0.8433  1.1598
 4737SOL     OW16410   4.548   8.339   0.922 -0.1527 -0.2926 -0.3864
 4737SOL    HW116411   4.456   8.314   0.908 -0.2249 -0.3177  0.1153
 4737SOL    HW216412   4.594   8.255   0.929 -0.4504 -0.3458  1.6654
 4738SOL     OW16413   0.216   3.165   8.187  0.6095  0.3388  0.3823
 4738SOL    HW116414   0.256   3.092   8.140  0.0966  0.4383 -0.2197
 4738SOL    HW216415   0.277   3.185   8.257  1.8176  0.7641 -0.7571
 4739SOL     OW16416   3.446   5.841   2.737  0.2521 -0.1399  0.5330
 4739SOL    HW116417   3.418   5.920   2.691 -2.7953 -0.3234  1.8475
 4739SOL    HW216418   3.412   5.769   2.683  1.3266 -0.5406  0.3539
 4740SOL     OW16419   2.132   5.001   0.995  0.0369  0.4236 -0.3208
 4740SOL    HW116420   2.120   4.906   0.987 -1.4346  0.6343 -0.9633
 4740SOL    HW216421   2.161   5.014   1.085 -0.6576 -0.5783  0.0726
 4741SOL     OW16422   7.009   6.745   0.343 -1.0609 -0.2660  0.2658
 4741SOL    HW116423   6.932   6.700   0.377 -1.6291  0.8330  0.4933
 4741SOL    HW216424   7.077   6.678   0.340 -2.0444 -1.2806 -0.0286
 4742SOL     OW16425   3.920   2.507   7.892  0.2517 -0.1029  0.6190
 4742SOL    HW116426   3.838   2.457   7.898  0.5157 -0.6733 -0.2523
 4742SOL    HW216427   3.921   2.540   7.802  1.8510 -1.6838  0.0026
 4743SOL     OW16428   7.152   8.964   1.944  0.0104  0.3577  0.8242
 4743SOL    HW116429   7.167   8.872   1.925 -1.3031 -0.2824  2.6248
 4743SOL    HW216430   7.134   8.967   2.038 -2.6518  2.0675  0.3851
 4744SOL     OW16431   9.433   6.760   7.362  0.4443  0.1160 -0.2100
 4744SOL    HW116432   9.414   6.798   7.276  0.7998  1.1250  0.1332
 4744SOL    HW216433   9.401   6.670   7.357 -0.0238  0.3268 -1.2142
 4745SOL     OW16434   9.161   0.278   4.391 -0.2405 -0.1062 -0.5045
 4745SOL    HW116435   9.145   0.190   4.357 -1.1957 -0.3308  0.4607
 4745SOL    HW216436   9.139   0.336   4.318 -2.1515 -0.5744 -0.3740
 4746SOL     OW16437   8.363   5.064   3.737  0.0224  0.5265 -0.7993
 4746SOL    HW116438   8.444   5.019   3.763 -0.1889 -0.3452 -1.5999
 4746SOL    HW216439   8.392   5.129   3.672  0.1250  0.4632 -0.8178
 4747SOL     OW16440   8.526   8.790   7.363 -0.8562  0.0509  0.6465
 4747SOL    HW116441   8.576   8.799   7.281  0.1825 -3.4855  0.7188
 4747SOL    HW216442   8.435   8.797   7.336 -0.4990  0.5598 -0.5246
 4748SOL     OW16443   2.684   2.665   1.251 -0.1808  0.1251  0.1700
 4748SOL    HW116444   2.646   2.578   1.239  0.7867 -0.2526 -0.1905
 4748SOL    HW216445   2.617   2.725   1.217  0.0356 -0.5956 -1.5953
 4749SOL     OW16446   7.409   4.105   8.192  0.0515  0.2683  0.6950
 4749SOL    HW116447   7.446   4.150   8.116 -0.3417 -0.0862  0.2929
 4749SOL    HW216448   7.468   4.128   8.264  1.3052 -0.6475 -0.0177
 4750SOL     OW16449   3.095   6.026   3.560  0.6496  0.3596  0.4312
 4750SOL    HW116450   3.163   6.081   3.598 -0.7696  1.4252  1.5879
 4750SOL    HW216451   3.138   5.979   3.489  1.6073  4.3770 -1.9937
 4751SOL     OW16452   8.968   1.923   4.383  0.2451  0.3747  0.4879
 4751SOL    HW116453   8.961   1.902   4.290  1.1397  1.7088  0.0932
 4751SOL    HW216454   8.956   1.839   4.428 -0.3731 -0.2555 -0.8070
 4752SOL     OW16455   2.882   3.622   2.913 -0.4472  0.2057 -0.7061
 4752SOL    HW116456   2.907   3.693   2.853 -0.2736  0.8286  0.0938
 4752SOL    HW216457   2.958   3.564   2.914  0.1757  1.0041  0.0946
 4753SOL     OW16458   2.122   1.741   1.330  0.9489 -0.1948  0.5586
 4753SOL    HW116459   2.074   1.803   1.385 -0.8877 -0.1574 -0.9584
 4753SOL    HW216460   2.055   1.707   1.270  2.3155 -2.2008  0.0905
 4754SOL     OW16461   8.066   3.224   8.960 -0.4942 -0.3906  0.3535
 4754SOL    HW116462   8.075   3.283   8.885 -0.6132 -0.5520  0.2093
 4754SOL    HW216463   8.020   3.275   9.026 -1.1482 -0.5199  0.0038
 4755SOL     OW16464   7.762   8.146   4.060 -0.1725 -0.6146 -0.1962
 4755SOL    HW116465   7.706   8.105   4.127 -0.9946  1.6465  0.6091
 4755SOL    HW216466   7.851   8.132   4.092 -0.5578  0.5542  1.5318
 4756SOL     OW16467   1.695   5.350   2.928 -0.0776 -0.4575  0.1786
 4756SOL    HW116468   1.784   5.381   2.914 -0.3837  0.3388 -0.0272
 4756SOL    HW216469   1.674   5.303   2.847 -0.1314  0.0326 -0.0904
 4757SOL     OW16470   5.985   1.887   6.154  0.0293  0.0294 -0.3019
 4757SOL    HW116471   5.900   1.915   6.121 -0.6765  0.9252  2.0397
 4757SOL    HW216472   5.982   1.791   6.148 -1.3244  0.0197  0.0810
 4758SOL     OW16473   3.498   6.943   0.189  0.6274 -0.3938 -0.1595
 4758SOL    HW116474   3.519   6.920   0.279  0.7014 -0.2878 -0.1501
 4758SOL    HW216475   3.568   6.905   0.137  0.9404  0.1150 -0.1115
 4759SOL     OW16476   3.376   2.719   3.316  0.0134 -0.3239 -0.1987
 4759SOL    HW116477   3.443   2.710   3.248  1.1706 -2.2784  1.0961
 4759SOL    HW216478   3.304   2.663   3.288 -0.1831  0.1080 -0.5628
 4760SOL     OW16479   0.790   4.820   2.781 -0.3572  0.2700  0.4266
 4760SOL    HW116480   0.800   4.835   2.687 -1.0943  0.9601  0.4392
 4760SOL    HW216481   0.716   4.760   2.788 -0.2737  0.1815  0.5648
 4761SOL     OW16482   4.579   4.981   2.271 -0.3120 -0.1926 -0.5879
 4761SOL    HW116483   4.667   4.981   2.235 -0.0834  0.8136 -0.0649
 4761SOL    HW216484   4.533   5.051   2.224 -0.9642 -0.9715 -1.1422
 4762SOL     OW16485   8.456   6.660   0.377  0.3611 -0.0227  0.0041
 4762SOL    HW116486   8.480   6.686   0.466  1.9334 -0.4717 -0.2454
 4762SOL    HW216487   8.521   6.703   0.322 -1.2772  1.1804 -1.0645
 4763SOL     OW16488   2.522   6.467   2.301  0.0024  0.4389  0.5692
 4763SOL    HW116489   2.601   6.415   2.286  0.1046  0.4734  0.9845
 4763SOL    HW216490   2.512   6.519   2.221  0.0998  0.0478  0.2977
 4764SOL     OW16491   9.430   0.306   4.449 -0.4603  0.3618  0.5188
 4764SOL    HW116492   9.346   0.263   4.463 -0.6333  1.0140  1.5765
 4764SOL    HW216493   9.428   0.333   4.357 -1.2798  0.1291  0.4588
 4765SOL     OW16494   4.690   4.539   3.664  0.7350 -0.0153 -0.3227
 4765SOL    HW116495   4.734   4.513   3.584 -0.0120  1.1691 -1.1480
 4765SOL    HW216496   4.751   4.600   3.706  0.9748 -0.3632 -0.1626
 4766SOL     OW16497   3.740   2.992   4.008 -0.5498 -0.1399  0.1211
 4766SOL    HW116498   3.752   3.019   4.099  0.2112 -4.2033  1.3923
 4766SOL    HW216499   3.668   2.929   4.010  0.0119 -0.9262 -1.9368
 4767SOL     OW16500   9.494   8.737   5.641  0.3041 -0.5383 -0.4648
 4767SOL    HW116501   9.512   8.683   5.564 -0.2049 -0.6043 -0.5447
 4767SOL    HW216502   9.580   8.767   5.670  0.4786 -0.2421 -1.2575
 4768SOL     OW16503   3.885   9.570   7.487  0.0927  0.0779  0.4310
 4768SOL    HW116504   3.905   9.660   7.513 -0.5655  0.1302  0.7743
 4768SOL    HW216505   3.841   9.579   7.403 -2.2303  0.2977  1.5823
 4769SOL     OW16506   7.655   0.803   8.754 -0.5352 -0.3310 -0.1266
 4769SOL    HW116507   7.680   0.713   8.736  0.7271  0.2331 -1.4709
 4769SOL    HW216508   7.714   0.832   8.823 -1.1867 -0.6232  0.5672
 4770SOL     OW16509   1.408   1.089   0.140  0.1019 -0.2973 -0.0707
 4770SOL    HW116510   1.329   1.096   0.088  0.7288 -0.5574 -1.0789
 4770SOL    HW216511   1.392   1.015   0.199 -0.9935  0.6068  0.8237
 4771SOL     OW16512   6.075   2.255   7.705  0.5060  0.3263  0.3688
 4771SOL    HW116513   6.069   2.347   7.677  0.6026 -0.1255 -1.2575
 4771SOL    HW216514   5.988   2.235   7.738  0.8806  1.3956  2.1381
 4772SOL     OW16515   4.621   3.062   7.266 -0.2239  0.3603 -0.1912
 4772SOL    HW116516   4.658   3.072   7.354 -0.7126  2.9176 -0.1819
 4772SOL    HW216517   4.685   3.103   7.208  0.2126 -1.5298 -1.1063
 4773SOL     OW16518   6.689   7.678   7.990 -0.0300 -0.5044  0.0236
 4773SOL    HW116519   6.707   7.763   7.950 -0.0863  0.4837  1.9441
 4773SOL    HW216520   6.723   7.613   7.929  0.7457  0.9389 -1.1089
 4774SOL     OW16521   3.279   1.621   0.199 -0.4628 -0.2880 -0.0355
 4774SOL    HW116522   3.220   1.577   0.260  0.0007 -0.6399  0.1570
 4774SOL    HW216523   3.266   1.575   0.116  0.3425 -1.0886  0.2674
 4775SOL     OW16524   3.478   4.462   5.981 -0.3431  0.0765  0.2709
 4775SOL    HW116525   3.399   4.459   5.927 -1.0962 -0.2909  1.3639
 4775SOL    HW216526   3.543   4.504   5.925 -1.3928  0.6669 -0.5492
 4776SOL     OW16527   8.031   6.924   8.560  0.9788 -0.5028 -0.1057
 4776SOL    HW116528   8.014   6.978   8.483 -0.8535 -1.6719 -0.5837
 4776SOL    HW216529   7.948   6.880   8.577  1.8506 -1.6377  1.4649
 4777SOL     OW16530   5.606   1.781   3.835  0.6733 -0.0812 -0.1780
 4777SOL    HW116531   5.517   1.777   3.800  0.4358  0.8339  0.2828
 4777SOL    HW216532   5.600   1.842   3.909  1.9128  0.9457 -0.8761
 4778SOL     OW16533   8.974   3.744   8.242 -0.2089 -0.0921 -0.4083
 4778SOL    HW116534   9.056   3.697   8.251  0.5336  0.8793 -1.7478
 4778SOL    HW216535   8.994   3.818   8.185 -1.3143  1.8716  1.5436
 4779SOL     OW16536   2.138   0.030   5.106 -0.0809 -0.2090  0.2505
 4779SOL    HW116537   2.065   0.061   5.159 -0.3611 -0.2901 -0.0819
 4779SOL    HW216538   2.215   0.041   5.162 -0.4757 -1.1144  0.9996
 4780SOL     OW16539   0.170   6.018   7.004  0.1279  0.1905 -0.2932
 4780SOL    HW116540   0.171   6.081   7.075  0.6898  0.9961 -0.9994
 4780SOL    HW216541   0.247   6.039   6.951  1.0892 -1.9199  0.1450
 4781SOL     OW16542   7.340   7.427   5.552  0.1492 -0.2340 -0.5433
 4781SOL    HW116543   7.252   7.390   5.560  0.3575 -0.4688  0.8168
 4781SOL    HW216544   7.329   7.504   5.496 -1.2460  0.8200  1.1084
 4782SOL     OW16545   6.638   5.918   8.340 -0.0901 -0.4620 -0.1772
 4782SOL    HW116546   6.671   5.955   8.422  0.6229 -0.3862 -0.4955
 4782SOL    HW216547   6.676   5.830   8.336 -0.8460 -0.8044  0.0058
 4783SOL     OW16548   0.891   3.115   0.705 -0.2884  0.2448  1.1767
 4783SOL    HW116549   0.971   3.073   0.673 -1.8698 -1.7806 -0.4206
 4783SOL    HW216550   0.885   3.196   0.656 -0.1544 -0.4944 -0.1003
 4784SOL     OW16551   6.910   3.843   6.131  0.3799 -0.1267  0.6069
 4784SOL    HW116552   6.843   3.833   6.198  0.5922  1.4800  1.0952
 4784SOL    HW216553   6.987   3.798   6.166  0.0520 -0.5532  0.7771
 4785SOL     OW16554   8.528   1.563   6.630  0.0098  0.4054  0.4925
 4785SOL    HW116555   8.495   1.563   6.540  2.9650 -1.9138 -0.7603
 4785SOL    HW216556   8.459   1.520   6.681 -0.6091 -0.6987 -1.1879
 4786SOL     OW16557   1.925   8.648   6.328 -0.5232 -0.4911  0.1596
 4786SOL    HW116558   1.883   8.725   6.289 -1.4905 -0.2778  1.5403
 4786SOL    HW216559   2.019   8.666   6.323 -0.6708  0.0445 -0.9775
 4787SOL     OW16560   3.498   8.103   4.331  0.1150 -0.4262 -0.5928
 4787SOL    HW116561   3.578   8.088   4.281 -0.7326  0.9377 -2.5027
 4787SOL    HW216562   3.519   8.176   4.390 -0.1078  1.0600 -2.2543
 4788SOL     OW16563   2.805   7.021   6.508 -0.2027 -0.1016  0.2207
 4788SOL    HW116564   2.730   7.071   6.477 -0.1454 -0.5579 -0.6997
 4788SOL    HW216565   2.852   7.082   6.565 -0.3080  0.7942 -0.6153
 4789SOL     OW16566   5.311   8.340   5.148  0.0389 -0.4401 -0.1143
 4789SOL    HW116567   5.282   8.254   5.180 -0.3848 -0.8894 -1.5869
 4789SOL    HW216568   5.243   8.365   5.085  0.9076  0.2993 -0.7773
 4790SOL     OW16569   8.474   0.775   9.480  0.0959 -0.4040 -0.1357
 4790SOL    HW116570   8.552   0.825   9.502  0.4477  0.1648 -2.4458
 4790SOL    HW216571   8.419   0.835   9.431 -0.1945 -1.7925 -1.5992
 4791SOL     OW16572   0.951   3.642   0.838  0.2384  0.4113 -0.0395
 4791SOL    HW116573   0.994   3.723   0.809  0.0132  0.3309 -0.6230
 4791SOL    HW216574   1.019   3.575   0.834  1.3109  1.1008  3.4317
 4792SOL     OW16575   3.798   3.701   3.902 -0.2450  0.4883 -0.2961
 4792SOL    HW116576   3.827   3.691   3.811  0.7085 -1.7080  0.1688
 4792SOL    HW216577   3.872   3.744   3.945  1.2612 -2.4350  0.2706
 4793SOL     OW16578   2.526   1.592   3.561  0.4633 -0.2234  0.3055
 4793SOL    HW116579   2.564   1.522   3.507  0.2728 -0.6830  0.7570
 4793SOL    HW216580   2.588   1.664   3.554  1.2148 -0.8181  0.7009
 4794SOL     OW16581   9.547   9.205   0.168 -0.4808  0.1730  0.2404
 4794SOL    HW116582   9.561   9.124   0.118  1.2660 -0.2939  1.3536
 4794SOL    HW216583   9.494   9.260   0.111 -0.9038 -1.3927 -0.9550
 4795SOL     OW16584   0.833   3.058   9.081  0.0817 -0.6026 -0.0856
 4795SOL    HW116585   0.923   3.087   9.066 -0.2205 -0.5298 -1.9451
 4795SOL    HW216586   0.840   2.995   9.153  1.5597 -0.3794  0.0013
 4796SOL     OW16587   6.042   2.854   2.125  0.4843 -0.2303 -0.2001
 4796SOL    HW116588   6.015   2.941   2.153  1.6065 -0.1431  0.6929
 4796SOL    HW216589   5.966   2.798   2.146  0.2512  0.3162  0.4632
 4797SOL     OW16590   0.407   6.546   0.087 -0.2572 -0.3874 -0.1628
 4797SOL    HW116591   0.460   6.624   0.104 -3.1611  1.4704  1.3577
 4797SOL    HW216592   0.323   6.581   0.056 -1.4043 -2.9923 -0.2891
 4798SOL     OW16593   7.593   2.436   2.805  0.1282 -0.1454 -0.0520
 4798SOL    HW116594   7.500   2.428   2.783  0.4783 -0.6753 -1.4189
 4798SOL    HW216595   7.601   2.395   2.891 -1.0084  0.5027  0.3887
 4799SOL     OW16596   1.492   9.534   6.675 -0.0936 -0.7941 -0.2802
 4799SOL    HW116597   1.483   9.522   6.770 -0.4676 -1.0725 -0.3497
 4799SOL    HW216598   1.570   9.588   6.666 -1.2849  1.1674  0.3203
 4800SOL     OW16599   2.018   0.940   7.429 -0.0221  0.0097 -0.5140
 4800SOL    HW116600   2.045   1.031   7.419 -1.2096  0.3817 -0.4907
 4800SOL    HW216601   2.003   0.930   7.523  1.6665 -0.6908 -0.2870
 4801SOL     OW16602   3.607   0.600   1.213 -1.0678 -0.4764  0.7449
 4801SOL    HW116603   3.559   0.676   1.180 -0.8266  0.1308  1.7479
 4801SOL    HW216604   3.639   0.556   1.134 -1.8058  0.0694  0.1241
 4802SOL     OW16605   9.383   8.351   3.980  0.4755  0.4734 -0.6809
 4802SOL    HW116606   9.467   8.394   3.997  0.1630  0.6939  0.3337
 4802SOL    HW216607   9.395   8.262   4.012 -0.1285  0.9044  0.8040
 4803SOL     OW16608   7.840   6.314   0.571  0.4435  0.7730  0.5582
 4803SOL    HW116609   7.815   6.245   0.632  1.1375  0.1758  0.1701
 4803SOL    HW216610   7.784   6.300   0.495  2.7529 -1.4169 -0.8916
 4804SOL     OW16611   1.665   2.643   0.301  0.2189  0.6348  0.5047
 4804SOL    HW116612   1.759   2.633   0.316  0.4316 -0.6179 -1.3823
 4804SOL    HW216613   1.627   2.559   0.326 -0.2858  0.8104  0.3388
 4805SOL     OW16614   4.408   4.399   0.212  0.8675 -0.2220 -0.0281
 4805SOL    HW116615   4.489   4.396   0.264 -0.0229  0.1014  1.4349
 4805SOL    HW216616   4.428   4.459   0.140  1.7542  0.2866  0.6246
 4806SOL     OW16617   7.621   6.157   7.189 -0.5131  0.3099 -0.1303
 4806SOL    HW116618   7.645   6.167   7.282 -0.5611  0.1397 -0.0990
 4806SOL    HW216619   7.654   6.236   7.147  0.2047  0.0340 -0.1067
 4807SOL     OW16620   5.343   0.994   7.977 -0.3734  0.0354  0.1345
 4807SOL    HW116621   5.352   1.036   7.891  0.3402 -2.3660 -1.0808
 4807SOL    HW216622   5.394   1.048   8.036 -0.3743  1.4308 -1.0849
 4808SOL     OW16623   6.205   3.135   2.945 -0.2999 -0.5586  0.0741
 4808SOL    HW116624   6.195   3.046   2.911  0.2784 -0.2739 -0.8818
 4808SOL    HW216625   6.116   3.169   2.950 -0.3851 -0.3176 -2.0455
 4809SOL     OW16626   7.027   8.425   5.107 -0.3605  0.2087 -0.4687
 4809SOL    HW116627   6.971   8.444   5.032 -2.0054  1.3435  0.9398
 4809SOL    HW216628   6.980   8.464   5.181 -0.4656 -3.5902  1.6953
 4810SOL     OW16629   6.494   5.934   5.881 -0.3710 -0.2644  0.1861
 4810SOL    HW116630   6.422   5.983   5.921  0.4193 -0.4143  1.9093
 4810SOL    HW216631   6.457   5.847   5.866 -0.8079 -0.0986  0.2692
 4811SOL     OW16632   1.910   4.324   2.429  0.3052  0.0994 -0.3097
 4811SOL    HW116633   1.890   4.338   2.521  0.7531 -0.9592 -0.0321
 4811SOL    HW216634   1.830   4.288   2.392  0.4549 -0.4817 -0.0817
 4812SOL     OW16635   9.076   6.921   1.423 -0.3413  0.1945 -0.5127
 4812SOL    HW116636   9.110   6.856   1.362 -1.8765 -0.8587 -0.2908
 4812SOL    HW216637   9.006   6.876   1.471 -0.4395  1.5614  0.7011
 4813SOL     OW16638   7.813   5.888   1.269 -0.6267 -0.5230  0.0402
 4813SOL    HW116639   7.904   5.898   1.295 -0.9173  0.0541  0.8771
 4813SOL    HW216640   7.764   5.941   1.332 -1.6349 -1.7020  0.3009
 4814SOL     OW16641   8.111   5.698   7.927  0.1090  0.5118  0.1762
 4814SOL    HW116642   8.082   5.679   8.017  2.6290 -1.5859  0.6560
 4814SOL    HW216643   8.129   5.792   7.927 -1.0110  0.7637  1.4901
 4815SOL     OW16644   6.415   4.596   4.868 -0.2681  0.3405 -0.1377
 4815SOL    HW116645   6.453   4.613   4.781 -1.5404 -0.4482 -0.8731
 4815SOL    HW216646   6.420   4.501   4.878 -3.6139 -0.0470 -1.0629
 4816SOL     OW16647   7.034   9.150   1.663 -0.1869  0.1010 -0.3865
 4816SOL    HW116648   7.124   9.117   1.670  0.0559  1.0968  2.1459
 4816SOL    HW216649   7.043   9.235   1.619  0.1517  0.2800  0.0205
 4817SOL     OW16650   4.926   8.647   2.651  0.5541 -0.2309  0.0204
 4817SOL    HW116651   4.873   8.727   2.656  2.5056  1.4106 -2.5918
 4817SOL    HW216652   5.007   8.670   2.696  0.9094 -0.9726 -0.2321
 4818SOL     OW16653   3.989   5.158   9.229  0.1571 -0.2700 -0.6105
 4818SOL    HW116654   4.020   5.068   9.241 -1.2552 -0.5993  1.0197
 4818SOL    HW216655   3.901   5.148   9.193 -0.1534  0.4344 -0.0790
 4819SOL     OW16656   4.502   2.806   7.468  0.0344 -0.1670 -0.6596
 4819SOL    HW116657   4.518   2.816   7.374 -0.6152  2.1237 -0.6055
 4819SOL    HW216658   4.418   2.850   7.483  0.9411  1.0779  1.2193
 4820SOL     OW16659   8.059   2.470   7.586 -0.0697  0.0583 -0.2452
 4820SOL    HW116660   7.973   2.438   7.613 -1.4170  3.1490 -0.4471
 4820SOL    HW216661   8.052   2.478   7.491  0.3011  0.5791 -0.2332
 4821SOL     OW16662   3.772   3.198   3.576 -0.3554  0.0733  0.1015
 4821SOL    HW116663   3.755   3.282   3.533  0.0049  0.4359  0.6412
 4821SOL    HW216664   3.802   3.223   3.664 -0.5192 -0.6317  0.3604
 4822SOL     OW16665   4.198   6.715   3.840 -0.3850 -0.4269  0.6704
 4822SOL    HW116666   4.108   6.697   3.812 -0.3715  0.9055 -0.3739
 4822SOL    HW216667   4.253   6.673   3.774 -0.2578 -0.5409  0.8479
 4823SOL     OW16668   6.230   0.277   7.638 -0.1533 -0.6588 -0.1693
 4823SOL    HW116669   6.261   0.274   7.729  0.8192 -0.0290 -0.4574
 4823SOL    HW216670   6.179   0.358   7.634 -0.8458 -1.0828  0.0038
 4824SOL     OW16671   4.697   9.178   7.113  0.4043 -0.2470 -0.0184
 4824SOL    HW116672   4.609   9.163   7.077  0.9057 -0.8317 -1.0682
 4824SOL    HW216673   4.685   9.172   7.208 -0.5302 -1.3165 -0.1655
 4825SOL     OW16674   3.011   3.649   5.361 -0.3033 -0.6303 -0.4408
 4825SOL    HW116675   3.073   3.580   5.383 -0.0446 -0.9279 -1.9941
 4825SOL    HW216676   2.927   3.619   5.397  0.4171 -0.2057  1.6950
 4826SOL     OW16677   0.014   2.811   8.070  0.0947 -0.0552  0.0878
 4826SOL    HW116678   0.053   2.829   8.155  0.4278 -2.1933  0.4319
 4826SOL    HW216679  -0.062   2.756   8.089  0.1736 -0.5601 -0.9867
 4827SOL     OW16680   1.253   1.491   5.527  0.1243 -0.4837  0.0852
 4827SOL    HW116681   1.344   1.467   5.540  0.5520  0.4456 -1.0440
 4827SOL    HW216682   1.255   1.564   5.465 -1.1667  1.8864  2.6234
 4828SOL     OW16683   1.648   5.000   8.118 -0.2607  0.0836 -0.7610
 4828SOL    HW116684   1.597   5.069   8.158 -2.2259 -1.9986  0.5456
 4828SOL    HW216685   1.595   4.971   8.044  0.0637 -0.6524 -0.7128
 4829SOL     OW16686   0.379   2.459   7.034  0.0204  0.8851 -0.1413
 4829SOL    HW116687   0.363   2.471   7.128 -1.7419  2.6568 -0.6093
 4829SOL    HW216688   0.471   2.434   7.029  0.4187  1.6854  1.9864
 4830SOL     OW16689   3.694   4.816   2.964 -0.0298 -0.1399  0.5431
 4830SOL    HW116690   3.733   4.838   3.049 -0.7161 -1.6351  1.2711
 4830SOL    HW216691   3.607   4.857   2.967 -0.1792 -0.4667  0.6986
 4831SOL     OW16692   0.091   1.803   6.400 -0.3671  0.3642 -0.0643
 4831SOL    HW116693   0.149   1.784   6.474 -3.2538  0.3271  2.3660
 4831SOL    HW216694   0.053   1.888   6.419 -1.3812  0.2504 -1.3916
 4832SOL     OW16695   6.536   4.117   5.743  0.1097  0.5128 -0.1308
 4832SOL    HW116696   6.487   4.035   5.750 -1.0298  1.2269  0.4061
 4832SOL    HW216697   6.483   4.173   5.688  2.0847  0.0795 -2.6895
 4833SOL     OW16698   5.531   4.794   1.140  0.3384  0.3151  0.2786
 4833SOL    HW116699   5.564   4.706   1.160  1.0785  0.6717  0.6646
 4833SOL    HW216700   5.610   4.847   1.129 -0.0513  0.5971 -1.5954
 4834SOL     OW16701   5.456   0.881   4.748  0.6060  0.1517 -0.1038
 4834SOL    HW116702   5.464   0.902   4.841  1.6376 -1.4917  0.2013
 4834SOL    HW216703   5.367   0.909   4.725  0.8609  2.0360  0.9510
 4835SOL     OW16704   7.593   6.461   1.378  0.4653  0.8488  0.3889
 4835SOL    HW116705   7.503   6.493   1.378  0.0655 -0.1993 -0.4176
 4835SOL    HW216706   7.628   6.487   1.292  0.7098  0.6686  0.4331
 4836SOL     OW16707   1.716   0.802   4.629  0.2744  0.3853 -0.3901
 4836SOL    HW116708   1.771   0.757   4.564 -0.4337  0.3260 -0.9559
 4836SOL    HW216709   1.779   0.845   4.687  0.9805 -1.3197  0.1639
 4837SOL     OW16710   5.539   8.434   1.599  0.2296  0.3146  0.3760
 4837SOL    HW116711   5.479   8.462   1.668 -0.4088  1.8171 -0.7395
 4837SOL    HW216712   5.617   8.488   1.611  0.7560 -0.5186  0.8423
 4838SOL     OW16713   6.925   4.006   1.367  0.2291 -0.2406  0.3566
 4838SOL    HW116714   6.953   3.986   1.277  0.1642 -2.6813  0.7952
 4838SOL    HW216715   6.989   4.069   1.399  0.1050  0.8677 -1.4703
 4839SOL     OW16716   1.001   4.672   2.893 -0.2383  0.0262  0.1275
 4839SOL    HW116717   0.987   4.686   2.986 -2.0607 -0.9883  0.0582
 4839SOL    HW216718   0.927   4.716   2.851 -0.6156 -1.2889 -0.6701
 4840SOL     OW16719   7.858   7.240   2.369  0.3425  0.2110 -0.3144
 4840SOL    HW116720   7.776   7.198   2.342  0.0431  0.7826 -0.2987
 4840SOL    HW216721   7.837   7.281   2.453  1.0060 -0.7345  0.3293
 4841SOL     OW16722   7.961   2.125   8.934 -0.3473  0.4208 -0.1663
 4841SOL    HW116723   7.874   2.137   8.896 -0.4596  0.7558  0.1973
 4841SOL    HW216724   7.978   2.206   8.982 -0.2859 -0.0659  0.6556
 4842SOL     OW16725   3.924   7.777   5.821 -0.3595 -0.6538 -0.1838
 4842SOL    HW116726   3.949   7.685   5.827 -0.5257 -0.8512 -2.0514
 4842SOL    HW216727   3.982   7.822   5.883  0.8304 -1.8049 -0.4282
 4843SOL     OW16728   2.232   5.852   8.907 -0.0195  0.0012 -0.2662
 4843SOL    HW116729   2.201   5.773   8.865  0.8817 -1.3923  1.5403
 4843SOL    HW216730   2.162   5.877   8.968  0.7143 -0.9370  1.0206
 4844SOL     OW16731   0.645   7.586   0.610  0.7565  0.2908  0.2720
 4844SOL    HW116732   0.716   7.649   0.624  1.0781 -0.1451  0.6440
 4844SOL    HW216733   0.682   7.502   0.636  0.2739 -0.0264 -0.0508
 4845SOL     OW16734   4.656   2.134   6.359  0.5926  0.3104  0.0301
 4845SOL    HW116735   4.712   2.211   6.371  0.6264  0.2769  0.0896
 4845SOL    HW216736   4.647   2.097   6.447  0.0114  0.6399  0.1148
 4846SOL     OW16737   5.643   0.173   3.660  0.0015  0.0277  0.0143
 4846SOL    HW116738   5.696   0.195   3.583 -1.0733  1.7693 -0.2814
 4846SOL    HW216739   5.684   0.221   3.732  1.2411 -1.9076  0.6661
 4847SOL     OW16740   8.638   2.908   0.815 -0.5173  0.2228 -0.4596
 4847SOL    HW116741   8.544   2.893   0.804 -0.2806 -1.8168 -0.0870
 4847SOL    HW216742   8.655   2.892   0.908 -0.0122  2.1207 -0.1796
 4848SOL     OW16743   8.680   0.076   7.703 -0.4194 -0.4196 -0.1262
 4848SOL    HW116744   8.762   0.029   7.688 -0.7649 -1.2264  0.4296
 4848SOL    HW216745   8.671   0.078   7.798 -0.3825  0.8390 -0.1418
 4849SOL     OW16746   1.373   0.408   2.764  0.5386 -0.5459  0.5160
 4849SOL    HW116747   1.379   0.438   2.674  0.9851 -1.2248  0.3156
 4849SOL    HW216748   1.456   0.363   2.781 -0.0562 -1.5704  0.8295
 4850SOL     OW16749   1.081   7.552   9.172 -0.6452  0.0538  0.5959
 4850SOL    HW116750   1.153   7.574   9.232  2.4164 -1.1235 -2.3113
 4850SOL    HW216751   1.065   7.633   9.124 -0.1676 -0.0508  0.2483
 4851SOL     OW16752   8.719   6.188   7.516 -0.1089  0.0725  0.3751
 4851SOL    HW116753   8.793   6.241   7.486 -0.3810  0.7783  0.9228
 4851SOL    HW216754   8.711   6.119   7.450 -0.8928  1.7431 -1.3641
 4852SOL     OW16755   4.680   2.793   3.431  0.3866 -0.4009 -0.3560
 4852SOL    HW116756   4.657   2.886   3.428  1.9203 -0.0204 -1.1127
 4852SOL    HW216757   4.680   2.771   3.524  2.5955  1.0673  0.0515
 4853SOL     OW16758   4.548   1.140   0.844  0.1850  0.1797  0.1692
 4853SOL    HW116759   4.606   1.132   0.919 -0.8640  2.2215  1.2865
 4853SOL    HW216760   4.460   1.128   0.880 -0.2660 -0.0611 -0.9693
 4854SOL     OW16761   0.129   2.334   6.969 -0.0622 -0.5377  0.0556
 4854SOL    HW116762   0.077   2.368   7.041  0.9082 -0.2766  0.6489
 4854SOL    HW216763   0.211   2.383   6.973  0.0945 -0.6732 -1.0897
 4855SOL     OW16764   2.440   1.581   5.426 -0.2466 -0.1209 -0.2205
 4855SOL    HW116765   2.525   1.567   5.468 -0.6055  0.8175  0.8466
 4855SOL    HW216766   2.459   1.576   5.332  1.4292  2.2067 -0.1039
 4856SOL     OW16767   2.915   1.991   3.965  0.1718 -0.1794  0.1467
 4856SOL    HW116768   2.920   1.958   3.876 -1.1099 -0.9929  0.3467
 4856SOL    HW216769   2.825   2.022   3.975  0.4236  0.3242  1.0159
 4857SOL     OW16770   2.900   6.049   9.567  0.1561 -0.0233 -0.2739
 4857SOL    HW116771   2.919   5.980   9.630 -0.1394  0.8992  0.8705
 4857SOL    HW216772   2.987   6.081   9.540  0.3319 -1.5871 -1.7295
 4858SOL     OW16773   4.205   8.025   4.266 -0.2468 -0.3744 -0.1085
 4858SOL    HW116774   4.149   7.977   4.205  1.2619 -3.5390  0.7261
 4858SOL    HW216775   4.293   8.020   4.227  0.3261 -0.2770  1.1230
 4859SOL     OW16776   0.219   2.118   1.139  0.2327 -0.0596  0.3693
 4859SOL    HW116777   0.128   2.092   1.130 -0.9021  3.6897 -0.8636
 4859SOL    HW216778   0.261   2.085   1.059 -0.8450  0.8871 -0.6172
 4860SOL     OW16779   1.094   7.721   4.347 -0.5980  0.1522  0.2096
 4860SOL    HW116780   1.066   7.688   4.432 -0.6191 -0.1529  0.0876
 4860SOL    HW216781   1.033   7.680   4.285 -1.9716  2.0512  0.2262
 4861SOL     OW16782   5.278   4.989   6.803  0.2243 -0.4212  0.2968
 4861SOL    HW116783   5.235   4.903   6.812  0.4715 -0.6981 -0.9676
 4861SOL    HW216784   5.350   4.986   6.865  1.0391 -1.6705 -0.6649
 4862SOL     OW16785   2.070   7.919   3.149 -0.1900  0.2734  0.4019
 4862SOL    HW116786   2.099   7.829   3.137 -1.7598 -0.0900 -1.0992
 4862SOL    HW216787   2.118   7.969   3.084 -0.9688  0.1059 -0.3221
 4863SOL     OW16788   2.632   4.093   9.285 -0.2284  0.2034 -0.2422
 4863SOL    HW116789   2.702   4.124   9.343 -0.4985  0.2637  0.0495
 4863SOL    HW216790   2.625   3.999   9.303  0.5446 -0.0348 -1.0802
 4864SOL     OW16791   7.479   5.628   8.841 -0.2646 -0.9644 -0.1349
 4864SOL    HW116792   7.481   5.533   8.826 -1.0280 -1.2390  1.3347
 4864SOL    HW216793   7.392   5.655   8.811 -0.6914 -1.0304  1.0075
 4865SOL     OW16794   8.885   8.069   4.643 -0.3136 -0.1663  0.0645
 4865SOL    HW116795   8.870   8.157   4.679  0.5855 -0.0365  0.1603
 4865SOL    HW216796   8.956   8.034   4.697 -1.1905 -1.2678  0.5357
 4866SOL     OW16797   5.112   4.337   5.778 -0.5330  0.3217 -0.2688
 4866SOL    HW116798   5.024   4.304   5.763 -0.5367  0.8294 -1.5520
 4866SOL    HW216799   5.127   4.397   5.705  1.7012 -1.4272 -1.3825
 4867SOL     OW16800   5.920   5.249   8.252 -0.1326 -0.2795  0.7812
 4867SOL    HW116801   5.948   5.158   8.251 -0.7530 -0.4879 -0.6528
 4867SOL    HW216802   5.831   5.247   8.216  0.6113  1.0915 -1.3439
 4868SOL     OW16803   6.682   1.078   2.727 -0.3347  0.4632  0.2634
 4868SOL    HW116804   6.594   1.056   2.759 -0.5688  0.7857 -0.1467
 4868SOL    HW216805   6.739   1.016   2.770 -0.5937  1.1234  1.6095
 4869SOL     OW16806   4.861   0.730   3.503  0.7810  0.5037  0.8833
 4869SOL    HW116807   4.948   0.743   3.466  0.4963  0.0962  0.0341
 4869SOL    HW216808   4.845   0.636   3.495  0.9687  0.2934  2.6806
 4870SOL     OW16809   5.782   9.165   4.168 -0.0544  0.2915 -0.4158
 4870SOL    HW116810   5.698   9.161   4.214  0.3163  0.5882  0.3086
 4870SOL    HW216811   5.818   9.077   4.174  0.3797  0.5237  0.6320
 4871SOL     OW16812   1.843   1.122   3.287 -1.2751 -0.0900 -0.0774
 4871SOL    HW116813   1.875   1.040   3.325 -0.0642 -0.1542 -1.1532
 4871SOL    HW216814   1.889   1.191   3.336  0.0942 -0.1663 -1.1882
 4872SOL     OW16815   8.570   7.859   0.665  0.2760  0.0380 -0.3794
 4872SOL    HW116816   8.583   7.764   0.662 -1.9291 -0.4597  2.0502
 4872SOL    HW216817   8.551   7.883   0.575 -0.5153 -2.1011 -0.8521
 4873SOL     OW16818   3.743   1.933   0.913 -0.2477  0.4212  0.1808
 4873SOL    HW116819   3.734   1.967   1.002 -1.6035  2.1645 -0.5842
 4873SOL    HW216820   3.654   1.930   0.879  0.3857  1.5063 -1.7124
 4874SOL     OW16821   4.284   0.428   3.546  0.1763 -0.1077  0.5526
 4874SOL    HW116822   4.205   0.378   3.531  2.0995 -2.9128 -1.0749
 4874SOL    HW216823   4.269   0.512   3.502 -1.7132 -0.7236 -0.0264
 4875SOL     OW16824   0.753   6.721   7.938 -0.2720  0.9237  0.1799
 4875SOL    HW116825   0.734   6.781   8.011 -2.9910  1.0098 -0.4737
 4875SOL    HW216826   0.675   6.727   7.882 -1.6997 -4.5292  0.9863
 4876SOL     OW16827   6.886   1.320   1.644 -0.5717 -1.0338  0.0756
 4876SOL    HW116828   6.832   1.365   1.579 -1.3334  1.5053  2.3172
 4876SOL    HW216829   6.837   1.327   1.726  2.1933 -0.3823  1.8055
 4877SOL     OW16830   4.007   8.038   5.002 -0.3938  0.0584  0.0267
 4877SOL    HW116831   3.916   8.039   5.033 -0.2311 -0.2999  0.5295
 4877SOL    HW216832   4.028   7.946   4.993  0.8045 -0.0091  2.6244
 4878SOL     OW16833   8.895   3.915   1.945  0.3280  0.0183  0.3974
 4878SOL    HW116834   8.957   3.976   1.905  0.3839  0.4814  1.1682
 4878SOL    HW216835   8.809   3.952   1.926  0.3600  0.3293  0.8333
 4879SOL     OW16836   7.006   8.200   4.426 -0.5640 -0.1332  0.0243
 4879SOL    HW116837   6.955   8.268   4.383 -1.3716 -0.2432  0.7911
 4879SOL    HW216838   7.039   8.146   4.354 -1.9558 -0.3590 -0.4590
 4880SOL     OW16839   3.055   8.282   8.551  0.7866 -0.1529  0.3912
 4880SOL    HW116840   3.083   8.307   8.463  2.1561 -0.5445  0.6840
 4880SOL    HW216841   3.083   8.190   8.559 -2.9613 -1.5252 -0.2236
 4881SOL     OW16842   5.447   6.225   2.085  0.0366 -0.6223  0.9694
 4881SOL    HW116843   5.482   6.315   2.086 -1.1409 -0.1082 -0.3692
 4881SOL    HW216844   5.357   6.235   2.056 -0.5006 -2.1519  2.0455
 4882SOL     OW16845   7.187   7.940   5.711  0.0747  0.9019 -0.2493
 4882SOL    HW116846   7.240   8.005   5.664 -1.3069  1.4561 -1.0865
 4882SOL    HW216847   7.097   7.972   5.704 -0.6464 -1.0687 -0.6355
 4883SOL     OW16848   5.084   4.658   1.035  1.0377  0.2494  0.4937
 4883SOL    HW116849   5.143   4.724   1.000  1.0209 -0.5991 -1.2812
 4883SOL    HW216850   5.136   4.577   1.035  0.6493 -0.0093  1.3463
 4884SOL     OW16851   6.985   8.516   8.601  0.2408  0.6847  0.3139
 4884SOL    HW116852   6.914   8.478   8.549 -0.6116  1.6441  0.7587
 4884SOL    HW216853   6.984   8.609   8.578 -0.5074  1.2454  2.4289
 4885SOL     OW16854   3.321   0.086   0.299  0.2403 -0.5704  0.1052
 4885SOL    HW116855   3.292   0.000   0.331  1.8680 -1.3947 -0.4750
 4885SOL    HW216856   3.414   0.090   0.322  0.4804  0.5166 -0.9373
 4886SOL     OW16857   1.691   4.765   7.252  0.4746 -0.1409 -0.2288
 4886SOL    HW116858   1.775   4.807   7.272  0.2695  0.6011 -0.8808
 4886SOL    HW216859   1.630   4.838   7.241  0.1585 -0.5857 -1.5931
 4887SOL     OW16860   4.491   2.939   4.883 -0.0248  0.0683  0.3198
 4887SOL    HW116861   4.576   2.957   4.843 -0.1306 -0.9269 -0.4188
 4887SOL    HW216862   4.506   2.946   4.977  0.8535  0.0047  0.1925
 4888SOL     OW16863   5.288   6.313   2.734  0.8565 -0.3408  0.3221
 4888SOL    HW116864   5.310   6.233   2.687  1.1135  0.3677 -0.8007
 4888SOL    HW216865   5.371   6.344   2.770  0.6979 -0.7583  1.0705
 4889SOL     OW16866   2.106   8.780   4.126 -0.7535  0.0450 -0.1051
 4889SOL    HW116867   2.171   8.850   4.116 -0.1223 -0.4797  0.1604
 4889SOL    HW216868   2.129   8.716   4.059 -1.2701  0.0563 -0.2917
 4890SOL     OW16869   8.908   6.379   7.362  0.0790  0.3564  0.3727
 4890SOL    HW116870   8.881   6.383   7.270 -0.7309  1.8424  0.6553
 4890SOL    HW216871   8.914   6.470   7.389 -0.0279 -0.0724  1.8969
 4891SOL     OW16872   2.671   0.862   0.278 -0.0647  0.1746  0.4049
 4891SOL    HW116873   2.586   0.856   0.320  0.3787  0.0793  1.3127
 4891SOL    HW216874   2.673   0.950   0.239 -1.2023 -0.4139 -1.0482
 4892SOL     OW16875   6.561   1.740   5.137 -0.3897  0.0513  0.0029
 4892SOL    HW116876   6.477   1.775   5.109 -0.1834 -0.0659 -0.7785
 4892SOL    HW216877   6.543   1.647   5.154  0.1747 -0.7003 -2.9918
 4893SOL     OW16878   2.028   3.454   7.506  0.1741 -0.0407  0.0092
 4893SOL    HW116879   2.038   3.547   7.485  0.5193  0.0550  0.5617
 4893SOL    HW216880   2.108   3.413   7.472 -0.1633 -0.2039 -0.5949
 4894SOL     OW16881   5.242   3.141   7.064 -0.0310 -0.5138  0.2034
 4894SOL    HW116882   5.318   3.126   7.120  0.3726 -0.9741 -0.4460
 4894SOL    HW216883   5.275   3.202   6.997  0.0900 -1.5532 -0.7093
 4895SOL     OW16884   0.651   8.863   7.584 -0.3359 -0.0240 -0.1800
 4895SOL    HW116885   0.745   8.852   7.572 -0.3192 -1.0676  0.7165
 4895SOL    HW216886   0.637   8.957   7.588  0.4176  0.2124 -2.0898
 4896SOL     OW16887   0.728   5.899   3.464  0.6665  0.3339 -0.2465
 4896SOL    HW116888   0.745   5.938   3.549 -1.3386  2.0004 -0.5497
 4896SOL    HW216889   0.745   5.969   3.401 -1.2178  0.2260 -0.9425
 4897SOL     OW16890   0.810   5.210   4.274  0.4799  0.3382 -0.1582
 4897SOL    HW116891   0.741   5.259   4.319  1.1016  2.9908 -1.9013
 4897SOL    HW216892   0.764   5.161   4.206  0.0338 -0.1231  0.4667
 4898SOL     OW16893   3.428   0.127   5.698 -0.2953 -0.3489  0.8607
 4898SOL    HW116894   3.447   0.207   5.747  0.3411 -0.4141  0.7325
 4898SOL    HW216895   3.512   0.080   5.696 -0.9608 -1.6679  2.0988
 4899SOL     OW16896   4.138   8.916   1.366  0.8887  0.1984 -0.0496
 4899SOL    HW116897   4.055   8.954   1.394  1.8744  1.8015  0.8152
 4899SOL    HW216898   4.123   8.821   1.370 -0.7186  0.4465  0.6092
 4900SOL     OW16899   0.962   1.348   4.374  0.3318 -0.3679  0.5404
 4900SOL    HW116900   1.049   1.383   4.393  0.6043 -1.8652  2.2559
 4900SOL    HW216901   0.903   1.424   4.382  1.4007  0.5761 -0.2561
 4901SOL     OW16902   9.304   2.194   0.472  0.1749 -0.0175  0.1528
 4901SOL    HW116903   9.313   2.121   0.534  1.3159  0.7861  0.9749
 4901SOL    HW216904   9.239   2.163   0.409 -1.2590 -0.7696  1.9025
 4902SOL     OW16905   8.300   9.416   5.126  0.2293 -0.5790 -0.0882
 4902SOL    HW116906   8.224   9.475   5.134  1.2978  0.6985  1.3924
 4902SOL    HW216907   8.263   9.328   5.129 -1.1531 -0.0124  2.0920
 4903SOL     OW16908   1.891   2.136   0.052  0.0637 -0.5475 -0.2626
 4903SOL    HW116909   1.940   2.054   0.044 -0.0287 -0.4808 -1.6114
 4903SOL    HW216910   1.884   2.170  -0.037  0.1125  0.9432  0.2580
 4904SOL     OW16911   8.895   2.463   5.044 -0.5305  0.4501  0.0745
 4904SOL    HW116912   8.827   2.483   5.109  0.8006  1.7307  1.1227
 4904SOL    HW216913   8.900   2.541   4.989 -0.2341  0.1684 -0.3075
 4905SOL     OW16914   6.000   5.900   2.272 -0.2171  0.2555  0.5359
 4905SOL    HW116915   5.945   5.868   2.200 -2.8395  0.0931  2.4549
 4905SOL    HW216916   6.063   5.830   2.286 -0.3083 -0.1621 -0.8933
 4906SOL     OW16917   3.373   0.742   7.424  0.3740  0.1870 -0.2368
 4906SOL    HW116918   3.452   0.760   7.372 -0.2300 -0.2611 -1.3387
 4906SOL    HW216919   3.324   0.824   7.421  1.0158  0.6383  0.8903
 4907SOL     OW16920   2.712   0.170   8.415 -0.5980  0.0624 -0.2098
 4907SOL    HW116921   2.741   0.206   8.499 -0.3370  1.2264 -0.7753
 4907SOL    HW216922   2.694   0.246   8.361  1.1598 -0.6006 -1.8692
 4908SOL     OW16923   2.933   2.001   5.832 -0.8050  0.3365  0.1255
 4908SOL    HW116924   2.913   2.048   5.751  1.6084  0.3980 -0.5128
 4908SOL    HW216925   2.847   1.982   5.871 -1.9460  3.1334 -0.7952
 4909SOL     OW16926   1.826   6.875   8.785 -0.2011 -0.2320  0.0692
 4909SOL    HW116927   1.778   6.906   8.862 -1.0668 -1.1697 -0.0671
 4909SOL    HW216928   1.776   6.799   8.755 -0.1363  0.3737 -1.6930
 4910SOL     OW16929   7.770   8.471   5.249 -0.7137 -1.1033  0.1757
 4910SOL    HW116930   7.738   8.515   5.170  1.0401  2.0278  1.0451
 4910SOL    HW216931   7.847   8.422   5.221  1.0173  1.4813  0.1231
 4911SOL     OW16932   0.936   5.062   0.276 -0.1347 -0.6172  0.8006
 4911SOL    HW116933   0.970   5.028   0.194 -1.4680 -0.8029  0.3134
 4911SOL    HW216934   0.845   5.086   0.258 -0.1027  0.4815  1.8964
 4912SOL     OW16935   2.325   8.505   5.910  0.8197 -0.7946 -0.8057
 4912SOL    HW116936   2.275   8.561   5.852  0.2199 -0.1836  0.2651
 4912SOL    HW216937   2.411   8.546   5.916  0.7220 -0.5801 -0.8706
 4913SOL     OW16938   8.616   2.493   2.020  0.3163 -0.1354 -0.0642
 4913SOL    HW116939   8.582   2.576   1.985 -0.2500 -0.4502 -0.2622
 4913SOL    HW216940   8.652   2.517   2.105 -0.0805  0.2743 -0.0048
 4914SOL     OW16941   4.495   8.771   8.568 -0.5090 -0.0412  0.0341
 4914SOL    HW116942   4.581   8.780   8.528 -0.6520  1.7642  0.0601
 4914SOL    HW216943   4.466   8.683   8.544  1.7279 -1.0527  0.8222
 4915SOL     OW16944   8.835   0.751   0.913 -0.0888 -0.7086  0.0626
 4915SOL    HW116945   8.761   0.724   0.967 -1.5349  0.8597 -1.0349
 4915SOL    HW216946   8.882   0.815   0.967 -1.6624  1.0384 -0.5281
 4916SOL     OW16947   8.864   1.137   0.612  0.5768 -0.2681  0.0178
 4916SOL    HW116948   8.952   1.128   0.649  0.2038 -0.2837  0.9326
 4916SOL    HW216949   8.807   1.143   0.688 -0.0614  1.3962 -0.5347
 4917SOL     OW16950   4.024   3.534   7.302  0.3002 -0.2800 -0.6076
 4917SOL    HW116951   4.039   3.618   7.346 -0.9554 -0.0326 -0.6092
 4917SOL    HW216952   4.059   3.546   7.214  1.6833 -0.3545 -0.1011
 4918SOL     OW16953   7.776   7.356   6.386 -0.1621 -0.0617 -0.4315
 4918SOL    HW116954   7.862   7.317   6.368 -0.3627 -0.7845  0.1393
 4918SOL    HW216955   7.731   7.353   6.301  0.5747  0.8577 -0.8679
 4919SOL     OW16956   8.554   6.588   4.885 -0.2284  0.1750 -0.0079
 4919SOL    HW116957   8.624   6.606   4.948  0.2533 -0.3938 -0.3737
 4919SOL    HW216958   8.476   6.575   4.939  0.3916 -1.3771  0.5609
 4920SOL     OW16959   1.467   1.913   8.336 -0.1146 -0.2849 -0.2837
 4920SOL    HW116960   1.524   1.988   8.352  2.7543 -2.6755  2.3310
 4920SOL    HW216961   1.469   1.900   8.241  0.7534  1.8728 -0.6104
 4921SOL     OW16962   6.880   0.152   8.332 -0.0268  0.2327  0.5125
 4921SOL    HW116963   6.912   0.231   8.375  1.1873  1.2352 -1.9940
 4921SOL    HW216964   6.803   0.181   8.282  1.6619  0.5105 -2.1676
 4922SOL     OW16965   3.428   4.814   8.891  0.2838  0.1002  0.6709
 4922SOL    HW116966   3.378   4.776   8.963  0.3686 -0.8657  0.2323
 4922SOL    HW216967   3.447   4.740   8.833  0.8675  0.7293  0.0394
 4923SOL     OW16968   4.387   2.048   4.497  0.1969  0.3308 -0.2415
 4923SOL    HW116969   4.469   2.086   4.464 -0.4866  1.0039 -1.2074
 4923SOL    HW216970   4.387   1.959   4.463  0.6289  0.2622 -0.0650
 4924SOL     OW16971   7.998   0.949   5.003  0.0390  0.6640 -0.1932
 4924SOL    HW116972   7.945   0.876   5.034  0.3400  0.5445  0.0411
 4924SOL    HW216973   8.030   0.991   5.083  0.9483  0.2608 -0.3329
 4925SOL     OW16974   0.050   6.103   3.493  0.0453  0.1216 -0.1235
 4925SOL    HW116975   0.132   6.068   3.528 -0.3365 -1.0405 -0.3592
 4925SOL    HW216976   0.076   6.182   3.446  0.7834  0.8456  1.3974
 4926SOL     OW16977   1.040   3.143   8.397  0.3355  1.2676  0.3083
 4926SOL    HW116978   1.093   3.099   8.330 -1.9812 -0.6967 -0.3337
 4926SOL    HW216979   1.018   3.228   8.357  0.1430  0.6897 -0.8456
 4927SOL     OW16980   8.863   3.210   6.558 -0.0179 -0.1961 -0.4848
 4927SOL    HW116981   8.886   3.119   6.579  1.9968  0.7550  1.8486
 4927SOL    HW216982   8.767   3.211   6.558 -0.1383 -1.8553  1.9979
 4928SOL     OW16983   1.866   3.919   8.222 -0.4023  0.1105  0.7102
 4928SOL    HW116984   1.936   3.927   8.287 -0.4496 -2.1332  1.1177
 4928SOL    HW216985   1.884   3.837   8.176  0.1585  2.0428 -2.8720
 4929SOL     OW16986   6.225   3.963   2.211  0.2525  0.1139 -0.2043
 4929SOL    HW116987   6.196   3.916   2.133  1.6055 -1.1472  0.0164
 4929SOL    HW216988   6.318   3.979   2.196  0.3792  0.4686  0.8690
 4930SOL     OW16989   3.459   3.555   0.316  0.2678 -0.0257 -0.0939
 4930SOL    HW116990   3.534   3.545   0.257 -0.4260  0.5198 -1.0838
 4930SOL    HW216991   3.410   3.474   0.307 -0.8830  0.8066 -1.7888
 4931SOL     OW16992   6.086   4.489   6.048  0.1202 -0.0367  0.2124
 4931SOL    HW116993   6.138   4.543   5.987  0.7628 -0.5954  0.2516
 4931SOL    HW216994   6.119   4.514   6.134  1.6527 -1.6890  0.1640
 4932SOL     OW16995   1.012   1.850   6.583 -0.0130  0.4838  0.2860
 4932SOL    HW116996   1.045   1.813   6.666  0.5522  0.0054 -0.1464
 4932SOL    HW216997   1.078   1.915   6.558  1.3995 -1.4148 -1.2752
 4933SOL     OW16998   3.236   1.174   0.074 -0.0931 -0.5363  0.2627
 4933SOL    HW116999   3.291   1.211   0.005  2.2974  0.7405  2.6241
 4933SOL    HW217000   3.296   1.160   0.147 -2.7204 -0.1522  2.6955
 4934SOL     OW17001   3.295   3.170   4.014  0.2093 -0.2790 -0.3856
 4934SOL    HW117002   3.205   3.139   4.013 -0.1318  0.6817 -0.8616
 4934SOL    HW217003   3.306   3.215   3.931  0.3791  1.6345  0.6206
 4935SOL     OW17004   3.341   1.032   7.476  0.0353 -0.0121  0.1724
 4935SOL    HW117005   3.268   1.053   7.535  1.3624  2.5338  1.0789
 4935SOL    HW217006   3.415   1.018   7.534  0.9059  0.3762 -0.8179
 4936SOL     OW17007   3.949   7.647   2.345  0.0463  0.3077 -0.4248
 4936SOL    HW117008   3.934   7.564   2.390 -0.9535  0.6747 -0.0275
 4936SOL    HW217009   4.001   7.625   2.269  0.3617 -0.5839  0.0380
 4937SOL     OW17010   4.640   8.387   6.602  0.2876  0.0532  0.5352
 4937SOL    HW117011   4.646   8.299   6.640  1.0719 -0.0412  0.2234
 4937SOL    HW217012   4.551   8.393   6.569  0.5673 -1.1066 -0.5335
 4938SOL     OW17013   1.212   9.573   5.280 -0.3222  0.0319 -0.3187
 4938SOL    HW117014   1.119   9.585   5.300 -0.2454  0.4709 -0.2230
 4938SOL    HW217015   1.255   9.565   5.365 -0.5653 -2.6449 -0.3484
 4939SOL     OW17016   5.960   4.795   8.087  0.1641  0.0411  0.5121
 4939SOL    HW117017   6.043   4.824   8.125 -0.4719 -0.2884  2.2572
 4939SOL    HW217018   5.918   4.745   8.157 -1.3955 -0.0230 -0.4266
 4940SOL     OW17019   3.692   8.041   4.867 -0.0712  0.9243 -0.4039
 4940SOL    HW117020   3.744   7.971   4.827 -0.0552  1.0379 -0.5804
 4940SOL    HW217021   3.724   8.121   4.827  0.5303  1.1276  0.4466
 4941SOL     OW17022   5.397   3.096   8.427 -0.4243  0.5517  0.0199
 4941SOL    HW117023   5.325   3.147   8.390 -0.9684  0.2514  0.6510
 4941SOL    HW217024   5.428   3.042   8.354 -1.2077  0.2716 -0.1148
 4942SOL     OW17025   8.098   8.905   6.565  0.4265 -0.4028 -0.2019
 4942SOL    HW117026   8.071   8.902   6.474 -2.4965  0.1995  0.5498
 4942SOL    HW217027   8.065   8.988   6.598 -0.4615 -1.5053  1.8902
 4943SOL     OW17028   6.017   3.859   6.856  0.4082 -0.3270 -0.0444
 4943SOL    HW117029   6.029   3.850   6.761 -0.9863  1.0020 -0.3733
 4943SOL    HW217030   5.931   3.823   6.873  1.5449 -2.6755  1.1176
 4944SOL     OW17031   2.648   8.564   2.595 -0.1301  0.0110 -0.0202
 4944SOL    HW117032   2.597   8.634   2.554 -0.1301  0.5434  0.8730
 4944SOL    HW217033   2.702   8.608   2.661 -0.9644 -0.9544  1.3540
 4945SOL     OW17034   7.129   5.133   2.732  0.6970  0.1704  0.0820
 4945SOL    HW117035   7.220   5.108   2.720  0.5406 -0.0025 -0.7892
 4945SOL    HW217036   7.079   5.055   2.710  0.3683 -0.3311  2.3181
 4946SOL     OW17037   7.156   3.144   5.937 -0.2788  0.5680 -0.2690
 4946SOL    HW117038   7.212   3.180   5.868 -1.1402  0.2164 -1.1764
 4946SOL    HW217039   7.084   3.103   5.890 -0.5779 -0.2103  0.8277
 4947SOL     OW17040   3.677   1.587   1.646 -0.0694  0.3929 -0.0387
 4947SOL    HW117041   3.674   1.501   1.688  0.7361  0.0852 -0.5821
 4947SOL    HW217042   3.596   1.630   1.673 -0.6229 -0.6482 -0.0082
 4948SOL     OW17043   7.056   0.717   4.527 -0.5106  0.0242  0.1582
 4948SOL    HW117044   7.126   0.774   4.558 -0.3881  0.9657 -1.7085
 4948SOL    HW217045   7.014   0.684   4.607  1.0897  0.6227  1.2898
 4949SOL     OW17046   4.058   5.983   5.294  0.3213 -0.1306 -0.1070
 4949SOL    HW117047   3.994   5.997   5.224  0.6638  1.7656 -0.0999
 4949SOL    HW217048   4.138   6.026   5.263  1.3052 -1.6095  0.3103
 4950SOL     OW17049   5.889   5.608   3.970 -0.4540  0.1673  0.1977
 4950SOL    HW117050   5.934   5.638   3.890  0.8879  1.3979  1.3555
 4950SOL    HW217051   5.949   5.543   4.008 -1.6459 -1.3355 -0.3619
 4951SOL     OW17052   0.172   4.550   7.077 -0.6457  0.0995  0.3266
 4951SOL    HW117053   0.158   4.457   7.098  0.4429 -0.1250  0.1545
 4951SOL    HW217054   0.137   4.560   6.989 -2.0593  0.2074  0.8734
 4952SOL     OW17055   5.845   8.849   2.890 -0.4102  0.2793  0.1355
 4952SOL    HW117056   5.779   8.809   2.946  1.5501 -1.3140  1.4234
 4952SOL    HW217057   5.862   8.934   2.931 -1.9521  0.9448 -0.5062
 4953SOL     OW17058   3.943   5.034   5.231  0.4843  0.1828  0.0719
 4953SOL    HW117059   3.962   4.956   5.283  4.5746 -1.2082 -2.9912
 4953SOL    HW217060   3.868   5.009   5.177 -1.5265  0.4139  2.5415
 4954SOL     OW17061   0.271   4.717   0.919 -0.1662  0.0480  0.1021
 4954SOL    HW117062   0.334   4.663   0.872  0.2744  0.8062 -0.2091
 4954SOL    HW217063   0.201   4.657   0.945  1.1602 -1.0254  1.3319
 4955SOL     OW17064   0.060   1.788   6.137  0.3570 -0.1779 -0.2428
 4955SOL    HW117065   0.062   1.801   6.232  1.4874  0.2040 -0.2964
 4955SOL    HW217066   0.003   1.857   6.105 -0.0068 -0.2872  0.1502
 4956SOL     OW17067   8.546   8.118   6.440 -0.1331 -0.8762  0.0804
 4956SOL    HW117068   8.562   8.052   6.372  1.9689  0.3671 -0.7222
 4956SOL    HW217069   8.509   8.192   6.393  0.1952 -0.4537  0.4754
 4957SOL     OW17070   7.326   4.428   8.393  0.7218 -0.4921  0.1744
 4957SOL    HW117071   7.383   4.359   8.357  0.6837 -0.1212 -0.6238
 4957SOL    HW217072   7.371   4.459   8.471  0.7424 -1.4216  0.5460
 4958SOL     OW17073   2.933   4.096   5.058 -0.1170  0.6988 -0.8072
 4958SOL    HW117074   3.011   4.148   5.037 -0.6626  2.1299  0.5767
 4958SOL    HW217075   2.895   4.139   5.134 -1.0237 -1.3164 -0.0510
 4959SOL     OW17076   5.560   4.254   1.890  0.1545 -0.0848 -0.1954
 4959SOL    HW117077   5.483   4.294   1.930 -0.7121 -0.5268 -1.3701
 4959SOL    HW217078   5.631   4.316   1.907 -0.0832 -0.3558  2.2200
 4960SOL     OW17079   2.791   6.439   3.208  0.1028 -0.5382 -0.1143
 4960SOL    HW117080   2.800   6.485   3.292  0.6164  0.6799 -0.8087
 4960SOL    HW217081   2.818   6.349   3.227  0.7727 -0.1390  0.9001
 4961SOL     OW17082   7.015   7.361   9.420 -0.7292 -0.1849  0.1649
 4961SOL    HW117083   6.965   7.362   9.339 -1.3013  0.4661  0.5246
 4961SOL    HW217084   6.952   7.384   9.488 -0.2666 -0.7678  0.8058
 4962SOL     OW17085   3.479   1.658   5.062  0.3261  0.3868 -0.2945
 4962SOL    HW117086   3.551   1.605   5.028  0.9443  0.2099  1.2139
 4962SOL    HW217087   3.520   1.738   5.093 -0.4214  1.1822 -1.2499
 4963SOL     OW17088   5.922   3.827   1.767  0.7251  0.1506  0.1769
 4963SOL    HW117089   5.909   3.783   1.852 -0.6901  0.4103  0.1249
 4963SOL    HW217090   5.913   3.756   1.703  1.0502  0.0779  0.2120
 4964SOL     OW17091   2.350   8.282   7.905 -0.0564 -0.4315 -0.9467
 4964SOL    HW117092   2.310   8.304   7.989 -0.3393 -0.6491 -1.0222
 4964SOL    HW217093   2.428   8.232   7.928  0.0313 -0.2314 -0.8062
 4965SOL     OW17094   4.615   0.606   7.379  0.1151  0.3767 -0.1597
 4965SOL    HW117095   4.653   0.633   7.296  3.2400  0.8250  1.2876
 4965SOL    HW217096   4.576   0.686   7.415 -0.0736  0.4812 -0.5926
 4966SOL     OW17097   3.869   9.262   1.756  0.1344  0.6552 -0.3031
 4966SOL    HW117098   3.820   9.288   1.834  0.4586  0.6094 -0.0839
 4966SOL    HW217099   3.930   9.195   1.787 -0.3547 -0.0192 -0.7684
 4967SOL     OW17100   7.869   4.451   8.995 -0.4429  0.0085 -0.0597
 4967SOL    HW117101   7.781   4.480   9.019 -0.4866 -0.1063 -0.0804
 4967SOL    HW217102   7.857   4.360   8.967 -0.4791  0.3100 -1.0463
 4968SOL     OW17103   6.578   3.170   7.215  0.1206 -0.4218 -0.2439
 4968SOL    HW117104   6.544   3.133   7.297  2.2292  2.5619  2.1848
 4968SOL    HW217105   6.556   3.262   7.218  2.4966  0.3027 -1.7659
 4969SOL     OW17106   8.950   3.298   5.269 -0.7126 -0.5689  0.0660
 4969SOL    HW117107   8.960   3.340   5.183  0.7681 -0.6075  0.1924
 4969SOL    HW217108   8.981   3.208   5.256 -0.0181 -0.4402  0.7360
 4970SOL     OW17109   4.001   5.177   3.053 -0.0706 -0.7085  0.1521
 4970SOL    HW117110   3.932   5.169   2.987  0.4947  1.3764 -0.7731
 4970SOL    HW217111   4.059   5.102   3.037 -0.2573 -0.5563 -1.3813
 4971SOL     OW17112   7.550   8.844   3.316  0.5459  0.3704  0.3173
 4971SOL    HW117113   7.594   8.849   3.401  1.1777 -0.1417  0.0266
 4971SOL    HW217114   7.581   8.921   3.269  0.9390  0.1515  0.2105
 4972SOL     OW17115   8.825   0.530   8.301 -0.4071 -0.8911 -0.2569
 4972SOL    HW117116   8.767   0.494   8.234 -0.6796 -0.8226 -0.0594
 4972SOL    HW217117   8.801   0.622   8.308  0.4869 -0.5870 -0.9696
 4973SOL     OW17118   9.284   9.493   5.919  0.4436  0.6852 -0.1712
 4973SOL    HW117119   9.363   9.509   5.971 -0.4543  0.5725  1.2863
 4973SOL    HW217120   9.241   9.420   5.963  0.2342 -0.2181 -1.8026
 4974SOL     OW17121   6.940   8.163   4.137 -0.3441  0.4201  0.6798
 4974SOL    HW117122   6.880   8.090   4.120  0.7278 -0.3572  0.0970
 4974SOL    HW217123   6.935   8.218   4.059  0.1490  0.0243  0.3639
 4975SOL     OW17124   5.548   3.110   2.095 -0.0770  0.5137 -0.6636
 4975SOL    HW117125   5.513   3.198   2.079 -0.5634  0.2189 -1.2442
 4975SOL    HW217126   5.642   3.118   2.079 -0.1248  0.9220 -0.7386
 4976SOL     OW17127   5.243   7.833   0.214  0.0446 -0.4294 -0.1186
 4976SOL    HW117128   5.172   7.860   0.272 -0.9241 -2.6298 -0.1542
 4976SOL    HW217129   5.294   7.912   0.199 -0.8088  0.6301  2.1253
 4977SOL     OW17130   0.757   7.363   1.517 -0.1804 -0.2598 -0.4050
 4977SOL    HW117131   0.744   7.377   1.423 -1.3782 -1.1456 -0.4012
 4977SOL    HW217132   0.668   7.369   1.554 -0.1904 -2.9227  0.2216
 4978SOL     OW17133   6.955   9.454   4.787  0.3016  0.4950  0.0722
 4978SOL    HW117134   6.999   9.395   4.848 -0.9368 -0.1575  0.3775
 4978SOL    HW217135   6.907   9.396   4.728 -1.3053  1.1580  0.6488
 4979SOL     OW17136   1.908   1.809   8.702  0.9377  0.5215 -0.0590
 4979SOL    HW117137   1.867   1.841   8.622  0.4155  0.6960  0.2729
 4979SOL    HW217138   1.851   1.839   8.773  1.1226 -0.0480  0.3464
 4980SOL     OW17139   3.865   3.346   2.379 -0.2696  0.0582 -0.9414
 4980SOL    HW117140   3.904   3.408   2.318  2.6004 -0.0243  0.6469
 4980SOL    HW217141   3.907   3.366   2.463 -1.3323 -2.2201  0.2079
 4981SOL     OW17142   7.114   4.420   1.031 -0.6226 -0.4900  0.3267
 4981SOL    HW117143   7.117   4.330   0.998 -0.1200 -0.0865 -0.7781
 4981SOL    HW217144   7.098   4.410   1.125  0.3925 -1.7743  0.4029
 4982SOL     OW17145   1.992   7.638   2.566 -0.6951  0.3572 -0.2788
 4982SOL    HW117146   2.065   7.691   2.533 -0.6465  0.3218 -0.2284
 4982SOL    HW217147   1.998   7.647   2.662  1.4907 -2.5494 -0.0036
 4983SOL     OW17148   6.580   5.555   4.801 -0.3171  0.3610  0.5110
 4983SOL    HW117149   6.611   5.491   4.737  1.6324  1.3209  0.4183
 4983SOL    HW217150   6.503   5.595   4.760 -0.9456 -1.1702  0.1331
 4984SOL     OW17151   1.311   4.073   6.267 -0.3889 -0.5468  0.1022
 4984SOL    HW117152   1.294   4.143   6.205 -1.2858  0.1810  1.1309
 4984SOL    HW217153   1.385   4.105   6.319 -0.9331 -0.2392  0.7100
 4985SOL     OW17154   9.009   2.820   3.706 -0.6471 -0.9748 -0.1726
 4985SOL    HW117155   8.995   2.729   3.733 -0.7438 -0.8896  0.0703
 4985SOL    HW217156   9.083   2.816   3.645 -1.9899 -1.4893 -1.8345
 4986SOL     OW17157   6.834   7.105   7.609  0.2037  0.0025  0.3796
 4986SOL    HW117158   6.879   7.141   7.533 -1.9215  0.9830 -0.4868
 4986SOL    HW217159   6.876   7.020   7.623  0.7756 -0.1312 -1.7796
 4987SOL     OW17160   5.129   0.489   8.336  0.0929 -0.7048 -0.7073
 4987SOL    HW117161   5.178   0.566   8.307 -1.1119 -0.4745 -2.2604
 4987SOL    HW217162   5.053   0.486   8.277 -0.4674 -2.4324  0.0628
 4988SOL     OW17163   2.862   0.396   7.084 -0.0376 -0.3025  0.4034
 4988SOL    HW117164   2.904   0.472   7.124  0.8382 -1.4834  1.8349
 4988SOL    HW217165   2.772   0.401   7.113 -0.0781  0.3633  0.1944
 4989SOL     OW17166   0.774   4.662   4.558 -0.6334  0.5353 -0.3561
 4989SOL    HW117167   0.826   4.641   4.636 -1.5913 -1.8619 -0.2890
 4989SOL    HW217168   0.755   4.755   4.567  1.0206  0.7931  1.1964
 4990SOL     OW17169   6.141   6.321   1.672 -0.2013  0.2539 -0.1961
 4990SOL    HW117170   6.200   6.393   1.694  0.4540  0.1454 -1.5221
 4990SOL    HW217171   6.095   6.302   1.754  0.1025  1.7213  0.3418
 4991SOL     OW17172   3.303   1.116   6.712 -0.0459  0.8397 -0.3232
 4991SOL    HW117173   3.278   1.024   6.716 -0.1880  0.8947  0.1135
 4991SOL    HW217174   3.372   1.120   6.646 -1.1018  0.6669 -1.4856
 4992SOL     OW17175   9.529   4.517   9.337  0.2416 -0.2745 -0.7734
 4992SOL    HW117176   9.510   4.600   9.382 -2.1207 -0.7729 -0.7440
 4992SOL    HW217177   9.501   4.532   9.247 -1.2739 -1.3331 -0.5258
 4993SOL     OW17178   7.709   8.895   3.532  0.1845 -0.1830 -0.0600
 4993SOL    HW117179   7.670   8.955   3.596 -1.6777 -1.4279  0.0302
 4993SOL    HW217180   7.731   8.817   3.583  0.6356 -0.3936 -0.5664
 4994SOL     OW17181   9.354   3.231   9.331  0.5415  0.7764 -0.4715
 4994SOL    HW117182   9.328   3.287   9.404  0.7224  0.8338 -0.4505
 4994SOL    HW217183   9.297   3.258   9.259  0.0795  0.4355 -0.2404
 4995SOL     OW17184   1.727   7.276   4.439  0.0084  0.0309  0.0374
 4995SOL    HW117185   1.690   7.256   4.353  1.1837 -0.5911 -0.3313
 4995SOL    HW217186   1.679   7.218   4.499  0.1677 -0.5644 -0.3975
 4996SOL     OW17187   7.421   5.241   1.394  0.3969 -0.0092 -0.4883
 4996SOL    HW117188   7.341   5.220   1.345 -1.1089  1.2465  1.2745
 4996SOL    HW217189   7.390   5.258   1.483  2.9944 -2.4064  1.0447
 4997SOL     OW17190   8.355   8.594   6.133  0.2633 -0.3554 -0.1086
 4997SOL    HW117191   8.347   8.687   6.110  0.9360  0.0554  1.1850
 4997SOL    HW217192   8.446   8.585   6.162 -0.1545 -1.1215  1.0246
 4998SOL     OW17193   3.570   7.133   8.880  0.1580 -0.4618  0.1512
 4998SOL    HW117194   3.528   7.114   8.964 -2.1112  0.0078 -0.8165
 4998SOL    HW217195   3.521   7.080   8.817 -0.0438  1.3427 -1.2563
 4999SOL     OW17196   5.978   4.061   4.754 -0.0665  0.2932  0.5424
 4999SOL    HW117197   5.884   4.046   4.770  0.0501 -0.7968  0.2644
 4999SOL    HW217198   6.017   4.058   4.841 -0.6057  3.4905  1.0136
 5000SOL     OW17199   8.473   7.403   5.040 -0.1951  0.0524 -0.3044
 5000SOL    HW117200   8.398   7.405   4.981 -1.3296  1.0677  1.0882
 5000SOL    HW217201   8.525   7.327   5.012 -1.5772 -0.4860 -1.4978
 5001SOL     OW17202   1.305   6.115   0.066  0.0960 -0.7931  0.0582
 5001SOL    HW117203   1.216   6.090   0.041 -0.1296  0.9518 -1.0878
 5001SOL    HW217204   1.292   6.181   0.134  0.4785 -0.1786 -0.4551
 5002SOL     OW17205   3.256   4.443   5.820 -0.2479  0.3728 -0.1787
 5002SOL    HW117206   3.239   4.439   5.726 -0.4491 -0.5530 -0.1090
 5002SOL    HW217207   3.222   4.360   5.855 -1.2065  1.1628  0.8695
 5003SOL     OW17208   0.006   8.721   7.109  0.4363 -0.2500  0.0324
 5003SOL    HW117209   0.022   8.803   7.061 -0.0219 -0.4278 -0.4244
 5003SOL    HW217210  -0.007   8.749   7.199  0.4709  0.1649 -0.0866
 5004SOL     OW17211   8.353   3.189   7.146  1.0550 -0.1805  0.3445
 5004SOL    HW117212   8.359   3.270   7.095  2.4269  0.0139  0.7570
 5004SOL    HW217213   8.432   3.140   7.122  0.6676 -1.0181  0.7387
 5005SOL     OW17214   3.174   2.208   9.501  0.0741 -0.2548 -0.1016
 5005SOL    HW117215   3.219   2.199   9.417  1.3290  0.4373  0.4677
 5005SOL    HW217216   3.085   2.236   9.477 -0.1601 -1.8622 -1.2559
 5006SOL     OW17217   8.254   4.415   7.138  0.2251 -0.1774  0.5452
 5006SOL    HW117218   8.333   4.368   7.163  0.8415  0.0660 -0.8637
 5006SOL    HW217219   8.285   4.486   7.082 -0.5985  2.3332  3.0654
 5007SOL     OW17220   1.814   6.496   6.405 -0.2888 -0.3770  0.3213
 5007SOL    HW117221   1.746   6.431   6.423  0.3251 -1.3538 -0.7219
 5007SOL    HW217222   1.805   6.515   6.311  1.9498 -1.8674 -0.2806
 5008SOL     OW17223   0.491   8.710   8.256 -0.2090  0.5758  0.0087
 5008SOL    HW117224   0.478   8.802   8.233 -0.1488  0.4896 -0.3833
 5008SOL    HW217225   0.434   8.697   8.332 -0.8096  0.7492 -0.3942
 5009SOL     OW17226   6.256   6.161   4.032  0.1677  0.1234 -0.4089
 5009SOL    HW117227   6.232   6.103   4.105  0.2056  0.2854 -0.2662
 5009SOL    HW217228   6.221   6.247   4.057 -0.3495  0.0459 -0.8675
 5010SOL     OW17229   5.110   9.384   7.719 -0.7001  0.1238  0.2942
 5010SOL    HW117230   5.144   9.344   7.640 -1.9047  0.4778 -0.4301
 5010SOL    HW217231   5.165   9.350   7.790  0.9534  0.4869 -0.7772
 5011SOL     OW17232   2.609   2.397   0.631  0.0306 -0.4148  0.3443
 5011SOL    HW117233   2.677   2.419   0.695  0.4066  1.4017 -0.6049
 5011SOL    HW217234   2.527   2.425   0.672  0.3964  2.0133 -0.3974
 5012SOL     OW17235   8.003   0.346   3.789  0.2178 -0.0432  0.4122
 5012SOL    HW117236   7.974   0.353   3.880  0.1108 -0.3381  0.4045
 5012SOL    HW217237   7.926   0.311   3.743  0.2588  0.1430  0.2026
 5013SOL     OW17238   5.080   4.470   3.620  0.5295 -0.0327  0.4340
 5013SOL    HW117239   5.085   4.536   3.689  0.2322  0.0691  0.3588
 5013SOL    HW217240   5.171   4.447   3.602  0.5881 -0.6661  1.4346
 5014SOL     OW17241   6.949   4.000   6.576 -0.1000  0.3134 -0.2917
 5014SOL    HW117242   7.035   3.964   6.557 -0.0258 -0.2973  1.1101
 5014SOL    HW217243   6.966   4.071   6.638 -0.5856  0.3346 -0.1817
 5015SOL     OW17244   3.558   4.566   1.210 -0.1649  0.2712  0.2699
 5015SOL    HW117245   3.650   4.541   1.221  0.0921  0.3581 -1.4331
 5015SOL    HW217246   3.554   4.606   1.123 -1.9330 -0.2700  0.0614
 5016SOL     OW17247   8.942   2.927   2.572  0.1628 -0.2351 -0.9722
 5016SOL    HW117248   8.958   2.846   2.523  2.1138 -0.3088 -0.2779
 5016SOL    HW217249   8.859   2.960   2.536 -0.5074 -2.3351 -1.5227
 5017SOL     OW17250   4.001   6.808   4.885 -0.4622 -0.0058  0.0191
 5017SOL    HW117251   3.952   6.830   4.964  0.4159  0.0161  0.5649
 5017SOL    HW217252   3.937   6.818   4.814 -1.7416 -1.7187  0.8809
 5018SOL     OW17253   4.590   8.457   7.230  0.1803 -0.2699 -0.0667
 5018SOL    HW117254   4.586   8.546   7.194 -1.7126 -0.5198 -0.5751
 5018SOL    HW217255   4.501   8.439   7.260  0.8690 -1.4731  1.3857
 5019SOL     OW17256   8.112   1.100   3.458  0.3546  0.1662 -0.3401
 5019SOL    HW117257   8.083   1.185   3.423 -0.4773  0.0072 -0.0766
 5019SOL    HW217258   8.031   1.049   3.465  0.5007  0.1002  1.5111
 5020SOL     OW17259   3.119   1.489   2.790  0.2011  0.3760 -0.4874
 5020SOL    HW117260   3.142   1.577   2.819  0.9047  0.2666 -0.6960
 5020SOL    HW217261   3.138   1.433   2.866  1.6949  0.1397 -0.9964
 5021SOL     OW17262   4.548   6.107   4.515 -0.0673  0.1495  0.0511
 5021SOL    HW117263   4.492   6.090   4.590  0.2119  1.2932  0.5359
 5021SOL    HW217264   4.618   6.043   4.522 -0.9512 -0.8715 -0.2030
 5022SOL     OW17265   3.838   5.699   9.564 -0.2045  0.2041  0.0850
 5022SOL    HW117266   3.807   5.608   9.564  0.0910  0.0924  1.2445
 5022SOL    HW217267   3.883   5.709   9.647  0.3212  1.2387 -0.3109
 5023SOL     OW17268   1.863   0.467   6.681  0.2399  0.5143 -0.1292
 5023SOL    HW117269   1.799   0.516   6.733  0.8877 -0.3866  1.6287
 5023SOL    HW217270   1.879   0.522   6.605 -0.7533  1.9385  0.6254
 5024SOL     OW17271   6.405   7.177   5.236 -0.1010  0.1516 -0.2534
 5024SOL    HW117272   6.379   7.120   5.163 -1.4654  0.1306  0.2209
 5024SOL    HW217273   6.497   7.157   5.251  0.0687 -0.2048 -1.6436
 5025SOL     OW17274   6.391   6.309   4.761  0.0430 -0.1787 -0.2952
 5025SOL    HW117275   6.374   6.343   4.673  0.4088  1.1258  0.1244
 5025SOL    HW217276   6.455   6.369   4.799 -0.6325 -0.3169  1.1267
 5026SOL     OW17277   6.522   8.897   7.758  0.0227  0.4033  0.3897
 5026SOL    HW117278   6.503   8.819   7.811  0.4784  1.3114  1.9502
 5026SOL    HW217279   6.605   8.930   7.792  1.2974  0.0475 -2.1172
 5027SOL     OW17280   7.718   5.321   3.394 -0.3399 -0.1262  0.4991
 5027SOL    HW117281   7.706   5.342   3.487 -0.5603 -1.8579  0.9016
 5027SOL    HW217282   7.794   5.373   3.367 -0.2334  0.3596  1.6596
 5028SOL     OW17283   2.707   5.822   6.736  0.1470 -0.2070 -0.2539
 5028SOL    HW117284   2.781   5.828   6.797 -0.3906 -0.9355  0.4761
 5028SOL    HW217285   2.718   5.898   6.679  0.7195  0.4392  0.6845
 5029SOL     OW17286   6.583   4.673   7.806  0.4668 -0.4701 -0.3518
 5029SOL    HW117287   6.623   4.679   7.893  0.4145 -0.2742 -0.3399
 5029SOL    HW217288   6.555   4.582   7.798 -0.6503 -0.2061  0.3322
 5030SOL     OW17289   8.944   2.943   0.435 -0.2614  0.5338 -0.2157
 5030SOL    HW117290   8.867   3.000   0.438 -0.8354 -0.1230 -1.6056
 5030SOL    HW217291   9.013   2.998   0.398 -0.5584  0.6035 -0.6721
 5031SOL     OW17292   1.406   0.785   0.224  0.3450  0.3420  0.0653
 5031SOL    HW117293   1.319   0.751   0.202  0.2954  0.7313 -0.3696
 5031SOL    HW217294   1.448   0.799   0.139  0.3427  1.3878  0.2195
 5032SOL     OW17295   1.579   4.067   7.640  0.2167  0.2644 -0.7638
 5032SOL    HW117296   1.628   3.985   7.634 -0.5903 -0.2806 -0.0818
 5032SOL    HW217297   1.526   4.070   7.561 -1.7483 -1.2166  0.4061
 5033SOL     OW17298   6.115   3.499   6.908  0.1048  0.1760 -0.2044
 5033SOL    HW117299   6.070   3.535   6.985 -1.0007 -2.6024  0.5656
 5033SOL    HW217300   6.196   3.462   6.942 -0.7143 -1.6897 -0.1980
 5034SOL     OW17301   1.615   8.741   6.981  0.0014 -0.5881 -0.2082
 5034SOL    HW117302   1.642   8.677   7.048 -2.4403  0.7021  2.1899
 5034SOL    HW217303   1.690   8.800   6.974  1.6774 -2.7209 -1.3053
 5035SOL     OW17304   9.244   2.687   8.631  0.1633 -0.2378 -0.6197
 5035SOL    HW117305   9.304   2.754   8.663  2.3454 -2.2695 -0.1989
 5035SOL    HW217306   9.297   2.607   8.626 -2.1479 -1.8171 -1.6879
 5036SOL     OW17307   5.665   6.226   8.178 -0.0345  0.6899 -0.4377
 5036SOL    HW117308   5.640   6.184   8.095 -1.2882 -2.4216  1.3011
 5036SOL    HW217309   5.760   6.233   8.174 -0.0892  0.8301 -2.2263
 5037SOL     OW17310   4.663   3.119   4.661  0.0896  0.5022 -0.0128
 5037SOL    HW117311   4.721   3.163   4.598 -0.3268  1.3622  0.1953
 5037SOL    HW217312   4.598   3.185   4.685 -0.7781 -0.3461  0.0263
 5038SOL     OW17313   8.127   6.321   8.272  0.2260  0.3260 -0.3152
 5038SOL    HW117314   8.201   6.362   8.318  0.4946  0.9546 -1.2899
 5038SOL    HW217315   8.166   6.248   8.224  0.0070 -0.0962  0.1419
 5039SOL     OW17316   5.294   8.166   6.994 -0.0945 -0.5019 -0.3493
 5039SOL    HW117317   5.352   8.090   7.005 -1.3689 -1.4061  0.3714
 5039SOL    HW217318   5.311   8.219   7.073 -0.2123 -0.7381 -0.1639
 5040SOL     OW17319   5.504   9.086   4.314 -0.4231  0.0538  0.1391
 5040SOL    HW117320   5.520   9.066   4.222 -1.0380  0.7351 -0.1225
 5040SOL    HW217321   5.501   9.001   4.357  1.2525 -0.2287 -0.2258
 5041SOL     OW17322   9.568   0.731   8.449  0.2224  0.4103  0.0928
 5041SOL    HW117323   9.649   0.691   8.478  0.0385 -0.2894 -0.3207
 5041SOL    HW217324   9.545   0.793   8.518  1.1359  0.6596  0.1769
 5042SOL     OW17325   2.845   1.500   8.130  0.0006  0.5573 -0.1489
 5042SOL    HW117326   2.917   1.460   8.081 -0.8096 -0.3507 -0.6452
 5042SOL    HW217327   2.855   1.594   8.115  0.9463  0.4225 -0.4041
 5043SOL     OW17328   7.702   3.848   6.031 -0.2511 -0.2810  0.6208
 5043SOL    HW117329   7.671   3.764   6.066 -0.7031  1.1975  4.1836
 5043SOL    HW217330   7.778   3.825   5.977 -0.9203 -3.0191  0.6770
 5044SOL     OW17331   8.195   7.963   0.264  0.2186 -0.1088 -0.3692
 5044SOL    HW117332   8.225   8.046   0.300 -1.1005  0.6791 -0.9706
 5044SOL    HW217333   8.136   7.928   0.330  0.9016 -0.6508 -0.0463
 5045SOL     OW17334   6.953   2.046   0.508  0.1447  0.0491 -0.4333
 5045SOL    HW117335   6.927   2.027   0.598  1.3512 -2.1216 -0.4732
 5045SOL    HW217336   6.878   2.016   0.455  0.6462 -1.5963 -0.2777
 5046SOL     OW17337   0.988   7.647   4.589 -0.5908  0.6873 -0.0370
 5046SOL    HW117338   0.991   7.623   4.682 -1.8836  0.0456 -0.1256
 5046SOL    HW217339   0.986   7.742   4.588 -3.2608  0.7448  0.7971
 5047SOL     OW17340   7.013   3.167   7.338  0.0172  0.0567 -0.6053
 5047SOL    HW117341   6.990   3.243   7.392 -0.0678 -1.3061  1.3633
 5047SOL    HW217342   7.102   3.185   7.309 -0.1266  1.0717 -0.4648
 5048SOL     OW17343   1.030   2.812   9.572  0.0673 -0.1272  0.0767
 5048SOL    HW117344   1.047   2.755   9.497 -2.0640  2.1246 -2.2930
 5048SOL    HW217345   1.113   2.857   9.587  1.3918 -2.7329  1.1383
 5049SOL     OW17346   5.778   2.447   3.457 -0.1987  0.0150  0.4386
 5049SOL    HW117347   5.755   2.475   3.369  0.0960  0.3529  0.4694
 5049SOL    HW217348   5.864   2.486   3.474  0.3826 -1.1682  0.3490
 5050SOL     OW17349   2.686   3.287   5.429 -0.4584 -0.2511  0.5330
 5050SOL    HW117350   2.715   3.232   5.501 -0.4061 -0.6475  0.2134
 5050SOL    HW217351   2.591   3.294   5.441 -0.5005 -0.6181  0.4351
 5051SOL     OW17352   6.043   0.310   8.221 -0.1590 -0.1132  0.3290
 5051SOL    HW117353   6.076   0.229   8.182  0.6777 -0.7901  2.3295
 5051SOL    HW217354   5.974   0.281   8.281  0.1499  0.6291  1.0599
 5052SOL     OW17355   3.076   4.878   0.874 -0.1105 -0.0197  0.7899
 5052SOL    HW117356   3.110   4.931   0.801  0.4081 -1.0009  0.2968
 5052SOL    HW217357   3.151   4.869   0.933  0.0875 -1.0093  0.3957
 5053SOL     OW17358   6.718   2.528   4.221 -0.1189 -0.2476 -0.3032
 5053SOL    HW117359   6.647   2.571   4.175 -0.4164  0.5067  0.8148
 5053SOL    HW217360   6.772   2.489   4.152 -0.1561  1.4153 -1.3225
 5054SOL     OW17361   3.212   8.545   3.288  0.2325  0.0470 -0.7252
 5054SOL    HW117362   3.211   8.494   3.207 -0.1233  0.2089 -0.8211
 5054SOL    HW217363   3.301   8.533   3.322  0.1218 -0.7386 -0.6873
 5055SOL     OW17364   1.583   4.751   4.886  0.2553 -0.1462 -0.1157
 5055SOL    HW117365   1.550   4.700   4.959  0.0785  1.5066  1.0044
 5055SOL    HW217366   1.675   4.769   4.907  0.2187  0.3037 -0.3133
 5056SOL     OW17367   4.155   3.208   5.545  0.5863 -0.1648 -0.1271
 5056SOL    HW117368   4.227   3.245   5.596  0.2228 -0.9489  1.0074
 5056SOL    HW217369   4.076   3.240   5.588  0.2355 -2.8881  1.4965
 5057SOL     OW17370   0.377   5.548   5.833 -0.0581 -0.4611  0.7771
 5057SOL    HW117371   0.294   5.580   5.797  0.6408  1.4218  0.7250
 5057SOL    HW217372   0.391   5.464   5.790 -0.4147  0.6188 -1.6292
 5058SOL     OW17373   1.738   4.459   3.247  0.1486  0.2389 -0.2664
 5058SOL    HW117374   1.796   4.467   3.323 -1.0685  0.3422  0.6793
 5058SOL    HW217375   1.762   4.533   3.191  1.2447  0.0111 -0.1324
 5059SOL     OW17376   6.710   3.630   2.616 -0.5546 -0.3824  0.6116
 5059SOL    HW117377   6.730   3.606   2.706  1.2138  0.0419  0.3709
 5059SOL    HW217378   6.728   3.724   2.611  0.6146 -0.6244 -0.4569
 5060SOL     OW17379   2.914   4.288   8.957  0.3819 -0.0883  0.3386
 5060SOL    HW117380   2.934   4.205   8.914  3.2662  0.9849 -0.6466
 5060SOL    HW217381   2.957   4.354   8.902 -0.2070  1.8659  2.1104
 5061SOL     OW17382   9.172   6.599   4.211 -0.4224 -0.1387 -0.0833
 5061SOL    HW117383   9.197   6.691   4.205 -0.2793  0.0264  2.1370
 5061SOL    HW217384   9.233   6.554   4.153  0.6829  0.9957  0.1464
 5062SOL     OW17385   4.373   7.467   8.729 -0.1355 -0.3486  0.4708
 5062SOL    HW117386   4.281   7.486   8.747 -0.0470  1.3536 -0.6619
 5062SOL    HW217387   4.372   7.390   8.673 -0.8157 -0.7688  1.0466
 5063SOL     OW17388   5.264   4.456   6.351  0.0489  0.4589  0.4716
 5063SOL    HW117389   5.313   4.373   6.346 -1.3766 -0.3865 -0.3000
 5063SOL    HW217390   5.174   4.429   6.369 -0.3405  1.8995  0.7865
 5064SOL     OW17391   9.361   1.916   9.102  0.3940 -0.0571 -0.0288
 5064SOL    HW117392   9.387   2.008   9.091  0.4298 -0.2819 -2.0654
 5064SOL    HW217393   9.273   1.911   9.066  0.1472 -0.7054  0.6447
 5065SOL     OW17394   2.907   0.585   3.833  0.5149 -0.3221 -0.1353
 5065SOL    HW117395   2.969   0.646   3.874  1.7428 -2.2685  1.0147
 5065SOL    HW217396   2.962   0.516   3.797 -0.7639 -0.1736 -2.5694
 5066SOL     OW17397   1.790   1.272   4.780 -0.1082  0.1971 -0.4443
 5066SOL    HW117398   1.728   1.200   4.792  2.1721 -1.7913  0.3584
 5066SOL    HW217399   1.869   1.230   4.746  1.8102  2.0505  1.4179
 5067SOL     OW17400   5.567   4.458   3.011 -0.0407 -0.3913  0.4053
 5067SOL    HW117401   5.636   4.486   3.070  0.1179  0.7896 -0.3221
 5067SOL    HW217402   5.595   4.487   2.924 -0.7094 -1.2797 -0.1341
 5068SOL     OW17403   2.224   7.233   9.400 -0.0607 -0.0286  0.9629
 5068SOL    HW117404   2.145   7.196   9.360 -0.6824  2.5470 -0.4872
 5068SOL    HW217405   2.296   7.190   9.354 -0.6269 -1.3529  1.2628
 5069SOL     OW17406   8.242   8.840   7.436  0.2798 -0.1368  0.3048
 5069SOL    HW117407   8.295   8.805   7.507  2.1668  0.0834 -0.9336
 5069SOL    HW217408   8.167   8.780   7.430 -0.2387  0.1319  2.7577
 5070SOL     OW17409   6.536   3.104   0.082 -0.1854 -0.0697 -0.1319
 5070SOL    HW117410   6.535   3.009   0.078  0.9978 -0.1123  0.1622
 5070SOL    HW217411   6.484   3.132   0.007  0.6248 -0.9403 -1.0524
 5071SOL     OW17412   3.111   6.221   9.518  0.1190 -0.7806  0.0977
 5071SOL    HW117413   3.143   6.306   9.548 -0.8468 -0.3225 -0.1333
 5071SOL    HW217414   3.116   6.225   9.422 -1.2431 -0.4303  0.0199
 5072SOL     OW17415   2.694   5.044   2.279  0.5244  0.0068  0.0976
 5072SOL    HW117416   2.614   4.997   2.254  1.0096 -0.1552 -1.2311
 5072SOL    HW217417   2.765   4.997   2.234  1.1229  1.4903 -0.5958
 5073SOL     OW17418   6.456   2.616   5.646  0.3933 -0.4213  0.4894
 5073SOL    HW117419   6.501   2.670   5.710  0.6862  0.4775 -0.4537
 5073SOL    HW217420   6.436   2.675   5.574 -1.5426 -0.9926  0.5062
 5074SOL     OW17421   3.122   3.508   2.941  0.4005  0.0354 -0.3470
 5074SOL    HW117422   3.123   3.445   3.013 -0.5022 -0.5876 -0.8646
 5074SOL    HW217423   3.204   3.558   2.951  1.0250 -1.0734  0.1912
 5075SOL     OW17424   8.639   9.486   6.707 -0.2357  0.7038 -0.0337
 5075SOL    HW117425   8.654   9.579   6.724  2.9666  0.2699  0.1121
 5075SOL    HW217426   8.677   9.442   6.783  2.1556 -0.8186 -1.9843
 5076SOL     OW17427   5.251   7.173   6.504 -0.3470  0.8678 -0.6563
 5076SOL    HW117428   5.223   7.154   6.415 -0.0070  0.6578 -0.7183
 5076SOL    HW217429   5.212   7.258   6.523 -1.7908  0.1854 -0.4081
 5077SOL     OW17430   6.573   7.717   2.815 -0.3678 -0.1796 -0.0504
 5077SOL    HW117431   6.578   7.736   2.909 -0.1163 -0.5260  0.0114
 5077SOL    HW217432   6.481   7.697   2.800 -0.5892  0.8245 -0.0726
 5078SOL     OW17433   8.178   5.410   6.289  0.0393 -0.3722 -0.8638
 5078SOL    HW117434   8.147   5.431   6.201 -1.4735 -0.9064 -0.4748
 5078SOL    HW217435   8.125   5.336   6.317  0.3032 -0.0364  0.6188
 5079SOL     OW17436   2.591   1.437   1.114  0.4537 -0.0304 -0.9414
 5079SOL    HW117437   2.503   1.418   1.144  0.6722 -0.5742 -0.6356
 5079SOL    HW217438   2.582   1.515   1.059 -0.2036 -0.0540 -0.8651
 5080SOL     OW17439   2.742   1.598   5.379  0.3312  0.3967 -0.0358
 5080SOL    HW117440   2.793   1.539   5.323 -0.6578  0.6120 -1.2061
 5080SOL    HW217441   2.800   1.616   5.453  2.6432  1.9525 -2.0592
 5081SOL     OW17442   5.091   0.110   4.145  0.3149  0.1456  0.0724
 5081SOL    HW117443   5.166   0.161   4.115  0.8242 -1.0018 -0.6502
 5081SOL    HW217444   5.040   0.172   4.197  0.5012  1.6005 -1.4073
 5082SOL     OW17445   5.097   3.597   7.793  0.0882 -0.1689 -0.4854
 5082SOL    HW117446   5.087   3.571   7.885  0.2210  0.0034 -0.4229
 5082SOL    HW217447   5.114   3.691   7.796  1.9233 -0.4587 -0.5738
 5083SOL     OW17448   0.879   4.470   3.860  0.3233 -0.6124 -0.6693
 5083SOL    HW117449   0.819   4.539   3.887 -0.2022 -0.7462 -1.4507
 5083SOL    HW217450   0.855   4.452   3.769  1.2354 -1.0012 -0.8430
 5084SOL     OW17451   2.388   8.203   6.612  0.3422 -0.8020 -0.3652
 5084SOL    HW117452   2.409   8.291   6.579 -1.1356 -0.4515 -0.4765
 5084SOL    HW217453   2.379   8.149   6.533  0.8245 -0.9427 -0.3214
 5085SOL     OW17454   7.025   1.568   0.658 -0.3333 -0.1500  0.6063
 5085SOL    HW117455   6.969   1.641   0.684  0.5303  2.0313 -2.8507
 5085SOL    HW217456   6.998   1.548   0.568  1.7608 -1.7577  0.2402
 5086SOL     OW17457   4.933   6.966   5.992 -0.0001 -0.4027  0.6605
 5086SOL    HW117458   4.905   6.992   6.080 -0.0980 -1.8762  1.0770
 5086SOL    HW217459   4.869   6.901   5.964 -0.7152  0.9580 -1.0496
 5087SOL     OW17460   6.029   1.449   3.909 -0.2342 -0.1545 -0.1485
 5087SOL    HW117461   5.969   1.523   3.919  0.8735  0.5037  2.6031
 5087SOL    HW217462   6.093   1.480   3.844 -0.3555  0.9089  0.2160
 5088SOL     OW17463   4.643   0.533   6.000 -0.5105 -0.0835 -0.1319
 5088SOL    HW117464   4.595   0.576   6.071  1.5862  0.0787  1.2715
 5088SOL    HW217465   4.718   0.590   5.984  0.8766 -1.8217 -0.1018
 5089SOL     OW17466   2.843   0.593   1.527  0.0804 -0.0394  0.5919
 5089SOL    HW117467   2.751   0.587   1.500  0.6175 -1.5226 -1.1576
 5089SOL    HW217468   2.886   0.637   1.454  1.2599 -2.3331 -0.1978
 5090SOL     OW17469   5.592   5.201   6.709 -0.0809 -0.1062 -0.3291
 5090SOL    HW117470   5.548   5.236   6.632 -0.4196  0.7577  0.2412
 5090SOL    HW217471   5.669   5.257   6.720  0.3267 -0.6420 -0.4233
 5091SOL     OW17472   4.592   4.752   4.534 -0.5512 -0.0477 -0.0594
 5091SOL    HW117473   4.648   4.678   4.560 -0.1364  0.5270  0.7127
 5091SOL    HW217474   4.629   4.827   4.580 -0.9192  0.6656 -0.9055
 5092SOL     OW17475   0.602   5.611   7.763  0.0159  0.2629  0.2032
 5092SOL    HW117476   0.688   5.568   7.758 -0.0764  0.1860 -1.0822
 5092SOL    HW217477   0.568   5.606   7.674 -1.3049  0.3534  0.6837
 5093SOL     OW17478   3.400   0.284   3.789 -0.3310 -0.4498 -0.4562
 5093SOL    HW117479   3.446   0.323   3.863 -1.0578 -0.7655  0.1822
 5093SOL    HW217480   3.345   0.215   3.829  0.5105 -1.7625 -1.4769
 5094SOL     OW17481   6.720   6.021   1.353 -0.2226 -0.3299 -0.4261
 5094SOL    HW117482   6.768   6.030   1.436 -2.7686  0.8832  1.0718
 5094SOL    HW217483   6.727   5.929   1.330  0.2662 -0.7837  1.3807
 5095SOL     OW17484   1.303   3.203   9.575  0.1031 -0.1542  0.2454
 5095SOL    HW117485   1.328   3.220   9.485  0.3221  0.6639  0.4569
 5095SOL    HW217486   1.310   3.108   9.584  2.1646 -0.0791 -0.0046
 5096SOL     OW17487   3.667   9.439   8.897 -0.6288  0.6167 -0.8961
 5096SOL    HW117488   3.762   9.450   8.893 -0.5747 -0.0818 -1.8020
 5096SOL    HW217489   3.654   9.345   8.887 -1.2982  0.3257  1.8741
 5097SOL     OW17490   4.133   8.742   9.095 -0.6215  0.2556 -0.0029
 5097SOL    HW117491   4.057   8.792   9.064 -0.4369 -0.3971 -1.6070
 5097SOL    HW217492   4.194   8.808   9.126 -1.0009  0.9283 -0.6513
 5098SOL     OW17493   6.356   4.428   3.628 -0.1272 -0.2303 -0.2595
 5098SOL    HW117494   6.343   4.498   3.693  2.1662  1.0287 -1.0645
 5098SOL    HW217495   6.267   4.400   3.605 -1.0508  0.0890  2.5085
 5099SOL     OW17496   4.833   4.457   7.941  0.6712 -0.3646  0.5787
 5099SOL    HW117497   4.849   4.417   8.026 -0.3134  1.6705  1.7983
 5099SOL    HW217498   4.738   4.450   7.929  0.9357 -2.0098 -1.1471
 5100SOL     OW17499   2.659   5.236   8.378 -0.4532  0.0126 -0.3187
 5100SOL    HW117500   2.743   5.215   8.339 -0.9508 -0.1703 -1.3379
 5100SOL    HW217501   2.604   5.159   8.360 -0.9895  0.3520 -0.1662
 5101SOL     OW17502   8.907   6.960   2.639 -0.3352 -0.2404 -0.1205
 5101SOL    HW117503   8.830   6.971   2.695 -0.8991  0.3861 -0.9909
 5101SOL    HW217504   8.955   7.042   2.647  1.5053 -1.4321  2.1936
 5102SOL     OW17505   3.822   1.504   4.075  0.5045  0.0099 -0.2983
 5102SOL    HW117506   3.796   1.418   4.108 -0.2855 -0.8048 -2.7615
 5102SOL    HW217507   3.742   1.541   4.038  0.9217  1.6612  0.3889
 5103SOL     OW17508   1.395   4.110   4.293  0.0965  0.6559 -0.5750
 5103SOL    HW117509   1.455   4.134   4.222 -0.2680  0.1923 -1.0519
 5103SOL    HW217510   1.320   4.168   4.281 -1.1996 -1.2190 -2.2957
 5104SOL     OW17511   3.846   4.504   8.956  0.4890  0.3403 -0.1315
 5104SOL    HW117512   3.846   4.439   8.885  1.4653  1.3338 -1.0788
 5104SOL    HW217513   3.770   4.559   8.937 -0.1190 -0.2662  0.4620
 5105SOL     OW17514   6.814   0.307   1.775 -0.0578  0.2680 -0.4078
 5105SOL    HW117515   6.792   0.399   1.787  0.5149  0.1842  1.6098
 5105SOL    HW217516   6.856   0.281   1.857  1.4093 -1.3285 -1.5842
 5106SOL     OW17517   3.775   9.364   0.230 -0.1555 -0.2415 -0.5088
 5106SOL    HW117518   3.815   9.347   0.315  0.7743  1.3861 -0.5711
 5106SOL    HW217519   3.722   9.287   0.212 -1.4324 -0.0712  2.1241
 5107SOL     OW17520   8.145   0.934   3.246 -0.1763 -0.2163 -0.5867
 5107SOL    HW117521   8.133   1.008   3.305 -0.4425  0.0591 -0.9805
 5107SOL    HW217522   8.229   0.896   3.270 -0.5378 -0.4492  0.3408
 5108SOL     OW17523   7.014   1.525   4.155 -0.0403 -0.4661 -0.0126
 5108SOL    HW117524   7.021   1.430   4.144  0.2106 -0.2802 -1.8587
 5108SOL    HW217525   6.927   1.539   4.193 -0.5304 -1.3826 -0.7605
 5109SOL     OW17526   8.924   1.892   3.471 -0.9306  0.0452  0.0921
 5109SOL    HW117527   8.984   1.931   3.534 -0.5685 -0.6666  0.2059
 5109SOL    HW217528   8.874   1.965   3.435  1.4873  0.9469 -1.6381
 5110SOL     OW17529   0.093   3.570   4.321 -0.8346  0.6358  0.0894
 5110SOL    HW117530   0.129   3.612   4.243 -1.9183  0.5353 -0.4765
 5110SOL    HW217531   0.058   3.642   4.374 -3.3256  0.4738 -1.2038
 5111SOL     OW17532   5.830   3.394   5.691  0.7162 -0.0879 -0.2554
 5111SOL    HW117533   5.893   3.366   5.624 -1.1056 -0.0461 -2.0873
 5111SOL    HW217534   5.866   3.477   5.724  2.5223 -0.9527  0.1122
 5112SOL     OW17535   6.823   5.034   7.325 -0.2390  0.0000  0.1996
 5112SOL    HW117536   6.900   5.002   7.279 -0.4839 -0.3103 -0.0029
 5112SOL    HW217537   6.783   4.955   7.361 -1.6223 -0.1289 -1.4707
 5113SOL     OW17538   8.365   7.474   7.984  0.0154  0.3946  0.8811
 5113SOL    HW117539   8.440   7.422   8.011  0.2407  1.7717  3.1837
 5113SOL    HW217540   8.313   7.415   7.929  1.0969 -1.6766  1.9607
 5114SOL     OW17541   3.821   5.339   8.585 -0.2347 -0.4080 -0.4240
 5114SOL    HW117542   3.896   5.378   8.540  0.9120 -1.2545  0.6862
 5114SOL    HW217543   3.745   5.361   8.530  0.2802  3.4060  0.1115
 5115SOL     OW17544   8.284   6.860   0.606 -0.1966 -0.3308  0.2290
 5115SOL    HW117545   8.361   6.813   0.574 -0.4210 -0.2941 -0.3696
 5115SOL    HW217546   8.307   6.885   0.696  0.2000 -0.9700  0.3162
 5116SOL     OW17547   8.311   5.678   3.851  0.0202  0.4451 -0.2484
 5116SOL    HW117548   8.248   5.749   3.866 -0.7163 -0.3301  0.4465
 5116SOL    HW217549   8.266   5.619   3.790 -0.1555 -0.3766  0.6507
 5117SOL     OW17550   3.870   3.967   6.538  0.4258  0.3529  0.2694
 5117SOL    HW117551   3.889   3.900   6.473 -0.1736  0.4928 -0.0496
 5117SOL    HW217552   3.950   3.971   6.592  0.5265 -0.4960  0.1937
 5118SOL     OW17553   5.936   0.977   4.294 -0.2166 -0.0381  0.9002
 5118SOL    HW117554   5.859   0.920   4.291 -0.6875  0.6012 -1.4512
 5118SOL    HW217555   5.999   0.935   4.235 -0.0769  1.1563  0.1551
 5119SOL     OW17556   9.344   1.844   1.011  0.5480 -0.2773 -0.3642
 5119SOL    HW117557   9.273   1.892   0.968  1.7688  0.4470 -1.6462
 5119SOL    HW217558   9.323   1.752   0.995 -0.4364 -0.1003 -0.1644
 5120SOL     OW17559   0.923   6.423   1.212  0.3462 -0.2270 -0.2202
 5120SOL    HW117560   0.829   6.444   1.216  0.1652 -1.0432  0.0861
 5120SOL    HW217561   0.961   6.493   1.160 -0.0441  1.4511  1.6378
 5121SOL     OW17562   6.302   5.821   6.564 -0.1319 -0.0467  0.3034
 5121SOL    HW117563   6.277   5.746   6.509  1.3350 -0.5560  0.2619
 5121SOL    HW217564   6.381   5.856   6.521 -2.0722  3.0557 -1.0435
 5122SOL     OW17565   8.595   6.633   2.377 -0.0403 -0.5279  0.0314
 5122SOL    HW117566   8.574   6.727   2.375  0.2827 -0.4626 -0.6137
 5122SOL    HW217567   8.533   6.596   2.439 -1.0127 -0.0865 -0.6542
 5123SOL     OW17568   8.837   8.259   5.611  0.0475  0.2543  0.3379
 5123SOL    HW117569   8.775   8.218   5.551 -1.4815  1.2259  1.2000
 5123SOL    HW217570   8.797   8.251   5.697  0.6705  1.7196  0.8022
 5124SOL     OW17571   5.536   7.498   2.564  0.6291 -0.7633  0.0666
 5124SOL    HW117572   5.443   7.521   2.566  0.5006 -1.1502 -0.8911
 5124SOL    HW217573   5.538   7.405   2.589  0.9476 -0.2914  1.8985
 5125SOL     OW17574   8.778   5.790   7.858  0.4299 -0.0878  0.1231
 5125SOL    HW117575   8.691   5.751   7.849  0.4080 -0.0507  0.1744
 5125SOL    HW217576   8.762   5.884   7.860  0.6301  0.0246 -1.8156
 5126SOL     OW17577   0.711   8.499   4.022  0.2447  0.2678 -0.1758
 5126SOL    HW117578   0.642   8.514   4.087 -0.6749 -0.7009 -0.9029
 5126SOL    HW217579   0.787   8.473   4.074 -0.2995  0.0999  0.5624
 5127SOL     OW17580   5.273   6.985   7.903  0.1032 -0.4364  0.2022
 5127SOL    HW117581   5.186   6.946   7.891 -0.2190  0.4124 -0.3778
 5127SOL    HW217582   5.258   7.079   7.894  0.9120 -0.1881  1.2016
 5128SOL     OW17583   0.214   9.240   0.559  0.1069  0.1757  0.6648
 5128SOL    HW117584   0.196   9.275   0.472  0.1635  0.6744  0.8524
 5128SOL    HW217585   0.307   9.258   0.573  0.1545 -0.1216  0.7291
 5129SOL     OW17586   0.019   2.232   4.997  0.1381  0.3380  0.4306
 5129SOL    HW117587   0.109   2.199   5.009  1.4853  4.3172  3.5578
 5129SOL    HW217588   0.022   2.279   4.913  0.7712 -0.1330  0.1827
 5130SOL     OW17589   2.390   2.405   5.882  0.0357  0.1417  0.8398
 5130SOL    HW117590   2.401   2.497   5.859 -0.4639 -0.1639 -0.7595
 5130SOL    HW217591   2.479   2.373   5.900  0.1753  0.9964  1.7091
 5131SOL     OW17592   4.915   7.940   4.215 -0.3972  0.8981  0.2240
 5131SOL    HW117593   4.996   7.980   4.184 -1.3037  2.2989 -0.4456
 5131SOL    HW217594   4.873   8.008   4.268 -1.2349  0.2796  0.3739
 5132SOL     OW17595   0.580   1.101   7.927  0.5341  0.0802 -0.2851
 5132SOL    HW117596   0.503   1.148   7.894 -0.4280 -0.7487  0.7392
 5132SOL    HW217597   0.552   1.062   8.009  2.4526  0.8571  0.8012
 5133SOL     OW17598   1.850   4.630   8.546 -0.4720  0.2266  0.2482
 5133SOL    HW117599   1.894   4.549   8.518  1.4447  0.8674  1.2427
 5133SOL    HW217600   1.833   4.618   8.639 -1.2618  0.5164  0.1502
 5134SOL     OW17601   3.900   6.263   7.290  0.0563 -0.0893  0.1419
 5134SOL    HW117602   3.857   6.182   7.262  0.8292 -0.7828  0.9096
 5134SOL    HW217603   3.990   6.237   7.309  0.2830  0.9316  0.5221
 5135SOL     OW17604   2.529   6.676   9.546 -0.7538  0.2125 -0.3841
 5135SOL    HW117605   2.623   6.664   9.550 -0.5395  1.8409  0.5343
 5135SOL    HW217606   2.492   6.596   9.583  0.3055  0.1057  0.4609
 5136SOL     OW17607   8.892   1.743   0.490 -0.2198 -0.2465 -0.3273
 5136SOL    HW117608   8.869   1.814   0.549 -0.2758  1.3094 -2.1278
 5136SOL    HW217609   8.987   1.747   0.482 -0.1947 -0.5644 -0.2271
 5137SOL     OW17610   3.453   7.565   4.496 -0.1330 -0.0046 -0.0796
 5137SOL    HW117611   3.470   7.499   4.429  1.6742  0.1733  0.1386
 5137SOL    HW217612   3.436   7.516   4.576 -1.4668 -0.2037 -0.4572
 5138SOL     OW17613   0.447   7.742   0.746 -0.0137 -0.1544  0.7511
 5138SOL    HW117614   0.516   7.679   0.726  0.3860 -0.0316  1.7078
 5138SOL    HW217615   0.366   7.693   0.738 -0.2487  0.4671 -4.0046
 5139SOL     OW17616   1.302   1.305   4.307 -0.0181  0.3429 -0.7509
 5139SOL    HW117617   1.310   1.243   4.234  2.1386  1.2801 -1.3979
 5139SOL    HW217618   1.332   1.256   4.384  0.8523  0.2990 -1.1064
 5140SOL     OW17619   3.589   6.825   0.417  0.2958  0.4052  0.1763
 5140SOL    HW117620   3.614   6.808   0.507  1.0468  0.7878  0.0519
 5140SOL    HW217621   3.531   6.753   0.394 -0.7817  0.8881  1.3064
 5141SOL     OW17622   0.156   3.111   3.907  0.4006 -0.2992  0.2675
 5141SOL    HW117623   0.155   3.027   3.953 -1.4583 -1.1186 -1.0895
 5141SOL    HW217624   0.226   3.161   3.948 -0.7559 -1.1305  3.5976
 5142SOL     OW17625   3.826   1.299   2.968 -0.1346 -0.3316  0.1283
 5142SOL    HW117626   3.770   1.266   2.898  0.6382  0.6572 -1.0138
 5142SOL    HW217627   3.773   1.365   3.013 -0.8059 -1.3139  0.8186
 5143SOL     OW17628   4.153   5.069   5.895 -0.5848  0.2644  0.3683
 5143SOL    HW117629   4.174   5.046   5.986 -0.3383 -1.8451 -0.1604
 5143SOL    HW217630   4.227   5.035   5.845  0.3009  3.1792 -0.5235
 5144SOL     OW17631   4.241   2.704   3.440 -0.4997 -0.4955 -0.4400
 5144SOL    HW117632   4.299   2.745   3.503  0.4919  1.8294 -2.6935
 5144SOL    HW217633   4.169   2.766   3.429 -0.4720 -0.6646 -1.8145
 5145SOL     OW17634   4.528   9.041   6.285 -0.4691 -0.2186 -0.1711
 5145SOL    HW117635   4.552   8.971   6.224  0.0564 -1.5808  1.5116
 5145SOL    HW217636   4.604   9.100   6.284  0.0039 -0.8165 -0.0325
 5146SOL     OW17637   2.292   7.356   6.635  0.0926  0.1385  0.2241
 5146SOL    HW117638   2.209   7.387   6.671  0.8952  1.4309  1.0523
 5146SOL    HW217639   2.283   7.368   6.541 -0.6552  0.2768  0.3019
 5147SOL     OW17640   2.945   4.292   1.054 -0.5487  0.5116  0.4706
 5147SOL    HW117641   2.911   4.236   1.124 -0.6683  1.0816  0.8863
 5147SOL    HW217642   3.033   4.317   1.084 -1.4153  2.5853  1.5740
 5148SOL     OW17643   2.210   2.135   7.254  0.0564  0.3735  0.4064
 5148SOL    HW117644   2.182   2.079   7.182 -0.3239  0.4918  0.4554
 5148SOL    HW217645   2.132   2.187   7.275  0.2507  0.5484  0.7061
 5149SOL     OW17646   1.690   2.832   9.425  0.2591 -0.0754  0.2092
 5149SOL    HW117647   1.631   2.763   9.396 -0.0381  0.1500  0.2773
 5149SOL    HW217648   1.754   2.787   9.480 -1.2008  0.0273  2.0620
 5150SOL     OW17649   3.456   2.610   3.035 -0.6129  0.4211 -0.6965
 5150SOL    HW117650   3.485   2.525   3.069 -0.5204  0.7047 -0.0606
 5150SOL    HW217651   3.530   2.641   2.983  0.3510  1.2360  1.0785
 5151SOL     OW17652   6.497   3.886   1.364  0.5041  0.2182  0.1969
 5151SOL    HW117653   6.565   3.867   1.429  0.0229 -2.7135 -0.0244
 5151SOL    HW217654   6.420   3.909   1.415  0.6537 -0.1616  0.6000
 5152SOL     OW17655   3.444   6.886   7.749  0.2004 -0.0946  0.0084
 5152SOL    HW117656   3.480   6.832   7.819 -0.5959  0.3758  0.8034
 5152SOL    HW217657   3.354   6.854   7.739 -0.3438  1.2076  0.6312
 5153SOL     OW17658   3.851   4.139   3.853  0.3157 -0.3545 -0.3871
 5153SOL    HW117659   3.915   4.118   3.921 -0.8108 -1.7777  0.3018
 5153SOL    HW217660   3.772   4.092   3.880 -0.8501  0.8817 -1.5091
 5154SOL     OW17661   8.641   1.795   2.481 -0.0578  0.1733 -0.7020
 5154SOL    HW117662   8.670   1.730   2.417 -0.6246  0.1685 -0.9600
 5154SOL    HW217663   8.720   1.846   2.500  0.0438  0.4272 -1.7075
 5155SOL     OW17664   4.437   6.958   8.075  0.0441 -0.1416  0.2997
 5155SOL    HW117665   4.375   6.964   8.002  0.8326 -0.0284 -0.3670
 5155SOL    HW217666   4.404   7.021   8.139 -0.1148  0.4571 -0.3615
 5156SOL     OW17667   5.384   9.157   9.365 -0.3277  0.2370  0.0850
 5156SOL    HW117668   5.393   9.098   9.441 -1.8997 -0.9473 -0.5857
 5156SOL    HW217669   5.385   9.245   9.403  1.9146 -0.1569  1.1415
 5157SOL     OW17670   8.524   1.862   1.567  0.3992 -0.0342  0.5486
 5157SOL    HW117671   8.537   1.919   1.491  0.3616  0.1878  0.7070
 5157SOL    HW217672   8.485   1.782   1.531  0.4803  0.0268  0.3206
 5158SOL     OW17673   9.070   0.193   9.099  0.2167  0.0085 -0.2832
 5158SOL    HW117674   9.126   0.270   9.093  0.8819 -0.4717 -0.3893
 5158SOL    HW217675   9.106   0.132   9.034  1.1070 -1.2547  1.3045
 5159SOL     OW17676   1.350   5.750   1.023 -0.0592  0.1347 -0.4474
 5159SOL    HW117677   1.400   5.687   1.075 -0.2429  1.4982  1.4786
 5159SOL    HW217678   1.360   5.832   1.070 -1.0282  1.2452 -2.1054
 5160SOL     OW17679   5.837   2.849   6.641 -0.1539  0.0243  0.0353
 5160SOL    HW117680   5.767   2.893   6.689  0.4705  0.4341  0.5850
 5160SOL    HW217681   5.798   2.766   6.614 -1.5119  1.0907 -1.4560
 5161SOL     OW17682   3.942   1.932   1.578  0.4718 -0.4380 -0.2814
 5161SOL    HW117683   3.853   1.960   1.555  0.8240 -0.5857 -1.9675
 5161SOL    HW217684   3.994   2.013   1.576  1.1588 -0.8218 -3.5087
 5162SOL     OW17685   1.257   0.359   9.130 -0.0362 -0.2086 -0.0292
 5162SOL    HW117686   1.182   0.390   9.080  0.2376  0.5467  0.0205
 5162SOL    HW217687   1.279   0.431   9.188  0.1555 -0.7745  0.6173
 5163SOL     OW17688   8.484   3.736   9.171  0.5154 -0.8636  0.5629
 5163SOL    HW117689   8.498   3.777   9.086 -1.9390 -1.2575 -0.1015
 5163SOL    HW217690   8.446   3.804   9.226 -0.9738 -1.4415  0.2985
 5164SOL     OW17691   3.151   8.858   5.200 -0.4348  0.3702  0.3050
 5164SOL    HW117692   3.116   8.831   5.116  0.9974  1.6181 -0.7393
 5164SOL    HW217693   3.204   8.783   5.229 -0.9921 -0.0912  0.1552
 5165SOL     OW17694   2.447   5.816   5.737 -0.8833  0.0281 -0.7724
 5165SOL    HW117695   2.447   5.723   5.759 -0.9596 -0.3961 -2.4126
 5165SOL    HW217696   2.512   5.824   5.667 -1.8663  0.9319 -1.6178
 5166SOL     OW17697   3.552   5.636   7.019 -0.4844  0.1850 -0.1443
 5166SOL    HW117698   3.541   5.541   7.022 -1.9021  0.2995 -0.7969
 5166SOL    HW217699   3.622   5.651   6.955 -2.3675 -0.3465 -2.4867
 5167SOL     OW17700   2.819   2.858   0.611  0.2230 -0.1003 -0.6053
 5167SOL    HW117701   2.887   2.792   0.617  0.8621  0.6603  1.1345
 5167SOL    HW217702   2.771   2.836   0.531  1.3754 -1.7117 -0.8971
 5168SOL     OW17703   5.434   7.275   3.647  0.3607  0.3904  0.4750
 5168SOL    HW117704   5.345   7.301   3.672  0.3885  1.2777 -0.2942
 5168SOL    HW217705   5.452   7.198   3.701 -0.0087  1.5203  2.3036
 5169SOL     OW17706   0.465   1.655   9.248  0.2377  0.0480  0.5714
 5169SOL    HW117707   0.498   1.714   9.315  2.9339 -0.4714 -0.1637
 5169SOL    HW217708   0.527   1.664   9.176 -2.2762  0.2208 -1.7124
 5170SOL     OW17709   3.825   4.266   2.560 -0.7468  0.1576 -0.0498
 5170SOL    HW117710   3.866   4.222   2.485 -0.3332  1.3465 -0.5533
 5170SOL    HW217711   3.776   4.339   2.521 -0.8912  0.5336  0.8067
 5171SOL     OW17712   0.219   7.662   5.670 -1.1893 -0.3286  0.2301
 5171SOL    HW117713   0.148   7.617   5.716 -1.7531 -2.1173 -2.1823
 5171SOL    HW217714   0.174   7.714   5.603 -0.3588  1.4094  0.9688
 5172SOL     OW17715   6.249   6.535   1.800  0.2085  0.5900  0.0067
 5172SOL    HW117716   6.243   6.628   1.775  0.2649  0.3668 -0.8783
 5172SOL    HW217717   6.314   6.533   1.870 -1.1926  1.4726  1.4225
 5173SOL     OW17718   4.081   4.969   8.946  0.7965  0.0569  0.4752
 5173SOL    HW117719   4.149   4.909   8.914 -0.3014 -0.0456 -1.8917
 5173SOL    HW217720   4.122   5.055   8.947  0.9413  0.0434 -1.2329
 5174SOL     OW17721   2.817   1.081   9.070 -0.3752  0.1259  0.2553
 5174SOL    HW117722   2.773   1.139   9.008 -1.4380 -0.1650  0.7084
 5174SOL    HW217723   2.898   1.127   9.093  1.0978 -0.6605 -2.8534
 5175SOL     OW17724   1.909   2.326   6.196  0.0520 -0.3424 -0.8042
 5175SOL    HW117725   1.817   2.312   6.175  0.1000  1.1200 -2.2007
 5175SOL    HW217726   1.949   2.348   6.112  2.0941 -2.7534 -0.6051
 5176SOL     OW17727   4.307   0.888   4.389  0.4098  0.1167 -0.1251
 5176SOL    HW117728   4.227   0.842   4.417  1.8525 -1.4467  1.6697
 5176SOL    HW217729   4.311   0.965   4.447  0.1587  0.2753 -0.3127
 5177SOL     OW17730   5.117   0.058   6.516 -0.0677  0.3783 -0.2597
 5177SOL    HW117731   5.198   0.071   6.466 -0.2462  1.8955 -0.1970
 5177SOL    HW217732   5.103   0.141   6.562 -2.1881  0.5600 -1.0799
 5178SOL     OW17733   4.517   4.426   7.681 -0.7093  0.2770 -0.4111
 5178SOL    HW117734   4.570   4.361   7.634 -0.5405  1.2644 -1.6241
 5178SOL    HW217735   4.570   4.448   7.758 -1.5884 -2.3525  1.0977
 5179SOL     OW17736   4.949   4.603   6.401 -0.5558  0.5578  0.0726
 5179SOL    HW117737   4.954   4.556   6.319  0.3442  2.7003 -1.1901
 5179SOL    HW217738   5.005   4.553   6.461  1.0998  0.4830 -1.4648
 5180SOL     OW17739   8.647   9.046   2.686  0.3113 -0.7632 -0.1122
 5180SOL    HW117740   8.727   9.047   2.634 -0.8528  0.2562 -1.9853
 5180SOL    HW217741   8.576   9.045   2.622 -1.1952 -0.7375  1.4745
 5181SOL     OW17742   3.043   6.610   5.431  0.0990  0.4028 -0.2065
 5181SOL    HW117743   3.091   6.683   5.392  0.7402 -0.3161 -0.8048
 5181SOL    HW217744   3.084   6.598   5.517  1.6070 -0.7104 -1.0161
 5182SOL     OW17745   4.346   7.326   6.329 -0.0818  0.4359 -0.3448
 5182SOL    HW117746   4.366   7.406   6.378  2.3185 -0.0858 -0.3464
 5182SOL    HW217747   4.251   7.328   6.319 -0.2293  2.6561  0.7112
 5183SOL     OW17748   0.982   2.499   2.783 -0.0805 -0.4621 -0.3757
 5183SOL    HW117749   0.928   2.476   2.858  2.0249  0.1387  1.4075
 5183SOL    HW217750   1.006   2.416   2.743 -0.6974 -0.8237  0.0000
 5184SOL     OW17751   4.764   3.794   8.885  0.3314 -0.2796  0.4668
 5184SOL    HW117752   4.848   3.757   8.857  0.6246 -0.4036  1.4809
 5184SOL    HW217753   4.778   3.889   8.884  0.3991 -0.2897  0.3944
 5185SOL     OW17754   7.430   0.771   3.412  0.0154  0.0542  0.3063
 5185SOL    HW117755   7.453   0.755   3.503  0.4769  2.4122  0.6692
 5185SOL    HW217756   7.400   0.862   3.410  0.1499  0.1168 -1.9149
 5186SOL     OW17757   7.442   1.977   9.172 -0.3342  0.5961  0.1885
 5186SOL    HW117758   7.511   2.043   9.166 -0.2627  0.4371 -0.8207
 5186SOL    HW217759   7.485   1.895   9.151 -0.5362  0.2886  0.9344
 5187SOL     OW17760   8.910   0.489   7.670 -0.1801 -0.2665 -0.3044
 5187SOL    HW117761   8.817   0.471   7.679 -0.4877  1.0501 -0.6277
 5187SOL    HW217762   8.953   0.406   7.693 -1.5131 -1.8619 -3.0339
 5188SOL     OW17763   5.300   8.019   5.473  0.5424 -0.4027 -0.5968
 5188SOL    HW117764   5.256   8.052   5.394 -0.2053  0.7985  0.2780
 5188SOL    HW217765   5.361   8.089   5.497 -1.4114  0.6993  1.5777
 5189SOL     OW17766   3.677   7.719   7.756  0.6182  0.5248  0.4929
 5189SOL    HW117767   3.632   7.732   7.839 -1.3184 -1.2788 -0.1960
 5189SOL    HW217768   3.701   7.626   7.756  0.5096  0.4720 -0.9752
 5190SOL     OW17769   0.129   4.377   0.788 -0.3055 -0.3381 -1.0009
 5190SOL    HW117770   0.163   4.290   0.809  0.3840  0.2735  0.5524
 5190SOL    HW217771   0.177   4.403   0.710  0.2046 -0.9364 -0.8944
 5191SOL     OW17772   0.143   5.309   4.982 -0.6361  0.2634 -0.1948
 5191SOL    HW117773   0.131   5.353   4.898 -2.7834  1.3185  0.6011
 5191SOL    HW217774   0.229   5.336   5.012 -0.4970  1.1278 -1.3350
 5192SOL     OW17775   7.862   9.214   1.644  0.4303 -0.3188 -0.4759
 5192SOL    HW117776   7.863   9.119   1.657 -0.3778 -0.2090  0.5297
 5192SOL    HW217777   7.935   9.246   1.698  0.9505 -0.3883 -1.1227
 5193SOL     OW17778   3.411   5.376   6.983 -0.2975  0.2383  0.2217
 5193SOL    HW117779   3.445   5.396   6.896  0.7903 -0.3726  0.4924
 5193SOL    HW217780   3.346   5.444   6.999 -0.9701  0.0002 -1.3157
 5194SOL     OW17781   5.857   4.908   0.583  0.1050  0.2069  0.1266
 5194SOL    HW117782   5.842   4.840   0.648  0.8400 -0.9252 -0.8427
 5194SOL    HW217783   5.779   4.963   0.587 -1.3199 -1.6915 -0.2801
 5195SOL     OW17784   0.254   4.309   3.294 -0.4970 -0.0244 -0.2009
 5195SOL    HW117785   0.306   4.244   3.341 -0.2875  1.8072  2.2855
 5195SOL    HW217786   0.319   4.367   3.255 -0.6842 -0.0047 -0.4844
 5196SOL     OW17787   2.475   9.000   3.293 -0.3300  0.2355  0.3209
 5196SOL    HW117788   2.472   9.037   3.381  2.0480  1.4531 -0.0368
 5196SOL    HW217789   2.458   9.074   3.235 -2.4476 -0.6540 -0.3217
 5197SOL     OW17790   3.622   4.298   7.906 -0.6321 -0.6403 -0.0527
 5197SOL    HW117791   3.567   4.237   7.955 -0.9966 -1.6791 -1.6886
 5197SOL    HW217792   3.679   4.241   7.854 -1.1583  0.4060 -1.8212
 5198SOL     OW17793   1.042   4.661   0.787  0.4622 -0.0668  0.0563
 5198SOL    HW117794   0.951   4.662   0.756  0.4053 -1.7781  0.0784
 5198SOL    HW217795   1.074   4.750   0.770 -0.9582  0.3356 -0.6948
 5199SOL     OW17796   3.114   1.630   7.744 -0.2477  0.4088  0.3747
 5199SOL    HW117797   3.176   1.694   7.779 -0.1235 -0.5583  2.0557
 5199SOL    HW217798   3.168   1.552   7.729 -1.2858 -1.1529  3.8566
 5200SOL     OW17799   3.602   7.787   0.244  0.2571  0.0272  0.2650
 5200SOL    HW117800   3.653   7.864   0.219  0.8191 -0.9083 -1.6931
 5200SOL    HW217801   3.567   7.808   0.331  2.5970  1.3833  0.9702
 5201SOL     OW17802   4.786   0.762   5.739 -0.7007  0.1692  0.1655
 5201SOL    HW117803   4.881   0.764   5.724 -0.7358 -1.1306 -0.3579
 5201SOL    HW217804   4.777   0.754   5.834 -0.2356 -1.1293  0.1148
 5202SOL     OW17805   2.645   0.762   1.870  0.2522  0.7052 -0.6033
 5202SOL    HW117806   2.629   0.795   1.959  0.4124  1.6776 -0.9204
 5202SOL    HW217807   2.725   0.711   1.877 -0.1420  0.1323 -0.0455
 5203SOL     OW17808   8.056   1.556   5.026 -0.2314  0.5944  0.5372
 5203SOL    HW117809   8.099   1.522   4.947 -1.2163  1.9203 -0.6254
 5203SOL    HW217810   8.095   1.643   5.038  0.0542  0.3180  1.6427
 5204SOL     OW17811   0.317   6.072   0.519  0.6967 -0.1963 -0.8714
 5204SOL    HW117812   0.340   6.034   0.603 -0.6756 -0.6924 -0.6971
 5204SOL    HW217813   0.310   5.998   0.459  0.7464  0.0604 -1.2032
 5205SOL     OW17814   6.001   7.078   0.945  0.0503 -0.1472 -0.3584
 5205SOL    HW117815   6.009   7.007   0.881  0.1600 -0.2400 -0.2426
 5205SOL    HW217816   6.050   7.048   1.021  1.5999  0.8091 -0.9425
 5206SOL     OW17817   4.877   4.872   7.648 -0.2109 -0.3446  0.3425
 5206SOL    HW117818   4.810   4.836   7.590 -0.2790 -1.1549  0.9053
 5206SOL    HW217819   4.910   4.796   7.696  1.0071  0.0646  0.1843
 5207SOL     OW17820   5.898   2.879   5.462  0.0951  0.0035 -0.5769
 5207SOL    HW117821   5.974   2.821   5.455  0.0199 -0.2037  0.2138
 5207SOL    HW217822   5.862   2.861   5.549 -0.2714  0.8198 -0.5487
 5208SOL     OW17823   5.494   5.070   7.211 -0.0839 -0.1076 -0.0777
 5208SOL    HW117824   5.408   5.040   7.240  0.5623 -1.6827  0.3036
 5208SOL    HW217825   5.509   5.023   7.129  0.5824 -0.1869  0.0843
 5209SOL     OW17826   2.519   6.236   6.555  0.0150  0.0366 -0.2500
 5209SOL    HW117827   2.599   6.224   6.503 -1.3888 -1.1958 -2.2742
 5209SOL    HW217828   2.512   6.157   6.608  0.0515  0.0604 -0.2095
 5210SOL     OW17829   8.630   2.680   9.515  0.4708  0.0834  0.1950
 5210SOL    HW117830   8.562   2.630   9.561  1.7580 -1.0591  0.9453
 5210SOL    HW217831   8.642   2.633   9.433 -0.1686  0.7484 -0.2955
 5211SOL     OW17832   3.755   4.001   3.009  0.2239  0.0455  0.4092
 5211SOL    HW117833   3.749   4.055   2.931  1.8325  0.7040  0.7204
 5211SOL    HW217834   3.837   4.027   3.051  0.6484 -2.0510  1.0005
 5212SOL     OW17835   7.880   0.159   1.729  0.1557 -0.3501 -0.1143
 5212SOL    HW117836   7.830   0.083   1.758  0.6267 -0.7348 -0.2925
 5212SOL    HW217837   7.824   0.234   1.748 -1.1086 -0.8583 -1.5757
 5213SOL     OW17838   7.166   2.670   2.924  0.0036 -0.0988 -0.7410
 5213SOL    HW117839   7.162   2.599   2.988  0.6597  0.8210  0.3464
 5213SOL    HW217840   7.079   2.710   2.928 -0.0316 -0.1869 -0.5979
 5214SOL     OW17841   1.181   8.557   3.951 -0.1958  0.0722 -0.4384
 5214SOL    HW117842   1.167   8.472   3.909  1.2891 -0.1822 -0.4603
 5214SOL    HW217843   1.134   8.620   3.896  0.8543 -0.3924 -1.9108
 5215SOL     OW17844   4.116   2.552   1.983  0.8379  0.7054 -0.5649
 5215SOL    HW117845   4.190   2.613   1.978  1.2991  0.1210 -1.1313
 5215SOL    HW217846   4.156   2.468   2.003  0.1170  0.7425  1.1606
 5216SOL     OW17847   4.308   5.780   1.584 -0.2852  0.3694  0.0930
 5216SOL    HW117848   4.228   5.741   1.549 -0.4176  0.9466 -0.2592
 5216SOL    HW217849   4.322   5.736   1.667 -0.3324 -0.5636 -0.3805
 5217SOL     OW17850   3.179   0.236   0.119 -0.5030  0.0292 -0.2941
 5217SOL    HW117851   3.217   0.175   0.182 -0.7644 -0.2785 -0.4286
 5217SOL    HW217852   3.115   0.286   0.170 -1.9302 -1.3606 -0.6512
 5218SOL     OW17853   8.137   4.835   4.801  0.3435  0.2936 -0.0169
 5218SOL    HW117854   8.184   4.751   4.804  0.2334  0.2000 -0.7855
 5218SOL    HW217855   8.196   4.893   4.753 -0.9439 -0.2498 -2.4299
 5219SOL     OW17856   3.533   3.698   3.903  0.0301  0.3307 -0.0673
 5219SOL    HW117857   3.521   3.666   3.993 -0.0443 -0.7731 -0.4545
 5219SOL    HW217858   3.627   3.712   3.895  0.0938 -0.0234  0.0390
 5220SOL     OW17859   7.467   3.169   9.506 -0.2366  0.1616 -0.0236
 5220SOL    HW117860   7.443   3.076   9.506 -1.9686  0.5293  2.7599
 5220SOL    HW217861   7.467   3.194   9.598  0.1426  2.9827 -0.7169
 5221SOL     OW17862   5.064   9.252   3.831  0.1082  0.4345 -0.1024
 5221SOL    HW117863   5.026   9.237   3.745  0.6331  1.4818 -0.5350
 5221SOL    HW217864   5.007   9.318   3.871  0.1405  0.3054  0.1574
 5222SOL     OW17865   2.061   7.191   4.650 -0.1329 -0.5697  0.2440
 5222SOL    HW117866   2.051   7.276   4.691  2.0978 -0.2000  0.1340
 5222SOL    HW217867   2.033   7.205   4.559 -2.1278 -0.6262  0.8003
 5223SOL     OW17868   3.155   8.219   5.426  0.2242  0.4976  0.2467
 5223SOL    HW117869   3.172   8.143   5.483  2.3509  1.2227  0.6441
 5223SOL    HW217870   3.227   8.219   5.364 -1.2133  0.6614 -1.5059
 5224SOL     OW17871   3.859   4.639   5.577  0.5565  0.5586  0.4921
 5224SOL    HW117872   3.776   4.610   5.614  0.2949 -0.1333 -0.6148
 5224SOL    HW217873   3.921   4.570   5.601  0.2926 -0.1090 -0.7173
 5225SOL     OW17874   0.962   6.895   8.983  0.1629 -0.0685 -0.0007
 5225SOL    HW117875   0.990   6.867   9.070  2.5358  2.7542  0.2921
 5225SOL    HW217876   1.041   6.888   8.930 -0.9734 -0.6495 -1.6910
 5226SOL     OW17877   0.343   4.862   0.673 -0.5466  0.0387  0.1514
 5226SOL    HW117878   0.393   4.793   0.718  1.9783  0.5901 -1.6093
 5226SOL    HW217879   0.330   4.829   0.584  0.2343  1.5756 -0.5697
 5227SOL     OW17880   8.494   0.837   6.996  0.1673 -0.3970  0.0728
 5227SOL    HW117881   8.539   0.872   7.073  0.6343 -0.0873 -0.3300
 5227SOL    HW217882   8.501   0.742   7.005 -0.1335 -0.3693  0.6166
 5228SOL     OW17883   9.364   1.128   8.507 -0.2524 -1.1277  0.5075
 5228SOL    HW117884   9.319   1.113   8.424 -1.2910 -2.2813  1.2397
 5228SOL    HW217885   9.294   1.150   8.569  0.5641  0.2832  0.9829
 5229SOL     OW17886   2.106   2.985   9.564 -0.0771  0.2424  0.3205
 5229SOL    HW117887   2.194   3.009   9.535 -0.1914  0.8529  0.4483
 5229SOL    HW217888   2.106   2.890   9.570  0.1330  0.1481 -1.0834
 5230SOL     OW17889   3.964   0.111   4.805  0.4582 -0.5456 -0.1386
 5230SOL    HW117890   4.039   0.122   4.864 -1.0162  0.2663  1.6830
 5230SOL    HW217891   3.995   0.051   4.738  2.6779 -0.3872  0.6561
 5231SOL     OW17892   4.631   4.686   3.373  0.1714 -0.5727  0.5612
 5231SOL    HW117893   4.677   4.644   3.301 -0.3160  0.2222 -0.2270
 5231SOL    HW217894   4.554   4.632   3.388 -0.3097 -0.1340 -0.2684
 5232SOL     OW17895   1.103   0.808   2.583  0.2459  0.3658  0.3426
 5232SOL    HW117896   1.021   0.773   2.547 -0.1610  1.6186 -0.0066
 5232SOL    HW217897   1.075   0.874   2.647  0.9814  0.4379  0.5956
 5233SOL     OW17898   0.093   1.754   5.571  0.0574  0.0834 -0.3972
 5233SOL    HW117899   0.150   1.827   5.546 -1.8165  2.0554  0.7687
 5233SOL    HW217900   0.137   1.714   5.646  0.2141  1.1930  0.1180
 5234SOL     OW17901   4.793   9.138   2.590 -0.2452 -0.0134 -0.4251
 5234SOL    HW117902   4.867   9.115   2.533 -0.9780 -0.4567 -1.2168
 5234SOL    HW217903   4.717   9.101   2.547 -0.8728 -0.0584  0.6796
 5235SOL     OW17904   8.709   2.625   6.738 -0.6445  0.0250 -0.0355
 5235SOL    HW117905   8.641   2.609   6.673 -0.3903 -3.9038  0.4253
 5235SOL    HW217906   8.668   2.603   6.822  1.0862 -2.7021  0.2268
 5236SOL     OW17907   5.441   6.428   0.183  0.1017  0.6271 -0.3972
 5236SOL    HW117908   5.380   6.355   0.194  1.4064 -0.2333  1.6416
 5236SOL    HW217909   5.517   6.390   0.139  2.1280 -0.1767  3.4245
 5237SOL     OW17910   5.450   4.856   3.901  0.0083 -0.7568  0.7160
 5237SOL    HW117911   5.359   4.842   3.876 -0.2670  1.2898  0.4316
 5237SOL    HW217912   5.446   4.893   3.990  0.5606 -0.7012  0.7249
 5238SOL     OW17913   4.694   1.975   4.651 -0.1275 -0.8324 -0.8779
 5238SOL    HW117914   4.611   1.994   4.693  0.6270 -0.5435  0.5332
 5238SOL    HW217915   4.699   1.879   4.649  0.4768 -0.8860  1.1109
 5239SOL     OW17916   1.817   4.379   9.065 -0.8018  0.3689 -0.0689
 5239SOL    HW117917   1.855   4.430   9.137 -0.6908 -1.7394  1.4641
 5239SOL    HW217918   1.725   4.404   9.064 -0.6153  1.0843  0.2352
 5240SOL     OW17919   3.493   2.503   4.550  0.3744  0.2523 -0.2478
 5240SOL    HW117920   3.514   2.593   4.574  0.3576  0.2778 -0.3305
 5240SOL    HW217921   3.575   2.455   4.563 -0.2780 -0.3070  2.6047
 5241SOL     OW17922   5.363   7.376   9.446  0.3319 -0.3164  0.0978
 5241SOL    HW117923   5.404   7.428   9.516 -0.0699  0.6566 -0.3789
 5241SOL    HW217924   5.313   7.310   9.493  0.2874  0.1586  0.7404
 5242SOL     OW17925   4.679   0.698   4.132 -0.2560  0.2942 -0.1919
 5242SOL    HW117926   4.769   0.725   4.117  0.3080 -1.5371 -0.3097
 5242SOL    HW217927   4.626   0.770   4.097  1.1386  1.4188 -0.0609
 5243SOL     OW17928   1.973   8.086   8.785 -0.1158 -0.6480 -0.0359
 5243SOL    HW117929   1.893   8.130   8.757  0.2418 -0.6986 -1.2111
 5243SOL    HW217930   2.035   8.156   8.804 -0.8707 -0.5543  2.3923
 5244SOL     OW17931   9.068   5.072   8.743 -0.2675 -0.5426 -0.9996
 5244SOL    HW117932   9.079   5.162   8.712 -1.3017 -0.5928 -1.5605
 5244SOL    HW217933   9.021   5.082   8.826  2.5202 -0.4057  0.7124
 5245SOL     OW17934   8.532   0.523   0.543  0.2031  0.4401 -0.2918
 5245SOL    HW117935   8.470   0.492   0.478  0.3945  0.6369 -0.5731
 5245SOL    HW217936   8.489   0.599   0.583 -1.4222 -1.6453  2.2529
 5246SOL     OW17937   9.010   4.173   5.411  0.1753 -0.5077 -0.1692
 5246SOL    HW117938   9.065   4.206   5.482  1.5794  0.3754 -1.6031
 5246SOL    HW217939   8.970   4.251   5.373 -0.1031 -0.8991 -0.7016
 5247SOL     OW17940   4.589   7.152   3.037  0.0251 -0.1481 -0.2366
 5247SOL    HW117941   4.496   7.136   3.022 -0.1549 -0.7989  1.4303
 5247SOL    HW217942   4.602   7.244   3.015 -1.2998  0.2976  0.7497
 5248SOL     OW17943   3.355   1.821   3.930 -0.8152  0.4394  0.0220
 5248SOL    HW117944   3.283   1.846   3.988  0.0525 -1.6322  2.1920
 5248SOL    HW217945   3.382   1.903   3.888 -3.0689  1.6155  0.7067
 5249SOL     OW17946   8.044   1.724   8.350  0.2540 -0.2448  0.4175
 5249SOL    HW117947   8.038   1.654   8.415 -0.1119 -1.1263 -0.5384
 5249SOL    HW217948   8.055   1.804   8.402  0.2693 -0.9529  1.5439
 5250SOL     OW17949   2.245   3.452   4.709  0.0061  0.3674  0.4311
 5250SOL    HW117950   2.233   3.494   4.794 -2.1379  3.3930 -1.1920
 5250SOL    HW217951   2.167   3.397   4.698  0.6461 -0.6144  0.6914
 5251SOL     OW17952   7.922   1.523   4.769 -0.5596 -0.1966  0.5039
 5251SOL    HW117953   7.861   1.525   4.843  0.0626  0.5163  1.0136
 5251SOL    HW217954   8.005   1.492   4.806 -0.3570 -0.2484  0.0149
 5252SOL     OW17955   9.422   7.717   0.358 -0.0352 -0.2256  0.3151
 5252SOL    HW117956   9.471   7.785   0.313  1.3511 -0.5743  1.2183
 5252SOL    HW217957   9.423   7.744   0.450  1.6274 -2.0123  0.8997
 5253SOL     OW17958   0.373   4.285   2.119  0.1079 -0.2724  0.7238
 5253SOL    HW117959   0.290   4.319   2.152  1.0112 -0.1083  3.0835
 5253SOL    HW217960   0.358   4.191   2.108 -0.9394  0.0450 -0.9130
 5254SOL     OW17961   1.638   8.172   0.317  0.7469  0.5626 -0.2054
 5254SOL    HW117962   1.598   8.107   0.260 -0.1709  2.3725 -1.7625
 5254SOL    HW217963   1.674   8.122   0.391  0.7095 -1.7213 -1.6549
 5255SOL     OW17964   0.218   8.626   6.990 -0.4161  0.3766  0.0331
 5255SOL    HW117965   0.163   8.656   7.062 -0.0091  0.7863  0.1734
 5255SOL    HW217966   0.238   8.706   6.941 -0.6709  0.1055 -0.5229
 5256SOL     OW17967   2.202   7.730   7.417  0.5772  0.5457  0.6198
 5256SOL    HW117968   2.202   7.826   7.415  1.4545  0.5511 -0.2794
 5256SOL    HW217969   2.166   7.707   7.503 -2.6747  1.6210 -0.2821
 5257SOL     OW17970   5.533   0.142   7.031  0.1059  0.2670 -0.3896
 5257SOL    HW117971   5.488   0.066   7.068  0.9612 -0.2526 -0.3914
 5257SOL    HW217972   5.626   0.125   7.046  0.2663  1.8290  0.5777
 5258SOL     OW17973   9.106   5.822   7.855  0.3159  0.0666  0.6700
 5258SOL    HW117974   9.158   5.870   7.791 -0.8047 -0.8600 -1.0123
 5258SOL    HW217975   9.018   5.818   7.817 -0.9782  1.2864  3.2529
 5259SOL     OW17976   0.706   4.632   1.569 -0.1613  0.1178 -0.4055
 5259SOL    HW117977   0.644   4.684   1.518  0.0544 -0.8883 -1.7411
 5259SOL    HW217978   0.669   4.544   1.570 -0.0002  0.0450  0.9337
 5260SOL     OW17979   8.898   1.548   7.564 -0.3299  0.0883 -0.7920
 5260SOL    HW117980   8.891   1.465   7.517  1.6001  0.3130 -1.5558
 5260SOL    HW217981   8.948   1.526   7.643 -1.4361  0.1935 -0.0343
 5261SOL     OW17982   7.124   0.781   7.642 -0.2770  0.0780  0.6331
 5261SOL    HW117983   7.093   0.698   7.680  1.3681 -1.0031 -0.2591
 5261SOL    HW217984   7.114   0.769   7.548 -0.1777  0.9807  0.5025
 5262SOL     OW17985   7.459   0.972   5.291  0.1868  0.2923 -0.2055
 5262SOL    HW117986   7.424   0.908   5.353  0.3376  0.1285 -0.2893
 5262SOL    HW217987   7.433   0.939   5.205  0.1816  0.3944 -0.2429
 5263SOL     OW17988   4.808   4.519   8.280  0.0020  0.2597 -0.0090
 5263SOL    HW117989   4.853   4.589   8.327 -0.8269 -0.3551  1.7816
 5263SOL    HW217990   4.730   4.560   8.245 -1.2612  0.0049  2.2937
 5264SOL     OW17991   7.948   1.345   3.726  0.1766  0.1101  0.0616
 5264SOL    HW117992   7.983   1.419   3.776  1.5560 -0.6618  0.2759
 5264SOL    HW217993   8.011   1.274   3.739  0.2343 -0.3484 -2.2056
 5265SOL     OW17994   4.022   9.112   4.474  0.6557 -0.1944  0.7342
 5265SOL    HW117995   4.113   9.116   4.504  0.4326 -2.4704  1.9994
 5265SOL    HW217996   3.978   9.058   4.540 -1.3343 -0.1765 -0.4990
 5266SOL     OW17997   1.096   3.895   9.154  0.1087 -0.5690 -0.4745
 5266SOL    HW117998   1.112   3.854   9.069 -0.3867 -1.0657 -0.3386
 5266SOL    HW217999   1.052   3.826   9.205 -1.2470  0.2990 -0.4195
 5267SOL     OW18000   0.797   8.731   4.373 -0.3026  0.2196 -0.3704
 5267SOL    HW118001   0.718   8.763   4.329 -0.7397 -0.8214 -0.3770
 5267SOL    HW218002   0.856   8.708   4.301  0.2198  1.4407 -0.3653
 5268SOL     OW18003   7.263   3.086   3.492  0.2956  0.0870  0.1897
 5268SOL    HW118004   7.311   3.166   3.512 -0.0119  0.0293  1.2496
 5268SOL    HW218005   7.327   3.016   3.501  0.3380  0.1312  0.2309
 5269SOL     OW18006   4.415   1.062   5.501 -0.6288 -0.1391 -0.2740
 5269SOL    HW118007   4.468   0.985   5.482  0.1017 -0.1098  1.4851
 5269SOL    HW218008   4.362   1.037   5.576 -1.0083  0.8005 -0.2162
 5270SOL     OW18009   0.537   5.184   3.374 -0.4427  0.3370 -0.2635
 5270SOL    HW118010   0.625   5.188   3.337  0.7732 -0.5518  2.2672
 5270SOL    HW218011   0.510   5.275   3.385  0.5603  0.6320 -0.2118
 5271SOL     OW18012   3.920   1.360   9.445 -0.1654  0.3840  0.2237
 5271SOL    HW118013   4.015   1.368   9.448  0.0603 -0.7756 -1.9232
 5271SOL    HW218014   3.901   1.284   9.500  0.1813  0.4275  0.4057
 5272SOL     OW18015   9.045   1.578   1.492  0.5824  0.4607 -0.2356
 5272SOL    HW118016   9.110   1.609   1.429  2.3034  0.6353  1.5218
 5272SOL    HW218017   9.076   1.612   1.576 -2.0325  0.8686  0.6288
 5273SOL     OW18018   1.120   9.468   2.351 -1.1642 -0.8459  0.6100
 5273SOL    HW118019   1.157   9.546   2.310 -0.3327 -1.4249  0.2247
 5273SOL    HW218020   1.183   9.398   2.330 -2.2879 -1.7863  0.2486
 5274SOL     OW18021   1.047   7.229   9.028 -0.1793  0.3520  0.3817
 5274SOL    HW118022   0.990   7.153   9.016 -1.3660  1.0991  1.1312
 5274SOL    HW218023   1.005   7.298   8.977 -0.2406  1.0526  1.3565
 5275SOL     OW18024   4.680   2.690   4.266 -0.0096  0.2794 -0.3440
 5275SOL    HW118025   4.705   2.704   4.357 -0.2598  0.8504 -0.3625
 5275SOL    HW218026   4.591   2.726   4.259 -0.6438 -1.2179 -0.4145
 5276SOL     OW18027   6.847   9.135   4.997 -0.7243 -0.2383 -0.0296
 5276SOL    HW118028   6.865   9.107   4.907 -0.8218  1.0570 -0.4805
 5276SOL    HW218029   6.767   9.187   4.990 -0.4868  0.2500  0.7267
 5277SOL     OW18030   2.396   7.074   1.530 -0.1182  0.6641  0.2778
 5277SOL    HW118031   2.373   6.991   1.489  0.2098  0.4823  0.4590
 5277SOL    HW218032   2.329   7.135   1.499  0.9181  0.8865 -1.6758
 5278SOL     OW18033   7.595   2.535   2.124 -0.0384 -0.0601 -0.6705
 5278SOL    HW118034   7.526   2.531   2.191  2.3315  0.9838  2.0492
 5278SOL    HW218035   7.639   2.618   2.140  2.4025 -1.0787 -1.6715
 5279SOL     OW18036   6.019   3.599   5.733 -0.4919 -0.0013  0.1811
 5279SOL    HW118037   6.013   3.694   5.746  0.0910  0.0168  0.3288
 5279SOL    HW218038   6.028   3.589   5.638 -3.4225 -0.0699 -0.1942
 5280SOL     OW18039   3.364   1.851   0.440 -0.0028 -0.2222 -0.1963
 5280SOL    HW118040   3.368   1.757   0.426  1.6797 -0.0029 -1.5300
 5280SOL    HW218041   3.307   1.862   0.517  0.8426 -2.3982  0.8145
 5281SOL     OW18042   7.934   7.650   7.206 -0.1775 -0.1312 -0.2235
 5281SOL    HW118043   7.949   7.610   7.121  0.9197  0.5507 -0.3651
 5281SOL    HW218044   8.020   7.651   7.248 -0.8663 -1.3549  1.3079
 5282SOL     OW18045   8.647   6.076   2.767 -0.1200  0.3511 -0.2787
 5282SOL    HW118046   8.667   6.106   2.678  0.2487 -0.9873 -0.6719
 5282SOL    HW218047   8.607   6.151   2.809  3.9198  2.6777 -0.0547
 5283SOL     OW18048   8.620   4.864   3.665 -0.4945 -0.3199 -0.4848
 5283SOL    HW118049   8.635   4.952   3.697 -0.0959 -0.5352 -0.0712
 5283SOL    HW218050   8.656   4.864   3.576  0.9506 -0.4935  0.0659
 5284SOL     OW18051   4.482   8.217   9.152  0.5672  0.3245 -0.3506
 5284SOL    HW118052   4.522   8.134   9.128 -0.0658 -0.7522  1.9809
 5284SOL    HW218053   4.481   8.217   9.248 -1.0114  2.2544 -0.2785
 5285SOL     OW18054   6.996   2.812   1.591  0.0789 -0.3702  0.3386
 5285SOL    HW118055   6.985   2.743   1.657  1.1721 -1.7738 -0.8664
 5285SOL    HW218056   7.014   2.764   1.509 -2.0644  1.2500 -1.2037
 5286SOL     OW18057   1.527   9.077   3.205  0.1564 -0.0932 -0.0680
 5286SOL    HW118058   1.589   9.122   3.262 -0.4517  0.9295 -0.1802
 5286SOL    HW218059   1.441   9.104   3.238 -0.2197 -0.6619 -0.5561
 5287SOL     OW18060   2.386   1.606   6.609 -0.0745  0.6536 -0.2369
 5287SOL    HW118061   2.304   1.561   6.632  0.1002  0.7291  0.5610
 5287SOL    HW218062   2.454   1.540   6.620  0.1599  1.0361  0.7452
 5288SOL     OW18063   6.191   4.434   7.678 -0.1445 -0.3844  0.5080
 5288SOL    HW118064   6.133   4.511   7.681  0.6053  0.2567 -0.7059
 5288SOL    HW218065   6.235   4.440   7.593 -0.5535 -2.5332  0.0768
 5289SOL     OW18066   2.683   5.692   9.431  0.3758  0.1770 -0.3870
 5289SOL    HW118067   2.769   5.682   9.473 -0.4510 -2.5458  0.8864
 5289SOL    HW218068   2.636   5.753   9.488  0.6421 -0.2799  0.3386
 5290SOL     OW18069   7.923   1.625   4.352 -0.3212 -0.5832 -0.2309
 5290SOL    HW118070   7.954   1.561   4.288  0.1213 -1.7325  1.0720
 5290SOL    HW218071   7.985   1.698   4.344  0.7879 -1.4580  0.0777
 5291SOL     OW18072   6.105   2.817   6.612  0.3794  0.6220  0.3114
 5291SOL    HW118073   6.012   2.840   6.617 -0.5896 -2.1198 -2.3151
 5291SOL    HW218074   6.116   2.748   6.678  0.7419  1.3229  1.0047
 5292SOL     OW18075   3.612   9.489   7.595  0.5657 -0.1052 -0.1617
 5292SOL    HW118076   3.649   9.411   7.636 -0.8808 -0.6832  0.1162
 5292SOL    HW218077   3.688   9.542   7.571  1.6156 -1.8252 -0.8208
 5293SOL     OW18078   2.022   8.076   6.299  0.0072  0.0769 -0.0899
 5293SOL    HW118079   2.057   8.152   6.347  0.8439 -0.5096  0.2422
 5293SOL    HW218080   2.093   8.012   6.300 -0.8489 -0.9003  0.0395
 5294SOL     OW18081   8.788   1.736   3.731  0.2469 -0.0148  0.1676
 5294SOL    HW118082   8.824   1.731   3.643 -0.3779  0.6865 -0.1388
 5294SOL    HW218083   8.702   1.778   3.720  0.8223  1.5595  1.2994
 5295SOL     OW18084   4.127   4.047   0.313  0.7157 -0.2108  0.4543
 5295SOL    HW118085   4.221   4.064   0.304  0.8314 -1.2364 -0.4356
 5295SOL    HW218086   4.121   3.954   0.333 -0.1214 -0.2278  0.1549
 5296SOL     OW18087   9.073   9.108   4.656  0.4600 -0.5549  0.3430
 5296SOL    HW118088   9.006   9.056   4.611 -1.0228  0.5112  1.2253
 5296SOL    HW218089   9.039   9.198   4.655  2.1132  0.1238  0.4156
 5297SOL     OW18090   5.511   6.347   7.198  0.3043  0.4210  0.4817
 5297SOL    HW118091   5.542   6.260   7.222  1.4071  1.1879  2.0306
 5297SOL    HW218092   5.467   6.380   7.276  0.8535  1.6564  0.3049
 5298SOL     OW18093   6.043   7.986   9.524 -0.0503  0.0827 -0.4862
 5298SOL    HW118094   6.070   7.942   9.443  0.3466  0.5558 -0.6077
 5298SOL    HW218095   6.041   8.079   9.502  0.5673  0.2653  0.1878
 5299SOL     OW18096   6.840   1.907   5.996 -0.1319 -0.2931  0.3420
 5299SOL    HW118097   6.902   1.872   6.060 -0.9953 -2.4819  0.0624
 5299SOL    HW218098   6.883   1.986   5.961  1.5402 -0.5878  1.6344
 5300SOL     OW18099   5.159   7.972   3.420  0.0705 -0.9818 -0.4086
 5300SOL    HW118100   5.225   7.903   3.432  2.3614  0.8189 -1.9070
 5300SOL    HW218101   5.124   7.956   3.333  0.1717 -0.6080 -0.5174
 5301SOL     OW18102   6.773   7.036   1.238 -0.0274 -0.4220  0.4213
 5301SOL    HW118103   6.830   7.075   1.304 -1.0695 -2.3757  2.5923
 5301SOL    HW218104   6.691   7.085   1.245  0.6942  1.2361 -1.5078
 5302SOL     OW18105   2.610   6.558   4.388  0.0440  0.2305  0.6413
 5302SOL    HW118106   2.694   6.520   4.413  0.5063  0.9322  0.1862
 5302SOL    HW218107   2.628   6.651   4.374 -0.6198  0.2467 -0.2530
 5303SOL     OW18108   1.056   2.721   9.276 -0.0718 -0.4034 -0.0987
 5303SOL    HW118109   1.048   2.695   9.184  0.0814  0.0788 -0.2500
 5303SOL    HW218110   0.966   2.736   9.305 -0.0050  2.3788 -1.0398
 5304SOL     OW18111   3.360   1.901   7.366  0.2213  0.3597 -0.5163
 5304SOL    HW118112   3.318   1.965   7.309  0.3424 -0.0125 -1.0300
 5304SOL    HW218113   3.325   1.919   7.453  0.2435  1.1138 -0.6589
 5305SOL     OW18114   2.089   3.044   5.670  0.0631 -0.1629  0.2317
 5305SOL    HW118115   2.007   3.007   5.704 -0.0806  0.8420  1.0166
 5305SOL    HW218116   2.137   3.071   5.748  0.0069  1.6222 -0.3109
 5306SOL     OW18117   5.939   5.360   0.798  0.1337  0.2092 -0.5958
 5306SOL    HW118118   5.889   5.372   0.718 -1.5708  0.9067  0.5164
 5306SOL    HW218119   6.013   5.305   0.772 -0.5865  0.0819 -2.5427
 5307SOL     OW18120   0.347   1.113   1.708  0.1843  0.2035  0.6871
 5307SOL    HW118121   0.416   1.168   1.672 -0.1189  0.4126  0.4134
 5307SOL    HW218122   0.316   1.062   1.634  0.0374  0.1178  0.8063
 5308SOL     OW18123   2.856   4.158   2.653 -0.0488  0.2499 -0.5099
 5308SOL    HW118124   2.794   4.222   2.619 -0.2138  0.9648  1.0381
 5308SOL    HW218125   2.942   4.194   2.634 -0.1411  1.1016  0.5914
 5309SOL     OW18126   0.866   9.444   1.330 -0.7060  0.1557 -0.2309
 5309SOL    HW118127   0.793   9.444   1.268 -0.4703  3.4740 -0.6765
 5309SOL    HW218128   0.830   9.480   1.410  0.1041  0.4571  0.0120
 5310SOL     OW18129   0.395   6.543   4.425 -0.5689 -0.3927  0.0359
 5310SOL    HW118130   0.354   6.601   4.362  1.0298  0.7436 -0.0372
 5310SOL    HW218131   0.462   6.598   4.467  0.2948 -1.8982  0.7057
 5311SOL     OW18132   4.671   3.010   5.161 -0.0337 -0.4893  0.2677
 5311SOL    HW118133   4.646   3.073   5.094  2.4416  1.3040  0.9019
 5311SOL    HW218134   4.598   3.010   5.223  0.0202  2.0905  0.4335
 5312SOL     OW18135   7.453   5.888   2.590  0.1522 -0.2948  0.3338
 5312SOL    HW118136   7.481   5.938   2.513 -0.2721  1.5152  1.2800
 5312SOL    HW218137   7.465   5.797   2.565 -2.2213  0.0701 -2.7899
 5313SOL     OW18138   7.786   7.018   2.108  0.1749  0.0049 -0.2172
 5313SOL    HW118139   7.757   6.941   2.060 -2.3405  0.9379 -0.3754
 5313SOL    HW218140   7.845   7.063   2.048 -0.6507 -0.3140 -1.3109
 5314SOL     OW18141   2.208   7.688   2.383 -0.1731  0.3257 -0.6092
 5314SOL    HW118142   2.287   7.705   2.434 -0.9000 -1.0961  1.0954
 5314SOL    HW218143   2.227   7.607   2.335 -1.1907 -1.1354  1.3075
 5315SOL     OW18144   5.988   9.341   3.686  0.2328 -0.2605 -0.1547
 5315SOL    HW118145   5.919   9.407   3.674 -1.7712 -2.2177 -0.1432
 5315SOL    HW218146   5.965   9.297   3.768  1.8785 -0.5640  0.1724
 5316SOL     OW18147   1.122   6.366   7.516  0.4653 -0.4659 -0.1904
 5316SOL    HW118148   1.109   6.299   7.582 -1.7433 -0.9854 -1.0836
 5316SOL    HW218149   1.055   6.432   7.534  1.1268  0.3777 -0.7193
 5317SOL     OW18150   1.636   6.325   7.362 -0.3203  0.6734  0.3306
 5317SOL    HW118151   1.631   6.338   7.457  0.7427 -1.9412  0.8305
 5317SOL    HW218152   1.727   6.343   7.340 -0.4883  0.9556 -0.1430
 5318SOL     OW18153   7.923   6.849   4.581 -0.0307 -0.2656 -0.0355
 5318SOL    HW118154   8.018   6.852   4.593 -0.2020 -2.9329  4.5964
 5318SOL    HW218155   7.889   6.919   4.637 -0.7843 -0.6949  0.0696
 5319SOL     OW18156   0.665   0.660   5.424 -0.2457  0.0998 -0.2161
 5319SOL    HW118157   0.639   0.678   5.334 -1.1107  1.6329  0.3053
 5319SOL    HW218158   0.670   0.746   5.466  0.3627 -0.5603  1.1472
 5320SOL     OW18159   0.119   7.342   5.548 -0.1226 -0.2128 -0.4265
 5320SOL    HW118160   0.052   7.287   5.506 -0.0368  0.3114 -1.2887
 5320SOL    HW218161   0.077   7.427   5.559 -0.0184 -0.2446  0.2215
 5321SOL     OW18162   2.590   1.810   8.285 -0.4915 -0.1004 -0.4040
 5321SOL    HW118163   2.526   1.794   8.216 -0.6071  2.9275 -1.1322
 5321SOL    HW218164   2.674   1.783   8.248 -0.7254  0.3288 -1.2570
 5322SOL     OW18165   6.811   4.083   7.547  0.1359  0.1048 -0.5495
 5322SOL    HW118166   6.787   3.992   7.528  3.4455 -1.4152  1.5757
 5322SOL    HW218167   6.876   4.105   7.480 -0.1574  0.7064 -0.6475
 5323SOL     OW18168   9.416   6.551   3.599  1.0615  0.3541  0.6093
 5323SOL    HW118169   9.458   6.636   3.612  1.2466  0.4553 -0.5663
 5323SOL    HW218170   9.329   6.571   3.566  0.7674  0.0985  1.2066
 5324SOL     OW18171   6.917   1.962   6.699  0.3102 -0.0541 -0.0446
 5324SOL    HW118172   6.948   2.052   6.707  1.0730 -0.1249 -1.7928
 5324SOL    HW218173   6.942   1.920   6.781  2.2221  0.6859 -0.2065
 5325SOL     OW18174   3.538   2.403   5.328  0.1501  0.1249 -0.5920
 5325SOL    HW118175   3.490   2.390   5.247  3.0318 -1.7569 -2.1626
 5325SOL    HW218176   3.566   2.495   5.326  0.8978 -0.1141 -2.2061
 5326SOL     OW18177   1.359   2.494   7.742 -0.3813 -0.1749  0.6990
 5326SOL    HW118178   1.421   2.426   7.765  0.2076 -0.0066 -0.3375
 5326SOL    HW218179   1.411   2.560   7.696 -1.1943  0.3052  0.4417
 5327SOL     OW18180   5.108   9.432   5.807  0.2034 -0.2384  0.1617
 5327SOL    HW118181   5.089   9.338   5.803  1.1845 -0.4293 -0.2220
 5327SOL    HW218182   5.203   9.436   5.817  0.3526  0.7424 -1.4121
 5328SOL     OW18183   0.675   0.402   5.399 -0.3805  0.2211 -0.5802
 5328SOL    HW118184   0.608   0.371   5.460  0.7534  0.4362  0.8305
 5328SOL    HW218185   0.692   0.492   5.425  0.5988  0.1100 -0.7768
 5329SOL     OW18186   4.741   0.785   7.754  0.6438  0.6480  0.1406
 5329SOL    HW118187   4.692   0.790   7.672  1.1897  0.9097 -0.1773
 5329SOL    HW218188   4.675   0.764   7.820 -0.0271  1.7222 -0.1511
 5330SOL     OW18189   0.016   8.134   1.550  0.1065 -0.8994  0.1428
 5330SOL    HW118190  -0.061   8.186   1.572  0.5731  0.4934 -1.3247
 5330SOL    HW218191   0.013   8.126   1.455  2.4455  0.3893 -0.1336
 5331SOL     OW18192   7.596   1.914   1.270  0.4575  0.2171 -0.8228
 5331SOL    HW118193   7.691   1.902   1.267  0.2977 -1.4443 -0.4375
 5331SOL    HW218194   7.584   2.000   1.310  1.7950  0.3338 -0.6049
 5332SOL     OW18195   6.735   3.832   6.569 -0.4186  0.2144 -0.6129
 5332SOL    HW118196   6.823   3.871   6.571 -0.7420  0.9595 -0.3761
 5332SOL    HW218197   6.707   3.842   6.478  1.5604 -4.3258 -1.9917
 5333SOL     OW18198   3.065   3.311   2.355  0.5368  0.4265 -0.5516
 5333SOL    HW118199   3.023   3.373   2.295 -0.7796 -0.4523 -0.5626
 5333SOL    HW218200   2.994   3.275   2.407  1.1572 -1.5566 -0.9761
 5334SOL     OW18201   5.756   6.109   1.021 -0.0629  0.2998 -0.3589
 5334SOL    HW118202   5.669   6.143   1.043 -0.6776  0.1199 -2.3302
 5334SOL    HW218203   5.796   6.179   0.969  1.2221  0.6009  0.9687
 5335SOL     OW18204   1.442   4.725   3.729  0.0496  0.0658  0.2913
 5335SOL    HW118205   1.509   4.673   3.683 -0.4596 -1.1021  0.8166
 5335SOL    HW218206   1.407   4.784   3.662  0.4447 -0.4735 -0.4097
 5336SOL     OW18207   3.075   3.153   2.653  0.5908  1.0001  0.5326
 5336SOL    HW118208   3.119   3.128   2.734  0.4901  0.3700  0.4016
 5336SOL    HW218209   2.982   3.146   2.672  0.5026 -2.2181 -0.4731
 5337SOL     OW18210   7.411   5.606   1.325  0.0444  0.0316 -0.8594
 5337SOL    HW118211   7.339   5.565   1.277  0.4461 -0.8079 -0.7544
 5337SOL    HW218212   7.369   5.676   1.375 -1.0111 -1.6042  0.6424
 5338SOL     OW18213   4.791   6.735   5.994  0.0371 -0.0809  0.7515
 5338SOL    HW118214   4.717   6.721   6.053  0.0670  1.4582  1.1998
 5338SOL    HW218215   4.767   6.692   5.913 -1.7497  1.1309  0.5931
 5339SOL     OW18216   4.005   8.944   9.323 -0.2628  0.4200 -0.4462
 5339SOL    HW118217   3.971   8.923   9.236 -1.6754  0.2187  0.1301
 5339SOL    HW218218   3.927   8.953   9.378  0.6119  0.4166  0.8341
 5340SOL     OW18219   0.817   3.467   7.759 -0.0333 -0.3502  0.1771
 5340SOL    HW118220   0.869   3.397   7.720 -1.0396 -1.4296  0.6934
 5340SOL    HW218221   0.752   3.489   7.692 -0.6911 -1.0199  0.5727
 5341SOL     OW18222   4.817   9.297   9.053 -0.1901  0.2189  0.1812
 5341SOL    HW118223   4.827   9.385   9.017  1.9537  0.1075  0.3742
 5341SOL    HW218224   4.875   9.243   9.000 -0.2543 -0.7719  1.0976
 5342SOL     OW18225   4.390   3.534   2.891 -0.0051 -0.1202 -0.0378
 5342SOL    HW118226   4.424   3.455   2.935 -1.2148 -0.9798 -0.5707
 5342SOL    HW218227   4.460   3.598   2.899  0.4830 -0.7997  1.6367
 5343SOL     OW18228   9.316   4.176   4.337  0.6524 -0.0799  0.0739
 5343SOL    HW118229   9.292   4.218   4.255 -1.2008  2.4970  1.7667
 5343SOL    HW218230   9.235   4.174   4.388  1.9733 -0.4246  2.3062
 5344SOL     OW18231   8.957   7.706   7.656 -0.4572 -0.3270  0.4618
 5344SOL    HW118232   8.913   7.790   7.638 -0.6162 -0.6399 -0.6634
 5344SOL    HW218233   8.988   7.715   7.746 -2.0680  0.2479  1.0093
 5345SOL     OW18234   0.575   5.913   5.591 -0.2867 -0.4348  0.0766
 5345SOL    HW118235   0.624   5.896   5.510  0.9388 -0.1413  0.7169
 5345SOL    HW218236   0.642   5.907   5.660 -1.2069 -0.1659  1.0089
 5346SOL     OW18237   9.528   5.919   0.212 -0.0596 -0.1156 -0.6944
 5346SOL    HW118238   9.509   5.927   0.306 -1.2591 -0.3015 -0.8951
 5346SOL    HW218239   9.567   6.003   0.188 -2.6202  1.2026 -0.6291
 5347SOL     OW18240   1.902   9.271   5.438 -0.4927 -0.4035 -0.0908
 5347SOL    HW118241   1.979   9.268   5.381  0.5221  1.6650  1.0781
 5347SOL    HW218242   1.935   9.247   5.524 -0.6907  2.2024  0.7955
 5348SOL     OW18243   3.475   7.126   9.463  1.0047  1.0185  0.2615
 5348SOL    HW118244   3.436   7.093   9.544 -2.0819 -0.0554 -1.4864
 5348SOL    HW218245   3.459   7.220   9.465  2.2353  1.2320  1.4716
 5349SOL     OW18246   3.903   3.649   1.259 -0.1406 -0.2934 -0.0897
 5349SOL    HW118247   3.918   3.555   1.269 -1.8611 -0.7130 -1.1479
 5349SOL    HW218248   3.919   3.666   1.166 -2.2730 -0.0543 -0.4593
 5350SOL     OW18249   5.534   3.746   4.416  0.2265 -0.1494 -0.2610
 5350SOL    HW118250   5.606   3.761   4.478  0.1715 -0.3112 -0.1570
 5350SOL    HW218251   5.495   3.664   4.445 -0.8001  0.5707  0.4561
 5351SOL     OW18252   2.747   8.740   3.289  0.6058  0.6289  0.4869
 5351SOL    HW118253   2.843   8.743   3.290  0.7099 -1.3605  1.7514
 5351SOL    HW218254   2.724   8.691   3.369 -1.5118  1.8585  0.6985
 5352SOL     OW18255   7.210   4.302   2.662 -0.1370  0.5623 -0.3050
 5352SOL    HW118256   7.232   4.358   2.587  1.1953  0.4110 -0.0336
 5352SOL    HW218257   7.289   4.251   2.679 -0.7314 -0.0778  0.6256
 5353SOL     OW18258   8.950   0.906   1.734 -0.3764  0.2854 -0.1978
 5353SOL    HW118259   8.860   0.881   1.713 -0.3552  1.0325 -1.2962
 5353SOL    HW218260   8.960   0.992   1.693  0.3313  0.9393  1.3022
 5354SOL     OW18261   0.209   1.995   3.432  0.4911  0.3967  0.4950
 5354SOL    HW118262   0.133   2.020   3.379 -1.3253 -2.2437  1.6248
 5354SOL    HW218263   0.225   2.072   3.487 -2.3104  0.6411  1.1631
 5355SOL     OW18264   6.028   2.862   7.765  0.3660 -0.3478 -0.5682
 5355SOL    HW118265   5.997   2.892   7.679 -0.5217  1.3471  0.3037
 5355SOL    HW218266   6.112   2.907   7.776 -1.3414  2.7926  1.0999
 5356SOL     OW18267   0.458   4.785   4.168 -0.0395 -0.0435 -0.2010
 5356SOL    HW118268   0.411   4.703   4.155  2.5881 -1.6758 -0.1344
 5356SOL    HW218269   0.448   4.832   4.086 -1.2659 -0.5829 -0.3825
 5357SOL     OW18270   9.434   6.179   9.069 -0.7625  0.3904  0.1442
 5357SOL    HW118271   9.372   6.235   9.116  0.3368  0.4937  1.5488
 5357SOL    HW218272   9.482   6.238   9.012 -1.0270  0.5276  0.0595
 5358SOL     OW18273   7.032   3.754   4.338 -0.0777  0.1183  0.0293
 5358SOL    HW118274   7.094   3.825   4.321 -0.5992  0.6887  0.4972
 5358SOL    HW218275   7.088   3.680   4.362  0.4510  0.4820 -0.0584
 5359SOL     OW18276   8.497   5.382   0.884 -0.2483 -0.7331 -0.4493
 5359SOL    HW118277   8.494   5.287   0.876 -0.3449 -0.7251 -0.5119
 5359SOL    HW218278   8.489   5.398   0.979  3.7933 -0.9314  0.0654
 5360SOL     OW18279   8.403   6.411   8.310  0.1420 -0.1413  0.8952
 5360SOL    HW118280   8.431   6.447   8.394  0.1026 -1.5092  1.5131
 5360SOL    HW218281   8.463   6.339   8.293  0.1710  0.1413 -0.2887
 5361SOL     OW18282   0.600   4.636   7.360  0.1755 -0.2434 -0.6741
 5361SOL    HW118283   0.517   4.680   7.345  0.3988 -0.0095 -1.2552
 5361SOL    HW218284   0.595   4.604   7.450 -0.1847  0.5356 -0.4115
 5362SOL     OW18285   5.806   7.116   1.628  0.0555  0.1595  0.3374
 5362SOL    HW118286   5.779   7.189   1.685  0.2914  0.0291  0.6213
 5362SOL    HW218287   5.833   7.157   1.546 -0.7970  0.3122  0.1243
 5363SOL     OW18288   4.057   6.829   5.337  0.4942  0.8295  0.3074
 5363SOL    HW118289   4.011   6.837   5.253  0.4323 -0.4924  0.1963
 5363SOL    HW218290   4.120   6.759   5.323  0.5439  0.6571  1.3369
 5364SOL     OW18291   3.869   6.788   7.346 -0.4439 -0.0857 -0.4872
 5364SOL    HW118292   3.876   6.735   7.425  1.7003 -0.0770 -0.6217
 5364SOL    HW218293   3.820   6.866   7.373 -1.4583 -0.9693  0.3050
 5365SOL     OW18294   3.787   9.084   5.224 -0.3083 -0.4343 -0.0229
 5365SOL    HW118295   3.704   9.049   5.256 -0.4048  1.1406  1.6272
 5365SOL    HW218296   3.854   9.037   5.274 -0.3114 -0.1710  0.2290
 5366SOL     OW18297   9.055   6.130   8.977  0.1087  0.5633 -0.0308
 5366SOL    HW118298   8.969   6.090   8.992 -1.4590  3.1737 -1.3999
 5366SOL    HW218299   9.047   6.219   9.011  2.0432  1.1454 -0.9355
 5367SOL     OW18300   2.476   1.012   7.617  0.0737  0.0855 -0.4190
 5367SOL    HW118301   2.397   1.067   7.614 -0.4209 -0.6194 -0.7251
 5367SOL    HW218302   2.442   0.922   7.613  0.8256 -0.2693  0.6410
 5368SOL     OW18303   9.411   9.518   1.326 -0.3783  0.2630  0.1945
 5368SOL    HW118304   9.317   9.536   1.330 -0.4924 -0.4460  0.8719
 5368SOL    HW218305   9.429   9.466   1.404  0.4852 -0.0493 -0.2013
 5369SOL     OW18306   2.753   0.231   3.761  0.4611  0.4003  0.1531
 5369SOL    HW118307   2.743   0.208   3.853 -0.6059  1.5602  0.3560
 5369SOL    HW218308   2.799   0.156   3.723 -1.2428 -1.2652  1.1184
 5370SOL     OW18309   6.204   8.471   3.009 -1.0547 -0.1066 -0.4217
 5370SOL    HW118310   6.148   8.396   3.027 -0.3183 -0.4281  0.6003
 5370SOL    HW218311   6.145   8.546   3.010 -1.5992 -0.5347 -0.2234
 5371SOL     OW18312   7.195   7.522   8.575  0.1703 -0.0881 -0.4048
 5371SOL    HW118313   7.125   7.462   8.602 -0.7551  0.9972 -0.3238
 5371SOL    HW218314   7.227   7.560   8.656 -0.5408  0.9103 -0.5686
 5372SOL     OW18315   8.669   2.284   3.575 -0.4252  0.0546  0.0218
 5372SOL    HW118316   8.701   2.211   3.523  1.9722  2.3584 -2.0140
 5372SOL    HW218317   8.731   2.290   3.648 -0.6287  0.0169  0.1963
 5373SOL     OW18318   4.733   1.738   9.194  0.4006 -0.1189  0.3738
 5373SOL    HW118319   4.722   1.827   9.160  1.2263  0.3495  1.2811
 5373SOL    HW218320   4.671   1.685   9.143 -1.5456  1.2936  1.1262
 5374SOL     OW18321   0.344   5.921   2.641 -0.0808  0.3308 -0.6091
 5374SOL    HW118322   0.309   5.946   2.555 -0.0764  0.3958 -0.5925
 5374SOL    HW218323   0.273   5.870   2.681 -0.6773  1.5724 -0.0479
 5375SOL     OW18324   3.351   1.522   7.878  0.0316 -0.2813 -0.4286
 5375SOL    HW118325   3.419   1.457   7.892 -1.0666 -1.3329  0.2036
 5375SOL    HW218326   3.336   1.520   7.783  1.7033  0.8595 -0.7576
 5376SOL     OW18327   9.102   8.292   4.138 -0.4639 -0.2481 -0.0100
 5376SOL    HW118328   9.032   8.227   4.133 -1.4949  0.8983 -2.4951
 5376SOL    HW218329   9.180   8.245   4.106 -0.4461 -1.0692  1.1744
 5377SOL     OW18330   5.073   5.627   3.783  0.2317  0.0009 -0.2958
 5377SOL    HW118331   5.065   5.557   3.719  1.1948 -1.7212  1.3439
 5377SOL    HW218332   5.061   5.583   3.868 -2.2498  2.3623  0.7312
 5378SOL     OW18333   1.684   9.111   7.211 -0.0853  0.3304  0.2510
 5378SOL    HW118334   1.721   9.164   7.140 -1.5496 -1.5516 -2.0620
 5378SOL    HW218335   1.751   9.044   7.227 -0.0865  0.2953  0.1094
 5379SOL     OW18336   6.693   6.173   5.854 -0.0470  0.6175  0.0444
 5379SOL    HW118337   6.690   6.228   5.775  2.6568 -0.1101 -0.6852
 5379SOL    HW218338   6.607   6.133   5.858 -0.1900  0.4211 -2.7837
 5380SOL     OW18339   6.226   4.287   3.201 -0.0531 -0.0212 -0.7897
 5380SOL    HW118340   6.292   4.225   3.171 -0.3022 -1.5299  1.5276
 5380SOL    HW218341   6.142   4.245   3.182 -0.3664  1.1710 -2.2575
 5381SOL     OW18342   1.407   3.124   8.931  0.0808  0.1303  0.2993
 5381SOL    HW118343   1.397   3.080   9.015 -0.8478 -1.1724 -0.4517
 5381SOL    HW218344   1.422   3.216   8.953  1.1042 -0.3728  1.8998
 5382SOL     OW18345   1.866   7.239   5.754 -0.4940  0.1177  0.2270
 5382SOL    HW118346   1.890   7.330   5.743 -4.0592  1.1401 -0.3805
 5382SOL    HW218347   1.801   7.222   5.686  0.7070 -3.2049 -0.3122
 5383SOL     OW18348   7.028   4.061   1.821 -0.5722  0.2297 -0.1627
 5383SOL    HW118349   6.947   4.099   1.855 -0.7496 -1.8629  2.0230
 5383SOL    HW218350   7.048   3.989   1.882  1.4263 -1.0871 -2.2265
 5384SOL     OW18351   4.743   9.304   8.068  0.2216  0.1504 -0.2979
 5384SOL    HW118352   4.731   9.375   8.005 -0.0866 -2.1214 -2.9727
 5384SOL    HW218353   4.824   9.262   8.041 -0.4071 -1.4618  0.2233
 5385SOL     OW18354   5.292   8.587   6.684  0.5862  0.0925  0.4130
 5385SOL    HW118355   5.271   8.680   6.688  0.9478  0.3218 -1.6954
 5385SOL    HW218356   5.383   8.584   6.656 -0.0011 -0.8428 -1.6020
 5386SOL     OW18357   5.519   8.082   6.140 -0.0792 -0.1119 -0.1715
 5386SOL    HW118358   5.465   8.044   6.071  0.1977  1.3526 -1.2713
 5386SOL    HW218359   5.602   8.101   6.096 -0.0351  1.2208  0.4426
 5387SOL     OW18360   3.119   6.309   6.792 -0.1800 -0.0621  0.2023
 5387SOL    HW118361   3.174   6.277   6.721 -0.9992  1.0606 -0.9914
 5387SOL    HW218362   3.042   6.253   6.791 -1.0838  1.1374 -1.1255
 5388SOL     OW18363   1.851   1.045   0.399 -0.5336  0.0343  0.2270
 5388SOL    HW118364   1.820   1.046   0.308  0.3951  1.0305 -0.0886
 5388SOL    HW218365   1.871   0.953   0.416 -1.0786 -0.2198 -0.4444
 5389SOL     OW18366   9.454   3.767   1.512 -0.4534 -0.4371 -0.2985
 5389SOL    HW118367   9.428   3.826   1.441  1.4256 -1.0042 -1.5376
 5389SOL    HW218368   9.469   3.824   1.587  0.1681  0.5306 -1.1415
 5390SOL     OW18369   8.495   0.497   1.358  0.3588 -0.4057  0.0595
 5390SOL    HW118370   8.583   0.459   1.354  0.4294 -0.3237  0.7259
 5390SOL    HW218371   8.453   0.453   1.433 -1.1434 -2.5059 -1.8819
 5391SOL     OW18372   5.706   5.152   0.664 -0.1171  0.4744 -0.2568
 5391SOL    HW118373   5.621   5.118   0.634 -1.8519  1.0901  3.4360
 5391SOL    HW218374   5.717   5.234   0.615 -2.3964  1.0977  0.1374
 5392SOL     OW18375   8.596   5.473   4.430 -0.6895 -0.4572 -0.0870
 5392SOL    HW118376   8.656   5.488   4.503 -1.9872 -0.7783  1.0678
 5392SOL    HW218377   8.629   5.530   4.360 -0.4014  1.1549  1.2987
 5393SOL     OW18378   1.118   3.449   8.217 -0.1358 -0.7391 -0.0649
 5393SOL    HW118379   1.181   3.392   8.262  0.2857 -1.6216 -1.6829
 5393SOL    HW218380   1.041   3.448   8.272  1.1269  0.1076  1.8231
 5394SOL     OW18381   7.704   6.707   3.654 -0.2384  0.2175  0.2420
 5394SOL    HW118382   7.732   6.789   3.693 -0.7516  0.7634 -0.5128
 5394SOL    HW218383   7.773   6.645   3.676 -0.2681  0.6269  1.5637
 5395SOL     OW18384   0.508   0.372   1.449  0.0137 -0.1509  0.0518
 5395SOL    HW118385   0.569   0.420   1.392  0.3245  1.9188  1.9612
 5395SOL    HW218386   0.427   0.366   1.398  0.2647  1.6861 -0.6578
 5396SOL     OW18387   3.989   5.186   1.883 -0.3324  0.1532 -0.3080
 5396SOL    HW118388   3.909   5.234   1.905  0.3514  0.5742  1.4109
 5396SOL    HW218389   4.024   5.157   1.967  1.1702 -0.2794 -1.0436
 5397SOL     OW18390   7.866   6.837   3.211 -0.0969 -0.4988  0.5072
 5397SOL    HW118391   7.885   6.890   3.133 -1.0016 -0.8011  0.0674
 5397SOL    HW218392   7.949   6.794   3.231  0.3644  0.2255  0.2112
 5398SOL     OW18393   5.392   4.557   5.402  0.1553 -0.3498  0.4029
 5398SOL    HW118394   5.440   4.636   5.427 -1.3878  0.4770  0.9378
 5398SOL    HW218395   5.412   4.544   5.310  1.0241  0.2278  0.5018
 5399SOL     OW18396   2.794   8.802   1.952 -0.3881  0.2850 -0.0329
 5399SOL    HW118397   2.831   8.775   1.868 -1.0191  0.7900 -0.4807
 5399SOL    HW218398   2.869   8.802   2.012  0.2246  0.6892 -0.7853
 5400SOL     OW18399   6.115   6.750   9.212 -0.4713 -0.6691  0.1768
 5400SOL    HW118400   6.144   6.664   9.242 -0.3884 -0.0655  1.9406
 5400SOL    HW218401   6.034   6.765   9.261 -1.2631 -0.3348 -1.1945
 5401SOL     OW18402   0.617   5.264   7.925  0.0701  0.0482 -0.4396
 5401SOL    HW118403   0.567   5.215   7.859  0.4264 -2.7781  1.2175
 5401SOL    HW218404   0.551   5.310   7.977 -0.7006 -1.8716  0.3559
 5402SOL     OW18405   2.613   1.214   2.107 -0.2808 -0.5918  0.4255
 5402SOL    HW118406   2.652   1.127   2.113 -0.0989 -0.4861  0.8140
 5402SOL    HW218407   2.640   1.258   2.187  1.9276  0.7679 -0.9623
 5403SOL     OW18408   9.148   9.169   8.070 -0.4045 -0.5093  0.6160
 5403SOL    HW118409   9.108   9.253   8.051 -0.6107 -0.8105 -0.3574
 5403SOL    HW218410   9.203   9.150   7.994 -1.8389 -2.1139 -0.0922
 5404SOL     OW18411   6.372   2.202   7.117 -0.3549  0.3030  0.2880
 5404SOL    HW118412   6.437   2.132   7.113 -1.2762 -0.7401  2.1485
 5404SOL    HW218413   6.292   2.159   7.147 -1.0841  2.0750  1.0416
 5405SOL     OW18414   6.687   6.692   0.398  0.0653  0.1574 -0.2976
 5405SOL    HW118415   6.675   6.645   0.316 -1.2972 -0.2794  0.1200
 5405SOL    HW218416   6.608   6.672   0.449 -0.2850  2.3874  0.1507
 5406SOL     OW18417   0.046   9.045   6.136 -0.2996  0.2092  0.2012
 5406SOL    HW118418   0.060   9.060   6.229  0.6508 -0.0329  0.1099
 5406SOL    HW218419   0.129   9.007   6.105 -0.1916  1.3188 -0.9543
 5407SOL     OW18420   4.157   2.053   1.912  0.2313 -0.0566 -0.1540
 5407SOL    HW118421   4.100   1.998   1.858  0.1840 -0.0814 -0.0794
 5407SOL    HW218422   4.196   2.115   1.850  0.5530 -0.3938 -0.2945
 5408SOL     OW18423   6.522   1.897   6.344 -0.3913  0.2540 -0.2692
 5408SOL    HW118424   6.594   1.875   6.403  0.0824  2.6719  0.1697
 5408SOL    HW218425   6.445   1.901   6.401 -0.4974 -0.3355 -0.3682
 5409SOL     OW18426   4.824   3.968   5.619  0.0020 -0.8143 -0.1732
 5409SOL    HW118427   4.759   3.944   5.552 -1.0495 -0.7277  0.7878
 5409SOL    HW218428   4.847   4.059   5.597 -0.9820 -0.4928  0.0679
 5410SOL     OW18429   9.288   4.908   2.269 -0.4258  0.9625 -0.1765
 5410SOL    HW118430   9.328   4.989   2.236  0.2730 -0.1829 -2.2936
 5410SOL    HW218431   9.337   4.888   2.349  1.2982  1.1724 -1.1263
 5411SOL     OW18432   3.693   7.554   9.280  0.0740  0.2724  0.2419
 5411SOL    HW118433   3.699   7.646   9.254 -0.2644  0.3067  0.2712
 5411SOL    HW218434   3.662   7.509   9.201  0.0791  0.2090  0.2755
 5412SOL     OW18435   7.690   6.399   2.893  0.0006  0.4537 -0.2699
 5412SOL    HW118436   7.602   6.363   2.896  0.4505 -0.6187  1.1933
 5412SOL    HW218437   7.689   6.471   2.956  0.4795 -0.3807  0.7250
 5413SOL     OW18438   7.870   7.591   6.479  0.0718 -0.0813 -0.3021
 5413SOL    HW118439   7.903   7.583   6.568 -0.2699 -0.8864 -0.2458
 5413SOL    HW218440   7.825   7.509   6.462 -0.8049  0.4861 -0.8352
 5414SOL     OW18441   7.586   4.302   8.361  0.3079 -0.1613  0.3098
 5414SOL    HW118442   7.651   4.248   8.406  0.8345  0.2219  0.0248
 5414SOL    HW218443   7.627   4.324   8.277  0.3506  1.1441  0.6468
 5415SOL     OW18444   7.967   4.279   6.667 -0.4938  0.4380  0.1073
 5415SOL    HW118445   7.975   4.337   6.591  0.0132 -0.4981 -0.5778
 5415SOL    HW218446   7.875   4.255   6.669 -0.0274 -2.1778 -2.3096
 5416SOL     OW18447   5.849   5.535   0.155 -0.6009 -0.0415  0.6194
 5416SOL    HW118448   5.770   5.590   0.154  0.3976  1.6012 -2.4653
 5416SOL    HW218449   5.918   5.592   0.189  0.7063  1.3784 -3.7205
 5417SOL     OW18450   6.330   2.108   0.382  0.0914 -0.1448 -0.0944
 5417SOL    HW118451   6.412   2.084   0.425 -0.4371 -0.7267  0.6139
 5417SOL    HW218452   6.265   2.049   0.420 -1.1745  2.0224  1.3068
 5418SOL     OW18453   7.679   9.305   6.453  0.1436  0.2740 -0.0870
 5418SOL    HW118454   7.679   9.372   6.521  1.6342  0.6372 -0.4129
 5418SOL    HW218455   7.601   9.252   6.471 -1.8624  2.8567 -0.6236
 5419SOL     OW18456   8.978   5.963   7.609  0.0529  1.0428 -0.2252
 5419SOL    HW118457   9.073   5.952   7.608 -0.0301 -0.8269  2.3345
 5419SOL    HW218458   8.943   5.880   7.576 -0.6696  1.0351  0.5176
 5420SOL     OW18459   6.631   4.940   0.188  0.2513 -0.0031  0.3768
 5420SOL    HW118460   6.573   4.891   0.246  0.7707 -1.3185 -0.1713
 5420SOL    HW218461   6.707   4.883   0.178 -0.3552 -0.4015 -2.6091
 5421SOL     OW18462   4.238   9.306   3.692 -0.8580  0.3176 -0.4230
 5421SOL    HW118463   4.191   9.378   3.733 -0.4122  0.0793  0.5268
 5421SOL    HW218464   4.186   9.229   3.713  0.5709 -0.1396  1.7570
 5422SOL     OW18465   6.113   8.722   9.189 -0.3315 -0.3583 -0.2522
 5422SOL    HW118466   6.131   8.692   9.278 -1.7171 -0.1224  0.1314
 5422SOL    HW218467   6.073   8.646   9.145 -0.3768 -0.2298 -0.4346
 5423SOL     OW18468   1.880   7.674   0.983 -0.4404  0.7123  0.1747
 5423SOL    HW118469   1.815   7.696   0.917 -0.7046 -0.4087  0.0505
 5423SOL    HW218470   1.879   7.579   0.988  0.6614  0.7083  0.7064
 5424SOL     OW18471   2.787   6.500   6.483 -0.9616 -0.1041  0.6366
 5424SOL    HW118472   2.714   6.460   6.436 -1.0827  0.1629  0.5959
 5424SOL    HW218473   2.749   6.577   6.525 -0.6229  0.2408  0.3163
 5425SOL     OW18474   1.614   1.593   0.989  0.0646  0.3583  0.4902
 5425SOL    HW118475   1.544   1.568   0.928 -0.6443  0.5977  1.1808
 5425SOL    HW218476   1.569   1.645   1.056  0.3361 -1.8798  2.5474
 5426SOL     OW18477   1.954   7.573   8.554  0.2706 -0.1957 -0.0042
 5426SOL    HW118478   1.991   7.485   8.561 -0.5398 -0.4869  0.9517
 5426SOL    HW218479   1.885   7.564   8.488 -2.1735 -1.2104  2.4709
 5427SOL     OW18480   4.051   4.871   4.025 -0.0595 -0.3657  0.0536
 5427SOL    HW118481   4.128   4.914   4.061 -0.7902 -0.2437  1.5609
 5427SOL    HW218482   3.993   4.942   4.000  1.2094 -0.3749 -3.3581
 5428SOL     OW18483   5.833   1.788   0.897  0.2838  0.1866 -0.1242
 5428SOL    HW118484   5.797   1.771   0.811 -0.5231  1.6257 -0.1030
 5428SOL    HW218485   5.862   1.879   0.893 -0.4792  0.5295  1.3406
 5429SOL     OW18486   0.356   2.639   3.850  0.4840 -0.3456 -0.5058
 5429SOL    HW118487   0.345   2.707   3.917  0.0480  0.2839 -1.2019
 5429SOL    HW218488   0.445   2.651   3.819  0.4295 -0.1207 -0.5830
 5430SOL     OW18489   8.537   9.187   5.005  0.1919  0.6182 -0.4814
 5430SOL    HW118490   8.618   9.149   5.039  0.0982 -0.0206 -0.9427
 5430SOL    HW218491   8.548   9.281   5.017  0.7334  0.4966  0.0407
 5431SOL     OW18492   7.899   6.377   8.098 -0.4085 -0.2224 -0.3882
 5431SOL    HW118493   7.937   6.320   8.165 -0.7781  1.3948  1.2958
 5431SOL    HW218494   7.975   6.419   8.057 -0.2052 -0.7205 -0.5265
 5432SOL     OW18495   9.183   9.230   9.109  0.1795 -0.8112 -0.2633
 5432SOL    HW118496   9.102   9.259   9.150  1.1310 -0.2911  1.3136
 5432SOL    HW218497   9.217   9.307   9.065  0.4622 -0.6837  0.1725
 5433SOL     OW18498   2.005   0.841   7.781 -0.3642 -0.5529  0.1936
 5433SOL    HW118499   1.944   0.882   7.720  0.5816  0.5947 -0.0063
 5433SOL    HW218500   1.968   0.754   7.797 -0.8785 -0.7060 -1.6382
 5434SOL     OW18501   4.251   5.305   6.969  0.1360 -0.5081  0.2159
 5434SOL    HW118502   4.328   5.360   6.957 -0.5863  0.9967  1.8997
 5434SOL    HW218503   4.261   5.268   7.057 -1.0095 -0.2881  0.4620
 5435SOL     OW18504   3.831   8.982   2.306  0.5291 -0.4359  0.8855
 5435SOL    HW118505   3.773   8.916   2.346 -2.5612  0.2479 -1.9535
 5435SOL    HW218506   3.843   8.951   2.216 -0.0714  2.2280 -0.2004
 5436SOL     OW18507   1.541   1.043   1.488 -0.6894  0.0028 -0.0798
 5436SOL    HW118508   1.519   1.068   1.578  0.3654  2.0588 -0.3348
 5436SOL    HW218509   1.471   0.984   1.462 -1.9042  0.6429  1.5475
 5437SOL     OW18510   3.175   4.880   6.064 -0.4315 -0.2840  0.1486
 5437SOL    HW118511   3.173   4.820   6.139 -0.2919 -1.0473 -0.4442
 5437SOL    HW218512   3.123   4.835   5.997  0.4237 -0.1531 -0.6101
 5438SOL     OW18513   1.427   4.780   0.595 -0.0217  0.1759  0.4211
 5438SOL    HW118514   1.343   4.813   0.565 -0.3413  0.8473  2.0063
 5438SOL    HW218515   1.407   4.701   0.645  0.4554 -0.5941 -0.5592
 5439SOL     OW18516   6.526   3.622   1.547  0.1147  0.6506  0.6314
 5439SOL    HW118517   6.565   3.537   1.567 -1.3504  0.1700  1.6362
 5439SOL    HW218518   6.600   3.682   1.539  1.1443 -0.6194  0.3671
 5440SOL     OW18519   3.433   6.850   8.190  0.0304 -0.5077  0.2009
 5440SOL    HW118520   3.422   6.932   8.143  0.1100 -1.0494 -0.7927
 5440SOL    HW218521   3.521   6.820   8.165  0.3460 -0.4689  1.2389
 5441SOL     OW18522   0.596   6.508   9.057 -0.3577 -0.0078 -0.0135
 5441SOL    HW118523   0.677   6.487   9.010 -1.5462 -0.2818 -2.0492
 5441SOL    HW218524   0.577   6.429   9.108 -0.3569 -0.7263 -1.0790
 5442SOL     OW18525   0.568   3.192   7.933 -0.1341  0.1497 -0.2214
 5442SOL    HW118526   0.554   3.199   7.838  0.1699 -0.8343 -0.3494
 5442SOL    HW218527   0.555   3.281   7.965  2.1246  1.0149 -1.4988
 5443SOL     OW18528   0.561   0.609   3.858  0.6699  0.0845  0.0588
 5443SOL    HW118529   0.615   0.566   3.924  0.2129  0.3557  0.6098
 5443SOL    HW218530   0.494   0.544   3.836 -1.0137  1.0319  2.0711
 5444SOL     OW18531   9.177   7.076   7.464 -0.4373 -0.4082  0.1345
 5444SOL    HW118532   9.252   7.088   7.522 -0.8910  0.3093  0.5910
 5444SOL    HW218533   9.148   6.986   7.480  1.5774 -1.4537 -1.5850
 5445SOL     OW18534   1.546   1.353   4.671  0.5773  0.5014 -0.5081
 5445SOL    HW118535   1.475   1.371   4.732  1.8607 -2.6316  2.2082
 5445SOL    HW218536   1.626   1.361   4.723  1.7689 -1.9677 -1.7623
 5446SOL     OW18537   9.414   7.225   3.950 -0.4329  0.0586  0.4115
 5446SOL    HW118538   9.345   7.162   3.972 -0.5906  0.5165  1.2471
 5446SOL    HW218539   9.445   7.197   3.864 -1.5130 -0.2861  0.1209
 5447SOL     OW18540   3.282   4.247   2.881 -0.0238 -0.0792 -0.2015
 5447SOL    HW118541   3.314   4.235   2.970  1.0122 -1.7973 -0.7600
 5447SOL    HW218542   3.241   4.334   2.881 -0.9942 -0.4749  2.1913
 5448SOL     OW18543   2.727   2.619   3.471  0.3577  0.2578  0.0797
 5448SOL    HW118544   2.815   2.594   3.442  1.0256  0.0952  2.0954
 5448SOL    HW218545   2.741   2.689   3.534 -0.9413  0.0151  0.6700
 5449SOL     OW18546   2.697   9.203   5.748 -0.1054 -0.1570 -0.3934
 5449SOL    HW118547   2.693   9.142   5.822 -1.0008 -0.2244 -0.4862
 5449SOL    HW218548   2.702   9.289   5.788  1.8860 -0.2851 -0.2523
 5450SOL     OW18549   4.630   1.762   6.642  0.2825 -0.1924  0.0504
 5450SOL    HW118550   4.590   1.792   6.560 -0.6448 -1.0685  0.1493
 5450SOL    HW218551   4.696   1.698   6.614  0.8068  0.3953 -0.0631
 5451SOL     OW18552   1.722   3.997   3.581 -0.2797  0.3145 -0.1281
 5451SOL    HW118553   1.636   3.972   3.547 -1.1632  2.5939  0.2570
 5451SOL    HW218554   1.749   4.071   3.527  1.3621 -0.1858 -0.0681
 5452SOL     OW18555   2.789   6.422   4.037 -0.1133  0.1287 -0.4833
 5452SOL    HW118556   2.818   6.420   4.128 -0.1801 -0.5283 -0.4740
 5452SOL    HW218557   2.768   6.514   4.021  2.8821  0.8408 -0.7971
 5453SOL     OW18558   0.790   0.212   1.867 -0.3546  0.1937 -0.8546
 5453SOL    HW118559   0.820   0.139   1.812 -1.1799 -0.3730 -0.5710
 5453SOL    HW218560   0.862   0.275   1.864 -0.3590  0.1445 -2.5074
 5454SOL     OW18561   2.403   5.577   5.845 -0.2301  0.1779  0.2978
 5454SOL    HW118562   2.498   5.574   5.848 -0.2571 -0.1715  1.7883
 5454SOL    HW218563   2.375   5.542   5.930 -1.6907  0.1245 -0.1656
 5455SOL     OW18564   3.468   2.257   2.357 -0.6014  0.1127  0.0858
 5455SOL    HW118565   3.490   2.349   2.369 -0.0834  0.0911 -0.5991
 5455SOL    HW218566   3.525   2.228   2.285  0.1603 -1.0599  1.1070
 5456SOL     OW18567   2.865   1.683   3.302  0.7060 -0.1805  0.4375
 5456SOL    HW118568   2.896   1.593   3.287 -3.2611 -1.4635 -1.5686
 5456SOL    HW218569   2.819   1.679   3.386 -0.6454 -0.5169 -0.2754
 5457SOL     OW18570   9.398   2.791   0.268 -0.6084  0.1471  0.0181
 5457SOL    HW118571   9.381   2.821   0.357 -2.1070 -1.0437  0.1770
 5457SOL    HW218572   9.463   2.852   0.234  0.5380  0.1970  2.1554
 5458SOL     OW18573   1.640   7.154   1.453  0.7009  0.0293 -0.1849
 5458SOL    HW118574   1.592   7.235   1.433  0.0710 -0.1585  0.5095
 5458SOL    HW218575   1.604   7.089   1.394 -1.7830 -0.7450  1.9797
 5459SOL     OW18576   6.818   3.741   5.897  0.4749 -0.1044 -0.4481
 5459SOL    HW118577   6.877   3.667   5.882  1.1988  0.1571  0.8983
 5459SOL    HW218578   6.849   3.780   5.979 -1.0767  0.5379 -0.1237
 5460SOL     OW18579   8.420   8.952   0.979  0.3284 -0.5602 -0.7900
 5460SOL    HW118580   8.369   9.031   0.999 -0.5162 -0.5464 -2.7116
 5460SOL    HW218581   8.359   8.897   0.929  1.3059 -1.8771 -0.5778
 5461SOL     OW18582   5.270   8.064   2.384 -0.4763 -0.2876 -0.1012
 5461SOL    HW118583   5.301   8.149   2.415 -0.6923  0.0145 -0.6931
 5461SOL    HW218584   5.254   8.013   2.463  0.1206  0.0568  0.2463
 5462SOL     OW18585   0.059   2.159   0.006  0.1458 -0.3818 -0.3277
 5462SOL    HW118586   0.105   2.165  -0.077 -0.7664  2.5696 -0.7244
 5462SOL    HW218587   0.059   2.248   0.041 -1.6125 -1.0521  1.6560
 5463SOL     OW18588   4.396   4.098   0.279  0.1712  0.4615 -0.8254
 5463SOL    HW118589   4.403   4.192   0.297 -1.1689  0.3780  0.3444
 5463SOL    HW218590   4.455   4.057   0.342 -0.1118  0.4744 -0.5466
 5464SOL     OW18591   0.544   6.691   6.157  0.4561 -0.2848  0.2696
 5464SOL    HW118592   0.523   6.601   6.132  0.3210 -0.4617  0.9805
 5464SOL    HW218593   0.537   6.691   6.253 -0.2650  0.6607  0.2318
 5465SOL     OW18594   2.889   7.891   6.817  0.0795 -0.1711  0.6124
 5465SOL    HW118595   2.813   7.946   6.835 -0.6191 -0.6249 -0.8622
 5465SOL    HW218596   2.932   7.934   6.743 -1.5197 -2.5494 -1.8335
 5466SOL     OW18597   8.400   7.997   1.876 -0.0405 -0.1733 -0.2000
 5466SOL    HW118598   8.353   8.029   1.799 -0.4326 -1.9553 -0.7545
 5466SOL    HW218599   8.474   8.057   1.886 -1.4089  1.6466 -0.3664
 5467SOL     OW18600   7.535   7.684   0.348  0.0122  0.0729  0.4337
 5467SOL    HW118601   7.568   7.599   0.379 -1.4105 -0.8743 -0.5246
 5467SOL    HW218602   7.487   7.663   0.268  1.2756  2.0601 -0.9284
 5468SOL     OW18603   3.723   3.834   8.539  0.0597 -0.0180  0.4310
 5468SOL    HW118604   3.783   3.831   8.465  0.8588 -0.4626  1.0810
 5468SOL    HW218605   3.690   3.744   8.546  1.0493 -0.3319  1.4426
 5469SOL     OW18606   7.510   0.166   7.496 -0.2885  0.3073  0.2177
 5469SOL    HW118607   7.487   0.142   7.406 -0.2584 -0.1632  0.3334
 5469SOL    HW218608   7.427   0.191   7.537 -0.5264 -0.8545  0.4749
 5470SOL     OW18609   2.183   6.499   8.584  0.1287  0.5525  0.0843
 5470SOL    HW118610   2.102   6.540   8.556  0.5337  0.6735 -0.9431
 5470SOL    HW218611   2.174   6.407   8.559 -0.5604  0.0657  1.9130
 5471SOL     OW18612   3.304   4.015   0.839  0.7859 -0.6226 -0.3165
 5471SOL    HW118613   3.307   3.959   0.762 -0.4586 -1.7402  0.4047
 5471SOL    HW218614   3.210   4.032   0.853  1.0584  0.4729  0.3185
 5472SOL     OW18615   9.468   8.788   2.169 -0.6968  0.0539 -0.1251
 5472SOL    HW118616   9.522   8.784   2.091 -2.3284  0.6502 -1.3455
 5472SOL    HW218617   9.398   8.849   2.147 -1.7544 -0.5093  1.4538
 5473SOL     OW18618   4.571   6.063   4.937 -0.1354 -0.3123  1.2801
 5473SOL    HW118619   4.584   6.158   4.943  0.5670 -0.3740  0.9179
 5473SOL    HW218620   4.634   6.027   5.000  1.0758 -0.6060 -0.0416
 5474SOL     OW18621   2.428   5.050   1.949 -0.0206  0.2263 -0.0293
 5474SOL    HW118622   2.506   4.995   1.937  0.3280  0.1711  2.1090
 5474SOL    HW218623   2.463   5.139   1.956 -0.3037  0.3785 -0.4992
 5475SOL     OW18624   7.959   2.805   5.831  0.0888 -0.2471  0.3115
 5475SOL    HW118625   7.922   2.765   5.909  0.0086  1.1311  0.9958
 5475SOL    HW218626   8.041   2.758   5.817 -0.5576 -1.4459  0.3886
 5476SOL     OW18627   8.228   1.857   2.116 -0.0208 -0.0817  0.3383
 5476SOL    HW118628   8.225   1.862   2.212  0.7704  0.6418  0.3384
 5476SOL    HW218629   8.168   1.926   2.086 -1.2281 -1.1125  0.2895
 5477SOL     OW18630   3.126   4.155   6.335  0.6634 -0.3769  0.4978
 5477SOL    HW118631   3.093   4.243   6.316 -1.2494 -1.3758 -1.1822
 5477SOL    HW218632   3.214   4.153   6.297 -0.0151  0.2357 -1.2082
 5478SOL     OW18633   3.926   8.445   8.746  0.4516 -0.2504  0.2747
 5478SOL    HW118634   4.001   8.412   8.796  0.6353 -1.4533 -0.7412
 5478SOL    HW218635   3.851   8.428   8.802  0.8405  0.1020  0.9131
 5479SOL     OW18636   8.866   8.319   1.734 -0.1296  0.0127 -0.1272
 5479SOL    HW118637   8.849   8.340   1.642  1.0663  1.5279 -0.0467
 5479SOL    HW218638   8.834   8.395   1.782  1.5036  0.3502  0.4831
 5480SOL     OW18639   4.104   0.448   5.831  0.6487 -0.7012 -0.3673
 5480SOL    HW118640   4.100   0.508   5.757 -0.3968 -1.5485 -1.0303
 5480SOL    HW218641   4.084   0.362   5.794  0.5985 -1.2245  0.8107
 5481SOL     OW18642   4.181   9.049   2.875  0.0587  0.0794  0.2486
 5481SOL    HW118643   4.253   9.110   2.890  1.6204 -1.5386 -0.3041
 5481SOL    HW218644   4.210   8.967   2.915 -0.5910 -1.1607 -1.6739
 5482SOL     OW18645   4.350   4.694   0.551 -0.6052  0.7399  0.0491
 5482SOL    HW118646   4.323   4.784   0.534 -0.7777  1.4867  3.5544
 5482SOL    HW218647   4.441   4.701   0.581 -0.7246 -0.1694  0.6793
 5483SOL     OW18648   2.624   8.527   2.313  0.0486 -0.4129 -0.1876
 5483SOL    HW118649   2.689   8.488   2.372 -0.3086 -1.7657 -0.6559
 5483SOL    HW218650   2.540   8.512   2.356 -0.1367 -0.6223 -0.6159
 5484SOL     OW18651   8.284   5.417   6.776 -0.0284 -0.0180  0.4023
 5484SOL    HW118652   8.291   5.336   6.725  0.9406 -0.5984  1.3941
 5484SOL    HW218653   8.269   5.486   6.711  0.5254 -0.8167 -0.6034
 5485SOL     OW18654   0.754   0.983   1.785 -0.4278  0.5069 -0.8083
 5485SOL    HW118655   0.721   1.016   1.868  1.4838 -0.3888  0.3849
 5485SOL    HW218656   0.720   0.893   1.780  1.1723 -0.1824  0.0942
 5486SOL     OW18657   7.629   1.814   2.429  0.3510  0.0158  0.1610
 5486SOL    HW118658   7.659   1.866   2.503  1.0605 -0.9171  0.5510
 5486SOL    HW218659   7.550   1.770   2.461  0.0576  0.4307  0.0098
 5487SOL     OW18660   2.509   4.180   5.576 -0.1924 -0.1564  0.5850
 5487SOL    HW118661   2.444   4.112   5.558 -1.7871  1.8439 -1.9650
 5487SOL    HW218662   2.553   4.193   5.493  2.8807 -0.6963  1.9947
 5488SOL     OW18663   0.754   9.384   9.027 -0.8362  0.0813 -0.5358
 5488SOL    HW118664   0.691   9.345   9.088 -0.4431  1.2929  0.7056
 5488SOL    HW218665   0.834   9.333   9.038 -0.8903  0.0373 -0.3501
 5489SOL     OW18666   6.668   5.021   3.076 -0.2757  0.2865 -0.5695
 5489SOL    HW118667   6.677   4.962   3.151  1.0121  1.5674  0.3644
 5489SOL    HW218668   6.661   5.108   3.116  0.4780  1.0028 -1.9388
 5490SOL     OW18669   5.525   0.085   6.738  0.3950  0.0046 -0.2228
 5490SOL    HW118670   5.534   0.087   6.833 -0.7627  1.5335 -0.1086
 5490SOL    HW218671   5.615   0.076   6.706  0.8000 -0.5707  0.9921
 5491SOL     OW18672   0.065   4.935   5.590  0.4876 -0.2501  0.1574
 5491SOL    HW118673   0.080   4.910   5.499  2.1045  0.9617  0.0488
 5491SOL    HW218674   0.099   5.025   5.596 -0.6700  0.1264  1.6722
 5492SOL     OW18675   0.142   5.874   7.822 -0.7677  0.1035 -0.0509
 5492SOL    HW118676   0.082   5.809   7.859 -1.5367  0.0845 -1.2652
 5492SOL    HW218677   0.198   5.824   7.762 -1.5880  0.5803 -1.2474
 5493SOL     OW18678   3.340   0.594   4.899  0.0959  0.6890  0.1240
 5493SOL    HW118679   3.320   0.628   4.986 -0.7259  0.0369  0.2062
 5493SOL    HW218680   3.366   0.671   4.848 -2.9172  1.7325 -0.0511
 5494SOL     OW18681   1.486   8.230   8.629  0.5568  0.0693  0.1720
 5494SOL    HW118682   1.519   8.161   8.572  1.2780  0.2075  0.4095
 5494SOL    HW218683   1.564   8.263   8.674 -0.0817 -0.6498  1.9073
 5495SOL     OW18684   9.356   7.107   1.133  0.0867 -0.6318 -0.3689
 5495SOL    HW118685   9.347   7.201   1.115 -1.2712 -0.5937  0.3944
 5495SOL    HW218686   9.271   7.070   1.110  0.9687 -1.8886 -1.7797
 5496SOL     OW18687   2.888   7.539   6.876 -0.2743 -0.0737 -0.0508
 5496SOL    HW118688   2.813   7.483   6.855 -0.1810 -0.7939  1.3977
 5496SOL    HW218689   2.861   7.585   6.956 -0.2212  1.7371 -1.0303
 5497SOL     OW18690   3.742   5.542   1.205 -0.0601 -0.5448  0.7156
 5497SOL    HW118691   3.835   5.543   1.182 -0.5153  0.8716 -1.3737
 5497SOL    HW218692   3.721   5.633   1.226 -0.7128 -1.0782  2.5991
 5498SOL     OW18693   1.829   0.131   1.525 -0.0212  0.7686  0.2957
 5498SOL    HW118694   1.761   0.103   1.587  0.3940 -0.5428  0.1750
 5498SOL    HW218695   1.903   0.154   1.580  0.7650 -1.5292  0.2987
 5499SOL     OW18696   9.299   2.419   6.231 -0.4784 -0.4743 -0.1319
 5499SOL    HW118697   9.276   2.332   6.266 -1.2251 -0.2392 -0.0296
 5499SOL    HW218698   9.380   2.442   6.277 -2.8777  1.1059  3.8184
 5500SOL     OW18699   5.576   3.401   1.544  0.6201  0.2004  0.5218
 5500SOL    HW118700   5.500   3.455   1.566  1.9575  1.5946  2.0242
 5500SOL    HW218701   5.609   3.370   1.628  0.2223 -2.5976 -0.2781
 5501SOL     OW18702   7.716   7.196   9.391  0.3421 -0.6709 -0.7694
 5501SOL    HW118703   7.623   7.214   9.401  0.5062 -0.7513  1.1924
 5501SOL    HW218704   7.740   7.238   9.308 -1.2478  0.0860 -0.8666
 5502SOL     OW18705   3.795   8.768   8.141  0.0972 -0.1115 -0.2129
 5502SOL    HW118706   3.804   8.843   8.082  0.2478 -0.6771 -0.9249
 5502SOL    HW218707   3.701   8.758   8.153  0.0930  0.6185  0.4559
 5503SOL     OW18708   0.594   1.355   9.121  0.6118  0.3271 -0.1049
 5503SOL    HW118709   0.656   1.420   9.089  1.6478  0.4942  2.0712
 5503SOL    HW218710   0.588   1.371   9.215 -0.4110 -1.6514  0.2275
 5504SOL     OW18711   9.569   5.147   8.821  0.3561 -0.0826 -0.0671
 5504SOL    HW118712   9.526   5.226   8.788  0.9094 -0.3125 -1.3992
 5504SOL    HW218713   9.649   5.179   8.864  0.2840  0.1168 -0.0788
 5505SOL     OW18714   7.746   4.004   4.791  0.8100  0.3439  0.1261
 5505SOL    HW118715   7.677   3.987   4.855  0.8668  1.5492  0.5231
 5505SOL    HW218716   7.827   3.981   4.837  0.9540  2.2478  0.9389
 5506SOL     OW18717   4.174   2.668   9.474 -0.3573  0.3720  0.0526
 5506SOL    HW118718   4.161   2.684   9.381  2.7916 -0.9260 -0.7274
 5506SOL    HW218719   4.187   2.573   9.481 -0.5610  0.4431  1.8343
 5507SOL     OW18720   2.820   6.797   0.578 -0.3441  0.2116  0.4998
 5507SOL    HW118721   2.750   6.739   0.607 -0.4906  0.1132 -0.0395
 5507SOL    HW218722   2.811   6.875   0.632 -1.2871  0.4709 -0.0199
 5508SOL     OW18723   7.467   6.398   5.799  0.3544  0.3122  0.0008
 5508SOL    HW118724   7.517   6.480   5.796 -0.4051  0.7639 -0.5637
 5508SOL    HW218725   7.506   6.349   5.872  1.0127  1.0436  0.1558
 5509SOL     OW18726   5.222   6.506   6.130  0.3283 -0.0723 -0.7594
 5509SOL    HW118727   5.271   6.431   6.098  0.5974  0.5586 -1.8707
 5509SOL    HW218728   5.262   6.581   6.087  0.2804  0.7557  0.5726
 5510SOL     OW18729   4.453   6.352   6.379  0.4417 -0.2175  0.0235
 5510SOL    HW118730   4.401   6.296   6.438  0.0943 -1.1864 -1.1525
 5510SOL    HW218731   4.400   6.431   6.369  0.9522  0.3816  1.7384
 5511SOL     OW18732   2.250   7.282   7.143 -0.1194 -0.3279  0.0968
 5511SOL    HW118733   2.168   7.244   7.174 -0.2493  0.1057  0.2880
 5511SOL    HW218734   2.223   7.344   7.075 -0.1082  1.1295  1.3777
 5512SOL     OW18735   4.317   1.927   2.116  0.0844 -0.2791  0.2977
 5512SOL    HW118736   4.287   1.938   2.206 -0.2353 -1.8653  0.4193
 5512SOL    HW218737   4.236   1.922   2.064  0.1786 -1.4407  0.2225
 5513SOL     OW18738   5.207   3.609   6.106  0.4587  0.4951  0.3508
 5513SOL    HW118739   5.240   3.668   6.038 -0.1104  0.6673  0.2209
 5513SOL    HW218740   5.269   3.620   6.179  0.8192  0.6391  0.0302
 5514SOL     OW18741   7.044   3.898   2.043 -0.5055  0.6308 -0.7909
 5514SOL    HW118742   6.967   3.843   2.062  0.0229 -0.2885 -1.2452
 5514SOL    HW218743   7.042   3.965   2.111 -1.2230  0.1033 -0.2659
 5515SOL     OW18744   9.326   4.438   3.648 -0.0084 -0.2411  0.3371
 5515SOL    HW118745   9.405   4.426   3.597  0.0230  0.8489  0.1217
 5515SOL    HW218746   9.343   4.391   3.730  1.4008  1.0871  0.8505
 5516SOL     OW18747   1.150   6.888   7.034  0.2023 -0.6763  0.5072
 5516SOL    HW118748   1.165   6.944   7.110 -0.1871  2.4253 -1.5465
 5516SOL    HW218749   1.061   6.854   7.046  0.2084 -0.3782  1.4862
 5517SOL     OW18750   8.018   2.722   1.302 -0.5077  0.5330 -0.5249
 5517SOL    HW118751   8.021   2.815   1.323 -0.3756  0.6010 -0.8440
 5517SOL    HW218752   8.110   2.695   1.303 -0.5288  0.4566 -0.6582
 5518SOL     OW18753   1.814   6.981   4.106  0.1741  0.2771  0.4938
 5518SOL    HW118754   1.814   6.973   4.201 -3.4647  0.4877  0.6552
 5518SOL    HW218755   1.744   6.923   4.077 -0.0195  1.5705 -1.8969
 5519SOL     OW18756   4.673   1.753   8.759 -0.3727 -0.0022  0.0988
 5519SOL    HW118757   4.615   1.815   8.802 -0.1188  0.2332  0.1027
 5519SOL    HW218758   4.758   1.767   8.800 -0.5052 -0.9750  0.7340
 5520SOL     OW18759   1.138   5.114   8.410  0.0937  0.0346  0.3578
 5520SOL    HW118760   1.066   5.177   8.403  1.0796  1.2414  0.7608
 5520SOL    HW218761   1.163   5.116   8.502 -0.1883 -1.3517  0.4828
 5521SOL     OW18762   6.276   9.339   3.809 -0.2181  0.0796 -0.4626
 5521SOL    HW118763   6.261   9.245   3.801 -0.7732  0.1866 -0.7146
 5521SOL    HW218764   6.366   9.352   3.778  0.4142 -0.5686  1.0227
 5522SOL     OW18765   3.685   9.440   4.671 -0.2542  0.2251 -0.1240
 5522SOL    HW118766   3.654   9.351   4.682 -0.4081  0.0265 -1.9151
 5522SOL    HW218767   3.777   9.437   4.699 -0.0415 -0.6690 -0.8875
 5523SOL     OW18768   6.441   7.389   4.298 -0.0724 -0.0427  0.5355
 5523SOL    HW118769   6.463   7.475   4.261  1.9368 -0.4513  0.6813
 5523SOL    HW218770   6.363   7.406   4.351  0.6099  1.8374  1.0416
 5524SOL     OW18771   1.121   6.949   0.708  0.0611  0.1455  0.0715
 5524SOL    HW118772   1.155   6.991   0.630 -0.2798 -0.5807 -0.4825
 5524SOL    HW218773   1.180   6.875   0.723  0.3081  0.4553  0.6912
 5525SOL     OW18774   7.010   8.236   3.867  0.3413  0.1848 -0.0052
 5525SOL    HW118775   6.960   8.255   3.788  0.0464 -1.4293 -0.2361
 5525SOL    HW218776   7.091   8.197   3.836  0.3022 -0.2863  0.4776
 5526SOL     OW18777   9.235   7.442   3.138 -0.0213  0.1075 -0.3207
 5526SOL    HW118778   9.162   7.478   3.088  0.2486  2.2920  0.7531
 5526SOL    HW218779   9.308   7.501   3.120  0.1902  0.7679  2.2474
 5527SOL     OW18780   9.225   3.581   2.298  0.4521  0.1183  0.3146
 5527SOL    HW118781   9.311   3.538   2.301  0.8525  0.8857  0.1208
 5527SOL    HW218782   9.238   3.656   2.241 -0.7412 -0.5842 -0.9434
 5528SOL     OW18783   2.363   4.952   0.554 -0.4004  0.5038 -0.3725
 5528SOL    HW118784   2.428   4.994   0.611  0.3407 -0.1577 -0.7113
 5528SOL    HW218785   2.407   4.945   0.469 -0.9103  0.0177 -0.5995
 5529SOL     OW18786   2.248   0.475   4.736 -0.1855  0.1937 -0.3249
 5529SOL    HW118787   2.325   0.421   4.753  1.1349  1.7162 -1.1352
 5529SOL    HW218788   2.283   0.563   4.721 -2.1628  1.1041  0.0345
 5530SOL     OW18789   7.460   6.436   5.497  0.3904  0.3603  0.0282
 5530SOL    HW118790   7.544   6.416   5.456  0.3953 -1.3262  0.7592
 5530SOL    HW218791   7.476   6.428   5.591 -0.2396  1.5257  0.2540
 5531SOL     OW18792   0.658   0.233   6.510  0.3120 -0.4631 -0.0871
 5531SOL    HW118793   0.629   0.182   6.434 -0.4755  0.4582 -0.4297
 5531SOL    HW218794   0.678   0.320   6.475  2.1211 -0.6322  0.4025
 5532SOL     OW18795   6.325   5.683   4.988 -0.4863 -0.1116 -1.1913
 5532SOL    HW118796   6.368   5.703   4.904 -0.1270 -0.9501 -1.2151
 5532SOL    HW218797   6.277   5.602   4.971  1.0446 -1.3013 -0.1018
 5533SOL     OW18798   3.009   7.180   3.105  0.2450  0.6153  0.1150
 5533SOL    HW118799   2.965   7.161   3.021 -0.6705  0.0859  0.6990
 5533SOL    HW218800   3.011   7.096   3.151 -0.5458  1.1772  1.2139
 5534SOL     OW18801   0.732   4.525   5.535  0.3896  0.7527  0.8088
 5534SOL    HW118802   0.691   4.500   5.618 -1.6346 -0.7752 -0.5315
 5534SOL    HW218803   0.810   4.470   5.529 -0.2181 -0.1716  1.1049
 5535SOL     OW18804   4.936   8.780   8.748  0.8276 -0.1555  0.1615
 5535SOL    HW118805   4.923   8.848   8.683 -1.2517 -0.7503 -0.0952
 5535SOL    HW218806   4.853   8.733   8.752  2.2128 -2.8270  0.1645
 5536SOL     OW18807   3.373   6.415   2.969 -0.6056  0.1380  0.3812
 5536SOL    HW118808   3.397   6.382   3.055  0.0401 -1.6416 -0.4234
 5536SOL    HW218809   3.456   6.437   2.927 -0.4660 -2.8495 -1.1877
 5537SOL     OW18810   7.358   4.782   0.840 -0.1764 -0.0261  0.6087
 5537SOL    HW118811   7.295   4.716   0.812 -0.3190  1.0048 -1.7022
 5537SOL    HW218812   7.305   4.849   0.884 -0.4393 -0.0471  0.3267
 5538SOL     OW18813   1.884   1.697   5.852  0.1734  0.2779 -0.1339
 5538SOL    HW118814   1.859   1.622   5.906 -1.7505  0.0424 -1.2714
 5538SOL    HW218815   1.887   1.770   5.913  1.5058 -0.5848  0.8906
 5539SOL     OW18816   0.467   3.218   7.686  0.0765  0.1452 -0.2787
 5539SOL    HW118817   0.410   3.142   7.674 -0.6854  0.7822 -0.8519
 5539SOL    HW218818   0.545   3.198   7.634  0.3490 -0.7017  0.4419
 5540SOL     OW18819   4.282   3.686   4.854  0.0809 -0.0654  0.0573
 5540SOL    HW118820   4.308   3.768   4.812 -0.2506 -0.2663 -0.5492
 5540SOL    HW218821   4.286   3.621   4.784  1.8688 -0.8908  0.8647
 5541SOL     OW18822   1.738   5.517   4.039 -0.5868 -0.0777  1.0742
 5541SOL    HW118823   1.782   5.471   3.967 -0.2614  1.8368 -0.0173
 5541SOL    HW218824   1.740   5.609   4.014 -3.1447  0.3635  2.1333
 5542SOL     OW18825   0.278   4.722   6.378  0.0835 -0.3154  0.0300
 5542SOL    HW118826   0.366   4.708   6.413  0.2841  0.1593 -0.2700
 5542SOL    HW218827   0.227   4.752   6.453  0.4080  0.2929  0.0164
 5543SOL     OW18828   4.751   5.299   8.638  0.1919 -0.3061  0.5427
 5543SOL    HW118829   4.732   5.217   8.592 -1.3017  1.1938 -1.7470
 5543SOL    HW218830   4.665   5.335   8.658  0.7717  1.3721  0.1713
 5544SOL     OW18831   0.424   0.921   6.879 -0.0358  0.7042  0.3889
 5544SOL    HW118832   0.438   1.011   6.907 -1.4284  0.9101  0.4931
 5544SOL    HW218833   0.440   0.922   6.784 -1.4884  1.4016  0.1352
 5545SOL     OW18834   3.288   3.567   8.047 -0.1714 -0.4788 -0.2443
 5545SOL    HW118835   3.319   3.512   7.975 -0.8152 -0.3182 -0.6520
 5545SOL    HW218836   3.363   3.622   8.069 -0.0075 -0.4382 -0.8817
 5546SOL     OW18837   6.016   5.075   5.637  0.0401  0.0187 -0.2130
 5546SOL    HW118838   5.940   5.122   5.601  0.8025  1.2384 -0.2831
 5546SOL    HW218839   6.001   4.983   5.613 -0.5635  0.4905 -1.7546
 5547SOL     OW18840   0.816   6.823   4.111 -0.3127 -0.4532 -0.3959
 5547SOL    HW118841   0.771   6.861   4.036 -0.6756  0.5340  0.2965
 5547SOL    HW218842   0.846   6.737   4.081 -3.3250 -1.5023 -0.6626
 5548SOL     OW18843   1.763   6.996   1.640  0.3864 -0.0690 -0.0722
 5548SOL    HW118844   1.740   7.046   1.562  2.1816 -1.2635 -1.4399
 5548SOL    HW218845   1.854   7.022   1.659  0.9844 -1.9598 -0.1741
 5549SOL     OW18846   0.730   8.252   3.238  0.1325  0.0239  0.5881
 5549SOL    HW118847   0.822   8.275   3.220 -0.1441  1.9752  1.4272
 5549SOL    HW218848   0.713   8.289   3.324 -1.1136 -1.4345  1.0120
 5550SOL     OW18849   2.629   9.549   4.185 -0.0860  0.0510 -0.3361
 5550SOL    HW118850   2.701   9.490   4.163 -0.5410 -0.5505 -0.2184
 5550SOL    HW218851   2.661   9.636   4.159  0.5508 -0.2510 -0.5885
 5551SOL     OW18852   8.200   3.943   1.048 -0.1477  0.7526 -0.1274
 5551SOL    HW118853   8.152   3.894   1.115 -2.8261  0.9289 -1.7396
 5551SOL    HW218854   8.136   4.007   1.016  2.0533  2.7800 -0.6994
 5552SOL     OW18855   0.104   4.473   0.023  0.1694 -0.1938  0.2216
 5552SOL    HW118856   0.060   4.397   0.062 -0.1940  0.1295  0.4485
 5552SOL    HW218857   0.089   4.464  -0.071  0.0851 -0.3747  0.2509
 5553SOL     OW18858   6.717   1.607   6.644  0.3572 -0.0357  0.1868
 5553SOL    HW118859   6.686   1.695   6.624  0.2532 -0.1292 -0.0687
 5553SOL    HW218860   6.790   1.621   6.705  0.4634  0.2359 -0.0000
 5554SOL     OW18861   3.758   3.636   8.937  0.1554  0.1751  0.3837
 5554SOL    HW118862   3.738   3.663   9.026 -1.5435 -0.6261  0.2854
 5554SOL    HW218863   3.784   3.717   8.893  0.3709  0.6952  1.4306
 5555SOL     OW18864   5.764   4.904   1.091 -0.1793  0.6903  0.4472
 5555SOL    HW118865   5.794   4.974   1.032 -0.6692 -1.1964 -2.2246
 5555SOL    HW218866   5.798   4.823   1.051 -2.5141 -0.8927  1.4489
 5556SOL     OW18867   9.543   6.551   3.955  0.0984 -0.0154  0.0540
 5556SOL    HW118868   9.513   6.642   3.946 -1.3884 -0.3968  0.7625
 5556SOL    HW218869   9.578   6.546   4.044  2.5798  0.4599 -0.8068
 5557SOL     OW18870   1.269   1.823   1.302 -0.0310  0.2381 -0.3007
 5557SOL    HW118871   1.251   1.741   1.349 -0.7095 -1.0151 -2.6215
 5557SOL    HW218872   1.185   1.869   1.302 -0.6725 -0.8301 -2.1703
 5558SOL     OW18873   5.348   7.990   5.963  0.5486  0.9289  0.7643
 5558SOL    HW118874   5.335   7.895   5.970  1.4716  0.7745  0.5144
 5558SOL    HW218875   5.260   8.025   5.952  0.2196  0.0733  0.5746
 5559SOL     OW18876   8.946   9.563   7.659  0.6940  0.2582  0.2831
 5559SOL    HW118877   9.033   9.597   7.635  1.5760 -2.0101  0.0517
 5559SOL    HW218878   8.938   9.481   7.611  0.0209 -1.4810  3.1176
 5560SOL     OW18879   1.604   0.348   9.013  0.0389  0.3992 -0.0266
 5560SOL    HW118880   1.552   0.328   8.936 -0.8904 -0.0259  0.6958
 5560SOL    HW218881   1.656   0.425   8.988 -1.1580  1.0257 -0.6660
 5561SOL     OW18882   3.704   5.347   6.373  0.3315  0.3015 -0.5950
 5561SOL    HW118883   3.627   5.404   6.360  0.4562  0.6260  0.0313
 5561SOL    HW218884   3.667   5.261   6.393  0.1397  0.1913 -1.3906
 5562SOL     OW18885   1.970   0.906   4.811  0.0401  0.3799  0.0310
 5562SOL    HW118886   2.005   0.988   4.776  0.0424  0.0473 -0.7901
 5562SOL    HW218887   2.033   0.878   4.877  1.7342 -0.5323 -1.8539
 5563SOL     OW18888   2.594   5.835   1.574 -0.7682  0.3253  0.5435
 5563SOL    HW118889   2.551   5.900   1.630 -0.9319  1.0151 -0.3695
 5563SOL    HW218890   2.682   5.827   1.610 -0.2987  2.0632 -0.1167
 5564SOL     OW18891   8.707   4.268   1.264 -0.1044  0.3264 -0.3097
 5564SOL    HW118892   8.770   4.294   1.332  0.8115 -0.8134 -0.6868
 5564SOL    HW218893   8.705   4.342   1.204  2.0146 -0.1547 -1.0636
 5565SOL     OW18894   0.964   9.202   1.195  0.0600 -0.1594  0.0609
 5565SOL    HW118895   0.954   9.273   1.258  0.3548 -1.3664  1.5404
 5565SOL    HW218896   1.047   9.220   1.150  0.4164  0.1322  0.8275
 5566SOL     OW18897   5.858   6.279   3.199  0.1406  0.4238  0.4790
 5566SOL    HW118898   5.950   6.291   3.220  0.0384  0.6498  0.8135
 5566SOL    HW218899   5.857   6.212   3.130  0.6200  1.2158 -0.3128
 5567SOL     OW18900   8.355   1.533   9.485  0.4756 -0.2248  0.1930
 5567SOL    HW118901   8.445   1.558   9.506 -0.1843  1.6259  1.0722
 5567SOL    HW218902   8.311   1.530   9.570 -0.9391  1.7904 -0.3880
 5568SOL     OW18903   4.193   8.860   6.029 -0.0592 -0.3394  0.0458
 5568SOL    HW118904   4.259   8.799   5.995  0.4507  0.4598 -0.4336
 5568SOL    HW218905   4.206   8.857   6.124  2.5971  1.8336 -0.1252
 5569SOL     OW18906   1.054   8.404   2.162  0.5790  0.5477 -0.5845
 5569SOL    HW118907   0.982   8.346   2.140 -0.8303  2.0458 -0.0862
 5569SOL    HW218908   1.125   8.378   2.103  0.5504 -2.6275  0.5978
 5570SOL     OW18909   0.976   5.856   8.564  0.2172  0.1515  0.0503
 5570SOL    HW118910   1.069   5.877   8.555  0.0090  1.6974  1.0846
 5570SOL    HW218911   0.934   5.941   8.579 -0.9300 -0.8241  2.9611
 5571SOL     OW18912   6.102   0.342   3.573 -0.2377  0.5292 -0.3709
 5571SOL    HW118913   6.155   0.287   3.630  0.0971  0.4805 -0.7167
 5571SOL    HW218914   6.068   0.411   3.630 -1.5875 -0.6496  0.2909
 5572SOL     OW18915   4.686   9.413   1.783  0.1947  0.6306  0.2780
 5572SOL    HW118916   4.638   9.472   1.726 -1.2863  0.4626  1.2928
 5572SOL    HW218917   4.719   9.344   1.726 -3.1817 -0.7908 -0.1476
 5573SOL     OW18918   0.269   6.064   4.819 -0.1813 -0.0153 -0.1959
 5573SOL    HW118919   0.362   6.071   4.798 -0.3814  0.1990 -1.0372
 5573SOL    HW218920   0.258   6.122   4.895  0.3780 -0.0842 -0.0525
 5574SOL     OW18921   2.960   6.511   9.520 -0.3525 -0.5107  0.1182
 5574SOL    HW118922   3.015   6.522   9.598  0.3382 -0.1249 -0.4022
 5574SOL    HW218923   2.938   6.600   9.493 -1.9571 -0.6830  0.7983
 5575SOL     OW18924   0.870   7.589   2.147 -0.3009  0.6220  0.3093
 5575SOL    HW118925   0.857   7.653   2.217 -0.5453  0.6141  0.2718
 5575SOL    HW218926   0.962   7.597   2.124 -0.3399  0.9866  0.2773
 5576SOL     OW18927   3.242   9.456   4.138  0.2291 -0.3293  0.6009
 5576SOL    HW118928   3.185   9.533   4.139 -1.1439 -1.2930  0.8412
 5576SOL    HW218929   3.276   9.451   4.228 -2.4706 -1.8746  1.6941
 5577SOL     OW18930   2.619   5.097   0.738  0.3451 -0.5563  0.0164
 5577SOL    HW118931   2.557   5.163   0.769  1.2779  0.4561 -0.2192
 5577SOL    HW218932   2.651   5.055   0.818  0.2588 -0.2474  0.2163
 5578SOL     OW18933   8.052   1.890   1.808 -0.7846 -0.1095  0.1738
 5578SOL    HW118934   7.971   1.942   1.802 -1.4500 -0.9804  1.1602
 5578SOL    HW218935   8.117   1.951   1.841 -0.7642  0.8635 -1.5382
 5579SOL     OW18936   1.750   4.339   7.391 -0.1406  0.1421 -0.1813
 5579SOL    HW118937   1.656   4.329   7.400  0.0952 -0.5031  2.0395
 5579SOL    HW218938   1.785   4.329   7.479  2.0849 -0.4099 -1.0373
 5580SOL     OW18939   8.280   6.242   6.809 -0.4271 -0.1709  0.0214
 5580SOL    HW118940   8.231   6.315   6.771 -0.5082 -0.2056  0.0589
 5580SOL    HW218941   8.359   6.235   6.755  1.1250  1.9350  1.8476
 5581SOL     OW18942   0.625   9.102   0.685  0.0165  0.0248 -0.1975
 5581SOL    HW118943   0.716   9.124   0.704 -0.3225  0.8932  0.4977
 5581SOL    HW218944   0.629   9.014   0.647  1.2880  0.7008 -1.7586
 5582SOL     OW18945   8.925   1.552   9.501  0.0430  0.1150  0.1192
 5582SOL    HW118946   8.847   1.589   9.541 -0.3896  0.2243 -0.7945
 5582SOL    HW218947   8.899   1.532   9.411  1.1864  0.5595 -0.3348
 5583SOL     OW18948   5.342   7.421   8.191  0.0071  0.0401  0.2424
 5583SOL    HW118949   5.395   7.400   8.115  1.4050  1.3453  0.8126
 5583SOL    HW218950   5.327   7.337   8.234 -1.2271 -0.7945 -1.6891
 5584SOL     OW18951   6.878   4.515   9.291  0.0518  0.0024 -0.4243
 5584SOL    HW118952   6.907   4.469   9.370 -0.7702  0.6951  0.3062
 5584SOL    HW218953   6.784   4.527   9.303 -0.0814  0.1357 -1.5116
 5585SOL     OW18954   2.311   8.269   0.987  0.4237 -0.5554 -0.5565
 5585SOL    HW118955   2.361   8.240   1.063 -0.3205 -3.3657 -1.0252
 5585SOL    HW218956   2.369   8.253   0.912 -0.0337 -0.9555 -0.8376
 5586SOL     OW18957   2.995   7.744   8.238 -0.7055  0.2839  0.2933
 5586SOL    HW118958   2.921   7.793   8.202  1.4783  1.7047 -2.6611
 5586SOL    HW218959   3.050   7.810   8.280 -0.2256 -0.4697  0.8742
 5587SOL     OW18960   2.726   5.014   7.543  0.2503 -0.6420  0.6393
 5587SOL    HW118961   2.741   4.931   7.497  0.3143 -2.4972  3.6910
 5587SOL    HW218962   2.800   5.070   7.518  0.6459 -1.7800 -0.8792
 5588SOL     OW18963   4.973   3.640   0.140 -0.1311  0.6873  0.1104
 5588SOL    HW118964   5.018   3.589   0.072  1.5345  2.0042  0.1633
 5588SOL    HW218965   4.894   3.672   0.098  1.6208  2.7882 -1.8031
 5589SOL     OW18966   4.325   3.486   8.590  0.1881  0.2978  0.3968
 5589SOL    HW118967   4.243   3.535   8.580 -0.6141 -0.4390  2.5991
 5589SOL    HW218968   4.306   3.423   8.660  1.7749 -1.8590 -1.0030
 5590SOL     OW18969   7.730   7.723   4.927 -0.1977  0.2015 -0.6380
 5590SOL    HW118970   7.731   7.627   4.924  0.7009  0.1807  0.0665
 5590SOL    HW218971   7.680   7.744   5.006  1.8507  0.2376  0.7303
 5591SOL     OW18972   7.192   6.701   6.140 -0.1405 -0.0675 -0.7687
 5591SOL    HW118973   7.191   6.689   6.045  0.0995 -1.4592 -0.6175
 5591SOL    HW218974   7.124   6.766   6.156 -0.7194 -0.3686 -1.8338
 5592SOL     OW18975   2.580   6.259   7.835  0.1633  0.0388  0.7266
 5592SOL    HW118976   2.626   6.337   7.803  0.4657  0.9497  3.1499
 5592SOL    HW218977   2.529   6.290   7.910 -3.2191 -1.2674 -0.8180
 5593SOL     OW18978   3.595   5.705   2.929  0.3767  0.2834  0.2594
 5593SOL    HW118979   3.564   5.615   2.926  0.4340  0.2558  0.4625
 5593SOL    HW218980   3.551   5.749   2.857  0.3480  0.0922  0.1624
 5594SOL     OW18981   1.015   5.747   5.978  0.6507 -0.7874  0.5111
 5594SOL    HW118982   1.029   5.841   5.991  1.0582 -0.9176  1.0598
 5594SOL    HW218983   1.043   5.730   5.888  0.2776 -0.3285  0.3054
 5595SOL     OW18984   6.200   4.054   8.545 -0.2534  0.1017  0.2357
 5595SOL    HW118985   6.255   4.083   8.618  0.1139  1.2224 -0.4510
 5595SOL    HW218986   6.224   4.112   8.473 -2.8046  1.1080  0.0826
 5596SOL     OW18987   6.598   4.366   6.045 -0.1058  0.0814  0.6500
 5596SOL    HW118988   6.580   4.446   5.995  0.7920  0.0981  0.3406
 5596SOL    HW218989   6.516   4.347   6.091 -1.3573 -0.5448 -1.6827
 5597SOL     OW18990   5.550   8.611   4.779  0.5864  0.2832  0.6129
 5597SOL    HW118991   5.477   8.549   4.769  0.8518 -0.4460  2.6034
 5597SOL    HW218992   5.509   8.691   4.811  0.4775  0.4219  0.1268
 5598SOL     OW18993   5.509   9.008   2.695  0.1231 -0.4123  0.3062
 5598SOL    HW118994   5.502   8.942   2.764 -0.6050 -1.3510 -0.6400
 5598SOL    HW218995   5.596   9.047   2.708  0.2089 -0.9483  1.4124
 5599SOL     OW18996   9.346   8.594   5.290 -0.1328 -0.8619 -0.0119
 5599SOL    HW118997   9.271   8.643   5.325 -0.3013 -0.9221 -0.2877
 5599SOL    HW218998   9.321   8.502   5.298 -0.4551 -0.8640 -0.8995
 5600SOL     OW18999   7.176   6.248   9.321 -0.3235 -0.3072 -0.3816
 5600SOL    HW119000   7.122   6.209   9.391 -0.8875  0.5769 -0.3015
 5600SOL    HW219001   7.188   6.177   9.258 -2.1403 -0.3724 -0.7084
 5601SOL     OW19002   9.108   7.873   0.939 -0.0405 -0.0097  0.1487
 5601SOL    HW119003   9.188   7.894   0.889  0.4509 -2.5263 -0.2417
 5601SOL    HW219004   9.127   7.903   1.028 -0.0795  2.5784 -0.6360
 5602SOL     OW19005   8.181   0.883   6.013  0.1505  0.0582 -0.1694
 5602SOL    HW119006   8.257   0.937   6.038 -1.8991  2.5765  1.2075
 5602SOL    HW219007   8.134   0.936   5.949 -1.5406 -0.3980  0.6240
 5603SOL     OW19008   7.878   8.624   0.222  0.2227 -0.3998 -0.2169
 5603SOL    HW119009   7.825   8.685   0.170  0.6342  0.7113  0.6179
 5603SOL    HW219010   7.830   8.541   0.218 -1.5269  0.5297  0.4200
 5604SOL     OW19011   8.203   7.144   4.027  0.2015 -0.7113  0.4325
 5604SOL    HW119012   8.113   7.162   3.999  0.6257 -1.7108 -1.7730
 5604SOL    HW219013   8.214   7.197   4.106 -1.8208  0.6261 -0.0923
 5605SOL     OW19014   3.607   5.701   6.697  0.2763 -0.2412 -0.1557
 5605SOL    HW119015   3.629   5.681   6.606 -0.3656 -1.2811 -0.0970
 5605SOL    HW219016   3.540   5.637   6.720 -1.5070  1.6435  0.2404
 5606SOL     OW19017   5.602   0.566   7.096  0.1015  0.1685  0.3658
 5606SOL    HW119018   5.513   0.547   7.125  0.2178 -0.3204  0.4102
 5606SOL    HW219019   5.601   0.548   7.002  0.0292  0.6361  0.2723
 5607SOL     OW19020   0.331   3.445   3.505 -0.4899 -0.5576 -0.0586
 5607SOL    HW119021   0.347   3.417   3.595 -0.7474 -1.0342 -0.1556
 5607SOL    HW219022   0.366   3.374   3.451  0.2382  0.0119 -0.3585
 5608SOL     OW19023   5.994   3.165   6.689  0.4493  0.0924  0.4648
 5608SOL    HW119024   5.971   3.091   6.632  2.0524 -0.4032  0.3961
 5608SOL    HW219025   5.920   3.224   6.683 -0.2245 -0.8207 -0.6751
 5609SOL     OW19026   9.287   1.667   0.795 -0.6095  0.7526  0.6792
 5609SOL    HW119027   9.292   1.724   0.719  0.8030  0.0216  0.1863
 5609SOL    HW219028   9.200   1.627   0.790 -1.3233  2.2540  0.6186
 5610SOL     OW19029   1.366   3.278   1.308 -0.4627  0.2832  0.1625
 5610SOL    HW119030   1.305   3.208   1.287  0.3326 -0.5453  0.5466
 5610SOL    HW219031   1.383   3.267   1.401  2.0801 -1.0165 -0.3745
 5611SOL     OW19032   6.307   5.896   0.489  0.3070 -0.4673  0.4016
 5611SOL    HW119033   6.302   5.895   0.393  0.3240 -0.9392  0.3997
 5611SOL    HW219034   6.278   5.984   0.514  0.4293 -0.2978 -0.0432
 5612SOL     OW19035   9.283   2.487   4.015 -0.1247  0.2333  0.0880
 5612SOL    HW119036   9.256   2.504   3.925 -1.2865  0.3389  0.4395
 5612SOL    HW219037   9.337   2.408   4.010  0.7846  0.8948 -0.8387
 5613SOL     OW19038   8.473   2.769   1.988  0.4760  0.6004 -0.0851
 5613SOL    HW119039   8.466   2.810   2.074 -1.0274 -1.3105  0.7860
 5613SOL    HW219040   8.391   2.721   1.978  0.4905  0.9670 -2.7289
 5614SOL     OW19041   5.705   2.665   7.081 -0.2105  0.2453  0.3008
 5614SOL    HW119042   5.611   2.681   7.089 -0.5198 -0.3018 -1.5544
 5614SOL    HW219043   5.720   2.663   6.986  1.7189  0.5465  0.5662
 5615SOL     OW19044   1.325   1.355   6.296 -0.7169 -0.1271 -0.1740
 5615SOL    HW119045   1.241   1.328   6.334 -2.2604  1.9942 -1.7771
 5615SOL    HW219046   1.328   1.450   6.311  1.6234 -0.2209  0.1783
 5616SOL     OW19047   6.407   0.445   5.724  0.3685 -0.0315  0.0314
 5616SOL    HW119048   6.382   0.509   5.657  0.2292 -0.3607 -0.2330
 5616SOL    HW219049   6.334   0.385   5.729  0.8199 -0.6167 -0.2738
 5617SOL     OW19050   9.300   3.803   2.151  0.2784 -0.6083  0.3397
 5617SOL    HW119051   9.282   3.802   2.057  0.3796 -1.6795  0.3168
 5617SOL    HW219052   9.393   3.826   2.157  0.6546 -1.9816  0.0859
 5618SOL     OW19053   5.647   6.158   6.772 -1.0654  0.1314 -0.1043
 5618SOL    HW119054   5.600   6.092   6.823  1.3222 -0.3486  1.6615
 5618SOL    HW219055   5.715   6.109   6.725 -0.7120  1.0465 -0.5751
 5619SOL     OW19056   0.831   8.739   6.791 -0.2158  0.3591  0.0303
 5619SOL    HW119057   0.881   8.821   6.798 -0.9675  0.7645  0.7878
 5619SOL    HW219058   0.868   8.683   6.859 -1.5804  1.1015  1.4279
 5620SOL     OW19059   3.110   3.703   5.687 -0.0185  0.3042  0.1408
 5620SOL    HW119060   3.026   3.744   5.667 -0.7439 -0.4811  1.4640
 5620SOL    HW219061   3.091   3.609   5.688  0.3652  0.1883  2.4706
 5621SOL     OW19062   1.190   1.026   3.627  0.8275  0.2036 -0.1627
 5621SOL    HW119063   1.193   1.090   3.699  0.0775 -1.4241  1.3967
 5621SOL    HW219064   1.097   1.013   3.611  0.9838  0.9505 -1.8627
 5622SOL     OW19065   7.205   2.509   0.469  0.5939  0.3529  0.2443
 5622SOL    HW119066   7.133   2.547   0.419  0.2149  0.3827  0.7934
 5622SOL    HW219067   7.163   2.442   0.524  1.2143 -0.6897 -0.5226
 5623SOL     OW19068   4.007   7.660   4.618 -0.2962  0.0263 -0.1331
 5623SOL    HW119069   3.914   7.637   4.624  0.1217 -1.7575 -0.0287
 5623SOL    HW219070   4.028   7.651   4.525  0.2570 -1.7393  0.1287
 5624SOL     OW19071   2.333   3.809   8.672  0.6522  0.4898 -0.6848
 5624SOL    HW119072   2.350   3.716   8.685  1.2625  0.5011 -1.3710
 5624SOL    HW219073   2.263   3.830   8.735  1.3427 -0.1597  0.3327
 5625SOL     OW19074   3.802   6.033   0.913 -0.5972 -0.1180  0.1325
 5625SOL    HW119075   3.767   6.049   0.825 -0.3120 -0.2143  0.0028
 5625SOL    HW219076   3.769   6.107   0.965 -0.1196  0.3616 -0.2330
 5626SOL     OW19077   7.389   4.030   2.701  0.2079 -0.2106  0.0511
 5626SOL    HW119078   7.429   4.034   2.788  0.1994 -0.2259  0.0558
 5626SOL    HW219079   7.459   4.059   2.642 -0.3273  1.5778  0.2277
 5627SOL     OW19080   3.532   7.026   2.128  0.2569 -0.6285 -0.0288
 5627SOL    HW119081   3.598   6.988   2.187  0.5627 -1.8152 -1.1019
 5627SOL    HW219082   3.528   7.118   2.154  2.5446 -0.4424 -0.0983
 5628SOL     OW19083   7.679   3.225   3.586  0.0714  0.6250 -0.3980
 5628SOL    HW119084   7.760   3.273   3.567 -0.1375  1.0695 -0.1728
 5628SOL    HW219085   7.649   3.195   3.500  0.2584  0.8108 -0.5299
 5629SOL     OW19086   9.174   3.780   2.671 -0.1404  0.5721  0.0804
 5629SOL    HW119087   9.255   3.752   2.714  0.2909  0.6071 -0.6837
 5629SOL    HW219088   9.145   3.703   2.622 -0.5936  0.5474  0.3830
 5630SOL     OW19089   4.307   5.998   8.834  0.0017  0.3507 -0.1836
 5630SOL    HW119090   4.333   6.008   8.742  0.5194  1.3665  0.0537
 5630SOL    HW219091   4.234   6.060   8.844 -0.2228  0.0517  0.0253
 5631SOL     OW19092   7.397   2.611   3.883  0.3968 -0.6067  0.1289
 5631SOL    HW119093   7.328   2.662   3.925 -0.4451 -3.4004  2.5324
 5631SOL    HW219094   7.476   2.631   3.933  0.2696 -0.8510  0.4392
 5632SOL     OW19095   5.681   7.388   1.473 -0.6745  0.4424  0.0268
 5632SOL    HW119096   5.707   7.473   1.437  0.3988  0.5370  0.9583
 5632SOL    HW219097   5.761   7.336   1.470 -1.4294 -0.6925 -0.9262
 5633SOL     OW19098   8.503   5.254   7.547 -0.1253 -0.0050 -0.1444
 5633SOL    HW119099   8.446   5.215   7.612  0.9829  0.9496  1.4722
 5633SOL    HW219100   8.481   5.347   7.548  0.5247  0.1607 -0.4921
 5634SOL     OW19101   2.767   5.438   4.451  0.1112  0.1396  0.0763
 5634SOL    HW119102   2.733   5.495   4.520 -0.7757  0.4222 -0.5697
 5634SOL    HW219103   2.689   5.411   4.402  0.7136 -0.1536 -0.7379
 5635SOL     OW19104   3.915   5.552   8.128  0.3786  0.3697  1.2257
 5635SOL    HW119105   3.824   5.525   8.143  0.8497 -1.0391  1.7685
 5635SOL    HW219106   3.929   5.537   8.034 -0.1098  1.1301  1.0280
 5636SOL     OW19107   0.677   2.135   5.711 -0.6954  0.0769  0.3231
 5636SOL    HW119108   0.691   2.072   5.781  0.0271  0.4282  0.5055
 5636SOL    HW219109   0.588   2.168   5.726 -0.3095  0.6473  1.4898
 5637SOL     OW19110   0.343   3.390   7.372  0.1230  0.0526 -0.0598
 5637SOL    HW119111   0.288   3.468   7.373  1.2405  0.8579  0.1781
 5637SOL    HW219112   0.316   3.341   7.450 -0.7380  0.0779 -0.3307
 5638SOL     OW19113   2.772   0.783   6.702  0.0392 -0.7809  0.5404
 5638SOL    HW119114   2.727   0.829   6.631 -0.7813  0.1990  1.6314
 5638SOL    HW219115   2.766   0.844   6.776  2.7716 -0.8255  0.8855
 5639SOL     OW19116   2.730   1.766   3.553 -0.4991  0.1470 -0.0413
 5639SOL    HW119117   2.762   1.775   3.643  1.5828 -1.7951 -0.4836
 5639SOL    HW219118   2.729   1.855   3.518  1.1505  0.6665  1.1354
 5640SOL     OW19119   7.761   5.723   2.442 -0.6102  0.9127 -0.0407
 5640SOL    HW119120   7.680   5.762   2.411  0.0592  0.9913 -1.7809
 5640SOL    HW219121   7.768   5.640   2.395 -0.2468  0.3550  0.9622
 5641SOL     OW19122   9.052   5.443   6.765 -0.0236  0.5532 -0.5274
 5641SOL    HW119123   8.966   5.403   6.747 -0.0381  0.2028  0.2743
 5641SOL    HW219124   9.032   5.525   6.809  0.0197  1.2755 -1.8106
 5642SOL     OW19125   7.656   3.962   7.978 -0.2202 -0.4490 -0.2199
 5642SOL    HW119126   7.631   4.054   7.967  0.7065 -0.1324  0.2050
 5642SOL    HW219127   7.723   3.964   8.046 -0.0816 -1.4283 -0.3219
 5643SOL     OW19128   1.206   1.072   4.706 -0.0517  0.1503  0.6843
 5643SOL    HW119129   1.256   1.107   4.632  0.8341 -1.7690  0.3097
 5643SOL    HW219130   1.120   1.114   4.698 -0.3621 -0.7832 -2.1101
 5644SOL     OW19131   2.132   6.218   6.547  0.0802 -0.6081 -0.2149
 5644SOL    HW119132   2.050   6.185   6.583 -0.2581  0.8282  0.4092
 5644SOL    HW219133   2.174   6.141   6.509 -2.9434 -0.9295 -3.3740
 5645SOL     OW19134   6.596   0.007   4.612  0.2896  0.0129  0.3264
 5645SOL    HW119135   6.683   0.007   4.653  1.9531  1.5024 -2.8700
 5645SOL    HW219136   6.556   0.089   4.642  1.1025  0.6231 -0.1907
 5646SOL     OW19137   1.737   3.929   5.048  0.0741 -0.0969  0.2433
 5646SOL    HW119138   1.791   4.008   5.040  2.4968 -1.6988 -0.2233
 5646SOL    HW219139   1.687   3.943   5.129  0.7050  1.7417  0.3684
 5647SOL     OW19140   6.090   8.700   0.077  0.7288 -0.2848 -0.8446
 5647SOL    HW119141   6.126   8.611   0.087  1.1807 -0.3465 -2.7138
 5647SOL    HW219142   6.052   8.701  -0.011 -2.4880  0.2991  0.4365
 5648SOL     OW19143   7.430   6.483   7.047  0.3497 -0.6320  0.4021
 5648SOL    HW119144   7.368   6.428   6.999 -1.7200  0.9890  1.0893
 5648SOL    HW219145   7.515   6.463   7.006 -0.6704 -2.4403 -1.0220
 5649SOL     OW19146   2.423   9.484   0.801  0.6425  0.3715  0.3885
 5649SOL    HW119147   2.409   9.577   0.816 -0.7651 -0.0715  2.1768
 5649SOL    HW219148   2.514   9.468   0.828  0.9057  1.2058  0.0285
 5650SOL     OW19149   1.950   5.221   7.706 -0.7506  0.0008  0.0852
 5650SOL    HW119150   1.965   5.314   7.692  0.8079 -0.1372  0.6223
 5650SOL    HW219151   2.019   5.194   7.767 -0.8802 -1.5948 -0.4147
 5651SOL     OW19152   7.186   9.429   7.432 -0.3653  0.3414  0.5518
 5651SOL    HW119153   7.166   9.411   7.340 -0.4447  1.0795  0.4188
 5651SOL    HW219154   7.210   9.344   7.468 -0.6082 -0.0050 -0.0829
 5652SOL     OW19155   7.920   3.249   2.987 -0.2617 -0.5733 -0.2430
 5652SOL    HW119156   7.976   3.311   2.939 -1.4819  0.8454  0.1044
 5652SOL    HW219157   7.957   3.163   2.966  1.0038  0.1999 -1.3842
 5653SOL     OW19158   2.708   9.204   1.729  0.4763  0.4426 -0.5906
 5653SOL    HW119159   2.798   9.217   1.698  0.9481 -0.4751  0.3315
 5653SOL    HW219160   2.713   9.215   1.824 -0.5406  1.1014 -0.5948
 5654SOL     OW19161   2.929   8.477   0.064  0.2118 -0.0834  0.1934
 5654SOL    HW119162   2.857   8.428   0.104 -0.5481  0.6912 -0.2079
 5654SOL    HW219163   2.979   8.511   0.138 -1.0521  1.1502  0.5113
 5655SOL     OW19164   0.013   6.781   0.667 -0.1406 -0.2786 -0.0769
 5655SOL    HW119165  -0.016   6.778   0.758  2.8275 -0.1639  0.9937
 5655SOL    HW219166  -0.006   6.870   0.638 -1.8408 -0.5533  0.1210
 5656SOL     OW19167   7.683   6.042   3.714  0.3590  0.0799 -0.4250
 5656SOL    HW119168   7.774   6.037   3.684  0.5565 -2.1001  0.3382
 5656SOL    HW219169   7.659   5.951   3.731 -0.6334  0.8459  3.2355
 5657SOL     OW19170   5.730   3.321   8.449 -0.4201 -0.1755 -0.2861
 5657SOL    HW119171   5.661   3.268   8.489  0.4163 -2.1594 -1.3376
 5657SOL    HW219172   5.724   3.300   8.356  1.5433 -0.3254 -0.4039
 5658SOL     OW19173   0.925   0.526   2.613 -0.0323 -0.0736 -0.4257
 5658SOL    HW119174   0.943   0.583   2.688  0.1864  0.8929 -1.1734
 5658SOL    HW219175   0.885   0.448   2.650 -0.1781  0.4978  0.6636
 5659SOL     OW19176   5.993   8.792   8.894  0.5017 -0.3593  0.0771
 5659SOL    HW119177   6.077   8.786   8.848 -0.9298 -2.9506 -2.5409
 5659SOL    HW219178   5.991   8.713   8.948 -0.7640 -1.0531 -0.9436
 5660SOL     OW19179   7.782   1.678   7.159  0.0305  0.4118  0.1653
 5660SOL    HW119180   7.714   1.627   7.116 -0.7444  0.9670  0.7138
 5660SOL    HW219181   7.805   1.745   7.096  0.7912 -0.3690 -0.4127
 5661SOL     OW19182   7.998   9.349   0.716  0.2437  0.4164 -0.3359
 5661SOL    HW119183   8.055   9.424   0.697 -1.0754  1.2520 -1.2009
 5661SOL    HW219184   8.009   9.291   0.641 -0.4052  0.8291 -0.7643
 5662SOL     OW19185   4.636   1.848   3.669  0.1122  0.3540  0.0308
 5662SOL    HW119186   4.594   1.767   3.643 -1.1914  1.4041 -1.3172
 5662SOL    HW219187   4.583   1.882   3.741 -1.2334  1.4945 -1.4279
 5663SOL     OW19188   2.463   9.317   5.511  0.0325  0.3209 -0.3946
 5663SOL    HW119189   2.369   9.331   5.513 -0.2505 -1.4007 -0.3739
 5663SOL    HW219190   2.499   9.388   5.564 -1.2980  0.6162  0.1472
 5664SOL     OW19191   1.142   8.267   9.204 -0.1682  0.0586  0.0432
 5664SOL    HW119192   1.122   8.216   9.283  0.0671 -1.8625 -1.0593
 5664SOL    HW219193   1.128   8.205   9.132 -0.0231  1.6436 -1.4064
 5665SOL     OW19194   0.945   1.895   2.521  0.1234 -0.1297  0.3848
 5665SOL    HW119195   0.970   1.805   2.498  0.6117 -0.0627  0.6372
 5665SOL    HW219196   0.856   1.905   2.487  0.3730 -0.4397 -0.3739
 5666SOL     OW19197   4.304   9.200   6.172  0.5051  0.0526 -0.2869
 5666SOL    HW119198   4.382   9.194   6.227 -0.5349 -0.0689  1.2457
 5666SOL    HW219199   4.337   9.195   6.082  2.2728  0.3746  0.3103
 5667SOL     OW19200   6.151   3.978   6.037  0.4199 -0.0150 -0.1965
 5667SOL    HW119201   6.239   3.992   6.004 -0.0907  2.1462 -0.8567
 5667SOL    HW219202   6.094   4.011   5.968 -0.9106 -1.1327  0.3138
 5668SOL     OW19203   4.309   7.549   5.363  0.0884 -0.3407 -0.3850
 5668SOL    HW119204   4.255   7.491   5.417  0.0810 -1.0096 -1.0984
 5668SOL    HW219205   4.277   7.535   5.274  1.5505 -0.8797 -0.8442
 5669SOL     OW19206   1.357   6.770   6.458 -0.2876 -0.3639 -0.2069
 5669SOL    HW119207   1.399   6.691   6.490 -0.9478 -0.7701 -0.3176
 5669SOL    HW219208   1.279   6.779   6.512 -0.3258  0.0980 -0.3337
 5670SOL     OW19209   9.243   3.538   8.720 -0.1063  0.3453  1.0220
 5670SOL    HW119210   9.158   3.539   8.764  0.2147 -1.5765  1.7604
 5670SOL    HW219211   9.307   3.551   8.790  0.2968 -0.2000  0.7643
 5671SOL     OW19212   7.733   7.597   4.596  0.1189  0.2599 -0.1340
 5671SOL    HW119213   7.794   7.607   4.669 -0.5287 -0.4962  0.5255
 5671SOL    HW219214   7.652   7.636   4.627 -0.5822 -1.3168  0.1162
 5672SOL     OW19215   2.967   8.845   2.939 -0.0171  0.1573  0.1506
 5672SOL    HW119216   2.946   8.797   3.019 -0.9922  0.6532  0.2031
 5672SOL    HW219217   3.042   8.797   2.902 -0.4953 -0.9636  0.5792
 5673SOL     OW19218   3.508   3.763   2.545 -0.5084 -0.8983  0.1571
 5673SOL    HW119219   3.434   3.705   2.527 -0.9731 -0.4312  0.5192
 5673SOL    HW219220   3.554   3.769   2.461 -0.9615 -1.0823 -0.1132
 5674SOL     OW19221   8.500   9.394   1.953 -0.0404 -0.2557  0.0676
 5674SOL    HW119222   8.468   9.373   2.041 -0.2951 -1.7420 -0.3545
 5674SOL    HW219223   8.574   9.335   1.940 -0.6227 -0.7612 -1.0906
 5675SOL     OW19224   3.663   0.285   4.548  0.1215 -0.9261  0.2137
 5675SOL    HW119225   3.595   0.304   4.612  0.4862 -1.1046  0.6625
 5675SOL    HW219226   3.620   0.293   4.463 -0.1413  0.2449  0.4474
 5676SOL     OW19227   2.290   6.319   9.455  0.7227 -0.0304 -0.2549
 5676SOL    HW119228   2.304   6.232   9.419 -0.7356 -0.6577  0.5914
 5676SOL    HW219229   2.238   6.364   9.388 -1.8733 -1.1536  0.8774
 5677SOL     OW19230   8.852   5.040   6.063 -0.3410  0.1416 -0.1852
 5677SOL    HW119231   8.853   5.048   5.968 -2.3359  1.2992 -0.1700
 5677SOL    HW219232   8.795   4.965   6.080  2.1124 -1.8046  0.1299
 5678SOL     OW19233   4.315   3.979   5.479 -0.1322  0.1945  0.0242
 5678SOL    HW119234   4.339   3.935   5.398  0.7422  0.2613  0.2457
 5678SOL    HW219235   4.348   4.068   5.468  1.6345 -0.2812  1.1959
 5679SOL     OW19236   2.855   6.190   7.698  0.6486  0.5013  0.3809
 5679SOL    HW119237   2.836   6.107   7.654 -0.5442  2.4763 -3.3097
 5679SOL    HW219238   2.769   6.233   7.706  1.4180  2.0716  0.5486
 5680SOL     OW19239   0.960   4.770   8.437 -0.0813  0.0292 -0.6088
 5680SOL    HW119240   1.004   4.821   8.368 -0.0220 -1.2474 -1.5382
 5680SOL    HW219241   0.867   4.787   8.424 -0.1053 -0.6448 -1.3735
 5681SOL     OW19242   7.230   2.123   5.675  0.0943 -0.1898  0.0378
 5681SOL    HW119243   7.242   2.140   5.581  3.0298 -0.8616  0.2120
 5681SOL    HW219244   7.305   2.165   5.717 -1.3760  0.4683  2.1935
 5682SOL     OW19245   8.126   3.080   8.394 -0.2555 -0.1002  0.1970
 5682SOL    HW119246   8.110   3.175   8.388 -1.2351 -0.3017 -0.7597
 5682SOL    HW219247   8.040   3.042   8.408 -0.0791 -0.9508 -0.9088
 5683SOL     OW19248   4.851   9.216   4.842 -0.3109  0.0213  0.3330
 5683SOL    HW119249   4.835   9.199   4.749 -0.9248  0.1865  0.4034
 5683SOL    HW219250   4.842   9.131   4.884  1.4639 -0.3399  0.0592
 5684SOL     OW19251   2.839   7.835   3.756  0.0266  0.4623  0.3699
 5684SOL    HW119252   2.872   7.802   3.672 -1.0004  1.1702 -0.3399
 5684SOL    HW219253   2.744   7.821   3.751 -0.2263  1.8409  0.7800
 5685SOL     OW19254   6.676   7.982   3.264  0.3196  0.1798  0.2842
 5685SOL    HW119255   6.692   8.076   3.260 -0.0829  0.2350 -0.1422
 5685SOL    HW219256   6.759   7.944   3.291  0.8409  0.5465 -0.7625
 5686SOL     OW19257   3.566   4.594   4.568 -0.8725 -0.2751 -0.0065
 5686SOL    HW119258   3.623   4.522   4.540  0.3066  0.0173  1.4816
 5686SOL    HW219259   3.478   4.561   4.557 -0.3586 -1.7475  0.0937
 5687SOL     OW19260   4.513   5.818   7.212 -0.5714  0.4197 -0.1667
 5687SOL    HW119261   4.436   5.829   7.267 -0.1817  0.4281  0.3903
 5687SOL    HW219262   4.567   5.754   7.259 -1.2768 -1.3801 -1.6904
 5688SOL     OW19263   5.406   5.718   9.519  0.1042  0.4918 -0.0837
 5688SOL    HW119264   5.471   5.765   9.467  0.8591 -0.5912 -0.1323
 5688SOL    HW219265   5.383   5.642   9.466  0.7105 -0.5009  1.0312
 5689SOL     OW19266   2.772   4.999   5.621  0.4339 -0.4919  0.1600
 5689SOL    HW119267   2.792   4.930   5.684  1.8580 -0.3807 -0.1277
 5689SOL    HW219268   2.754   4.953   5.539 -0.7093 -0.6007  0.4548
 5690SOL     OW19269   5.415   7.216   1.868  0.0460 -0.2257 -0.5000
 5690SOL    HW119270   5.331   7.211   1.915  0.8417  0.8872  1.1070
 5690SOL    HW219271   5.443   7.124   1.861 -1.1794 -0.5968 -0.8645
 5691SOL     OW19272   6.789   2.224   4.201 -0.1071  0.1193 -0.2116
 5691SOL    HW119273   6.801   2.256   4.290 -1.4383  0.2181 -0.0467
 5691SOL    HW219274   6.830   2.290   4.145 -1.9950  1.6858  0.1649
 5692SOL     OW19275   1.699   0.692   7.871  0.6060 -0.2517  0.3030
 5692SOL    HW119276   1.622   0.636   7.884 -0.5638  0.8746 -1.3290
 5692SOL    HW219277   1.769   0.631   7.847 -0.6437 -1.0903 -1.4698
 5693SOL     OW19278   5.361   5.459   9.391 -0.2233  0.0195 -0.1302
 5693SOL    HW119279   5.406   5.412   9.320 -0.3126 -0.6763  0.2652
 5693SOL    HW219280   5.268   5.442   9.375 -0.2287 -0.4013  0.3283
 5694SOL     OW19281   1.065   2.299   2.346  0.3205 -0.0508 -0.3393
 5694SOL    HW119282   1.059   2.378   2.400 -0.0392 -1.2100  1.3972
 5694SOL    HW219283   1.027   2.324   2.262  0.4789  1.6950  0.0803
 5695SOL     OW19284   0.465   8.699   7.640  0.3742 -0.0000  0.3350
 5695SOL    HW119285   0.424   8.758   7.703 -0.9797 -0.9009  0.3347
 5695SOL    HW219286   0.544   8.746   7.611  0.4277  0.9106  1.8335
 5696SOL     OW19287   1.349   6.574   3.443 -0.4724 -0.2022 -0.1464
 5696SOL    HW119288   1.413   6.512   3.477  0.1649  0.7984  0.5272
 5696SOL    HW219289   1.294   6.595   3.518 -0.0119  0.8630 -0.0985
 5697SOL     OW19290   7.057   0.510   1.933  0.1081 -0.0455  0.1239
 5697SOL    HW119291   7.146   0.519   1.966  0.6419 -0.9931 -0.9867
 5697SOL    HW219292   7.025   0.428   1.972 -0.4191  0.4775  0.8087
 5698SOL     OW19293   2.857   6.164   3.524 -0.2365  0.2560 -0.1399
 5698SOL    HW119294   2.920   6.098   3.551 -1.5678 -0.6539  0.8389
 5698SOL    HW219295   2.774   6.117   3.517 -1.3391  1.9047  1.1020
 5699SOL     OW19296   1.896   7.563   0.205 -0.3521  0.3800  0.1085
 5699SOL    HW119297   1.887   7.467   0.208  1.0241  0.2481  2.9894
 5699SOL    HW219298   1.980   7.578   0.161 -0.2894  0.2351  0.1784
 5700SOL     OW19299   8.736   4.186   7.898 -0.6884  0.4646 -0.3764
 5700SOL    HW119300   8.674   4.209   7.968 -1.1607  1.5880 -1.1336
 5700SOL    HW219301   8.818   4.229   7.924 -0.6239  0.1730 -0.0932
 5701SOL     OW19302   2.351   1.190   6.885  0.2157  0.1147  0.4108
 5701SOL    HW119303   2.374   1.241   6.963  0.7147  0.7502 -0.1320
 5701SOL    HW219304   2.346   1.100   6.915 -0.4131  0.4444  1.3421
 5702SOL     OW19305   3.699   1.495   5.932 -0.1174 -0.0970  0.2418
 5702SOL    HW119306   3.679   1.534   5.847  0.0269 -1.0403 -0.2368
 5702SOL    HW219307   3.793   1.480   5.930 -0.2452 -0.9578  0.1929
 5703SOL     OW19308   7.977   4.302   2.022  0.0406 -0.5579  0.7572
 5703SOL    HW119309   8.042   4.314   1.953  0.2548 -0.3621  0.9890
 5703SOL    HW219310   7.901   4.266   1.978 -0.4435  1.1980  0.1242
 5704SOL     OW19311   7.440   3.772   0.382 -0.7193 -0.1901 -0.1984
 5704SOL    HW119312   7.459   3.849   0.435 -0.4462 -0.3475 -0.0660
 5704SOL    HW219313   7.395   3.712   0.441  1.4454 -1.2406  0.4879
 5705SOL     OW19314   3.869   1.779   4.717 -0.7828  0.3360 -0.6264
 5705SOL    HW119315   3.784   1.761   4.676 -0.9760 -0.5630  0.1363
 5705SOL    HW219316   3.879   1.874   4.711 -2.0446  0.5058 -0.3549
 5706SOL     OW19317   4.512   5.119   7.076  0.1557 -0.2875 -0.3967
 5706SOL    HW119318   4.572   5.099   7.004  2.0208 -1.1958  1.3013
 5706SOL    HW219319   4.428   5.083   7.048  0.9722 -1.1335 -1.8853
 5707SOL     OW19320   0.852   5.713   4.899  0.3284  0.0124  0.0135
 5707SOL    HW119321   0.890   5.790   4.858 -0.8817  1.6149  1.7175
 5707SOL    HW219322   0.922   5.678   4.954  1.1231 -0.5889 -1.3426
 5708SOL     OW19323   7.343   3.224   5.378 -0.0239  0.3049  1.0866
 5708SOL    HW119324   7.326   3.176   5.297  2.2000  1.0018  0.1152
 5708SOL    HW219325   7.260   3.267   5.399 -0.9341 -0.7322 -0.2388
 5709SOL     OW19326   7.650   0.898   4.620  0.1507 -0.1342 -0.3217
 5709SOL    HW119327   7.563   0.859   4.627  0.1562 -0.0472  0.3406
 5709SOL    HW219328   7.634   0.992   4.610  0.1112 -0.3288 -2.7685
 5710SOL     OW19329   6.690   5.879   4.401 -0.1554  0.2644 -0.3803
 5710SOL    HW119330   6.711   5.824   4.325 -0.3021  0.3460 -0.4784
 5710SOL    HW219331   6.634   5.948   4.367 -0.6828 -0.0167 -0.0942
 5711SOL     OW19332   8.370   8.812   9.315  0.0034 -0.6133 -0.3342
 5711SOL    HW119333   8.406   8.747   9.375 -1.7928 -0.2849  1.1666
 5711SOL    HW219334   8.409   8.895   9.344  0.3387 -0.6607 -0.6376
 5712SOL     OW19335   4.726   5.056   1.545  0.3115 -0.3031  0.7052
 5712SOL    HW119336   4.820   5.075   1.541 -0.2360  2.6974 -0.3921
 5712SOL    HW219337   4.689   5.100   1.469 -2.1840 -0.1882  1.8830
 5713SOL     OW19338   9.040   4.169   8.588 -0.1623 -0.0070  0.3809
 5713SOL    HW119339   9.003   4.112   8.520  1.4123 -2.5962  1.5457
 5713SOL    HW219340   9.085   4.238   8.539 -1.2901 -0.2834 -1.1290
 5714SOL     OW19341   7.097   8.161   9.304  0.3278 -0.0088 -0.1219
 5714SOL    HW119342   7.087   8.255   9.321  0.3204 -0.2539  1.4315
 5714SOL    HW219343   7.009   8.125   9.319  0.1353 -0.1845 -1.5135
 5715SOL     OW19344   7.860   6.071   7.840  0.4673 -0.3538  0.2180
 5715SOL    HW119345   7.868   6.051   7.933 -0.2169 -2.2076 -0.0776
 5715SOL    HW219346   7.765   6.080   7.826  0.3713 -2.3258 -0.6814
 5716SOL     OW19347   7.369   3.978   6.928 -0.1656 -0.1623  0.3063
 5716SOL    HW119348   7.417   3.901   6.895 -1.0931 -0.4926 -0.3195
 5716SOL    HW219349   7.399   4.050   6.873  0.3770 -0.1560  0.6021
 5717SOL     OW19350   7.131   8.022   0.453 -0.2830 -0.1542  0.0101
 5717SOL    HW119351   7.216   8.010   0.410 -0.1993  1.6651 -0.4046
 5717SOL    HW219352   7.087   7.937   0.443  1.6164 -1.2586  0.5890
 5718SOL     OW19353   1.314   2.870   6.869  0.0488  0.1888 -0.3903
 5718SOL    HW119354   1.372   2.911   6.806  0.6619 -0.5531 -0.3203
 5718SOL    HW219355   1.228   2.871   6.827  0.4564 -0.3364 -1.2628
 5719SOL     OW19356   6.087   1.799   0.233 -0.0118  0.4132 -0.1264
 5719SOL    HW119357   6.124   1.815   0.319  0.2887  1.2294 -0.3921
 5719SOL    HW219358   6.006   1.851   0.231  0.2005  0.7441 -0.4730
 5720SOL     OW19359   5.723   7.673   5.269 -0.9881 -0.7959  0.0998
 5720SOL    HW119360   5.805   7.624   5.270 -0.1850  0.2942  4.0569
 5720SOL    HW219361   5.670   7.634   5.339 -2.9239  0.0223 -0.8231
 5721SOL     OW19362   7.812   4.177   4.568  0.2200 -0.3976 -0.3761
 5721SOL    HW119363   7.845   4.260   4.603  2.9940 -0.8379 -1.6691
 5721SOL    HW219364   7.764   4.138   4.641 -0.0955  1.7829  0.6441
 5722SOL     OW19365   4.371   0.597   0.312 -0.9333 -0.7366  0.3107
 5722SOL    HW119366   4.340   0.685   0.334  1.4087  0.1596  0.3450
 5722SOL    HW219367   4.452   0.587   0.361 -1.3448 -3.1419  0.6581
 5723SOL     OW19368   2.447   7.295   2.990 -0.3141  0.3473 -0.2158
 5723SOL    HW119369   2.537   7.327   2.982 -0.1555 -0.4094 -1.7127
 5723SOL    HW219370   2.446   7.247   3.072  0.6559  0.3512 -0.1879
 5724SOL     OW19371   3.275   4.824   1.099 -0.4444 -0.6640 -0.1118
 5724SOL    HW119372   3.339   4.868   1.155 -0.7088  2.5458 -2.0869
 5724SOL    HW219373   3.254   4.742   1.145  2.4140 -0.1817  2.2974
 5725SOL     OW19374   5.838   8.678   2.177  0.3942  0.2603  0.1319
 5725SOL    HW119375   5.834   8.627   2.258  3.3529  0.2920  0.4129
 5725SOL    HW219376   5.819   8.615   2.108  1.1468 -0.5829  0.6662
 5726SOL     OW19377   4.219   1.621   6.186  0.2272  0.4697 -0.2116
 5726SOL    HW119378   4.176   1.561   6.247 -0.4099  0.1559 -0.9563
 5726SOL    HW219379   4.213   1.707   6.229 -0.3411  0.2779  0.1033
 5727SOL     OW19380   5.190   0.598   9.399  0.4258 -0.2621  0.6601
 5727SOL    HW119381   5.186   0.536   9.472  2.4570  0.0613  1.0918
 5727SOL    HW219382   5.183   0.543   9.321  1.4093 -0.9782  1.0522
 5728SOL     OW19383   6.374   5.929   8.230 -0.0448  0.2275 -0.5603
 5728SOL    HW119384   6.312   5.888   8.290 -0.6557  0.6358 -0.8976
 5728SOL    HW219385   6.450   5.950   8.283  1.3595 -3.5534 -0.8001
 5729SOL     OW19386   3.033   3.285   0.135  0.4356 -0.3408  0.1212
 5729SOL    HW119387   2.974   3.222   0.094  0.5821 -0.4821  0.1251
 5729SOL    HW219388   3.117   3.272   0.091  0.2915  0.3422 -0.3625
 5730SOL     OW19389   4.415   1.349   5.537 -0.0193  0.5557  0.2739
 5730SOL    HW119390   4.469   1.291   5.590 -1.0957 -2.1845 -1.4157
 5730SOL    HW219391   4.328   1.345   5.578 -1.0768 -2.2475 -1.9411
 5731SOL     OW19392   1.672   5.866   8.873 -0.5057 -0.7603  0.1202
 5731SOL    HW119393   1.642   5.910   8.794  0.2279  0.1479  0.3248
 5731SOL    HW219394   1.604   5.801   8.893 -1.3911 -0.0201 -0.4415
 5732SOL     OW19395   1.284   3.638   4.254 -0.2710  0.0737 -0.5913
 5732SOL    HW119396   1.375   3.659   4.275  0.5631 -0.7632 -3.0332
 5732SOL    HW219397   1.246   3.721   4.226 -1.1679  1.0316  2.8906
 5733SOL     OW19398   0.666   3.787   3.167 -0.2330 -0.3350  0.3361
 5733SOL    HW119399   0.746   3.840   3.174 -0.4117 -0.2594  2.1695
 5733SOL    HW219400   0.595   3.850   3.177 -0.5419 -0.4892 -0.7232
 5734SOL     OW19401   3.664   4.293   1.433 -0.0922  0.3566  0.6941
 5734SOL    HW119402   3.593   4.316   1.494 -0.1019  1.6054  0.2340
 5734SOL    HW219403   3.672   4.198   1.442 -1.1167  0.3199  1.5260
 5735SOL     OW19404   4.609   4.347   8.822  0.2284  0.1373 -0.7746
 5735SOL    HW119405   4.596   4.356   8.727 -1.9241  0.7820 -0.4725
 5735SOL    HW219406   4.658   4.426   8.847 -3.4171  2.6193 -0.7235
 5736SOL     OW19407   8.585   9.098   3.256 -0.2229  0.3910  0.3676
 5736SOL    HW119408   8.647   9.160   3.297  0.3488 -0.6349  1.1028
 5736SOL    HW219409   8.541   9.056   3.330 -0.7955  0.1033 -0.1274
 5737SOL     OW19410   1.715   5.044   9.294  0.7740 -0.2668  0.5055
 5737SOL    HW119411   1.792   5.061   9.239 -0.6746 -0.8760 -1.8880
 5737SOL    HW219412   1.726   4.954   9.324  0.6646 -0.6358 -0.5011
 5738SOL     OW19413   3.452   1.863   5.704 -0.3330 -0.1115  0.4992
 5738SOL    HW119414   3.360   1.886   5.716 -0.1290  2.3789 -1.6358
 5738SOL    HW219415   3.499   1.921   5.764 -0.1097 -0.0490  0.2671
 5739SOL     OW19416   1.277   5.803   7.857  0.1113 -0.3771  0.1083
 5739SOL    HW119417   1.337   5.780   7.786  1.4875 -0.2969  1.1977
 5739SOL    HW219418   1.254   5.720   7.897  0.9097 -0.2961  0.7701
 5740SOL     OW19419   7.158   1.830   6.813 -0.0362  0.7285  0.3693
 5740SOL    HW119420   7.221   1.887   6.857  0.0811 -0.2327  1.5053
 5740SOL    HW219421   7.185   1.832   6.721  0.9561  1.2308  0.6540
 5741SOL     OW19422   7.954   0.292   3.396 -0.1629 -0.0245  0.1640
 5741SOL    HW119423   8.023   0.296   3.331 -0.1096  1.0865  0.2718
 5741SOL    HW219424   7.880   0.252   3.350 -0.5825  2.0062 -1.0310
 5742SOL     OW19425   2.546   9.462   7.520 -0.3603 -0.1555 -0.3964
 5742SOL    HW119426   2.549   9.503   7.607 -0.2968  0.6415 -0.7692
 5742SOL    HW219427   2.635   9.469   7.487 -0.2197 -1.1024 -0.2430
 5743SOL     OW19428   2.694   4.992   6.129 -0.1832  0.5716  0.2855
 5743SOL    HW119429   2.606   4.956   6.112 -0.1473  0.5655  0.1049
 5743SOL    HW219430   2.679   5.082   6.155 -0.2097  0.7466 -0.3191
 5744SOL     OW19431   4.415   8.496   8.538 -0.3368  0.1705 -0.1134
 5744SOL    HW119432   4.352   8.461   8.475  1.2116 -3.6525  0.2606
 5744SOL    HW219433   4.402   8.443   8.617  1.6312  1.0002  0.8339
 5745SOL     OW19434   0.160   9.312   0.316  0.2333 -0.4790  0.0967
 5745SOL    HW119435   0.082   9.312   0.260 -0.7498  0.5120  1.3924
 5745SOL    HW219436   0.199   9.398   0.301  0.4036 -0.5140  0.3407
 5746SOL     OW19437   7.412   6.400   8.210 -0.5596  0.1571  1.1578
 5746SOL    HW119438   7.322   6.382   8.182 -0.4200 -0.2893  0.9862
 5746SOL    HW219439   7.403   6.466   8.279 -0.9725  0.5948  0.6929
 5747SOL     OW19440   1.583   5.516   0.837 -0.2380  0.2280 -0.3720
 5747SOL    HW119441   1.575   5.532   0.932 -0.3436  1.1195 -0.5190
 5747SOL    HW219442   1.663   5.563   0.812  0.5806 -1.1695 -0.4920
 5748SOL     OW19443   5.099   9.001   2.742  0.4490  0.5525  0.0511
 5748SOL    HW119444   5.182   9.012   2.788  1.1219 -1.3494 -0.5710
 5748SOL    HW219445   5.070   8.913   2.767  0.0219  0.1140 -1.8254
 5749SOL     OW19446   2.251   5.983   0.272  0.5988 -0.1803  0.2014
 5749SOL    HW119447   2.320   5.965   0.207  2.0335  0.8199  1.3766
 5749SOL    HW219448   2.294   5.968   0.356 -0.8951 -0.3523  0.9540
 5750SOL     OW19449   2.586   1.892   7.014  0.2275 -0.2016  0.2638
 5750SOL    HW119450   2.646   1.962   6.991  0.6877 -0.7053 -0.0807
 5750SOL    HW219451   2.605   1.873   7.106  1.2538 -0.9819 -0.0855
 5751SOL     OW19452   0.858   8.068   0.884  0.4750 -0.0016 -0.4361
 5751SOL    HW119453   0.933   8.102   0.932 -0.7523  1.2257  0.7298
 5751SOL    HW219454   0.894   8.000   0.828  2.4252  0.4758  0.1494
 5752SOL     OW19455   0.819   6.575   6.113  0.0020 -0.6125 -0.0653
 5752SOL    HW119456   0.784   6.503   6.165 -0.6964 -0.2735 -0.0543
 5752SOL    HW219457   0.743   6.629   6.093  0.1195 -1.1321 -2.0883
 5753SOL     OW19458   8.855   6.374   5.726  0.0243  0.7808 -1.0448
 5753SOL    HW119459   8.907   6.451   5.748 -2.4024  3.0016 -2.4402
 5753SOL    HW219460   8.773   6.385   5.774  0.2627 -2.0041  0.2097
 5754SOL     OW19461   0.197   4.199   6.102 -0.2030  0.2749 -0.3493
 5754SOL    HW119462   0.196   4.284   6.058 -1.4887  1.6678  2.1278
 5754SOL    HW219463   0.232   4.218   6.189  0.1349 -1.9053  0.0377
 5755SOL     OW19464   7.704   6.823   2.805  0.0574 -0.1935 -0.1188
 5755SOL    HW119465   7.678   6.732   2.790 -0.4436 -0.1354  0.3398
 5755SOL    HW219466   7.680   6.840   2.897 -1.3933  0.8847 -0.6524
 5756SOL     OW19467   6.581   4.471   0.398 -0.5480  0.4179 -0.3510
 5756SOL    HW119468   6.543   4.383   0.394  2.5860 -1.0879  0.0723
 5756SOL    HW219469   6.568   4.497   0.489 -0.4916 -0.0961 -0.1899
 5757SOL     OW19470   4.556   1.737   3.300  0.1882  0.1479  0.3120
 5757SOL    HW119471   4.480   1.698   3.344 -0.9536  1.4340 -0.4280
 5757SOL    HW219472   4.624   1.740   3.367 -0.9501  0.4722  1.4894
 5758SOL     OW19473   0.113   2.250   6.724 -0.5777  0.0877 -0.7767
 5758SOL    HW119474   0.131   2.283   6.813 -2.2291 -0.8629 -0.0468
 5758SOL    HW219475   0.192   2.272   6.675 -0.6412  3.0482  0.2062
 5759SOL     OW19476   2.975   8.270   8.929  0.0245  0.3413 -0.0030
 5759SOL    HW119477   2.968   8.188   8.979  0.5530  0.1103 -0.2958
 5759SOL    HW219478   2.888   8.308   8.933 -0.5562 -0.8439 -0.8803
 5760SOL     OW19479   8.302   4.667   1.420 -0.3462  0.5300 -0.1042
 5760SOL    HW119480   8.240   4.733   1.389 -0.4533 -0.1070 -1.2947
 5760SOL    HW219481   8.369   4.663   1.352 -0.5432 -0.8461 -0.2471
 5761SOL     OW19482   4.295   8.666   5.878  0.5505  0.2580 -0.0158
 5761SOL    HW119483   4.384   8.678   5.844  0.7488  0.0452  0.4181
 5761SOL    HW219484   4.273   8.575   5.857  1.5749 -0.6381  2.4261
 5762SOL     OW19485   4.292   6.720   1.240 -0.3299  0.3982 -0.0743
 5762SOL    HW119486   4.278   6.744   1.332  1.4189  0.3286  0.2550
 5762SOL    HW219487   4.236   6.644   1.226 -1.1398  0.8218  0.7293
 5763SOL     OW19488   6.955   4.947   2.580 -0.4120 -0.4223 -0.5133
 5763SOL    HW119489   6.874   4.927   2.627 -1.3586 -0.8864 -2.2532
 5763SOL    HW219490   6.927   4.965   2.491  1.4127 -0.6433 -1.1715
 5764SOL     OW19491   2.476   2.459   8.267 -0.0490  0.4589  0.6153
 5764SOL    HW119492   2.384   2.481   8.257 -0.0912  0.4728  1.0124
 5764SOL    HW219493   2.523   2.534   8.229 -0.1951  0.9266  1.3389
 5765SOL     OW19494   6.325   3.328   0.627 -0.4687 -0.2956  0.0626
 5765SOL    HW119495   6.279   3.360   0.704  0.9303  0.9093  0.4459
 5765SOL    HW219496   6.417   3.323   0.655 -0.0840 -0.8004 -1.2292
 5766SOL     OW19497   0.965   1.936   5.817 -0.3834 -0.0611 -0.4400
 5766SOL    HW119498   0.880   1.936   5.861  0.8129  2.1767  2.1939
 5766SOL    HW219499   0.958   2.006   5.752 -1.7000 -2.4527 -3.0528
 5767SOL     OW19500   2.262   3.439   3.789  0.7725 -0.8714  0.4765
 5767SOL    HW119501   2.253   3.535   3.792  0.4648 -0.8615 -0.5988
 5767SOL    HW219502   2.180   3.406   3.827  0.5132 -0.7141  0.0548
 5768SOL     OW19503   1.463   4.510   0.749 -0.4135 -0.1188 -0.3668
 5768SOL    HW119504   1.555   4.487   0.743 -0.8243 -1.8719 -0.5158
 5768SOL    HW219505   1.445   4.515   0.843 -0.5065 -1.4113 -0.2922
 5769SOL     OW19506   0.210   1.412   1.955 -0.3033 -0.3969 -0.1935
 5769SOL    HW119507   0.265   1.450   2.023 -2.7560  1.7669  0.7256
 5769SOL    HW219508   0.265   1.411   1.877  1.1819  1.2184  0.7699
 5770SOL     OW19509   9.158   4.555   9.225  0.4426  0.3251  0.4952
 5770SOL    HW119510   9.090   4.515   9.280 -1.2817  1.4932 -0.6963
 5770SOL    HW219511   9.146   4.516   9.139  1.8556 -0.0623  0.4580
 5771SOL     OW19512   8.483   1.303   1.270 -0.1222  0.5149  0.2183
 5771SOL    HW119513   8.481   1.309   1.365  1.2472  0.7526  0.2583
 5771SOL    HW219514   8.431   1.226   1.249  1.1534 -0.7138  1.3161
 5772SOL     OW19515   4.212   0.446   8.169 -0.3684  0.3169 -0.0869
 5772SOL    HW119516   4.201   0.354   8.192  0.2049  0.3823  0.4691
 5772SOL    HW219517   4.152   0.493   8.227  0.3624  0.4021  0.6108
 5773SOL     OW19518   4.732   9.243   5.816 -0.3285 -0.2856  0.1330
 5773SOL    HW119519   4.744   9.242   5.721 -0.8264 -0.7082  0.0749
 5773SOL    HW219520   4.798   9.181   5.848  0.7783  0.8589  0.1872
 5774SOL     OW19521   8.383   3.430   7.028 -0.3369 -0.1134  0.1613
 5774SOL    HW119522   8.370   3.502   7.089 -0.1136 -0.1620  0.2666
 5774SOL    HW219523   8.381   3.471   6.941 -2.9939 -0.3360  0.0362
 5775SOL     OW19524   7.004   5.390   2.032  0.3696 -0.2450  0.2303
 5775SOL    HW119525   6.961   5.307   2.049 -0.0811 -0.2393 -0.8102
 5775SOL    HW219526   6.953   5.430   1.962 -0.6364  1.8128  1.9893
 5776SOL     OW19527   6.965   8.556   3.063 -0.2295  0.5504  0.0453
 5776SOL    HW119528   6.991   8.642   3.030  0.9080  0.3628  0.4021
 5776SOL    HW219529   6.870   8.554   3.053 -0.0092  0.6255 -2.9158
 5777SOL     OW19530   9.093   0.792   8.184  0.2376 -0.7332  0.0246
 5777SOL    HW119531   9.098   0.712   8.236  1.7861 -0.0329  1.0355
 5777SOL    HW219532   9.075   0.763   8.095  0.1656 -2.1475  0.4812
 5778SOL     OW19533   0.074   7.286   2.444 -0.0277 -0.2748  0.1642
 5778SOL    HW119534   0.052   7.248   2.359 -2.1406  1.9384 -0.3863
 5778SOL    HW219535   0.109   7.373   2.422 -1.0157  0.4989  1.5278
 5779SOL     OW19536   1.913   3.592   3.126 -0.4075  0.9725  0.0164
 5779SOL    HW119537   1.838   3.589   3.186 -0.1819  1.6342  0.3423
 5779SOL    HW219538   1.989   3.606   3.182 -0.1455  1.2227 -0.3895
 5780SOL     OW19539   7.927   0.920   0.732  0.3509 -0.1176  0.3047
 5780SOL    HW119540   7.947   0.923   0.639  0.8103 -1.8666  0.3177
 5780SOL    HW219541   8.011   0.938   0.775  0.6255 -1.5022  0.3672
 5781SOL     OW19542   0.685   0.612   7.215 -0.4847 -0.1356  0.6908
 5781SOL    HW119543   0.612   0.666   7.187 -1.6357 -2.1423 -0.4617
 5781SOL    HW219544   0.687   0.540   7.152  2.3175 -0.3337  0.8493
 5782SOL     OW19545   1.130   2.554   2.459 -0.0662  0.0263  0.1975
 5782SOL    HW119546   1.183   2.617   2.410 -0.5858  0.9584  0.8033
 5782SOL    HW219547   1.111   2.597   2.542 -1.1744 -0.5749  0.2834
 5783SOL     OW19548   4.578   3.320   8.582  0.5007  0.3432 -0.1449
 5783SOL    HW119549   4.543   3.409   8.592 -0.9740 -0.2506  0.1968
 5783SOL    HW219550   4.639   3.311   8.656 -0.5868  0.5140  0.8069
 5784SOL     OW19551   9.553   8.656   8.264  0.0591  0.1621 -0.0715
 5784SOL    HW119552   9.470   8.648   8.310 -0.0109 -0.1910 -0.2518
 5784SOL    HW219553   9.543   8.733   8.208 -0.4711 -0.3726 -0.7358
 5785SOL     OW19554   8.499   0.936   7.919 -0.1366 -0.1154 -0.1792
 5785SOL    HW119555   8.594   0.936   7.905 -0.0438 -1.3010  0.2663
 5785SOL    HW219556   8.489   0.944   8.014 -0.4201 -1.0996 -0.1080
 5786SOL     OW19557   7.582   1.230   5.935  0.2494 -0.4724 -0.1632
 5786SOL    HW119558   7.655   1.234   5.872  0.9941  1.4873  0.7565
 5786SOL    HW219559   7.623   1.202   6.017  0.6102  3.1017  1.0536
 5787SOL     OW19560   7.440   5.055   3.492 -0.0698  0.2548 -0.0013
 5787SOL    HW119561   7.381   4.998   3.542 -0.8366  1.5376  0.6250
 5787SOL    HW219562   7.528   5.025   3.515 -0.3990 -2.2605 -1.6076
 5788SOL     OW19563   9.530   5.172   6.984 -0.3055  0.0983  0.2078
 5788SOL    HW119564   9.580   5.107   6.934 -1.1009  0.4521 -1.0875
 5788SOL    HW219565   9.591   5.244   6.998  0.4918 -0.7645  1.3935
 5789SOL     OW19566   2.533   3.830   6.256  0.0942 -0.2365  0.5072
 5789SOL    HW119567   2.580   3.826   6.339  0.9733 -1.5426 -0.0240
 5789SOL    HW219568   2.452   3.877   6.277  0.9318  0.7395  1.7695
 5790SOL     OW19569   8.861   8.755   0.612 -0.1195 -0.3156  0.2459
 5790SOL    HW119570   8.909   8.722   0.687 -0.0913  0.7116  0.6938
 5790SOL    HW219571   8.819   8.678   0.574 -1.7315 -0.6264  2.4557
 5791SOL     OW19572   4.383   7.895   8.888 -0.4006 -0.2852  0.7000
 5791SOL    HW119573   4.355   7.805   8.904 -1.8888 -0.3898 -1.8556
 5791SOL    HW219574   4.442   7.889   8.812  1.1928  0.7254  1.7778
 5792SOL     OW19575   6.740   8.222   7.816  0.1915  0.1166 -0.6308
 5792SOL    HW119576   6.662   8.178   7.780 -1.0349  0.5394  1.3471
 5792SOL    HW219577   6.804   8.219   7.745 -0.8186 -2.3047 -1.5591
 5793SOL     OW19578   7.588   3.269   2.421  0.3070 -0.1946 -0.0012
 5793SOL    HW119579   7.646   3.210   2.469  0.8902 -0.6068 -1.1858
 5793SOL    HW219580   7.500   3.239   2.444  0.5796 -2.0483 -1.1479
 5794SOL     OW19581   1.463   1.339   2.993 -0.5206 -0.7171  0.2776
 5794SOL    HW119582   1.505   1.288   3.062  1.9940  0.6493 -0.1176
 5794SOL    HW219583   1.499   1.304   2.912 -0.3560  0.3219 -0.1057
 5795SOL     OW19584   6.579   2.794   4.789  0.4490  0.2709  0.0378
 5795SOL    HW119585   6.625   2.712   4.777  0.0238  0.0129  0.1445
 5795SOL    HW219586   6.546   2.791   4.879 -0.1631  0.2465 -0.1771
 5796SOL     OW19587   3.222   2.048   3.571  0.3253  0.3348  0.1695
 5796SOL    HW119588   3.263   2.092   3.497 -1.5171  2.4377  0.2968
 5796SOL    HW219589   3.164   1.983   3.531 -1.0245  1.7833 -0.3335
 5797SOL     OW19590   3.795   4.150   5.746  0.4248  0.0000  0.8515
 5797SOL    HW119591   3.706   4.182   5.733  0.6943  0.5319  0.2674
 5797SOL    HW219592   3.825   4.193   5.826  1.1679  2.1192 -0.4894
 5798SOL     OW19593   2.064   2.625   7.196  0.4009 -0.4623  0.0211
 5798SOL    HW119594   2.156   2.614   7.170  1.3599  0.8040  2.5634
 5798SOL    HW219595   2.027   2.682   7.128  1.8624  0.0614 -0.3795
 5799SOL     OW19596   9.467   8.651   9.312  0.1740  0.4364  0.1216
 5799SOL    HW119597   9.522   8.725   9.338  2.5398 -1.3224  0.5236
 5799SOL    HW219598   9.397   8.649   9.377 -1.2415  3.5176 -1.1380
 5800SOL     OW19599   6.860   2.501   2.328 -0.1205 -0.5275 -0.2446
 5800SOL    HW119600   6.855   2.594   2.347  0.6376 -0.9300  2.2134
 5800SOL    HW219601   6.897   2.462   2.407 -0.5373 -2.9397 -1.1600
 5801SOL     OW19602   7.668   4.096   3.890 -0.0099 -0.0783  0.1945
 5801SOL    HW119603   7.581   4.127   3.916 -0.8919 -0.6304 -1.8522
 5801SOL    HW219604   7.667   4.101   3.794  2.6265  0.9242  0.1357
 5802SOL     OW19605   2.769   1.856   4.751 -0.0233  0.2179 -0.0039
 5802SOL    HW119606   2.820   1.935   4.734  0.0599 -0.2231 -2.0565
 5802SOL    HW219607   2.825   1.803   4.807  0.9624  0.5853 -0.6073
 5803SOL     OW19608   2.783   0.562   6.497  0.3736 -0.1031 -0.1515
 5803SOL    HW119609   2.810   0.624   6.429  0.6317  2.2567  1.9248
 5803SOL    HW219610   2.769   0.617   6.574 -3.2599 -2.1431  0.8633
 5804SOL     OW19611   6.949   0.835   2.553 -0.5322  0.1357 -0.3925
 5804SOL    HW119612   6.925   0.784   2.476  0.2222  0.3249 -0.7736
 5804SOL    HW219613   6.946   0.773   2.626 -0.9939 -0.1109 -0.6210
 5805SOL     OW19614   7.893   5.765   3.045  0.0618  0.2844  0.1878
 5805SOL    HW119615   7.815   5.718   3.074  0.4017  0.4360  1.4269
 5805SOL    HW219616   7.874   5.791   2.955 -1.1703  0.0190  0.3558
 5806SOL     OW19617   3.613   4.324   6.159 -0.1676  0.3350  0.1438
 5806SOL    HW119618   3.568   4.387   6.102  0.2060  0.9741  0.5329
 5806SOL    HW219619   3.645   4.256   6.100  0.0157  0.8697 -0.3823
 5807SOL     OW19620   2.863   3.648   1.383 -0.2811 -0.4194 -0.0646
 5807SOL    HW119621   2.796   3.716   1.374  0.1317 -0.0694 -0.5659
 5807SOL    HW219622   2.816   3.566   1.374 -0.6547 -0.1750 -0.3542
 5808SOL     OW19623   0.168   4.300   9.336 -0.0961  0.4212 -0.0575
 5808SOL    HW119624   0.117   4.375   9.304  0.2915  0.8383  0.2967
 5808SOL    HW219625   0.175   4.242   9.260  0.0225  0.9747 -0.4719
 5809SOL     OW19626   1.188   1.606   1.455 -0.0493  0.0418 -0.6362
 5809SOL    HW119627   1.199   1.527   1.507  0.8579 -0.1159 -1.0354
 5809SOL    HW219628   1.152   1.671   1.516 -1.9903 -0.9958 -0.6024
 5810SOL     OW19629   4.034   6.490   2.480 -0.4636 -0.5790 -0.7632
 5810SOL    HW119630   4.085   6.420   2.441 -0.7197 -0.3247 -1.5709
 5810SOL    HW219631   3.998   6.538   2.406 -0.0062  0.6263 -0.2399
 5811SOL     OW19632   1.823   5.092   5.338 -0.2675  0.4274 -0.5014
 5811SOL    HW119633   1.778   5.103   5.421 -0.3471  1.9581 -0.7085
 5811SOL    HW219634   1.910   5.060   5.362 -0.4975  0.2600  0.1186
 5812SOL     OW19635   1.016   0.733   7.147  0.0983  0.2320 -0.4428
 5812SOL    HW119636   0.992   0.793   7.217  3.0187  1.5410 -0.4507
 5812SOL    HW219637   0.932   0.701   7.113 -1.4897  2.5056  1.0974
 5813SOL     OW19638   5.976   8.242   1.689 -0.0750  0.2018  0.1452
 5813SOL    HW119639   5.949   8.235   1.598  0.5302 -1.0060  0.0404
 5813SOL    HW219640   5.901   8.280   1.734 -0.0426  1.7205 -1.0068
 5814SOL     OW19641   7.402   9.382   8.862  0.2209  0.1802  0.4134
 5814SOL    HW119642   7.403   9.351   8.771 -0.9850 -0.6944  0.6750
 5814SOL    HW219643   7.493   9.372   8.891  0.0504 -2.5348  0.2654
 5815SOL     OW19644   3.649   2.849   4.849 -0.4621  0.0210  0.3754
 5815SOL    HW119645   3.697   2.917   4.896 -0.8050 -0.3162  1.2207
 5815SOL    HW219646   3.679   2.767   4.887 -0.6899 -0.2626 -0.0482
 5816SOL     OW19647   2.876   1.490   9.128 -0.3765  0.1873 -0.1768
 5816SOL    HW119648   2.819   1.430   9.079 -1.5166  0.4808  0.7523
 5816SOL    HW219649   2.952   1.502   9.071 -0.6746 -1.1832 -0.9116
 5817SOL     OW19650   7.638   5.210   7.746  0.4224 -0.4816  0.0660
 5817SOL    HW119651   7.660   5.295   7.783  1.2821 -0.5660 -0.2217
 5817SOL    HW219652   7.545   5.198   7.765  0.5790 -0.0153  1.1644
 5818SOL     OW19653   6.272   5.195   2.471 -0.7937  0.1073 -0.1427
 5818SOL    HW119654   6.193   5.249   2.478 -0.6669  0.3877 -0.7583
 5818SOL    HW219655   6.344   5.255   2.488 -0.6213  0.2756 -1.3455
 5819SOL     OW19656   1.528   7.109   4.575 -0.1111  0.7425  0.0574
 5819SOL    HW119657   1.440   7.075   4.590 -0.2756  1.5912  1.0308
 5819SOL    HW219658   1.571   7.104   4.660  0.7122  0.5504 -0.3620
 5820SOL     OW19659   4.234   1.104   7.044  0.2713  0.6158 -0.3119
 5820SOL    HW119660   4.180   1.066   7.113 -0.7998 -0.5688 -1.7271
 5820SOL    HW219661   4.230   1.198   7.060  0.3123  0.3584  1.4022
 5821SOL     OW19662   8.989   3.805   9.311  0.2166 -0.1367  0.0616
 5821SOL    HW119663   8.903   3.845   9.294 -0.1048 -1.3036 -1.1789
 5821SOL    HW219664   9.015   3.767   9.227  1.8835  0.0329  0.4668
 5822SOL     OW19665   1.535   2.285   7.857 -0.0727  0.1834 -0.1518
 5822SOL    HW119666   1.609   2.236   7.822  0.3645  0.0386  0.9300
 5822SOL    HW219667   1.472   2.218   7.883  0.0038  0.2442  0.1966
 5823SOL     OW19668   7.351   1.649   0.482  0.5785 -0.4897  0.1602
 5823SOL    HW119669   7.314   1.690   0.560 -0.3223 -0.4286 -0.2909
 5823SOL    HW219670   7.344   1.555   0.499 -2.3840 -0.5994 -1.0250
 5824SOL     OW19671   5.289   3.562   1.205 -0.9431 -0.1718  0.4893
 5824SOL    HW119672   5.293   3.627   1.135  0.7301  1.8127  2.2965
 5824SOL    HW219673   5.259   3.482   1.161  1.1123  0.6228 -2.7310
 5825SOL     OW19674   6.334   3.889   2.916  0.4093  0.2346  0.6319
 5825SOL    HW119675   6.383   3.809   2.933 -0.3152 -0.0708  1.3826
 5825SOL    HW219676   6.243   3.866   2.935 -0.0785  0.7026 -0.9874
 5826SOL     OW19677   0.994   4.225   0.097 -0.1939 -0.3072 -0.3294
 5826SOL    HW119678   0.980   4.131   0.085 -1.3826 -0.0459 -1.2108
 5826SOL    HW219679   0.942   4.247   0.175 -0.2070 -0.3181 -0.3351
 5827SOL     OW19680   3.554   5.963   0.687 -0.3915 -0.4679  0.3974
 5827SOL    HW119681   3.551   6.058   0.688 -1.1659 -0.4853  0.8576
 5827SOL    HW219682   3.539   5.937   0.778  1.7978 -1.0090  0.6617
 5828SOL     OW19683   9.221   7.906   6.798  0.7416 -0.5152 -0.0023
 5828SOL    HW119684   9.311   7.935   6.814  1.3361 -1.4104 -1.5353
 5828SOL    HW219685   9.216   7.894   6.704 -1.5501  1.2790 -0.2128
 5829SOL     OW19686   4.403   5.746   5.112 -0.1483 -0.5182  0.0242
 5829SOL    HW119687   4.488   5.754   5.155  0.3615 -0.0151 -1.0426
 5829SOL    HW219688   4.340   5.771   5.179  0.6463  0.6225  0.3824
 5830SOL     OW19689   2.571   7.140   6.502  0.1601  0.2121 -0.7971
 5830SOL    HW119690   2.568   7.232   6.526  0.0934  0.3283 -1.2433
 5830SOL    HW219691   2.499   7.100   6.552  0.1594  0.4099 -0.6411
 5831SOL     OW19692   9.393   6.347   3.328 -0.3333 -0.4672  0.2287
 5831SOL    HW119693   9.408   6.441   3.321  0.1116 -0.5160  0.5011
 5831SOL    HW219694   9.473   6.313   3.367  0.4140 -1.2661 -1.8715
 5832SOL     OW19695   6.796   6.411   5.061  1.2370  0.1277  0.8290
 5832SOL    HW119696   6.877   6.456   5.035  0.4457  1.9492  1.3694
 5832SOL    HW219697   6.756   6.385   4.978  0.6924  2.3465  0.3213
 5833SOL     OW19698   1.504   6.248   1.115  0.0333 -0.0556  0.1743
 5833SOL    HW119699   1.499   6.268   1.208 -1.7494 -1.6622  0.5040
 5833SOL    HW219700   1.431   6.296   1.076  0.8261  0.6866 -0.4380
 5834SOL     OW19701   9.171   4.632   5.996  0.3330  0.2086  0.0287
 5834SOL    HW119702   9.233   4.593   5.934  1.3079 -0.2418  1.2652
 5834SOL    HW219703   9.155   4.563   6.060 -0.1060  0.9107  0.6887
 5835SOL     OW19704   2.092   2.288   8.370  0.2002 -0.1196  0.2492
 5835SOL    HW119705   2.101   2.200   8.334 -0.1979  0.2793 -0.8862
 5835SOL    HW219706   2.000   2.295   8.395 -0.2400  0.5725 -1.4089
 5836SOL     OW19707   2.356   6.721   2.351  0.0337 -0.2753  0.1383
 5836SOL    HW119708   2.435   6.705   2.403  0.1044  1.3136  0.5866
 5836SOL    HW219709   2.381   6.702   2.261  1.2513  1.1628  0.1407
 5837SOL     OW19710   8.230   7.322   9.454  0.1295  0.3690  0.3622
 5837SOL    HW119711   8.287   7.376   9.400 -0.6362  0.7974 -0.0268
 5837SOL    HW219712   8.142   7.357   9.440 -0.4363 -1.1502 -0.1393
 5838SOL     OW19713   2.594   5.504   8.279 -0.6060 -0.1048 -0.1654
 5838SOL    HW119714   2.641   5.425   8.308  0.7956 -0.0072 -1.9633
 5838SOL    HW219715   2.507   5.473   8.255 -0.8592 -0.6605  1.3570
 5839SOL     OW19716   5.489   9.368   5.306 -0.1384  0.2626  0.2007
 5839SOL    HW119717   5.570   9.316   5.306  0.8832  1.7764  0.2090
 5839SOL    HW219718   5.424   9.310   5.267  1.0741 -0.8148 -0.3243
 5840SOL     OW19719   3.693   4.040   0.701  0.5162 -0.1657  0.3807
 5840SOL    HW119720   3.713   3.953   0.735 -0.8256 -1.1737 -1.2574
 5840SOL    HW219721   3.619   4.070   0.752  0.1155 -0.5867  0.0539
 5841SOL     OW19722   7.412   6.142   9.460  0.5616  0.6909 -0.0331
 5841SOL    HW119723   7.325   6.182   9.450  1.0355  1.9928  0.7906
 5841SOL    HW219724   7.445   6.134   9.370 -1.3499 -2.1132 -0.5941
 5842SOL     OW19725   0.556   4.475   4.235 -0.2168 -0.0086  0.4050
 5842SOL    HW119726   0.632   4.506   4.285 -0.4014 -0.8495  1.2420
 5842SOL    HW219727   0.586   4.393   4.195 -0.5108 -0.0587  0.2848
 5843SOL     OW19728   8.527   2.885   8.648 -0.3415 -0.6363  0.1810
 5843SOL    HW119729   8.521   2.863   8.741 -0.4305 -3.3835 -0.4012
 5843SOL    HW219730   8.620   2.905   8.634 -0.3187 -0.2538  0.8094
 5844SOL     OW19731   3.720   8.176   1.187  0.3376 -0.0772 -0.1942
 5844SOL    HW119732   3.675   8.102   1.146  0.4768 -0.8070  0.9316
 5844SOL    HW219733   3.812   8.153   1.182  0.3158 -0.5848  1.2347
 5845SOL     OW19734   1.090   7.478   1.565 -0.2506  0.1579  0.0678
 5845SOL    HW119735   1.042   7.561   1.573  0.9072  0.7332  1.5248
 5845SOL    HW219736   1.081   7.454   1.473  0.3208  2.5150 -0.6851
 5846SOL     OW19737   8.137   4.028   8.924 -0.3991  0.3038  0.0196
 5846SOL    HW119738   8.139   3.939   8.961  0.0248 -0.7483 -2.3049
 5846SOL    HW219739   8.115   4.084   8.998 -1.8062 -1.8474  1.3690
 5847SOL     OW19740   2.560   9.020   1.180  0.1425 -0.5387  0.4274
 5847SOL    HW119741   2.472   8.997   1.212  1.1491 -0.4314  3.6754
 5847SOL    HW219742   2.548   9.101   1.132 -1.6834 -1.1678 -0.2540
 5848SOL     OW19743   3.924   4.336   2.830  0.0748 -0.2540  0.3990
 5848SOL    HW119744   3.880   4.339   2.915  0.0239  0.9012  0.3421
 5848SOL    HW219745   3.855   4.317   2.767 -0.6921  2.8759  0.1335
 5849SOL     OW19746   5.394   4.815   2.863 -0.0429  0.1786 -0.0230
 5849SOL    HW119747   5.388   4.872   2.940 -2.6175  0.2930 -0.2464
 5849SOL    HW219748   5.358   4.866   2.791 -0.8159 -1.0976 -0.5869
 5850SOL     OW19749   7.933   7.561   8.353  0.0327  0.5003 -0.3140
 5850SOL    HW119750   7.893   7.587   8.270  0.0580 -2.8337 -1.5029
 5850SOL    HW219751   8.026   7.583   8.342 -0.1199  0.9256 -0.7959
 5851SOL     OW19752   3.170   2.843   5.652 -0.1855  0.1538  0.1982
 5851SOL    HW119753   3.112   2.884   5.716  0.2242  1.6601 -0.3514
 5851SOL    HW219754   3.115   2.782   5.604 -0.4272 -1.2800  2.1898
 5852SOL     OW19755   2.542   2.432   3.562  0.2721  0.2583 -0.1459
 5852SOL    HW119756   2.539   2.387   3.477  0.8979  0.0333 -0.0547
 5852SOL    HW219757   2.622   2.484   3.558 -0.4069  1.3221 -0.2203
 5853SOL     OW19758   1.277   7.309   9.339 -0.0338  0.7824  1.0440
 5853SOL    HW119759   1.283   7.261   9.256  0.4039  0.3371  1.3274
 5853SOL    HW219760   1.201   7.366   9.328 -0.5600  0.0336  0.6955
 5854SOL     OW19761   9.380   4.484   2.498 -0.1979 -0.5960 -0.0147
 5854SOL    HW119762   9.320   4.495   2.424  0.3532 -2.0281 -0.7169
 5854SOL    HW219763   9.325   4.489   2.576 -0.9110  0.0863 -0.5459
 5855SOL     OW19764   1.668   3.965   6.253 -0.2172  0.1289 -0.2122
 5855SOL    HW119765   1.745   4.014   6.226  0.5029 -1.3225 -0.9377
 5855SOL    HW219766   1.612   3.964   6.176 -0.5541  0.4174  0.0284
 5856SOL     OW19767   5.234   0.708   7.495  0.0265 -0.1742  0.0682
 5856SOL    HW119768   5.196   0.747   7.416 -0.0784 -1.8797 -0.7638
 5856SOL    HW219769   5.159   0.687   7.550 -0.0278 -0.5661 -0.1503
 5857SOL     OW19770   2.879   6.646   1.153 -0.1181 -0.0925  0.5559
 5857SOL    HW119771   2.847   6.655   1.063  0.7084  1.4920  0.3931
 5857SOL    HW219772   2.839   6.719   1.200  1.8175  0.9260  0.7302
 5858SOL     OW19773   4.692   6.159   2.202 -0.5151  0.1150  0.1814
 5858SOL    HW119774   4.710   6.090   2.266  2.7718  0.6037 -0.0398
 5858SOL    HW219775   4.666   6.235   2.254  1.1720  0.2144  0.9564
 5859SOL     OW19776   0.808   3.078   8.130  0.2943 -0.6839 -0.1013
 5859SOL    HW119777   0.749   3.042   8.064 -0.0100  0.6968 -0.6333
 5859SOL    HW219778   0.870   3.130   8.080  0.2573  0.1202  0.6621
 5860SOL     OW19779   2.444   1.103   6.633 -0.0582  0.0785 -0.8997
 5860SOL    HW119780   2.415   1.140   6.716  0.5798  1.1286 -1.1303
 5860SOL    HW219781   2.395   1.151   6.567  0.7081  0.4790 -1.1947
 5861SOL     OW19782   2.456   3.558   0.029 -0.3199  0.5199 -0.2368
 5861SOL    HW119783   2.538   3.572   0.077 -0.4736 -2.4728  1.0623
 5861SOL    HW219784   2.388   3.561   0.096 -0.8199 -1.0220 -0.6470
 5862SOL     OW19785   7.864   3.052   8.736 -0.5042 -0.5043  0.3601
 5862SOL    HW119786   7.950   3.064   8.776 -1.1328  1.2104  1.2507
 5862SOL    HW219787   7.823   2.983   8.789  0.3070 -1.3959 -0.1213
 5863SOL     OW19788   0.645   5.831   4.555 -0.9061 -0.0728 -0.3519
 5863SOL    HW119789   0.628   5.925   4.551  2.7074  0.7452 -0.4331
 5863SOL    HW219790   0.619   5.806   4.644  0.0892  1.5737  0.4708
 5864SOL     OW19791   3.162   0.032   6.501 -0.3098  0.0955  0.2997
 5864SOL    HW119792   3.098   0.060   6.436 -0.4529 -0.8115  0.0339
 5864SOL    HW219793   3.121  -0.043   6.544  0.9517 -1.1473 -0.5568
 5865SOL     OW19794   3.181   5.538   7.113  0.2649  0.0762 -0.3485
 5865SOL    HW119795   3.202   5.496   7.197 -0.8933 -0.6822 -0.4056
 5865SOL    HW219796   3.091   5.511   7.096  0.2687  0.7701 -1.5226
 5866SOL     OW19797   8.583   8.056   0.189 -1.0408  0.0580  0.1345
 5866SOL    HW119798   8.664   8.079   0.234 -0.1248  0.3601 -1.5986
 5866SOL    HW219799   8.519   8.120   0.220 -0.1922  0.8472  0.2923
 5867SOL     OW19800   3.778   2.303   8.622  0.5025 -0.1063 -0.4988
 5867SOL    HW119801   3.765   2.398   8.620 -0.2170 -0.1649  0.6583
 5867SOL    HW219802   3.774   2.280   8.714 -1.1836 -1.5134 -0.8762
 5868SOL     OW19803   8.760   5.439   0.395  0.5615  0.0294 -0.2130
 5868SOL    HW119804   8.796   5.465   0.480  2.0825  0.8098 -1.0583
 5868SOL    HW219805   8.811   5.488   0.331 -2.4494  1.7138 -1.5079
 5869SOL     OW19806   6.650   6.040   2.986 -0.0057  0.0039 -0.3003
 5869SOL    HW119807   6.658   6.130   3.016  0.4785  0.1371 -0.8105
 5869SOL    HW219808   6.573   6.040   2.929 -1.8955 -0.5871  2.1116
 5870SOL     OW19809   0.046   0.996   0.266 -0.1051  0.2878  0.1006
 5870SOL    HW119810  -0.050   0.996   0.271 -0.2051  1.2761 -1.2571
 5870SOL    HW219811   0.069   1.085   0.241  0.8157 -0.8894 -4.1459
 5871SOL     OW19812   7.388   4.540   1.106 -0.5455 -0.1351 -0.7362
 5871SOL    HW119813   7.348   4.465   1.062  1.1125 -0.7433 -1.2814
 5871SOL    HW219814   7.327   4.612   1.090 -2.7185 -1.5394  0.6847
 5872SOL     OW19815   8.888   9.337   3.505 -0.9500  0.5665 -0.8118
 5872SOL    HW119816   8.873   9.427   3.531  1.1250  0.4533  1.0466
 5872SOL    HW219817   8.983   9.330   3.494 -0.8570 -1.7251  0.6723
 5873SOL     OW19818   4.903   0.462   0.578 -0.4806  0.7888  0.5700
 5873SOL    HW119819   4.859   0.422   0.503  0.6953  0.5835 -0.0349
 5873SOL    HW219820   4.933   0.547   0.545  0.4010  0.5256  0.6731
 5874SOL     OW19821   3.219   3.135   2.888 -0.2994  0.2822  0.1350
 5874SOL    HW119822   3.287   3.154   2.954 -0.1705 -0.6537  0.2793
 5874SOL    HW219823   3.268   3.102   2.812 -0.6326 -1.2774  0.5615
 5875SOL     OW19824   0.707   3.964   6.942 -0.3840  0.2220 -0.0398
 5875SOL    HW119825   0.793   4.007   6.951  2.2478 -4.0163 -1.6675
 5875SOL    HW219826   0.675   3.993   6.857 -0.0132  0.9353  0.0542
 5876SOL     OW19827   2.463   1.108   0.769 -0.5955 -0.2557 -0.3437
 5876SOL    HW119828   2.518   1.142   0.839  0.7802 -1.6497 -0.7044
 5876SOL    HW219829   2.501   1.144   0.688 -1.2591  0.1337 -0.4919
 5877SOL     OW19830   1.023   3.263   2.175 -0.3167  0.5873  0.3602
 5877SOL    HW119831   1.052   3.219   2.255 -0.6458  1.5143  1.0134
 5877SOL    HW219832   1.037   3.356   2.193  0.5546  0.7508 -1.0580
 5878SOL     OW19833   4.533   8.033   2.240 -0.4909 -0.3981 -0.4579
 5878SOL    HW119834   4.596   7.967   2.211 -1.5183 -1.7686  0.2837
 5878SOL    HW219835   4.485   8.057   2.161 -0.0887 -0.5258 -0.7418
 5879SOL     OW19836   6.248   8.261   4.578 -0.7267  0.6450 -0.1195
 5879SOL    HW119837   6.152   8.255   4.570 -0.6958  1.1286 -0.9595
 5879SOL    HW219838   6.264   8.256   4.672 -1.5918  0.7400  0.0464
 5880SOL     OW19839   3.058   5.994   1.970  0.2941  0.0421  0.4947
 5880SOL    HW119840   3.060   6.084   2.001 -0.6819  0.2062  0.1249
 5880SOL    HW219841   2.968   5.981   1.940  0.6705 -0.7547 -0.3412
 5881SOL     OW19842   9.507   4.963   9.166  0.1196 -0.1736  0.4515
 5881SOL    HW119843   9.451   4.962   9.088  1.5946  1.1917 -0.7036
 5881SOL    HW219844   9.591   4.998   9.135  1.5689 -1.8788  2.1561
 5882SOL     OW19845   1.186   8.681   1.353  0.3066 -0.0455  0.2203
 5882SOL    HW119846   1.101   8.673   1.397  0.4907 -1.8414  0.3343
 5882SOL    HW219847   1.185   8.612   1.287  0.7461  1.4915 -1.4369
 5883SOL     OW19848   1.237   8.969   1.632 -0.3349  0.1667 -0.1026
 5883SOL    HW119849   1.237   9.041   1.696  0.2800 -1.3088  1.6523
 5883SOL    HW219850   1.163   8.989   1.574  2.0480  4.2339 -2.1820
 5884SOL     OW19851   9.021   4.096   5.772  0.1243  0.0686 -0.4906
 5884SOL    HW119852   8.977   4.016   5.801  0.4352 -0.5688 -1.7128
 5884SOL    HW219853   9.078   4.120   5.844  2.8450 -2.9245 -1.4154
 5885SOL     OW19854   0.393   5.978   6.530 -0.0841  0.3644  0.0703
 5885SOL    HW119855   0.319   5.965   6.590 -0.3511 -1.0854 -0.5598
 5885SOL    HW219856   0.458   5.914   6.558  0.6320  1.0823  0.0952
 5886SOL     OW19857   7.094   4.806   0.083 -0.1155 -0.2388  0.1423
 5886SOL    HW119858   7.130   4.894   0.091 -0.5741 -0.0833  0.5532
 5886SOL    HW219859   7.041   4.809   0.003  1.9690 -0.9063 -1.3501
 5887SOL     OW19860   2.337   9.006   2.807  0.2078  0.1958  0.6815
 5887SOL    HW119861   2.297   8.988   2.892 -1.2230 -1.0331 -0.2035
 5887SOL    HW219862   2.328   9.101   2.796 -1.2887  0.1253  1.1024
 5888SOL     OW19863   9.276   4.671   0.967  0.0607  0.3112 -0.7312
 5888SOL    HW119864   9.352   4.703   0.919  1.5750 -1.0172  0.6566
 5888SOL    HW219865   9.279   4.718   1.050  0.4026 -0.9740  0.0145
 5889SOL     OW19866   1.504   1.096   3.925 -0.0966 -0.5210 -0.0499
 5889SOL    HW119867   1.510   1.189   3.905  0.6271 -0.3827  0.7741
 5889SOL    HW219868   1.547   1.053   3.852  1.5668 -0.0826  0.6301
 5890SOL     OW19869   6.533   8.391   2.433  0.6039  0.4373  0.0047
 5890SOL    HW119870   6.460   8.340   2.467 -0.3640  0.1498 -2.3258
 5890SOL    HW219871   6.610   8.353   2.475 -0.3901 -0.6799  0.8990
 5891SOL     OW19872   6.967   3.836   0.767  0.3552 -0.9438 -0.4160
 5891SOL    HW119873   6.988   3.868   0.855  0.5167  0.5354 -0.9656
 5891SOL    HW219874   6.956   3.742   0.778  1.5204 -0.9515  0.9819
 5892SOL     OW19875   8.645   1.886   4.716 -0.3739  0.4884  0.6180
 5892SOL    HW119876   8.694   1.958   4.675  0.8512 -0.0511  1.0858
 5892SOL    HW219877   8.636   1.821   4.646  0.6368  0.0923  0.8361
 5893SOL     OW19878   6.683   2.086   3.259  0.4637 -0.4831 -0.5661
 5893SOL    HW119879   6.629   2.165   3.257  3.0032  1.5023  1.6037
 5893SOL    HW219880   6.622   2.015   3.236 -2.5817  1.7553 -0.0956
 5894SOL     OW19881   8.617   4.001   9.009 -0.1004  0.0907 -0.1239
 5894SOL    HW119882   8.529   3.966   9.001 -0.1483  0.2635 -0.3799
 5894SOL    HW219883   8.672   3.925   9.028 -0.5307  0.2095  1.7499
 5895SOL     OW19884   7.337   1.774   2.969 -0.5224 -0.3706  0.3052
 5895SOL    HW119885   7.415   1.814   2.930 -0.7325 -1.4161 -1.3274
 5895SOL    HW219886   7.306   1.838   3.033  1.6352  0.0954  0.9846
 5896SOL     OW19887   4.391   9.392   7.262 -0.4392 -0.3265  0.0565
 5896SOL    HW119888   4.363   9.330   7.195 -0.9845 -0.7288  0.6354
 5896SOL    HW219889   4.313   9.406   7.315 -0.5771  1.5949 -0.6091
 5897SOL     OW19890   0.884   7.826   6.199  0.2059  0.0348  0.2932
 5897SOL    HW119891   0.911   7.889   6.132 -0.6160  2.6710  2.3013
 5897SOL    HW219892   0.964   7.810   6.249 -0.4947  3.8905  3.0944
 5898SOL     OW19893   8.255   4.720   2.202  0.2106 -0.0787  0.5098
 5898SOL    HW119894   8.205   4.795   2.172 -0.1623 -0.3102  0.5531
 5898SOL    HW219895   8.285   4.677   2.122  2.1430  1.2332  0.4469
 5899SOL     OW19896   2.107   6.828   7.744  0.2956  0.0260  0.0414
 5899SOL    HW119897   2.167   6.766   7.704  1.1220  0.4098  0.6570
 5899SOL    HW219898   2.052   6.859   7.672 -0.2138 -1.4828 -0.2652
 5900SOL     OW19899   6.984   3.336   8.845  0.0155  0.1860  0.3092
 5900SOL    HW119900   6.895   3.305   8.865 -0.2131 -0.5311 -1.6423
 5900SOL    HW219901   6.976   3.375   8.758  1.9924 -1.6730 -0.7864
 5901SOL     OW19902   6.318   9.393   6.703  0.7607  0.0953 -0.4024
 5901SOL    HW119903   6.284   9.333   6.769  1.2576  1.4760  1.2035
 5901SOL    HW219904   6.243   9.411   6.646  0.3611 -1.2586 -0.3313
 5902SOL     OW19905   7.800   8.009   6.928 -0.5918  0.0622 -0.2601
 5902SOL    HW119906   7.824   8.040   7.016  0.9744 -0.5307 -0.4461
 5902SOL    HW219907   7.714   7.968   6.940 -0.5950  0.3660  0.9123
 5903SOL     OW19908   3.789   8.103   3.810 -0.1772 -0.2156  0.4271
 5903SOL    HW119909   3.845   8.053   3.870 -0.1811 -2.6145 -1.4048
 5903SOL    HW219910   3.845   8.174   3.779  0.3694  0.0566  1.9284
 5904SOL     OW19911   7.721   0.253   5.854  0.1501 -0.3817 -0.6204
 5904SOL    HW119912   7.683   0.225   5.770  0.6951 -0.6548 -0.7771
 5904SOL    HW219913   7.783   0.184   5.877 -0.5759 -0.7022  0.4109
 5905SOL     OW19914   3.143   1.704   0.995 -0.3774 -0.0376 -0.1461
 5905SOL    HW119915   3.183   1.682   0.911  1.1419 -0.4628  0.6609
 5905SOL    HW219916   3.142   1.622   1.043  0.3718  0.5398  0.8841
 5906SOL     OW19917   9.461   1.498   5.007  0.4752  0.3921 -0.6089
 5906SOL    HW119918   9.470   1.479   5.101  1.5972 -3.1993 -1.2677
 5906SOL    HW219919   9.527   1.566   4.990 -0.1474  1.5422  1.2391
 5907SOL     OW19920   5.151   7.117   3.775 -0.2505 -0.3497  0.0054
 5907SOL    HW119921   5.101   7.124   3.694  0.5976 -1.1705 -0.6152
 5907SOL    HW219922   5.200   7.035   3.766  0.7494  0.1320  0.8328
 5908SOL     OW19923   6.627   0.319   8.445 -0.3852 -0.2073 -0.1262
 5908SOL    HW119924   6.570   0.344   8.373 -0.0806 -0.6335 -0.5169
 5908SOL    HW219925   6.650   0.402   8.487  1.9455  0.3968 -2.3815
 5909SOL     OW19926   5.240   0.096   6.879  0.0852  0.3267 -0.1714
 5909SOL    HW119927   5.152   0.119   6.910 -0.6835  1.3556 -2.8373
 5909SOL    HW219928   5.277   0.179   6.850  1.9784 -0.1024  0.8678
 5910SOL     OW19929   5.935   4.693   1.017 -0.4401 -0.2622 -0.4130
 5910SOL    HW119930   5.946   4.687   0.922 -0.3503  2.9051 -0.6873
 5910SOL    HW219931   5.915   4.603   1.044 -0.9372 -1.1852 -3.4634
 5911SOL     OW19932   4.324   1.336   3.305 -0.3170 -0.2033 -0.4901
 5911SOL    HW119933   4.318   1.360   3.213  2.2822 -1.2217 -1.0111
 5911SOL    HW219934   4.413   1.300   3.315 -1.1674 -1.8915  1.9832
 5912SOL     OW19935   2.080   8.313   6.468 -0.5214  0.1170  0.1186
 5912SOL    HW119936   2.172   8.330   6.446 -0.0062 -2.7961 -0.3430
 5912SOL    HW219937   2.073   8.337   6.560  0.4784  1.0890 -0.0328
 5913SOL     OW19938   6.723   4.042   4.778 -0.0347 -0.2272 -0.0349
 5913SOL    HW119939   6.671   4.052   4.698 -0.6429  1.6832  0.5537
 5913SOL    HW219940   6.736   4.132   4.810  1.9680 -0.7820  0.9102
 5914SOL     OW19941   0.652   6.974   1.746  0.1194 -0.0786 -0.0514
 5914SOL    HW119942   0.568   6.928   1.752  0.5388 -0.7372  1.1111
 5914SOL    HW219943   0.648   7.041   1.814  1.0712 -1.0722  1.0421
 5915SOL     OW19944   8.280   7.156   6.366 -0.2374 -0.3105  0.3040
 5915SOL    HW119945   8.284   7.126   6.457 -2.6888  0.1077  0.6039
 5915SOL    HW219946   8.364   7.200   6.352  0.1683 -0.3429  2.3643
 5916SOL     OW19947   7.609   2.713   4.063  0.0948 -0.2074 -0.6558
 5916SOL    HW119948   7.595   2.794   4.014 -1.2267 -0.7679 -1.2536
 5916SOL    HW219949   7.552   2.720   4.139 -2.1723 -1.6931 -2.1120
 5917SOL     OW19950   4.818   5.185   5.990  0.6999  0.1252 -0.6392
 5917SOL    HW119951   4.880   5.121   5.957 -1.0966 -1.1821 -1.6495
 5917SOL    HW219952   4.743   5.133   6.020 -0.3140  1.6790 -0.3276
 5918SOL     OW19953   2.693   1.076   6.492 -0.3320  0.1570 -0.7639
 5918SOL    HW119954   2.622   1.090   6.556 -0.6942 -0.2976 -1.0629
 5918SOL    HW219955   2.690   0.983   6.472  1.0570 -0.0872  0.0269
 5919SOL     OW19956   4.651   2.761   3.957 -0.0231 -0.5063  1.1615
 5919SOL    HW119957   4.631   2.712   3.877 -0.9966 -0.0954  1.1455
 5919SOL    HW219958   4.567   2.766   4.004  0.5219 -0.7179  2.2000
 5920SOL     OW19959   8.726   6.772   5.214 -0.6571 -0.3312 -0.3269
 5920SOL    HW119960   8.725   6.718   5.135  1.4433 -0.4103 -0.3704
 5920SOL    HW219961   8.726   6.709   5.286  0.7606 -0.4041 -0.3604
 5921SOL     OW19962   5.248   8.790   9.451 -0.3570  0.0032  0.6967
 5921SOL    HW119963   5.168   8.823   9.492 -0.4048 -0.5513  1.0588
 5921SOL    HW219964   5.234   8.696   9.444 -0.4109  0.1027 -0.7604
 5922SOL     OW19965   5.429   5.397   2.716  0.2873 -0.3855  0.3703
 5922SOL    HW119966   5.466   5.309   2.717  1.0282 -0.0804  1.1788
 5922SOL    HW219967   5.334   5.383   2.710  0.3637 -1.2559  1.0130
 5923SOL     OW19968   9.166   0.901   1.148  0.2838 -0.3487 -0.4707
 5923SOL    HW119969   9.134   0.987   1.122 -0.6589 -0.6055 -0.1829
 5923SOL    HW219970   9.207   0.866   1.070 -0.0790  0.0153 -0.8289
 5924SOL     OW19971   9.216   5.201   2.247 -0.5744  0.5419 -0.4037
 5924SOL    HW119972   9.132   5.237   2.276  0.0684  1.2870  0.5981
 5924SOL    HW219973   9.226   5.233   2.158 -0.9657  1.1597 -0.2348
 5925SOL     OW19974   3.952   0.218   0.616 -0.0432  0.1985  0.1823
 5925SOL    HW119975   3.966   0.261   0.700  0.4626 -0.6232  0.5352
 5925SOL    HW219976   3.933   0.289   0.555 -0.5221  0.7966  1.0091
 5926SOL     OW19977   2.028   1.689   2.433 -0.2831  0.2561 -0.0974
 5926SOL    HW119978   2.001   1.699   2.342  2.9536  0.7501 -1.1441
 5926SOL    HW219979   1.963   1.630   2.472 -2.5985  1.2164 -2.2615
 5927SOL     OW19980   6.330   2.582   9.522  0.6252  0.1025 -0.5502
 5927SOL    HW119981   6.327   2.590   9.427 -0.0370 -0.2245 -0.5617
 5927SOL    HW219982   6.344   2.488   9.537 -1.3900 -0.1937 -0.3098
 5928SOL     OW19983   9.084   0.293   8.516  0.3937  0.1965  0.2865
 5928SOL    HW119984   9.131   0.328   8.440  0.8559 -0.5992  0.2016
 5928SOL    HW219985   8.997   0.333   8.509  0.3520 -0.0363 -0.7973
 5929SOL     OW19986   4.230   2.542   5.745 -0.2179  0.4076  0.0440
 5929SOL    HW119987   4.261   2.559   5.834 -1.8202  1.4345  0.4525
 5929SOL    HW219988   4.145   2.587   5.740 -0.4048 -0.0590 -1.8408
 5930SOL     OW19989   4.399   0.667   9.276  0.2383 -0.6799 -0.5700
 5930SOL    HW119990   4.460   0.608   9.321  0.0960 -1.0991 -0.9242
 5930SOL    HW219991   4.337   0.609   9.232  0.9021 -0.3195 -2.0591
 5931SOL     OW19992   2.028   2.772   2.631 -0.3944 -0.0954  0.0841
 5931SOL    HW119993   2.082   2.762   2.710 -1.8597 -1.6280  0.9516
 5931SOL    HW219994   1.947   2.812   2.662 -0.4124  0.6899 -0.9215
 5932SOL     OW19995   2.914   7.605   6.163 -1.0228 -0.1265  0.4383
 5932SOL    HW119996   2.860   7.554   6.222 -0.2948 -0.9773  0.4021
 5932SOL    HW219997   2.993   7.625   6.214 -0.6473 -0.3617 -0.0384
 5933SOL     OW19998   8.327   6.619   7.542 -0.3463 -0.1884  0.7502
 5933SOL    HW119999   8.237   6.601   7.516 -0.0431 -3.2474  1.4334
 5933SOL    HW220000   8.334   6.588   7.632  1.3500  0.0726  0.7557
 5934SOL     OW20001   5.930   1.103   2.987  0.2300  0.2886 -0.3765
 5934SOL    HW120002   5.957   1.111   3.078 -1.5887 -1.5707  0.4082
 5934SOL    HW220003   5.874   1.178   2.972 -0.8389 -0.2760  0.6210
 5935SOL     OW20004   2.610   8.969   5.592  0.1998 -0.0412 -0.1265
 5935SOL    HW120005   2.666   8.921   5.652 -0.8085 -1.3488 -0.1792
 5935SOL    HW220006   2.601   8.912   5.516 -1.3655 -0.0005 -0.0189
 5936SOL     OW20007   0.818   6.737   5.866 -0.2275  0.0194  0.2145
 5936SOL    HW120008   0.899   6.779   5.837 -0.5775 -0.4167 -1.5587
 5936SOL    HW220009   0.846   6.663   5.920  0.7770 -1.6401 -2.3512
 5937SOL     OW20010   0.531   4.126   0.020 -0.1688  0.2618 -0.1388
 5937SOL    HW120011   0.620   4.154  -0.000 -0.5209  2.4527  0.9966
 5937SOL    HW220012   0.529   4.117   0.115 -0.8863 -0.8898 -0.2375
 5938SOL     OW20013   9.177   3.438   9.425 -0.0957  0.1251 -0.1445
 5938SOL    HW120014   9.241   3.502   9.457 -0.0894  0.3117 -0.5318
 5938SOL    HW220015   9.097   3.488   9.410 -0.0249  0.0870 -0.6647
 5939SOL     OW20016   6.991   7.447   9.117  0.2930  0.1755  0.2234
 5939SOL    HW120017   7.009   7.528   9.165  1.1024 -0.9833  1.9382
 5939SOL    HW220018   7.071   7.430   9.068  0.9608 -0.6956  1.5585
 5940SOL     OW20019   8.350   0.203   3.030 -0.3046 -0.4410  0.2169
 5940SOL    HW120020   8.426   0.252   3.060 -0.2403 -0.1642 -0.3822
 5940SOL    HW220021   8.377   0.111   3.033  0.6487 -0.2582 -1.5794
 5941SOL     OW20022   1.979   6.885   1.975 -0.1555 -0.1020  0.1701
 5941SOL    HW120023   1.978   6.881   2.070 -1.3265 -3.5005  0.1812
 5941SOL    HW220024   1.887   6.881   1.950  0.1524  0.2437 -1.1128
 5942SOL     OW20025   8.946   3.480   5.050  0.0919  0.0379  0.2448
 5942SOL    HW120026   9.018   3.529   5.089  0.7847 -0.9029  0.1594
 5942SOL    HW220027   8.869   3.534   5.068  0.7731  0.9435  0.5368
 5943SOL     OW20028   2.723   1.900   5.658  0.7893 -0.2377 -0.6991
 5943SOL    HW120029   2.759   1.812   5.649  3.0376  0.6004 -0.5309
 5943SOL    HW220030   2.707   1.910   5.752 -1.7574 -1.2262 -0.9316
 5944SOL     OW20031   6.505   8.440   1.990 -0.1350  0.0533  0.3931
 5944SOL    HW120032   6.508   8.465   1.897  1.9276  2.1172  0.9111
 5944SOL    HW220033   6.438   8.498   2.027  2.1453  2.6133  0.9055
 5945SOL     OW20034   4.536   3.864   8.594  0.8599 -0.1345 -0.0271
 5945SOL    HW120035   4.510   3.947   8.634  0.0574 -0.9360  1.2019
 5945SOL    HW220036   4.628   3.854   8.617  0.3379 -0.7435  2.0214
 5946SOL     OW20037   4.246   5.598   6.687  0.4147  0.1401 -0.1502
 5946SOL    HW120038   4.187   5.665   6.653  1.5961  1.2271 -0.1316
 5946SOL    HW220039   4.296   5.642   6.756  0.6353 -1.0062  0.4529
 5947SOL     OW20040   0.983   3.637   6.021 -0.4382  0.3626 -0.1125
 5947SOL    HW120041   1.067   3.682   6.021  0.5421 -1.3355  1.1419
 5947SOL    HW220042   0.919   3.706   6.039  0.8494  1.4479  0.4796
 5948SOL     OW20043   1.746   2.778   3.539 -0.3848 -0.1923  0.2585
 5948SOL    HW120044   1.729   2.872   3.531 -1.2376 -0.3277  0.3408
 5948SOL    HW220045   1.832   2.765   3.499 -0.0434  0.6966  0.6980
 5949SOL     OW20046   0.176   5.452   6.011 -0.6715 -0.8368 -0.3055
 5949SOL    HW120047   0.174   5.534   5.961 -0.9425 -2.5544 -3.3967
 5949SOL    HW220048   0.088   5.415   5.999 -0.5233 -1.6494  0.9422
 5950SOL     OW20049   1.163   0.910   1.824 -0.6739 -0.3818  0.3232
 5950SOL    HW120050   1.244   0.861   1.832 -0.9352 -0.8409  0.1957
 5950SOL    HW220051   1.157   0.960   1.906 -1.1617 -1.7340  1.1474
 5951SOL     OW20052   3.017   8.619   3.500  0.3533 -0.0654  0.7769
 5951SOL    HW120053   3.100   8.637   3.456 -1.9354  4.1435 -2.5428
 5951SOL    HW220054   3.024   8.667   3.583  0.6281  1.8907 -0.3297
 5952SOL     OW20055   8.615   8.911   6.657  0.2239 -0.7774  0.8464
 5952SOL    HW120056   8.549   8.872   6.599  0.6159 -1.0733  0.5896
 5952SOL    HW220057   8.579   8.903   6.745 -1.3443  1.5699  0.5098
 5953SOL     OW20058   6.337   6.358   3.751 -0.0885 -0.3218 -0.2523
 5953SOL    HW120059   6.388   6.414   3.809  0.0739 -0.7879  0.0626
 5953SOL    HW220060   6.392   6.281   3.737 -1.0220 -1.1988  0.7536
 5954SOL     OW20061   4.989   4.722   8.346 -0.5976  0.0171  0.3988
 5954SOL    HW120062   5.078   4.706   8.313 -0.9732 -0.7008 -0.3010
 5954SOL    HW220063   4.949   4.779   8.279 -1.2822 -1.2367 -0.2836
 5955SOL     OW20064   3.530   5.908   5.613  0.0634 -0.0310  0.3260
 5955SOL    HW120065   3.595   5.843   5.585 -0.7480 -1.0732  0.8269
 5955SOL    HW220066   3.564   5.941   5.696  0.6431  0.4486 -0.0870
 5956SOL     OW20067   0.011   7.602   3.739 -0.5044  0.2335 -0.1572
 5956SOL    HW120068   0.098   7.595   3.777  0.1735 -1.7501 -1.8804
 5956SOL    HW220069  -0.044   7.548   3.795 -0.1907 -0.1576 -0.2262
 5957SOL     OW20070   3.811   4.515   1.249  0.2710 -0.7399  0.2111
 5957SOL    HW120071   3.796   4.448   1.316 -0.3240  0.3172  1.1783
 5957SOL    HW220072   3.895   4.491   1.210  0.1546 -1.9469  0.6384
 5958SOL     OW20073   2.420   5.656   6.946 -0.0447 -0.1664  0.0119
 5958SOL    HW120074   2.450   5.572   6.913  0.0530  0.2967 -1.0947
 5958SOL    HW220075   2.332   5.667   6.910  0.5341  0.9034 -1.1833
 5959SOL     OW20076   6.045   1.378   3.436  0.0526 -0.0744 -0.1262
 5959SOL    HW120077   6.002   1.343   3.359  0.6560 -0.8632 -0.1230
 5959SOL    HW220078   6.108   1.310   3.462  1.3095  1.0267 -0.1544
 5960SOL     OW20079   2.818   0.543   8.989  0.1654  0.0315 -0.1722
 5960SOL    HW120080   2.873   0.543   8.910  1.1921 -1.6240  0.4788
 5960SOL    HW220081   2.813   0.635   9.014  1.0411  0.4353 -1.3448
 5961SOL     OW20082   3.615   3.774   1.936  0.3059  0.0323  0.4525
 5961SOL    HW120083   3.637   3.856   1.981  0.0286 -0.2400  1.0997
 5961SOL    HW220084   3.622   3.794   1.843  1.0025  0.5832  0.6169
 5962SOL     OW20085   3.689   3.817   6.733 -0.7867  0.0152 -0.0305
 5962SOL    HW120086   3.714   3.874   6.660  2.2388 -2.7404 -1.4186
 5962SOL    HW220087   3.752   3.838   6.802  0.4001 -1.5671 -0.5799
 5963SOL     OW20088   5.201   4.739   3.554  0.1672  0.7184  0.1056
 5963SOL    HW120089   5.162   4.749   3.641  2.9267  1.2008  1.3878
 5963SOL    HW220090   5.265   4.668   3.565 -0.0423  0.1737 -1.8058
 5964SOL     OW20091   2.823   0.717   6.272  0.3535 -0.0528 -0.1195
 5964SOL    HW120092   2.846   0.803   6.237  0.2872 -0.5438 -1.4306
 5964SOL    HW220093   2.833   0.658   6.198  1.7227 -1.4121  1.0864
 5965SOL     OW20094   5.448   8.114   6.593  0.5199  0.5963  0.2822
 5965SOL    HW120095   5.479   8.179   6.655 -0.5749  2.9270 -1.4702
 5965SOL    HW220096   5.360   8.092   6.623  0.0412  1.6239 -0.3151
 5966SOL     OW20097   5.361   3.914   2.708 -0.4667  0.3848 -0.4888
 5966SOL    HW120098   5.395   3.865   2.633 -0.3200  1.5737 -1.2246
 5966SOL    HW220099   5.276   3.874   2.725 -0.1818 -0.3834 -0.8219
 5967SOL     OW20100   3.854   4.913   4.736  0.1124 -0.2108 -0.2661
 5967SOL    HW120101   3.938   4.953   4.761  0.0030  0.0454 -0.3014
 5967SOL    HW220102   3.870   4.819   4.738 -0.0006 -0.2208  1.1302
 5968SOL     OW20103   6.105   8.957   2.708 -0.8725 -0.9043 -0.0994
 5968SOL    HW120104   6.062   8.980   2.790 -0.4862  0.4948 -0.2600
 5968SOL    HW220105   6.164   8.885   2.731  1.5017  1.3970  1.5972
 5969SOL     OW20106   4.006   7.117   1.775  0.1918  0.2790  0.6200
 5969SOL    HW120107   3.912   7.113   1.795  0.3003  0.5312  1.2131
 5969SOL    HW220108   4.019   7.205   1.740  0.1175  0.0629  0.0463
 5970SOL     OW20109   8.195   1.670   7.834 -0.2515 -0.1598 -0.4471
 5970SOL    HW120110   8.283   1.689   7.801  0.4479 -1.4831  0.5375
 5970SOL    HW220111   8.139   1.671   7.756  0.5309  1.2008 -1.0222
 5971SOL     OW20112   6.374   7.357   4.941 -0.0530  0.2960  0.1013
 5971SOL    HW120113   6.341   7.268   4.942  2.1264 -0.5989  2.0847
 5971SOL    HW220114   6.439   7.358   4.870  0.8630 -0.1389  0.9029
 5972SOL     OW20115   5.602   4.750   9.033 -0.4194 -0.3179  0.8094
 5972SOL    HW120116   5.613   4.822   9.095  0.3336  0.5956 -0.3365
 5972SOL    HW220117   5.643   4.675   9.075  0.9151  0.5118  1.0291
 5973SOL     OW20118   1.464   1.732   0.368 -0.5170  0.2016 -0.3325
 5973SOL    HW120119   1.511   1.650   0.378 -0.3205  0.4841  1.5148
 5973SOL    HW220120   1.461   1.748   0.274 -0.8686 -2.0760 -0.7559
 5974SOL     OW20121   2.810   0.808   9.073  0.4343 -0.3083  0.3177
 5974SOL    HW120122   2.806   0.895   9.035  1.8164 -0.2197  0.3226
 5974SOL    HW220123   2.853   0.821   9.158  0.7150 -0.9836  0.2872
 5975SOL     OW20124   1.207   3.224   0.843  0.4736  0.4113 -0.1272
 5975SOL    HW120125   1.296   3.254   0.858  0.2757  1.4149 -0.8538
 5975SOL    HW220126   1.193   3.236   0.749 -0.0278 -0.8774 -0.2374
 5976SOL     OW20127   6.348   6.933   9.298  0.4187 -0.2425 -0.5849
 5976SOL    HW120128   6.279   6.878   9.261  1.1494 -1.7431  0.1547
 5976SOL    HW220129   6.302   7.000   9.347 -0.5246 -0.8007 -0.6736
 5977SOL     OW20130   0.032   3.545   0.061 -0.4180  0.3029 -0.2634
 5977SOL    HW120131   0.119   3.580   0.042 -0.1395 -0.9830 -1.5912
 5977SOL    HW220132   0.049   3.466   0.112 -0.8569  0.5078  0.1997
 5978SOL     OW20133   4.306   3.756   5.884  0.0149 -0.5515 -0.0281
 5978SOL    HW120134   4.342   3.809   5.813  0.5135  0.1349  0.7297
 5978SOL    HW220135   4.382   3.712   5.922 -0.3115 -1.2972 -0.2161
 5979SOL     OW20136   5.232   6.176   6.877  0.9205  0.2715 -0.0569
 5979SOL    HW120137   5.238   6.244   6.944  0.7058  1.1869 -0.9446
 5979SOL    HW220138   5.142   6.179   6.846  0.7022 -0.9279  0.3851
 5980SOL     OW20139   8.061   1.310   5.188  0.2576 -1.1932  0.2962
 5980SOL    HW120140   7.979   1.262   5.176  1.0276 -3.1075  2.1806
 5980SOL    HW220141   8.036   1.402   5.176 -2.1418 -1.7226  0.7057
 5981SOL     OW20142   2.036   4.053   4.825  0.4538 -0.0196  0.1292
 5981SOL    HW120143   2.001   4.073   4.912  2.4228 -2.1800  1.5261
 5981SOL    HW220144   1.962   4.064   4.766 -1.1442  0.7716  2.1638
 5982SOL     OW20145   0.981   3.159   6.835 -0.3738  0.1197 -0.3359
 5982SOL    HW120146   0.906   3.138   6.891  1.5377 -0.3599  2.1854
 5982SOL    HW220147   1.058   3.134   6.886  1.7321  3.9968 -1.2209
 5983SOL     OW20148   3.199   0.225   4.824  0.2512  0.3205 -0.5669
 5983SOL    HW120149   3.292   0.220   4.805  0.4942  0.5017  0.5155
 5983SOL    HW220150   3.176   0.317   4.807  0.3137  0.3233 -0.6354
 5984SOL     OW20151   9.295   2.867   6.303  0.3952  0.1506  0.0343
 5984SOL    HW120152   9.351   2.799   6.343  1.1666  0.5425 -0.3503
 5984SOL    HW220153   9.347   2.947   6.310 -0.8916  0.9116  1.3448
 5985SOL     OW20154   9.462   6.829   0.920  0.1699 -0.3248  0.1969
 5985SOL    HW120155   9.443   6.923   0.930  0.2581 -0.2672 -0.1616
 5985SOL    HW220156   9.538   6.814   0.975  1.6657  0.3342 -1.5631
 5986SOL     OW20157   2.628   6.462   0.984  0.2215 -0.2355 -0.4044
 5986SOL    HW120158   2.684   6.535   0.956  0.0028 -0.5162 -1.6404
 5986SOL    HW220159   2.686   6.385   0.981  0.5579 -0.0796  1.2790
 5987SOL     OW20160   8.536   4.625   3.798  0.4849  0.2862 -0.4501
 5987SOL    HW120161   8.543   4.717   3.773 -2.3050  0.2095 -1.9455
 5987SOL    HW220162   8.534   4.578   3.715  2.5120 -1.2566  0.3115
 5988SOL     OW20163   6.933   5.127   0.337  0.4552 -0.1979  0.2708
 5988SOL    HW120164   6.883   5.208   0.321  1.2275  0.2221 -0.0907
 5988SOL    HW220165   6.908   5.101   0.426 -0.2305  0.1230  0.1824
 5989SOL     OW20166   8.076   7.338   8.147 -0.2624  0.6755 -0.0571
 5989SOL    HW120167   8.139   7.330   8.219 -0.0488  0.7024 -0.2401
 5989SOL    HW220168   8.129   7.362   8.071 -0.6768  2.3302  0.1312
 5990SOL     OW20169   9.400   5.910   4.112  0.2654  0.0793  0.1507
 5990SOL    HW120170   9.365   5.980   4.057 -1.5582 -1.2542 -0.4601
 5990SOL    HW220171   9.491   5.899   4.082  0.1519  1.2279 -0.6725
 5991SOL     OW20172   2.932   8.927   2.208  0.1471  0.3915  0.1028
 5991SOL    HW120173   3.008   8.888   2.165  0.3343 -0.8370  1.4347
 5991SOL    HW220174   2.885   8.851   2.244 -0.1611  1.3233  1.7340
 5992SOL     OW20175   0.713   0.456   9.417 -0.2297 -0.3311  0.0691
 5992SOL    HW120176   0.620   0.461   9.439 -0.2532 -2.3307  0.6003
 5992SOL    HW220177   0.749   0.541   9.444 -2.5527  2.1563 -3.7713
 5993SOL     OW20178   1.066   2.502   8.774 -0.0950 -0.7926 -0.6455
 5993SOL    HW120179   1.108   2.436   8.829  0.3442  0.7364  0.9168
 5993SOL    HW220180   1.130   2.519   8.705  1.2759  0.4020  0.8484
 5994SOL     OW20181   3.993   6.431   9.093 -0.4016 -0.5038  0.1708
 5994SOL    HW120182   3.935   6.426   9.169  0.7089 -0.5716  1.0474
 5994SOL    HW220183   4.077   6.462   9.129  0.0218 -0.1180 -1.1032
 5995SOL     OW20184   2.263   9.017   0.998 -0.1572  0.7688 -0.4610
 5995SOL    HW120185   2.307   9.079   0.939  0.8592 -0.9157 -1.5488
 5995SOL    HW220186   2.193   8.979   0.945 -1.4704  1.7111  0.5364
 5996SOL     OW20187   1.797   1.701   6.131  0.1464  0.6541  0.5030
 5996SOL    HW120188   1.739   1.776   6.132 -1.2302 -0.2613 -2.2709
 5996SOL    HW220189   1.741   1.627   6.110  2.0185 -0.5542 -0.5727
 5997SOL     OW20190   5.829   1.498   7.049 -0.2581 -0.0167  0.4485
 5997SOL    HW120191   5.878   1.448   6.984 -0.3251  0.9273 -0.3521
 5997SOL    HW220192   5.896   1.546   7.098 -0.0122 -2.2800  2.5153
 5998SOL     OW20193   0.185   2.590   3.141  0.4556 -0.2939  0.6808
 5998SOL    HW120194   0.268   2.594   3.094  0.1583 -1.6375 -0.0230
 5998SOL    HW220195   0.137   2.668   3.114 -0.0478 -1.3865 -2.0013
 5999SOL     OW20196   2.459   5.543   2.179 -0.0853  0.4195  0.2036
 5999SOL    HW120197   2.434   5.610   2.116  0.7094 -0.1272 -0.7186
 5999SOL    HW220198   2.548   5.567   2.206 -0.2309  0.3718  0.7582
 6000SOL     OW20199   6.560   3.670   1.194  0.5195 -0.8597 -0.1818
 6000SOL    HW120200   6.517   3.735   1.249  1.1093 -0.1955 -0.4917
 6000SOL    HW220201   6.518   3.587   1.218 -4.0671  0.1310 -3.4073
 6001SOL     OW20202   8.431   1.123   2.910 -0.5616  0.1432 -0.0018
 6001SOL    HW120203   8.483   1.182   2.855  2.8758 -1.3425  1.3458
 6001SOL    HW220204   8.399   1.178   2.981  0.7271  0.8368  0.0768
 6002SOL     OW20205   3.135   4.550   1.549  0.5212 -0.1109  0.1681
 6002SOL    HW120206   3.221   4.553   1.591  1.0103 -0.6022 -0.7555
 6002SOL    HW220207   3.155   4.534   1.457 -0.6072 -1.9563  0.1949
 6003SOL     OW20208   7.729   8.750   6.163  0.1184 -0.5640 -0.1279
 6003SOL    HW120209   7.815   8.711   6.178  0.4654  0.5102  0.8493
 6003SOL    HW220210   7.706   8.790   6.247 -0.9471 -0.0936 -0.6255
 6004SOL     OW20211   0.216   7.389   7.096  0.4643  0.0142  0.3944
 6004SOL    HW120212   0.175   7.472   7.121  1.2448  0.2453  0.9312
 6004SOL    HW220213   0.264   7.409   7.015 -1.8286 -0.6662 -1.2570
 6005SOL     OW20214   5.732   8.235   1.086 -0.1581 -0.4644 -0.4518
 6005SOL    HW120215   5.808   8.281   1.122 -0.9350  0.1361  0.4497
 6005SOL    HW220216   5.696   8.294   1.020 -0.3940 -0.3359 -0.2098
 6006SOL     OW20217   8.401   2.513   2.504  0.1582  0.0816 -0.0405
 6006SOL    HW120218   8.307   2.530   2.507  0.2024  0.1790  1.1788
 6006SOL    HW220219   8.413   2.457   2.427 -1.1527 -1.5663  0.8881
 6007SOL     OW20220   6.785   4.443   4.299  0.3397 -0.2310  0.3111
 6007SOL    HW120221   6.824   4.361   4.328  0.8787  0.7883  2.7532
 6007SOL    HW220222   6.849   4.479   4.237  0.1097 -1.5838 -0.7666
 6008SOL     OW20223   9.010   5.149   7.042 -0.5646  0.6937 -0.1927
 6008SOL    HW120224   9.045   5.221   6.989  0.7361  0.3273  0.1511
 6008SOL    HW220225   8.997   5.187   7.129  1.7760  0.1294  0.4738
 6009SOL     OW20226   3.322   7.408   8.928  0.0496 -0.0594  0.0646
 6009SOL    HW120227   3.256   7.359   8.977  0.6750 -0.9970  0.0023
 6009SOL    HW220228   3.292   7.499   8.930 -0.0668 -0.1067  1.9605
 6010SOL     OW20229   8.370   6.040   4.377 -0.2811  0.7879  0.1332
 6010SOL    HW120230   8.452   6.085   4.358  0.9014 -1.6232 -0.8923
 6010SOL    HW220231   8.387   5.993   4.458 -1.5010  2.1072  1.2014
 6011SOL     OW20232   5.249   1.505   3.230 -0.9428  0.3142 -0.0975
 6011SOL    HW120233   5.216   1.585   3.271 -2.3212 -0.9786  1.4680
 6011SOL    HW220234   5.329   1.484   3.278 -1.3020  0.0565  0.3989
 6012SOL     OW20235   0.958   4.126   0.588 -0.0045 -0.2235  0.1899
 6012SOL    HW120236   0.894   4.099   0.522  0.0581  1.2182 -0.5012
 6012SOL    HW220237   1.039   4.082   0.562 -0.6431 -1.9718  1.0109
 6013SOL     OW20238   3.941   2.870   8.290 -0.1775  0.2142  0.2427
 6013SOL    HW120239   3.957   2.951   8.241  2.0485 -0.3488 -0.0720
 6013SOL    HW220240   3.897   2.812   8.227 -1.6495  1.0813  0.4270
 6014SOL     OW20241   0.111   5.652   5.860 -0.6694  0.0772  0.2342
 6014SOL    HW120242   0.142   5.738   5.889 -0.6297 -0.1317  0.8018
 6014SOL    HW220243   0.103   5.661   5.765  0.4713  0.3467  0.1544
 6015SOL     OW20244   3.895   4.406   8.658  0.0170  0.1335 -0.1374
 6015SOL    HW120245   3.885   4.472   8.589  0.3099  0.8206  0.4640
 6015SOL    HW220246   3.985   4.374   8.647 -0.0961 -0.1075 -0.3743
 6016SOL     OW20247   3.364   5.545   2.739 -0.2199  0.1534 -0.3640
 6016SOL    HW120248   3.343   5.454   2.719 -0.6717  0.2491 -0.3258
 6016SOL    HW220249   3.459   5.545   2.751  0.0803  0.0733 -2.4366
 6017SOL     OW20250   9.408   7.053   5.540  0.1094 -0.2424  0.7061
 6017SOL    HW120251   9.366   7.131   5.574  2.1357  0.8346  0.8740
 6017SOL    HW220252   9.456   7.083   5.463 -0.1301 -1.6038 -0.0109
 6018SOL     OW20253   4.819   2.512   8.299  0.2342 -0.5297 -0.2310
 6018SOL    HW120254   4.738   2.547   8.262 -0.3141 -1.4726  0.0676
 6018SOL    HW220255   4.791   2.457   8.372  1.2595  0.9359  1.3611
 6019SOL     OW20256   0.623   8.972   0.184  0.2962  0.1009  0.1124
 6019SOL    HW120257   0.637   8.891   0.234  1.2775 -0.2696 -0.7230
 6019SOL    HW220258   0.528   8.977   0.172  0.2685 -1.3153 -0.4457
 6020SOL     OW20259   7.437   7.720   5.702  0.0747  0.5970 -0.2048
 6020SOL    HW120260   7.444   7.675   5.787 -0.6488  0.1786 -0.3618
 6020SOL    HW220261   7.361   7.776   5.711 -1.1846 -0.8767 -1.2055
 6021SOL     OW20262   3.426   1.685   9.148  0.4377  0.2776 -0.8521
 6021SOL    HW120263   3.501   1.737   9.179  0.6569 -0.2133 -0.5532
 6021SOL    HW220264   3.404   1.724   9.064  1.2182  0.2461 -1.0817
 6022SOL     OW20265   8.605   8.812   8.020 -0.1482 -0.6501 -0.2545
 6022SOL    HW120266   8.546   8.792   8.093 -0.2645 -1.3898 -0.5415
 6022SOL    HW220267   8.689   8.828   8.062 -0.0609 -1.7191  0.0145
 6023SOL     OW20268   2.092   0.387   8.901  0.1665 -0.1243 -0.5718
 6023SOL    HW120269   2.030   0.366   8.832  0.5028 -1.7759 -0.4306
 6023SOL    HW220270   2.045   0.445   8.960 -0.3671  0.7134 -1.7772
 6024SOL     OW20271   2.984   4.314   1.908 -0.4252 -0.1473  0.2139
 6024SOL    HW120272   2.959   4.222   1.913  0.2406 -0.2633  2.2119
 6024SOL    HW220273   3.075   4.316   1.938 -1.0070  1.3662  2.0300
 6025SOL     OW20274   1.204   7.468   2.239  0.2942 -0.1722 -0.3075
 6025SOL    HW120275   1.170   7.382   2.263  0.5626 -0.1074  0.3419
 6025SOL    HW220276   1.211   7.515   2.322 -3.1202  1.7275 -0.9105
 6026SOL     OW20277   6.171   2.382   1.938 -0.1715 -0.2217 -0.2530
 6026SOL    HW120278   6.091   2.388   1.885 -0.5917  1.9800  0.5512
 6026SOL    HW220279   6.226   2.453   1.907  1.6158 -1.7741 -0.8751
 6027SOL     OW20280   2.164   1.480   4.218 -0.5448 -0.5214 -0.3333
 6027SOL    HW120281   2.132   1.461   4.307  0.6627 -2.9420 -0.3289
 6027SOL    HW220282   2.179   1.574   4.218  1.0420 -0.6376  2.6448
 6028SOL     OW20283   3.190   4.066   2.059 -0.0113  0.7136 -0.4499
 6028SOL    HW120284   3.116   4.018   2.095 -0.3036  0.8586 -0.8462
 6028SOL    HW220285   3.200   4.031   1.970  0.0505  1.0710 -0.5865
 6029SOL     OW20286   4.997   3.742   5.627 -0.2023  0.3216  0.0473
 6029SOL    HW120287   4.974   3.831   5.653 -0.8905  0.3798 -0.7325
 6029SOL    HW220288   4.955   3.730   5.542  0.5540 -0.4713 -0.2270
 6030SOL     OW20289   3.571   9.225   4.318  0.1565 -0.0891 -0.5185
 6030SOL    HW120290   3.565   9.314   4.352 -1.9432 -0.1165 -0.6690
 6030SOL    HW220291   3.531   9.229   4.231 -1.2005 -1.3786 -0.0042
 6031SOL     OW20292   6.227   0.445   0.864 -0.4448 -0.1585  0.6226
 6031SOL    HW120293   6.167   0.487   0.926 -0.4974  2.0765 -0.8422
 6031SOL    HW220294   6.314   0.455   0.904 -0.5656  0.4993  0.7252
 6032SOL     OW20295   0.245   1.207   6.517  0.4260 -0.0548 -0.3023
 6032SOL    HW120296   0.170   1.156   6.547 -0.1157  0.7768 -0.2144
 6032SOL    HW220297   0.288   1.151   6.453 -0.8707 -0.1199 -1.1386
 6033SOL     OW20298   9.296   2.551   2.346  0.0015 -0.0129  0.3293
 6033SOL    HW120299   9.264   2.481   2.290  0.4706  0.6268 -0.7686
 6033SOL    HW220300   9.304   2.627   2.288  2.2249  0.2127  0.8507
 6034SOL     OW20301   5.307   4.489   0.951 -0.0009  0.5398  0.0612
 6034SOL    HW120302   5.365   4.429   0.996 -0.3809 -0.6022 -0.9247
 6034SOL    HW220303   5.307   4.459   0.860 -1.6117  0.9012 -0.0955
 6035SOL     OW20304   4.095   3.496   6.089  0.0273 -0.2280 -0.0103
 6035SOL    HW120305   4.098   3.587   6.061  0.4615  0.2768  1.5937
 6035SOL    HW220306   4.002   3.472   6.086  0.0788 -0.3056 -2.1010
 6036SOL     OW20307   9.099   8.746   4.047  0.1278  0.5354  0.2130
 6036SOL    HW120308   9.181   8.739   3.999  0.3656  1.6878  0.4385
 6036SOL    HW220309   9.039   8.686   4.000  0.4119  1.4658 -1.4075
 6037SOL     OW20310   0.228   7.037   3.985  0.4251  0.5240  0.3795
 6037SOL    HW120311   0.309   6.989   4.002 -0.5254 -1.4136 -0.2595
 6037SOL    HW220312   0.255   7.115   3.937  1.7740 -0.8968 -1.2343
 6038SOL     OW20313   1.619   4.682   0.271  0.5302 -0.2355  0.1856
 6038SOL    HW120314   1.564   4.633   0.210  0.9622 -0.0766 -0.3378
 6038SOL    HW220315   1.582   4.771   0.269  0.9752 -0.0570 -0.3874
 6039SOL     OW20316   1.139   3.590   7.378  0.5421  0.2474  0.0872
 6039SOL    HW120317   1.177   3.676   7.398  0.1093  0.5940 -0.5708
 6039SOL    HW220318   1.047   3.597   7.406  0.6374 -0.1879  0.5369
 6040SOL     OW20319   8.410   1.013   5.362 -0.1033  0.2903  0.0986
 6040SOL    HW120320   8.491   1.004   5.312 -1.0773  1.4077 -1.8359
 6040SOL    HW220321   8.406   0.935   5.416  1.7546 -0.2751 -0.5050
 6041SOL     OW20322   7.870   1.414   3.160  0.4280  0.4509  0.4588
 6041SOL    HW120323   7.886   1.508   3.171 -1.2111  0.8094  0.0022
 6041SOL    HW220324   7.778   1.402   3.181  0.6626 -1.1145  0.7288
 6042SOL     OW20325   0.394   5.763   0.205  0.1482  0.0648 -0.1486
 6042SOL    HW120326   0.366   5.757   0.297 -0.6119 -1.1589 -0.4313
 6042SOL    HW220327   0.460   5.832   0.205  0.1776  0.0857  1.3270
 6043SOL     OW20328   6.922   2.028   7.272 -0.0857 -0.3328  0.5441
 6043SOL    HW120329   6.871   2.105   7.295 -0.4040  0.1246 -1.4882
 6043SOL    HW220330   6.967   2.003   7.353 -0.3804  1.6621  1.3713
 6044SOL     OW20331   9.256   8.093   2.720 -0.2596 -0.0463 -0.8039
 6044SOL    HW120332   9.317   8.157   2.757 -0.0158  0.4009 -1.9304
 6044SOL    HW220333   9.311   8.017   2.701 -0.4774 -0.4648  0.1802
 6045SOL     OW20334   4.439   5.776   4.622  0.6222  0.1239 -0.4363
 6045SOL    HW120335   4.397   5.815   4.699 -1.1578 -0.5981 -0.9868
 6045SOL    HW220336   4.389   5.809   4.548  1.5973 -0.0980 -1.2176
 6046SOL     OW20337   9.563   1.728   5.122 -0.3730  0.3177 -0.0191
 6046SOL    HW120338   9.542   1.758   5.210 -0.0327  1.0395 -0.1737
 6046SOL    HW220339   9.481   1.737   5.073 -0.2741  1.0480 -0.0678
 6047SOL     OW20340   8.309   0.145   1.264 -0.1729 -0.0596 -0.8836
 6047SOL    HW120341   8.253   0.175   1.335  0.8410  0.0610 -0.1121
 6047SOL    HW220342   8.309   0.050   1.272  2.5436 -0.0227  1.4575
 6048SOL     OW20343   3.945   2.104   8.869 -1.0472  0.2989  0.6873
 6048SOL    HW120344   3.897   2.039   8.818 -1.4995 -0.4529  2.0532
 6048SOL    HW220345   3.880   2.171   8.890 -1.5326 -0.6732  2.4565
 6049SOL     OW20346   2.546   4.329   2.928 -0.7072  0.2114 -0.5910
 6049SOL    HW120347   2.629   4.345   2.884 -1.2677 -1.6688 -2.5272
 6049SOL    HW220348   2.564   4.258   2.989 -0.8585 -0.1408 -0.9522
 6050SOL     OW20349   2.344   1.202   3.086 -0.2371  0.3092 -0.2133
 6050SOL    HW120350   2.300   1.277   3.126 -1.5532 -0.1680 -0.6780
 6050SOL    HW220351   2.324   1.128   3.144  0.9141  0.2790  0.1572
 6051SOL     OW20352   6.951   8.625   6.898 -0.0606 -0.0668 -0.1169
 6051SOL    HW120353   6.935   8.696   6.835  1.4555  0.1218 -0.3062
 6051SOL    HW220354   6.940   8.666   6.984  0.6929  0.3773 -0.2285
 6052SOL     OW20355   3.157   4.882   4.296  0.5350 -0.3982 -0.5128
 6052SOL    HW120356   3.217   4.956   4.287 -0.3029  0.1319 -1.9053
 6052SOL    HW220357   3.184   4.840   4.378  1.5986  0.9077 -0.1578
 6053SOL     OW20358   0.191   8.606   7.581 -0.5886  0.2286  0.0987
 6053SOL    HW120359   0.266   8.649   7.621 -0.2001 -0.3806  0.0268
 6053SOL    HW220360   0.187   8.520   7.623 -2.5066  1.0066  1.6605
 6054SOL     OW20361   6.044   3.145   5.754 -0.2780 -0.1195 -0.2520
 6054SOL    HW120362   6.057   3.052   5.769 -1.1928  0.0719  2.2498
 6054SOL    HW220363   5.949   3.158   5.759 -0.2749  0.8020 -1.8052
 6055SOL     OW20364   1.194   7.973   1.518  0.1271  0.4282 -0.3121
 6055SOL    HW120365   1.212   7.891   1.564  2.1011  1.0430  0.1107
 6055SOL    HW220366   1.246   8.039   1.564  1.7680  1.1880 -2.9837
 6056SOL     OW20367   0.475   4.301   3.084 -0.1208 -0.6170 -0.5188
 6056SOL    HW120368   0.571   4.291   3.080 -0.1535 -0.5692 -2.1374
 6056SOL    HW220369   0.442   4.212   3.071 -0.3022 -0.6233 -0.0183
 6057SOL     OW20370   0.164   1.790   4.682  0.0239 -0.4349  0.1746
 6057SOL    HW120371   0.169   1.859   4.749 -1.0044 -0.1387 -0.0268
 6057SOL    HW220372   0.244   1.800   4.631  0.8603 -0.7091  1.3991
 6058SOL     OW20373   5.403   4.217   5.841  0.5676  0.2984  0.0124
 6058SOL    HW120374   5.417   4.306   5.808  2.8508 -0.1966 -0.5755
 6058SOL    HW220375   5.311   4.199   5.823  0.0263  2.5279  0.1773
 6059SOL     OW20376   8.499   0.033   8.608 -0.1790  0.5480  0.1591
 6059SOL    HW120377   8.583   0.047   8.653  0.3556  0.1232 -0.6638
 6059SOL    HW220378   8.460  -0.041   8.653  1.1660 -1.0189 -1.1296
 6060SOL     OW20379   6.641   2.171   5.357 -0.5288  1.0651  0.0471
 6060SOL    HW120380   6.548   2.163   5.338 -0.6083  0.8646  0.4945
 6060SOL    HW220381   6.673   2.081   5.362 -0.4585  1.1105  0.5548
 6061SOL     OW20382   4.746   2.982   5.594 -0.1295 -0.5754 -0.2889
 6061SOL    HW120383   4.710   2.893   5.585 -1.2948 -0.0226 -1.6114
 6061SOL    HW220384   4.840   2.969   5.605 -0.2923 -1.9731 -0.3223
 6062SOL     OW20385   7.998   3.173   6.322 -0.8435  0.2901 -0.0034
 6062SOL    HW120386   8.092   3.167   6.342 -0.5845 -1.1998 -1.4237
 6062SOL    HW220387   7.955   3.154   6.405  0.1596 -1.7497  0.1159
 6063SOL     OW20388   2.403   9.563   3.637  0.3886  0.1824 -0.0571
 6063SOL    HW120389   2.410   9.600   3.725  3.8710  0.8167 -0.4547
 6063SOL    HW220390   2.456   9.621   3.582 -1.8713 -0.0392 -2.7066
 6064SOL     OW20391   4.008   1.365   8.808  0.0413 -0.3266 -0.2414
 6064SOL    HW120392   3.947   1.292   8.821 -2.6012  1.8774  0.5144
 6064SOL    HW220393   4.023   1.400   8.896  1.0719  0.2208 -0.6164
 6065SOL     OW20394   8.791   2.174   0.721 -0.2229 -0.0843  0.0645
 6065SOL    HW120395   8.766   2.266   0.735 -0.3371 -0.0205 -0.5222
 6065SOL    HW220396   8.859   2.178   0.653  0.6724 -0.3378  0.9235
 6066SOL     OW20397   7.371   0.045   1.856 -0.2498  0.2930  0.8405
 6066SOL    HW120398   7.299   0.086   1.809  0.5957  1.7214  0.7235
 6066SOL    HW220399   7.414   0.118   1.901  1.5263 -0.4019  0.3514
 6067SOL     OW20400   5.945   6.506   9.148 -0.6682  0.8734  0.7016
 6067SOL    HW120401   5.975   6.543   9.065  0.4601  1.2593  1.2599
 6067SOL    HW220402   5.853   6.531   9.154 -0.8981  0.4089 -0.6576
 6068SOL     OW20403   1.114   8.913   2.533 -0.0629 -0.6556 -0.1236
 6068SOL    HW120404   1.195   8.926   2.484  0.8869  0.9297  1.7421
 6068SOL    HW220405   1.053   8.976   2.496  0.0132 -0.8203 -0.5408
 6069SOL     OW20406   0.510   5.890   9.068  0.0637  0.0188  0.6659
 6069SOL    HW120407   0.494   5.863   9.158  0.1473  1.6000  1.1658
 6069SOL    HW220408   0.500   5.809   9.018 -0.1721 -0.8506  2.0556
 6070SOL     OW20409   6.690   6.362   3.989  0.1152  0.0087 -0.2017
 6070SOL    HW120410   6.627   6.292   4.005  0.0492 -0.0730 -0.7868
 6070SOL    HW220411   6.644   6.423   3.931  0.0805  0.6737  0.4980
 6071SOL     OW20412   5.929   5.649   3.380 -0.1161 -0.0509 -0.2989
 6071SOL    HW120413   5.979   5.706   3.321 -1.2185 -0.2621 -1.5041
 6071SOL    HW220414   5.880   5.710   3.435 -1.2472  0.2332 -1.5431
 6072SOL     OW20415   6.073   8.266   8.288 -0.5540  0.1833  0.1008
 6072SOL    HW120416   6.104   8.351   8.257 -0.6835 -0.1807 -1.0941
 6072SOL    HW220417   5.992   8.251   8.239  0.4711 -1.4904 -1.2249
 6073SOL     OW20418   1.342   7.034   3.712 -0.0353 -0.3684 -0.4514
 6073SOL    HW120419   1.347   7.109   3.653 -0.1528 -0.8088 -1.0335
 6073SOL    HW220420   1.405   6.971   3.678 -1.3429 -1.3458 -1.1803
 6074SOL     OW20421   4.698   5.534   5.544  0.4302  0.5535 -0.0609
 6074SOL    HW120422   4.734   5.617   5.575 -0.1137  0.3131  1.2553
 6074SOL    HW220423   4.620   5.520   5.597  0.0133 -0.3638 -0.8896
 6075SOL     OW20424   1.776   3.814   1.966 -0.7879  0.5884 -0.1343
 6075SOL    HW120425   1.734   3.733   1.995  0.0917 -0.4224 -1.5078
 6075SOL    HW220426   1.812   3.792   1.880  0.1372  2.2289 -0.2092
 6076SOL     OW20427   3.062   2.982   3.617  0.2258  0.0797  0.4222
 6076SOL    HW120428   3.128   3.034   3.572 -1.1118  0.9850 -0.5998
 6076SOL    HW220429   3.025   3.043   3.682 -0.7579  0.1508 -0.1862
 6077SOL     OW20430   2.113   8.325   2.727  0.5775 -0.1733  0.1510
 6077SOL    HW120431   2.110   8.416   2.756  0.1873 -0.4120  0.8876
 6077SOL    HW220432   2.161   8.327   2.644 -0.6692  0.8975 -0.5829
 6078SOL     OW20433   1.045   7.727   5.180  0.2902 -0.5498 -0.6720
 6078SOL    HW120434   1.084   7.694   5.261  0.6760  0.7724 -0.2939
 6078SOL    HW220435   0.959   7.759   5.206  0.3393 -0.2970 -0.8151
 6079SOL     OW20436   3.597   4.297   1.884 -0.0097 -0.1161  0.2878
 6079SOL    HW120437   3.618   4.387   1.858  1.4971 -0.5215 -0.0428
 6079SOL    HW220438   3.665   4.275   1.949  0.7657 -1.5870 -0.9604
 6080SOL     OW20439   1.026   0.307   6.271 -0.4188  0.0989 -0.0942
 6080SOL    HW120440   1.118   0.280   6.267 -0.1479  1.0986 -1.1639
 6080SOL    HW220441   1.007   0.316   6.364  0.3975 -0.6653  0.1543
 6081SOL     OW20442   5.716   6.129   9.150 -0.3826  0.5865  0.5210
 6081SOL    HW120443   5.750   6.046   9.186 -0.9472  0.3700  0.5546
 6081SOL    HW220444   5.721   6.117   9.055  0.9289  1.0858  0.4991
 6082SOL     OW20445   8.691   5.957   0.178  0.0734 -0.2193  0.5434
 6082SOL    HW120446   8.606   5.994   0.202  0.2931 -0.0089  1.0126
 6082SOL    HW220447   8.700   5.880   0.234  0.0117 -0.4783  0.2005
 6083SOL     OW20448   6.724   2.946   0.582 -0.4062  0.4846 -0.8815
 6083SOL    HW120449   6.777   2.899   0.646 -2.1661 -0.3977  0.0124
 6083SOL    HW220450   6.787   2.999   0.533  1.1567  0.2334  0.7381
 6084SOL     OW20451   8.852   7.700   9.390 -0.1034 -0.2089  0.2868
 6084SOL    HW120452   8.913   7.714   9.462 -0.9915  0.5609  0.9053
 6084SOL    HW220453   8.769   7.679   9.432 -0.7228  0.5966 -0.5022
 6085SOL     OW20454   6.980   4.423   0.314  0.9361  0.3582  0.0423
 6085SOL    HW120455   7.013   4.477   0.385  2.0807  1.8238 -1.5024
 6085SOL    HW220456   7.049   4.357   0.300 -0.0712 -1.0540  1.3589
 6086SOL     OW20457   7.783   5.810   7.662 -0.0136  0.4073  0.5833
 6086SOL    HW120458   7.729   5.841   7.590  0.2907  1.3729  0.7580
 6086SOL    HW220459   7.851   5.877   7.672 -0.0771  0.3075  1.7949
 6087SOL     OW20460   8.843   5.227   1.029 -0.0354  0.4230  0.6912
 6087SOL    HW120461   8.852   5.249   1.122 -0.7602  0.3196  0.7904
 6087SOL    HW220462   8.819   5.135   1.028  0.7148  0.2220  0.3613
 6088SOL     OW20463   5.275   1.955   0.340  0.6343  0.7818  0.4790
 6088SOL    HW120464   5.250   1.866   0.362 -1.5728  1.2583  0.1866
 6088SOL    HW220465   5.233   2.009   0.407  0.3024  1.7023 -0.4328
 6089SOL     OW20466   2.988   7.624   0.163  0.1469 -0.1635  0.0030
 6089SOL    HW120467   3.007   7.659   0.250  1.5058  0.8621 -0.6725
 6089SOL    HW220468   3.040   7.543   0.158  0.8106  0.2693 -0.1866
 6090SOL     OW20469   1.779   0.566   1.494  0.3744 -0.1838  0.4981
 6090SOL    HW120470   1.736   0.643   1.457 -0.6992  0.0508  2.1344
 6090SOL    HW220471   1.855   0.601   1.540 -0.4182  0.0053  1.7111
 6091SOL     OW20472   7.750   4.052   3.426  0.2218  0.2836 -0.3901
 6091SOL    HW120473   7.740   4.147   3.420 -0.2149  0.4868  2.1947
 6091SOL    HW220474   7.796   4.038   3.509 -0.2249 -1.7818 -0.4392
 6092SOL     OW20475   3.278   6.631   5.085 -0.1481  0.5842  0.2836
 6092SOL    HW120476   3.287   6.724   5.103  0.8692  0.7881 -1.1406
 6092SOL    HW220477   3.282   6.589   5.171 -0.8570  1.8485  0.9615
 6093SOL     OW20478   7.320   8.613   1.485  0.1772  0.2580 -0.3558
 6093SOL    HW120479   7.300   8.686   1.543  0.7968  0.1415  0.0080
 6093SOL    HW220480   7.384   8.649   1.423  1.9303 -0.4574  0.9641
 6094SOL     OW20481   7.630   9.131   4.971 -0.0532 -0.6500  0.0655
 6094SOL    HW120482   7.701   9.107   5.030  0.7458 -3.3355 -1.7849
 6094SOL    HW220483   7.673   9.148   4.887 -1.4182  0.0383 -0.5358
 6095SOL     OW20484   7.372   6.928   8.344  0.1553 -0.0470  0.0495
 6095SOL    HW120485   7.282   6.913   8.374 -0.1696  1.0129 -0.3506
 6095SOL    HW220486   7.411   6.984   8.412  1.1227 -1.9574  1.1599
 6096SOL     OW20487   5.152   2.399   2.313 -0.5924  0.3888 -0.1413
 6096SOL    HW120488   5.132   2.440   2.397 -0.0653  0.9527 -0.2865
 6096SOL    HW220489   5.073   2.349   2.292 -0.8805  0.5635  0.4931
 6097SOL     OW20490   0.121   5.448   6.990 -0.1137 -0.1830  0.3032
 6097SOL    HW120491   0.206   5.488   6.972 -0.6832  1.2343  0.6458
 6097SOL    HW220492   0.114   5.449   7.085 -0.8709  0.4714  0.2430
 6098SOL     OW20493   4.653   6.519   3.353 -0.2106  0.0901  0.1603
 6098SOL    HW120494   4.652   6.604   3.308  0.3422  0.5642  1.0156
 6098SOL    HW220495   4.712   6.532   3.427 -0.1765 -1.0290  0.3428
 6099SOL     OW20496   9.177   4.452   7.670  0.1494  0.1724 -0.3250
 6099SOL    HW120497   9.174   4.458   7.575  1.9385  0.6637 -0.3929
 6099SOL    HW220498   9.186   4.543   7.700 -0.3259  0.0187  0.3022
 6100SOL     OW20499   5.447   6.502   0.467 -0.3641  0.3008  0.3075
 6100SOL    HW120500   5.533   6.544   0.470 -1.4149  2.5577  0.5143
 6100SOL    HW220501   5.440   6.469   0.378  0.4379  0.7248  0.0744
 6101SOL     OW20502   4.041   7.239   0.198 -1.2594  0.0505  0.1341
 6101SOL    HW120503   3.990   7.216   0.275  0.4454 -0.0526  1.2823
 6101SOL    HW220504   4.027   7.166   0.138 -1.1765 -0.7729  1.0853
 6102SOL     OW20505   6.209   8.081   2.409 -0.7745 -0.2044  0.1080
 6102SOL    HW120506   6.115   8.071   2.425 -1.1668  0.1909 -1.7707
 6102SOL    HW220507   6.216   8.101   2.316  1.1218  0.6140  0.3790
 6103SOL     OW20508   4.851   6.242   0.868 -0.4824 -0.4133 -0.7030
 6103SOL    HW120509   4.944   6.263   0.878 -0.7378  0.6608 -0.4112
 6103SOL    HW220510   4.835   6.175   0.935 -0.5202  1.4316  1.2483
 6104SOL     OW20511   3.329   1.419   2.425 -0.4494  0.5182  0.3560
 6104SOL    HW120512   3.321   1.404   2.330  0.5993  0.4278  0.2793
 6104SOL    HW220513   3.295   1.338   2.464 -0.1830  0.2557  0.0447
 6105SOL     OW20514   8.527   7.046   0.368  0.6725  0.2372  0.0403
 6105SOL    HW120515   8.530   7.058   0.463  1.1563  0.6779 -0.0264
 6105SOL    HW220516   8.434   7.039   0.348  0.5399  0.6582  0.4906
 6106SOL     OW20517   8.149   6.809   3.231 -0.6906  0.0184  0.4692
 6106SOL    HW120518   8.118   6.875   3.294 -2.5646  0.0498 -0.4291
 6106SOL    HW220519   8.236   6.840   3.205 -2.3169  3.4453 -1.5995
 6107SOL     OW20520   3.998   0.380   3.178 -0.6388  0.4269  0.4698
 6107SOL    HW120521   4.065   0.426   3.229 -0.5778  0.9405 -0.0604
 6107SOL    HW220522   4.038   0.367   3.092 -0.7181 -0.4832  0.5526
 6108SOL     OW20523   4.825   5.306   1.838  0.1070 -0.0034  0.1919
 6108SOL    HW120524   4.747   5.298   1.784 -1.0882  4.1325  0.9847
 6108SOL    HW220525   4.794   5.297   1.928  1.0342 -0.7301  0.4694
 6109SOL     OW20526   8.077   7.501   7.016  0.3027 -0.0519  0.3615
 6109SOL    HW120527   8.166   7.533   7.006  0.1107  0.0761 -1.2845
 6109SOL    HW220528   8.079   7.411   6.984 -0.2917  0.2211 -0.5189
 6110SOL     OW20529   0.527   6.807   0.055 -0.1282  0.2847  0.6900
 6110SOL    HW120530   0.594   6.781  -0.008  0.9157  3.0619  0.5293
 6110SOL    HW220531   0.472   6.868   0.007 -0.5461  0.8686  1.8930
 6111SOL     OW20532   6.630   4.844   8.082 -0.4962  0.1431 -0.4742
 6111SOL    HW120533   6.686   4.768   8.068  1.3825  0.9728  1.9143
 6111SOL    HW220534   6.571   4.818   8.153 -0.0348  0.7985  0.1595
 6112SOL     OW20535   3.963   4.789   5.808 -0.0079  0.2565 -0.3947
 6112SOL    HW120536   4.035   4.794   5.871  0.2176  3.3396 -0.7407
 6112SOL    HW220537   4.006   4.773   5.724  0.0702  0.1303 -0.3311
 6113SOL     OW20538   4.060   7.098   5.368  0.2037  0.0251  0.2930
 6113SOL    HW120539   4.086   7.006   5.364  2.9620  0.7449 -0.5125
 6113SOL    HW220540   4.006   7.112   5.290  0.9630 -0.6025 -0.3589
 6114SOL     OW20541   8.073   4.199   0.368 -0.0670 -0.5021  0.1424
 6114SOL    HW120542   8.112   4.255   0.435  3.1051  1.9344 -3.3430
 6114SOL    HW220543   8.138   4.130   0.353 -1.4376 -1.9372  0.4901
 6115SOL     OW20544   1.561   4.562   5.098  0.3571 -0.0654  0.5937
 6115SOL    HW120545   1.467   4.577   5.103  0.4608  0.7200  0.2695
 6115SOL    HW220546   1.589   4.551   5.189 -0.3488 -2.3272  0.6030
 6116SOL     OW20547   4.483   6.720   2.438  0.2271 -0.4310  0.5630
 6116SOL    HW120548   4.473   6.814   2.420  0.7802  0.7615  5.1415
 6116SOL    HW220549   4.577   6.709   2.456  0.1674 -1.8928  0.0682
 6117SOL     OW20550   4.899   4.572   0.400  0.4161  0.6836  0.4858
 6117SOL    HW120551   4.875   4.664   0.412 -2.8811 -0.0758  0.8189
 6117SOL    HW220552   4.917   4.540   0.488 -0.6870  0.5356  0.6759
 6118SOL     OW20553   7.213   7.319   0.591 -0.2123 -0.0337  0.5956
 6118SOL    HW120554   7.215   7.316   0.687 -0.1341  0.3504  0.6094
 6118SOL    HW220555   7.273   7.250   0.563  1.4391  1.2223  0.8484
 6119SOL     OW20556   9.054   3.888   3.889 -0.3133 -0.0673  0.3722
 6119SOL    HW120557   9.142   3.915   3.917 -0.1538 -1.5339  1.4122
 6119SOL    HW220558   9.017   3.845   3.966 -1.7933  0.1627 -0.1869
 6120SOL     OW20559   2.737   1.864   6.635 -0.2625  0.0255 -0.4092
 6120SOL    HW120560   2.644   1.866   6.661 -0.3735 -1.5985 -0.6101
 6120SOL    HW220561   2.766   1.776   6.657  1.5186  0.8058  0.5371
 6121SOL     OW20562   7.805   5.820   4.357  0.3219 -0.0721  0.1638
 6121SOL    HW120563   7.738   5.808   4.423 -0.6542 -0.5414 -0.8731
 6121SOL    HW220564   7.861   5.743   4.365  1.6840  1.0350  2.0353
 6122SOL     OW20565   2.088   7.978   1.843  0.3661 -0.1861 -0.2377
 6122SOL    HW120566   2.060   7.979   1.752 -0.2341 -2.0383 -0.1165
 6122SOL    HW220567   2.183   7.969   1.839  0.3745  0.0695 -0.6642
 6123SOL     OW20568   2.497   8.412   9.467  0.4919 -0.5660 -0.0624
 6123SOL    HW120569   2.514   8.466   9.390 -1.1436 -0.3145 -0.2856
 6123SOL    HW220570   2.494   8.474   9.540 -0.0409 -0.5128 -0.1219
 6124SOL     OW20571   8.127   0.015   0.659  0.2512  0.0002  0.0729
 6124SOL    HW120572   8.142   0.079   0.729 -2.0976  1.3550 -0.5357
 6124SOL    HW220573   8.149   0.062   0.579  4.2684 -1.9716 -0.2201
 6125SOL     OW20574   0.151   0.855   7.609 -0.3967  0.2161 -0.2877
 6125SOL    HW120575   0.171   0.796   7.681  0.8861 -0.6473 -1.3023
 6125SOL    HW220576   0.235   0.895   7.586 -0.8688  0.8355 -1.0092
 6126SOL     OW20577   2.289   1.962   5.517 -0.3048 -0.0394  0.5315
 6126SOL    HW120578   2.332   2.028   5.572  1.6823 -1.8476  1.2982
 6126SOL    HW220579   2.276   1.887   5.574  0.5091 -1.4895 -1.0819
 6127SOL     OW20580   5.943   4.806   2.020 -0.5480  0.2222  0.3096
 6127SOL    HW120581   5.854   4.785   2.048 -0.7802 -0.3217 -0.7688
 6127SOL    HW220582   5.936   4.815   1.925  0.5496  0.1771  0.2176
 6128SOL     OW20583   2.275   4.889   3.677 -0.7383  0.0594  0.0193
 6128SOL    HW120584   2.312   4.801   3.679  0.6567  0.6521  0.9797
 6128SOL    HW220585   2.219   4.894   3.754 -0.0678  0.3227  0.4940
 6129SOL     OW20586   5.318   5.223   4.288  0.0266  0.5998 -0.0027
 6129SOL    HW120587   5.249   5.213   4.354 -0.9060  1.7662 -0.7772
 6129SOL    HW220588   5.275   5.206   4.205  0.9912  0.0518 -0.4114
 6130SOL     OW20589   0.858   0.196   2.564 -0.1410 -0.2750  0.6561
 6130SOL    HW120590   0.863   0.216   2.471  0.4287 -1.1218  0.4934
 6130SOL    HW220591   0.769   0.161   2.577 -1.0336  1.9383  0.8872
 6131SOL     OW20592   4.183   0.203   8.288  0.7663  0.3248 -0.0771
 6131SOL    HW120593   4.276   0.186   8.302  0.8552  1.8180  1.5663
 6131SOL    HW220594   4.140   0.166   8.365  0.2276  1.1645  0.0435
 6132SOL     OW20595   0.163   7.910   5.036  0.0056 -0.0245  0.3528
 6132SOL    HW120596   0.185   7.830   5.084 -1.3396  0.0263  1.0961
 6132SOL    HW220597   0.075   7.896   5.004 -0.5820  1.4673  1.2030
 6133SOL     OW20598   3.005   2.549   1.717 -0.0646 -0.5628  0.6352
 6133SOL    HW120599   3.012   2.469   1.666 -1.0891 -0.5214  0.4020
 6133SOL    HW220600   2.937   2.530   1.782  0.2784 -0.1620  1.1187
 6134SOL     OW20601   3.219   7.413   6.072 -0.1710 -0.8144  0.5470
 6134SOL    HW120602   3.160   7.396   6.145 -2.7625 -3.4226 -1.9064
 6134SOL    HW220603   3.163   7.450   6.003  1.5519 -0.9561 -1.0155
 6135SOL     OW20604   3.350   7.058   2.408  0.3423 -0.5324  0.6662
 6135SOL    HW120605   3.344   7.134   2.466  0.6506 -0.1910  0.2594
 6135SOL    HW220606   3.424   7.009   2.441  0.2806 -0.5367  0.7968
 6136SOL     OW20607   3.485   4.852   0.403  0.4999 -1.3542  0.0560
 6136SOL    HW120608   3.391   4.872   0.403  0.4791 -1.1923 -1.8941
 6136SOL    HW220609   3.510   4.861   0.311  2.9977  1.1222  0.8558
 6137SOL     OW20610   2.566   4.258   2.630  0.3819  0.1546  0.3810
 6137SOL    HW120611   2.566   4.166   2.657  1.3933  0.2273  0.6729
 6137SOL    HW220612   2.552   4.307   2.712 -0.9348  0.2523  0.1191
 6138SOL     OW20613   0.169   9.487   8.829  0.3558  0.4701  0.0507
 6138SOL    HW120614   0.237   9.465   8.892  0.1836  0.8671  0.3813
 6138SOL    HW220615   0.123   9.561   8.868  1.6908  2.2706 -1.5668
 6139SOL     OW20616   0.250   0.677   8.572  0.4484  0.0240 -0.5425
 6139SOL    HW120617   0.263   0.750   8.633 -0.4154 -0.3084  0.0610
 6139SOL    HW220618   0.292   0.603   8.615  0.7571  0.0214 -0.8496
 6140SOL     OW20619   0.853   9.568   9.371 -0.1624  0.4598 -0.3112
 6140SOL    HW120620   0.780   9.533   9.421 -0.3175  1.2017  0.0073
 6140SOL    HW220621   0.869   9.654   9.410 -0.5564  1.2418 -1.7857
 6141SOL     OW20622   9.432   5.698   6.679  0.5572  0.1182  0.0225
 6141SOL    HW120623   9.419   5.606   6.701  1.5462 -0.0859 -0.2109
 6141SOL    HW220624   9.484   5.697   6.600 -0.3253  0.8833 -0.5927
 6142SOL     OW20625   2.349   9.279   8.595 -0.0653  0.3536  0.5574
 6142SOL    HW120626   2.298   9.227   8.658  0.2931 -0.3170  0.3031
 6142SOL    HW220627   2.300   9.270   8.513  0.5609 -0.4559  0.2653
 6143SOL     OW20628   0.302   1.965   5.545 -0.1925 -0.2781 -0.1213
 6143SOL    HW120629   0.379   1.909   5.555  0.2094  0.2618 -0.1823
 6143SOL    HW220630   0.320   2.041   5.600  0.0841  0.6547 -1.4572
 6144SOL     OW20631   6.179   5.631   2.767 -0.5398  0.6248 -0.5740
 6144SOL    HW120632   6.202   5.538   2.771  1.7563  1.1325 -0.1089
 6144SOL    HW220633   6.208   5.659   2.680 -2.6718  0.6106 -1.3303
 6145SOL     OW20634   8.400   7.369   0.956 -0.2707  0.3131  0.1982
 6145SOL    HW120635   8.395   7.358   0.861 -0.9667 -1.1905  0.3809
 6145SOL    HW220636   8.462   7.301   0.984  0.6907  1.3701  0.7480
 6146SOL     OW20637   0.324   0.853   6.053  0.6027  0.3621  0.0415
 6146SOL    HW120638   0.349   0.920   5.990  0.5819  0.2923 -0.0415
 6146SOL    HW220639   0.245   0.814   6.017  0.0859  0.9177  0.5531
 6147SOL     OW20640   2.378   2.579   9.192 -0.2265  0.2195 -0.4441
 6147SOL    HW120641   2.293   2.602   9.155 -0.9368 -0.5765  0.6406
 6147SOL    HW220642   2.393   2.488   9.166 -1.2162 -0.7044  1.9713
 6148SOL     OW20643   1.541   3.120   7.139 -0.1391  0.6259  0.7977
 6148SOL    HW120644   1.516   3.032   7.167  0.8789  0.5365  1.4583
 6148SOL    HW220645   1.517   3.177   7.212 -2.2128  1.1598 -0.2194
 6149SOL     OW20646   5.136   7.481   6.414 -0.2493  0.4856 -0.0045
 6149SOL    HW120647   5.140   7.500   6.320 -0.7731  1.0950  0.0867
 6149SOL    HW220648   5.161   7.563   6.456  0.1699  0.1605  0.3951
 6150SOL     OW20649   0.913   6.445   4.806  0.0193  0.2253  0.4768
 6150SOL    HW120650   0.836   6.389   4.815 -0.6069  0.9406 -0.2267
 6150SOL    HW220651   0.896   6.519   4.864 -0.8383  1.4252 -1.2036
 6151SOL     OW20652   8.213   6.135   5.658 -0.3374 -0.6086 -0.1187
 6151SOL    HW120653   8.276   6.067   5.684 -0.6954 -0.2991  1.7449
 6151SOL    HW220654   8.134   6.113   5.708 -0.3066  1.4294  0.9322
 6152SOL     OW20655   3.563   8.926   5.611  0.7005 -0.4554 -0.0661
 6152SOL    HW120656   3.621   8.850   5.624 -0.8715 -1.4540  1.4587
 6152SOL    HW220657   3.476   8.894   5.630  0.0416  1.9119  1.3403
 6153SOL     OW20658   0.944   7.035   2.345 -0.0602  0.6407 -0.0714
 6153SOL    HW120659   0.850   7.021   2.350 -0.1803  0.7360 -1.6230
 6153SOL    HW220660   0.972   6.991   2.265  1.3723 -0.1276  0.8039
 6154SOL     OW20661   9.315   5.359   0.616 -0.5517 -0.6959  0.4605
 6154SOL    HW120662   9.291   5.398   0.700 -0.7590  1.4101 -0.5314
 6154SOL    HW220663   9.409   5.375   0.608 -0.0072 -3.0070  1.2963
 6155SOL     OW20664   3.103   3.919   8.453  0.0600  0.3054 -0.3806
 6155SOL    HW120665   3.039   3.857   8.488 -0.3011  1.2611  0.6916
 6155SOL    HW220666   3.117   3.889   8.363  0.6859 -1.9508  0.4010
 6156SOL     OW20667   5.971   8.721   3.464  0.1459  0.0449 -0.2184
 6156SOL    HW120668   5.962   8.648   3.525 -1.4412  0.1900 -0.2435
 6156SOL    HW220669   6.009   8.682   3.386  0.8799 -0.4179  0.3620
 6157SOL     OW20670   7.365   6.109   8.100 -0.0686 -0.0374 -0.0786
 6157SOL    HW120671   7.304   6.115   8.027 -1.4153 -2.6604  0.6853
 6157SOL    HW220672   7.308   6.108   8.178  0.8386 -2.6553  0.6574
 6158SOL     OW20673   9.029   5.911   4.158  0.7155 -0.1285  0.1986
 6158SOL    HW120674   9.083   5.861   4.097  1.5994 -0.1375  0.9765
 6158SOL    HW220675   9.052   6.002   4.142  0.1790 -0.0606 -0.2024
 6159SOL     OW20676   4.257   0.689   7.090 -0.0450 -0.1114 -0.0810
 6159SOL    HW120677   4.305   0.727   7.163 -0.5804  2.8896 -1.1572
 6159SOL    HW220678   4.181   0.647   7.131 -0.8679  2.3673  1.1073
 6160SOL     OW20679   3.905   0.615   6.007 -0.1335  0.4997 -0.1352
 6160SOL    HW120680   3.948   0.636   5.924 -0.6616 -1.6486 -1.0091
 6160SOL    HW220681   3.939   0.529   6.031 -0.7621  0.6392  1.3568
 6161SOL     OW20682   9.000   9.398   2.017 -0.9741 -0.6665 -0.3286
 6161SOL    HW120683   8.976   9.490   2.010 -0.6971 -0.4353  1.3269
 6161SOL    HW220684   8.916   9.351   2.013 -1.0853 -0.3790 -1.5014
 6162SOL     OW20685   2.187   5.824   4.823  0.3491  0.5400  0.3976
 6162SOL    HW120686   2.096   5.853   4.815 -0.1448 -1.3148 -1.7165
 6162SOL    HW220687   2.201   5.815   4.917 -1.3666  1.6473  0.8091
 6163SOL     OW20688   4.646   0.302   4.636 -0.2435  0.4251 -0.4681
 6163SOL    HW120689   4.708   0.325   4.705 -0.8599  1.4403 -0.2339
 6163SOL    HW220690   4.581   0.372   4.637 -1.7375 -0.9047 -0.3155
 6164SOL     OW20691   7.117   4.691   4.576 -0.5278  0.1699 -0.0351
 6164SOL    HW120692   7.074   4.619   4.620  0.5206 -0.4728 -0.0301
 6164SOL    HW220693   7.184   4.721   4.638 -0.5376  0.7321 -0.2878
 6165SOL     OW20694   5.151   3.344   8.444 -0.2496  0.2314 -0.3861
 6165SOL    HW120695   5.106   3.276   8.395 -0.8106  0.4550 -0.1906
 6165SOL    HW220696   5.237   3.351   8.402 -0.6071  0.2031 -1.1430
 6166SOL     OW20697   5.776   4.046   3.576  0.3517  0.1572 -0.3899
 6166SOL    HW120698   5.684   4.055   3.551  0.7128  0.4889 -1.7118
 6166SOL    HW220699   5.775   4.035   3.671 -1.3364 -3.7088 -0.6564
 6167SOL     OW20700   1.699   3.262   7.451 -1.0026  0.5584  0.0771
 6167SOL    HW120701   1.786   3.228   7.472 -1.5325 -0.8561  0.1245
 6167SOL    HW220702   1.640   3.211   7.506 -1.8316  1.9711  0.5545
 6168SOL     OW20703   7.355   2.469   3.652 -0.1746 -0.1696 -0.0274
 6168SOL    HW120704   7.397   2.495   3.734  0.5942  0.9508 -0.7605
 6168SOL    HW220705   7.393   2.383   3.632  0.9007  0.3058 -0.0752
 6169SOL     OW20706   5.802   3.450   7.994  0.4690  0.7851  0.3971
 6169SOL    HW120707   5.715   3.490   7.992  1.1435  2.2918 -0.6840
 6169SOL    HW220708   5.862   3.523   7.981  1.9037 -0.2573  0.9184
 6170SOL     OW20709   4.450   0.748   4.611  0.0079  0.9673 -0.0083
 6170SOL    HW120710   4.515   0.786   4.552  0.8851  0.5359  0.6686
 6170SOL    HW220711   4.386   0.817   4.624  0.3422  1.4084 -0.6610
 6171SOL     OW20712   0.435   6.774   6.396  0.4574  0.3187 -0.6821
 6171SOL    HW120713   0.365   6.799   6.336  0.1073 -1.1842 -0.9448
 6171SOL    HW220714   0.390   6.757   6.479  0.4612 -0.7852 -0.8876
 6172SOL     OW20715   7.902   0.703   5.293  0.7503 -0.1667 -0.7023
 6172SOL    HW120716   7.859   0.783   5.324 -1.4446 -1.4034 -0.4118
 6172SOL    HW220717   7.996   0.723   5.300  0.2755  2.0848  0.1129
 6173SOL     OW20718   3.902   2.149   1.780  0.0516 -0.2719  0.0456
 6173SOL    HW120719   3.982   2.142   1.728  1.1718  2.8665  1.1362
 6173SOL    HW220720   3.842   2.199   1.725  0.0371  0.2233  0.5122
 6174SOL     OW20721   4.354   7.599   2.676 -0.1323  0.0051 -0.3150
 6174SOL    HW120722   4.321   7.685   2.702 -1.1175 -0.3053 -0.5066
 6174SOL    HW220723   4.376   7.608   2.583  0.6358  0.2959 -0.1142
 6175SOL     OW20724   8.363   8.938   0.107 -0.2264 -0.0252 -0.8558
 6175SOL    HW120725   8.271   8.925   0.087  0.1601 -0.1018 -2.8370
 6175SOL    HW220726   8.393   8.852   0.138 -0.7285 -0.0961 -0.5576
 6176SOL     OW20727   4.972   2.167   0.986  0.1852  0.0187  0.1359
 6176SOL    HW120728   4.896   2.221   1.006  1.0897  1.3607  0.0761
 6176SOL    HW220729   5.019   2.216   0.919  0.9469 -0.9388 -0.0467
 6177SOL     OW20730   4.884   0.350   5.942 -0.1035 -0.3428 -0.3240
 6177SOL    HW120731   4.920   0.265   5.918 -1.2503 -1.2328  0.9299
 6177SOL    HW220732   4.824   0.372   5.870 -0.0036 -0.7189 -0.5233
 6178SOL     OW20733   2.339   8.399   8.420  0.3128 -0.1089  0.2164
 6178SOL    HW120734   2.257   8.387   8.467 -1.4493 -1.9794 -3.0200
 6178SOL    HW220735   2.402   8.344   8.467 -0.6313  0.0942  1.8029
 6179SOL     OW20736   4.694   5.043   6.884 -0.1535 -0.0001  0.2110
 6179SOL    HW120737   4.785   5.014   6.882  0.0606  0.4678  1.7503
 6179SOL    HW220738   4.685   5.099   6.807  0.6629 -0.5852 -0.3305
 6180SOL     OW20739   3.564   2.493   2.496 -0.4916  0.6648  0.1692
 6180SOL    HW120740   3.478   2.483   2.537  0.2968 -1.3888  1.4908
 6180SOL    HW220741   3.626   2.477   2.567  0.9919 -4.3667 -1.7890
 6181SOL     OW20742   0.149   5.664   3.109 -0.1837 -0.3139 -0.0154
 6181SOL    HW120743   0.143   5.724   3.184 -1.0068  2.9985 -2.5058
 6181SOL    HW220744   0.060   5.629   3.099 -0.0383 -0.8782  0.5918
 6182SOL     OW20745   4.154   1.536   3.924  0.4810  0.4162  0.0335
 6182SOL    HW120746   4.173   1.480   3.999 -0.0433 -1.7694 -1.3771
 6182SOL    HW220747   4.062   1.518   3.902  0.4026  1.5572 -0.7226
 6183SOL     OW20748   9.577   2.590   5.371 -0.8290  0.0882  0.4156
 6183SOL    HW120749   9.629   2.543   5.305  1.5262  2.2363  0.5598
 6183SOL    HW220750   9.527   2.521   5.415  1.8418 -2.2171  0.1784
 6184SOL     OW20751   7.591   4.993   1.849 -0.2545 -0.0074  0.1530
 6184SOL    HW120752   7.668   5.010   1.903  0.7192 -0.4798 -1.0379
 6184SOL    HW220753   7.606   4.905   1.813 -1.8191 -0.5137  0.6470
 6185SOL     OW20754   1.093   2.377   0.244 -0.5325 -0.0393  0.4238
 6185SOL    HW120755   1.149   2.446   0.209 -0.2062 -0.0609  0.8958
 6185SOL    HW220756   1.072   2.323   0.169  1.3352 -0.9195  0.4800
 6186SOL     OW20757   7.966   4.938   8.298 -0.0821 -0.4122  0.0853
 6186SOL    HW120758   7.972   4.949   8.203 -1.0638 -1.5335 -0.1196
 6186SOL    HW220759   8.057   4.930   8.327  0.1832 -0.8807 -0.8585
 6187SOL     OW20760   9.505   0.816   3.892  0.1217 -0.8609  0.0860
 6187SOL    HW120761   9.410   0.830   3.895  0.1311 -0.8068  0.1441
 6187SOL    HW220762   9.532   0.813   3.984  0.3021 -0.0042  0.0651
 6188SOL     OW20763   0.322   7.660   6.175  0.9392  0.2994  0.2040
 6188SOL    HW120764   0.404   7.614   6.196  0.7270  1.0347  2.9982
 6188SOL    HW220765   0.255   7.610   6.221 -0.0123  0.5337 -0.8919
 6189SOL     OW20766   9.292   6.862   2.963 -0.1699 -0.1278 -0.6274
 6189SOL    HW120767   9.291   6.912   3.045 -0.5331  0.1026 -0.7704
 6189SOL    HW220768   9.223   6.796   2.975  0.1379 -0.4329 -0.5374
 6190SOL     OW20769   2.636   7.282   4.102  0.3880  0.3878 -0.0115
 6190SOL    HW120770   2.674   7.359   4.143 -0.4489  1.3234 -0.9157
 6190SOL    HW220771   2.547   7.277   4.138  0.1198  0.4127 -0.6539
 6191SOL     OW20772   3.830   5.827   3.944  0.5239  0.6319  0.1225
 6191SOL    HW120773   3.893   5.891   3.910  1.1070  0.6017  1.1005
 6191SOL    HW220774   3.884   5.755   3.975 -0.1407 -0.4195 -1.0945
 6192SOL     OW20775   5.992   4.088   9.563 -0.0364 -0.2804  0.4574
 6192SOL    HW120776   6.017   4.155   9.627 -0.4240  0.0540  0.2637
 6192SOL    HW220777   6.036   4.114   9.482 -0.0734 -0.3378  0.4188
 6193SOL     OW20778   3.788   8.286   4.247 -0.0846  0.0364  0.1254
 6193SOL    HW120779   3.775   8.192   4.259 -0.7339 -0.3022 -2.5335
 6193SOL    HW220780   3.865   8.292   4.190 -1.3791  0.9464 -1.6010
 6194SOL     OW20781   7.130   8.699   0.862  0.2346  0.1125  0.0906
 6194SOL    HW120782   7.176   8.643   0.799 -1.3697  1.1679 -2.1422
 6194SOL    HW220783   7.196   8.761   0.893  1.0349 -0.3647 -0.6394
 6195SOL     OW20784   3.813   9.572   1.482 -0.8348  0.0167 -0.1238
 6195SOL    HW120785   3.865   9.561   1.403 -1.2343  1.1369 -0.5596
 6195SOL    HW220786   3.767   9.489   1.492  0.7293 -0.8723  0.0755
 6196SOL     OW20787   5.915   2.053   0.889 -0.5484 -0.4772  0.2614
 6196SOL    HW120788   6.007   2.077   0.898 -0.0582 -0.6057 -3.0974
 6196SOL    HW220789   5.874   2.130   0.850 -1.7809 -0.6281  1.2014
 6197SOL     OW20790   4.398   6.540   9.126  1.0507 -0.3432 -0.3806
 6197SOL    HW120791   4.467   6.582   9.178  0.7766 -0.1023 -0.2085
 6197SOL    HW220792   4.317   6.578   9.159  0.6717 -1.9786  0.7021
 6198SOL     OW20793   4.632   2.694   3.131  0.6589  0.1638  0.2535
 6198SOL    HW120794   4.677   2.745   3.199  1.2220 -0.0209  0.0199
 6198SOL    HW220795   4.702   2.657   3.078  0.2174  0.5109 -0.5942
 6199SOL     OW20796   6.909   8.640   7.805 -0.1911  0.2453 -0.2897
 6199SOL    HW120797   6.868   8.576   7.863 -1.8530  1.3767 -0.1536
 6199SOL    HW220798   6.963   8.694   7.863  0.6759 -0.5681 -0.3081
 6200SOL     OW20799   1.898   8.140   7.948 -0.4091  0.3159 -0.3324
 6200SOL    HW120800   1.891   8.053   7.987 -0.0988  1.0692  1.5210
 6200SOL    HW220801   1.874   8.128   7.856 -2.5551 -1.3417  0.3566
 6201SOL     OW20802   0.805   1.230   6.762  0.4130  0.8836 -0.1247
 6201SOL    HW120803   0.749   1.152   6.756  0.2365  1.0500 -0.7147
 6201SOL    HW220804   0.882   1.200   6.811  0.5773  0.1948 -0.7762
 6202SOL     OW20805   3.534   2.689   1.214 -0.0264 -0.0653  0.1537
 6202SOL    HW120806   3.472   2.737   1.269  0.1835  2.2201 -1.4433
 6202SOL    HW220807   3.479   2.641   1.152 -0.2490  0.9293 -0.4406
 6203SOL     OW20808   8.336   1.151   4.543  0.6913  0.3814 -0.5928
 6203SOL    HW120809   8.300   1.238   4.524 -0.6212 -0.2430 -1.0657
 6203SOL    HW220810   8.307   1.131   4.632  0.1358  0.0222 -0.8480
 6204SOL     OW20811   5.631   6.619   7.607 -0.3361  0.4949 -0.1870
 6204SOL    HW120812   5.692   6.602   7.679 -2.1329 -0.9262  1.0632
 6204SOL    HW220813   5.571   6.685   7.641 -1.0924 -0.0513 -0.4560
 6205SOL     OW20814   0.394   6.801   8.019  0.2453  0.2602 -0.0975
 6205SOL    HW120815   0.406   6.882   8.069  1.0854  0.7507 -1.0461
 6205SOL    HW220816   0.300   6.783   8.023  0.0738  1.2020  0.2500
 6206SOL     OW20817   0.340   6.815   4.570  0.6097  0.4852  0.3613
 6206SOL    HW120818   0.283   6.740   4.587  0.3437  0.2390 -1.4983
 6206SOL    HW220819   0.292   6.890   4.605  0.1403  0.0133  0.7536
 6207SOL     OW20820   9.039   5.806   7.208  0.2090 -0.1758 -0.3235
 6207SOL    HW120821   9.047   5.901   7.214 -0.8938 -0.1284  1.2027
 6207SOL    HW220822   9.046   5.786   7.115  0.9088  1.3432 -0.6232
 6208SOL     OW20823   8.853   8.706   4.982 -0.1513 -0.1632  0.4382
 6208SOL    HW120824   8.866   8.780   4.922  0.5023  0.3494  1.1873
 6208SOL    HW220825   8.940   8.668   4.991 -0.3957 -0.7194  0.4563
 6209SOL     OW20826   3.366   8.558   8.298 -0.6326  0.1297 -0.1280
 6209SOL    HW120827   3.277   8.525   8.286 -0.6757 -0.2979  1.1317
 6209SOL    HW220828   3.411   8.488   8.345  0.4450  0.2418 -0.9757
 6210SOL     OW20829   7.857   4.934   2.355 -0.4619  0.0237 -0.0591
 6210SOL    HW120830   7.869   4.867   2.287 -1.3242  0.6551 -0.8630
 6210SOL    HW220831   7.946   4.960   2.378 -0.1463 -0.0995 -1.0604
 6211SOL     OW20832   8.191   2.838   2.399  0.6188 -0.3213  0.2568
 6211SOL    HW120833   8.211   2.750   2.369 -0.1911 -0.0311 -1.2591
 6211SOL    HW220834   8.100   2.834   2.429 -0.1167  0.3741 -1.6873
 6212SOL     OW20835   2.450   3.094   6.750  0.5434  0.5450  0.2388
 6212SOL    HW120836   2.394   3.088   6.673 -0.8874  1.8079  1.1152
 6212SOL    HW220837   2.411   3.165   6.802  2.5357  0.9690  1.2493
 6213SOL     OW20838   9.199   7.034   6.561 -0.4894 -0.1827  0.0859
 6213SOL    HW120839   9.123   6.991   6.523 -0.3055  0.1509 -0.6857
 6213SOL    HW220840   9.167   7.071   6.644 -0.3539 -2.8195  1.4430
 6214SOL     OW20841   6.632   2.790   0.869 -0.3231 -0.0765  0.1312
 6214SOL    HW120842   6.725   2.808   0.854  0.2047 -1.2756  1.7151
 6214SOL    HW220843   6.597   2.873   0.901  0.3072  0.2798 -0.0885
 6215SOL     OW20844   3.211   3.804   4.567 -0.0722 -0.0467  0.0804
 6215SOL    HW120845   3.286   3.846   4.525  0.1549 -1.8842 -1.4762
 6215SOL    HW220846   3.241   3.786   4.656  1.9838 -2.0512 -0.9034
 6216SOL     OW20847   3.376   4.897   7.794 -0.8131 -0.2111 -0.8195
 6216SOL    HW120848   3.436   4.969   7.776 -2.2874  0.7497 -2.1941
 6216SOL    HW220849   3.358   4.858   7.708 -4.1591  1.2725 -0.9752
 6217SOL     OW20850   3.608   0.352   0.326  0.3317  0.4959  0.1687
 6217SOL    HW120851   3.700   0.344   0.353  0.1995 -2.0567  0.1202
 6217SOL    HW220852   3.565   0.277   0.366 -2.3452  2.9157  2.2397
 6218SOL     OW20853   4.556   0.230   3.393 -0.1174  0.0041  0.1286
 6218SOL    HW120854   4.554   0.158   3.456  0.3744  1.1771  1.5403
 6218SOL    HW220855   4.631   0.282   3.419 -0.4185  0.9961 -0.9141
 6219SOL     OW20856   4.818   5.881   5.370  0.4492 -0.3826 -0.6336
 6219SOL    HW120857   4.805   5.850   5.460  0.2455  0.3521 -0.3982
 6219SOL    HW220858   4.857   5.968   5.381 -0.9734  0.3505 -1.2202
 6220SOL     OW20859   7.050   5.092   1.498  0.6382 -0.0859 -0.6720
 6220SOL    HW120860   7.052   5.053   1.585 -0.3368 -2.1146 -1.5092
 6220SOL    HW220861   6.960   5.122   1.487  0.8415  0.4655 -0.8816
 6221SOL     OW20862   7.495   5.003   9.064 -0.2499  0.1379  0.4068
 6221SOL    HW120863   7.477   4.990   9.157 -0.0918 -0.2024  0.3906
 6221SOL    HW220864   7.409   5.005   9.022 -0.3161  0.1906  0.5455
 6222SOL     OW20865   1.901   5.457   0.434  0.6905  0.3859  0.6162
 6222SOL    HW120866   1.972   5.433   0.375 -0.9828  2.3856 -2.5097
 6222SOL    HW220867   1.834   5.390   0.420  0.2968  0.8565  0.1822
 6223SOL     OW20868   8.964   2.606   5.805  0.2604  0.7273 -0.2801
 6223SOL    HW120869   8.947   2.693   5.768  3.2477  0.9270 -1.4873
 6223SOL    HW220870   9.059   2.604   5.818  0.5336 -2.8464 -1.6475
 6224SOL     OW20871   9.389   7.639   7.318 -0.3393 -0.1388  0.3183
 6224SOL    HW120872   9.380   7.688   7.237 -0.9599 -1.1605 -0.2510
 6224SOL    HW220873   9.313   7.663   7.370  0.4666  1.1285  0.9586
 6225SOL     OW20874   6.858   2.000   0.998  0.6034  0.2612 -0.2499
 6225SOL    HW120875   6.917   2.071   0.973  0.4192  0.4112 -0.2530
 6225SOL    HW220876   6.845   2.011   1.093 -1.1047  1.5014 -0.5859
 6226SOL     OW20877   2.520   5.208   8.716 -0.3028  0.7009 -0.1122
 6226SOL    HW120878   2.512   5.170   8.803 -1.0050 -0.0350 -0.4911
 6226SOL    HW220879   2.566   5.291   8.730  0.2507  0.2426  0.8608
 6227SOL     OW20880   8.674   3.562   9.324  0.3221  0.3072  0.0367
 6227SOL    HW120881   8.704   3.584   9.412  0.0456  0.7453  0.0248
 6227SOL    HW220882   8.665   3.646   9.280 -0.3218  0.1405 -0.1551
 6228SOL     OW20883   3.229   3.827   3.055  0.0690 -0.6400 -0.0639
 6228SOL    HW120884   3.253   3.735   3.066  0.8287 -0.4030  0.2827
 6228SOL    HW220885   3.291   3.876   3.109 -1.9265 -0.0692  1.8987
 6229SOL     OW20886   1.063   4.620   5.536 -0.4653 -0.4524  0.0966
 6229SOL    HW120887   1.041   4.527   5.528 -1.0744 -0.2725 -0.4355
 6229SOL    HW220888   1.070   4.650   5.445 -0.4062  0.0505  0.2661
 6230SOL     OW20889   1.690   7.234   6.542 -0.1417 -0.1826  0.4468
 6230SOL    HW120890   1.675   7.288   6.619  0.4019  0.2620  0.2466
 6230SOL    HW220891   1.688   7.295   6.469 -3.4271 -0.9271 -0.2495
 6231SOL     OW20892   3.086   0.899   6.528 -0.0670  0.1560 -0.3842
 6231SOL    HW120893   3.106   0.912   6.436 -1.6160 -0.5260 -0.8491
 6231SOL    HW220894   3.130   0.818   6.552 -0.6889 -0.3365 -0.8809
 6232SOL     OW20895   7.568   1.210   0.101 -0.0344 -0.4253  0.2457
 6232SOL    HW120896   7.500   1.155   0.139 -0.9219  0.2880 -0.2768
 6232SOL    HW220897   7.565   1.191   0.007 -1.9198  2.0996 -0.3050
 6233SOL     OW20898   9.223   2.630   5.846  0.4232  0.2420 -0.0648
 6233SOL    HW120899   9.306   2.583   5.837  0.3328  0.2647 -1.2043
 6233SOL    HW220900   9.233   2.681   5.926  0.6648 -1.4170  1.0095
 6234SOL     OW20901   9.386   3.426   4.280 -0.3314  0.1815  0.2839
 6234SOL    HW120902   9.455   3.485   4.309 -1.2021  2.3598 -1.7146
 6234SOL    HW220903   9.418   3.389   4.197 -0.8457 -0.1577  0.2264
 6235SOL     OW20904   2.644   2.090   5.016  0.0321  0.3672 -0.1680
 6235SOL    HW120905   2.716   2.148   5.039  0.3334 -0.5521  1.3696
 6235SOL    HW220906   2.567   2.132   5.054  0.6007 -1.4286  3.4554
 6236SOL     OW20907   1.106   3.487   2.306  0.4782  0.4909 -0.3865
 6236SOL    HW120908   1.193   3.524   2.292  0.7355 -0.5117 -1.5649
 6236SOL    HW220909   1.095   3.487   2.402  1.8375  0.4770 -0.2108
 6237SOL     OW20910   1.299   2.733   6.325 -0.6003  0.7530  0.0432
 6237SOL    HW120911   1.374   2.684   6.291  0.3602  2.1955 -0.0166
 6237SOL    HW220912   1.274   2.688   6.406 -0.6222 -0.6039 -0.7003
 6238SOL     OW20913   0.963   7.395   9.540 -0.0964 -0.2772  0.5380
 6238SOL    HW120914   0.988   7.318   9.591  1.2549 -0.7032 -0.7179
 6238SOL    HW220915   1.028   7.461   9.564  1.9911 -1.1572 -2.1749
 6239SOL     OW20916   8.484   2.658   7.636  0.5033 -0.1207  0.3205
 6239SOL    HW120917   8.545   2.732   7.644  0.1179  0.1586  0.7372
 6239SOL    HW220918   8.536   2.581   7.655  0.7603  0.1049  0.5354
 6240SOL     OW20919   7.930   3.338   7.644 -0.1587  0.3526  0.2332
 6240SOL    HW120920   7.954   3.271   7.580 -0.2214  0.0819  0.4892
 6240SOL    HW220921   7.906   3.414   7.591 -1.5571 -0.3014 -0.1227
 6241SOL     OW20922   8.620   1.708   4.492  0.3308  0.5055 -0.1911
 6241SOL    HW120923   8.526   1.724   4.484  0.3470  0.6862 -0.0275
 6241SOL    HW220924   8.655   1.727   4.405 -0.0254 -1.2855 -0.7647
 6242SOL     OW20925   7.787   8.878   9.341 -0.9523  0.2727 -0.0219
 6242SOL    HW120926   7.875   8.841   9.348 -0.0612  2.0361 -1.1973
 6242SOL    HW220927   7.756   8.882   9.432  1.4004  2.3466  0.8052
 6243SOL     OW20928   3.714   2.331   2.132 -0.3824 -0.1840 -0.8034
 6243SOL    HW120929   3.752   2.354   2.217 -1.1140 -0.4348 -0.3951
 6243SOL    HW220930   3.777   2.272   2.092 -0.9798 -1.7983  0.5081
 6244SOL     OW20931   5.598   4.585   1.785 -0.1070 -0.2488 -0.3863
 6244SOL    HW120932   5.576   4.544   1.701 -0.6096  0.5305 -0.6513
 6244SOL    HW220933   5.595   4.679   1.766  1.0720 -0.0801  0.1833
 6245SOL     OW20934   1.603   1.493   6.143  0.8522 -0.4256 -0.8921
 6245SOL    HW120935   1.610   1.417   6.201 -3.0689 -0.4872 -0.1946
 6245SOL    HW220936   1.536   1.467   6.079 -0.4832  2.3034 -0.7372
 6246SOL     OW20937   4.033   1.155   5.989 -0.2203  0.6090 -0.0327
 6246SOL    HW120938   3.984   1.218   5.935 -0.1144  1.6291  1.0256
 6246SOL    HW220939   3.992   1.161   6.075  0.5863  0.1078  0.3919
 6247SOL     OW20940   8.181   0.672   0.392 -0.1999 -0.3837  0.4473
 6247SOL    HW120941   8.256   0.617   0.371  0.4573  0.5726  0.2376
 6247SOL    HW220942   8.169   0.727   0.315 -0.8522 -0.2192  0.6551
 6248SOL     OW20943   5.792   0.321   8.414 -0.0991 -0.0391  0.6149
 6248SOL    HW120944   5.757   0.244   8.459  0.2069 -0.3895  0.2736
 6248SOL    HW220945   5.835   0.372   8.483  0.8248 -0.8327  0.6613
 6249SOL     OW20946   3.611   3.378   6.092  0.1857 -0.4503 -0.2709
 6249SOL    HW120947   3.528   3.365   6.137 -0.3849 -0.6198 -1.3460
 6249SOL    HW220948   3.591   3.439   6.021  0.9641 -0.5452 -0.5873
 6250SOL     OW20949   2.865   7.034   8.370  1.0809  0.1896  0.5447
 6250SOL    HW120950   2.944   6.999   8.411 -0.2170 -0.7513  2.3749
 6250SOL    HW220951   2.817   7.077   8.441 -0.7931 -0.6327 -0.1515
 6251SOL     OW20952   0.640   3.441   3.831  0.2819 -0.3578  0.0443
 6251SOL    HW120953   0.695   3.422   3.755 -1.7715 -2.6291 -1.0275
 6251SOL    HW220954   0.632   3.536   3.832  1.0318 -0.2173 -2.1121
 6252SOL     OW20955   2.807   1.650   8.457 -0.0281  0.0176 -0.1833
 6252SOL    HW120956   2.859   1.617   8.384  0.2822  0.2858 -0.0846
 6252SOL    HW220957   2.824   1.745   8.458  0.5317 -0.0866  0.6825
 6253SOL     OW20958   3.754   7.167   8.691 -0.4059 -0.3073  0.7064
 6253SOL    HW120959   3.682   7.170   8.754 -1.4369 -1.3071 -0.3603
 6253SOL    HW220960   3.735   7.238   8.630  1.3593  1.5933  2.2225
 6254SOL     OW20961   3.224   8.239   4.256 -0.2876 -0.3880 -0.3828
 6254SOL    HW120962   3.131   8.222   4.274 -0.4799  0.6953 -0.2838
 6254SOL    HW220963   3.269   8.162   4.290 -1.2507 -1.5607 -1.6543
 6255SOL     OW20964   3.651   1.782   6.442  0.1094  0.2029 -0.9332
 6255SOL    HW120965   3.654   1.735   6.526 -0.4297  0.0742 -0.9821
 6255SOL    HW220966   3.687   1.720   6.379 -0.1963  0.0168 -0.9250
 6256SOL     OW20967   2.810   4.868   8.039  0.1768 -0.2728  0.0133
 6256SOL    HW120968   2.780   4.925   7.969 -1.9068 -0.8421  0.3837
 6256SOL    HW220969   2.755   4.790   8.033  0.3405 -0.5847  1.8999
 6257SOL     OW20970   2.953   0.438   1.079  0.4704  0.1108  0.3335
 6257SOL    HW120971   2.891   0.467   1.145  1.0397  0.0918  0.8828
 6257SOL    HW220972   3.032   0.488   1.096  0.5679  0.2346 -0.4454
 6258SOL     OW20973   3.683   4.285   0.265 -0.0440 -0.0427  0.4088
 6258SOL    HW120974   3.634   4.365   0.248  0.0325  0.1407  1.0389
 6258SOL    HW220975   3.771   4.303   0.232  0.2811  0.5491  1.5559
 6259SOL     OW20976   6.853   7.175   8.785 -0.1059  0.3365  0.1316
 6259SOL    HW120977   6.850   7.188   8.879 -0.7596  1.3516 -0.0151
 6259SOL    HW220978   6.762   7.155   8.761  0.3452 -1.7329 -0.0625
 6260SOL     OW20979   1.514   7.458   7.149 -0.6036 -0.3461 -0.2477
 6260SOL    HW120980   1.601   7.471   7.111  0.3592  0.6833  2.1039
 6260SOL    HW220981   1.480   7.547   7.160 -0.1900 -0.4266  2.5106
 6261SOL     OW20982   2.080   5.621   7.002  0.5562  0.1550  0.6888
 6261SOL    HW120983   2.106   5.554   6.938  0.6586  0.3648  0.5091
 6261SOL    HW220984   2.069   5.572   7.084  0.9694 -0.0328  0.6405
 6262SOL     OW20985   4.022   3.867   2.606 -0.3626  0.0809 -0.8115
 6262SOL    HW120986   4.113   3.847   2.628 -0.3035  1.2256  0.0837
 6262SOL    HW220987   3.997   3.937   2.667 -2.1499 -0.8411 -0.4192
 6263SOL     OW20988   5.200   7.267   4.017 -0.2657 -0.5849  0.7249
 6263SOL    HW120989   5.175   7.190   3.966  2.4486 -1.5432  0.6991
 6263SOL    HW220990   5.155   7.256   4.101 -2.2294 -0.6297 -0.2851
 6264SOL     OW20991   2.249   6.516   7.549 -0.0491  0.5612 -0.0779
 6264SOL    HW120992   2.213   6.439   7.505  0.6322  0.2241 -0.0527
 6264SOL    HW220993   2.208   6.590   7.505  0.9041  0.2449 -1.5472
 6265SOL     OW20994   3.556   6.189   3.962 -0.3624  0.4375  0.0118
 6265SOL    HW120995   3.523   6.240   3.888  0.0231 -1.0371 -1.2358
 6265SOL    HW220996   3.638   6.231   3.986  0.0290  0.3493 -1.0982
 6266SOL     OW20997   8.706   2.315   4.221  0.0454 -0.1006 -0.1325
 6266SOL    HW120998   8.791   2.277   4.198  0.6136  0.1456  1.4713
 6266SOL    HW220999   8.690   2.285   4.310 -1.9326 -0.7755 -0.6542
 6267SOL     OW21000   9.553   1.309   7.433 -0.4495 -0.1025 -0.6528
 6267SOL    HW121001   9.509   1.355   7.362 -0.7863  2.5756  1.1532
 6267SOL    HW221002   9.634   1.358   7.448  1.1257 -2.4006 -1.0792
 6268SOL     OW21003   4.398   6.988   3.788 -0.1714 -0.2957 -0.1812
 6268SOL    HW121004   4.472   6.930   3.808 -0.5948 -0.4834  0.9316
 6268SOL    HW221005   4.340   6.935   3.734 -0.5465 -0.9260  0.8143
 6269SOL     OW21006   5.600   4.904   2.486 -0.0227  0.1683  0.0844
 6269SOL    HW121007   5.532   4.972   2.488  0.2948  0.5294 -0.8331
 6269SOL    HW221008   5.673   4.944   2.439  1.6845  0.5201  2.8062
 6270SOL     OW21009   2.276   2.432   8.870 -0.0251 -0.2635  0.2153
 6270SOL    HW121010   2.323   2.376   8.808 -0.4633 -0.4322  0.0259
 6270SOL    HW221011   2.275   2.382   8.952 -0.0751 -0.3642  0.1542
 6271SOL     OW21012   4.080   2.599   7.421 -0.4678 -0.1841  0.4753
 6271SOL    HW121013   4.133   2.668   7.460 -1.5403  0.3376  1.0747
 6271SOL    HW221014   4.109   2.594   7.330  0.3882  0.2801  0.7182
 6272SOL     OW21015   9.087   7.646   4.065 -0.2114  0.4623 -0.2078
 6272SOL    HW121016   9.104   7.622   3.974  0.9971  0.0338  0.1144
 6272SOL    HW221017   9.089   7.742   4.066  1.3036  0.4473 -0.3735
 6273SOL     OW21018   3.111   9.191   2.663  0.3716  0.1911  0.0927
 6273SOL    HW121019   3.017   9.211   2.654  0.0471 -1.2745 -0.2035
 6273SOL    HW221020   3.135   9.224   2.750 -0.8912 -1.0015  0.9406
 6274SOL     OW21021   9.391   1.132   1.495 -0.7465  0.0838  0.0559
 6274SOL    HW121022   9.395   1.083   1.413 -2.3482 -0.7745  0.4642
 6274SOL    HW221023   9.441   1.080   1.557 -1.6871 -0.5993  0.2584
 6275SOL     OW21024   4.285   5.246   5.271 -0.2877  0.3836  0.3801
 6275SOL    HW121025   4.334   5.320   5.306  0.7463 -0.3795  0.6167
 6275SOL    HW221026   4.251   5.201   5.348 -0.5532  0.3718  0.2580
 6276SOL     OW21027   4.015   6.162   6.507 -0.4558  0.1758  0.7212
 6276SOL    HW121028   3.932   6.151   6.462 -1.1414 -0.4868  2.0664
 6276SOL    HW221029   4.072   6.095   6.469 -1.0667 -0.4752  0.9278
 6277SOL     OW21030   5.468   3.752   1.746  0.6218 -0.1305 -0.0371
 6277SOL    HW121031   5.425   3.781   1.827 -0.7585 -2.8486  0.3242
 6277SOL    HW221032   5.543   3.701   1.776  0.5863 -0.4563 -0.4895
 6278SOL     OW21033   8.615   0.782   2.769 -0.3227  0.1663  0.1832
 6278SOL    HW121034   8.687   0.843   2.758  1.0668 -1.3901  0.1748
 6278SOL    HW221035   8.561   0.819   2.838 -1.1029  2.7748 -1.6825
 6279SOL     OW21036   7.487   4.046   1.644 -0.2385  0.3552 -0.0218
 6279SOL    HW121037   7.520   3.986   1.578 -2.8356 -0.6208 -0.5426
 6279SOL    HW221038   7.477   3.992   1.723 -1.7398  0.2851 -0.2399
 6280SOL     OW21039   9.332   4.893   1.425  0.1046 -0.0202  0.1631
 6280SOL    HW121040   9.365   4.958   1.363 -1.9869  1.9368  0.9546
 6280SOL    HW221041   9.267   4.843   1.375 -0.3583  0.4304  0.3075
 6281SOL     OW21042   4.524   7.233   2.293  0.0179 -0.4060  0.2289
 6281SOL    HW121043   4.503   7.326   2.301  2.2943  0.3006 -0.9712
 6281SOL    HW221044   4.541   7.220   2.199  1.3014 -1.6254  0.5872
 6282SOL     OW21045   8.332   5.762   1.836 -0.6005 -0.2335  0.1729
 6282SOL    HW121046   8.263   5.709   1.797  0.1423 -3.2036  2.5456
 6282SOL    HW221047   8.308   5.771   1.928  2.4220 -2.0758  1.2949
 6283SOL     OW21048   8.762   4.477   3.494  0.3125  0.9334  0.0698
 6283SOL    HW121049   8.667   4.489   3.482  0.6097  3.0367 -0.5494
 6283SOL    HW221050   8.769   4.422   3.572 -1.4549 -3.1094 -2.2553
 6284SOL     OW21051   8.816   5.244   1.306  0.0951 -0.1684  0.0233
 6284SOL    HW121052   8.812   5.293   1.388 -0.5028 -0.2079  0.0222
 6284SOL    HW221053   8.737   5.190   1.307 -0.5408  0.7291 -1.1497
 6285SOL     OW21054   1.543   4.318   3.559 -0.2450 -0.3493  0.7924
 6285SOL    HW121055   1.475   4.312   3.491  1.5879  0.9648 -1.2943
 6285SOL    HW221056   1.556   4.411   3.573  0.4444 -0.5882  1.9108
 6286SOL     OW21057   3.050   0.438   4.729  0.7440  0.6424 -0.9745
 6286SOL    HW121058   2.960   0.418   4.754  0.5999 -0.1291 -2.0573
 6286SOL    HW221059   3.060   0.531   4.749  0.2715  0.3655  0.7864
 6287SOL     OW21060   6.046   3.217   6.331 -0.0148 -0.2211  0.7684
 6287SOL    HW121061   6.046   3.256   6.244 -1.4015  0.1244  0.9013
 6287SOL    HW221062   6.106   3.271   6.382 -0.0034  0.2125  0.2994
 6288SOL     OW21063   4.011   7.392   1.743 -0.0259  0.2502 -0.5722
 6288SOL    HW121064   3.966   7.465   1.699 -0.6955  0.1312 -0.0942
 6288SOL    HW221065   4.094   7.430   1.774 -0.7855  1.0864  0.5183
 6289SOL     OW21066   9.421   1.067   6.880 -0.2180  0.3551  0.1309
 6289SOL    HW121067   9.338   1.024   6.900 -1.1264  1.9201 -0.1004
 6289SOL    HW221068   9.484   1.029   6.942 -0.9175 -1.3680 -0.1677
 6290SOL     OW21069   0.811   5.473   6.717 -0.9081 -0.0625  0.1040
 6290SOL    HW121070   0.874   5.543   6.702 -0.3084 -0.9081 -1.5912
 6290SOL    HW221071   0.789   5.480   6.810 -1.5499  2.8980 -0.1759
 6291SOL     OW21072   3.773   0.937   6.010  0.2792  0.2760  0.2001
 6291SOL    HW121073   3.780   0.966   5.919 -1.6065  0.8194  0.1909
 6291SOL    HW221074   3.720   1.005   6.052 -1.2668 -1.3864  1.0358
 6292SOL     OW21075   7.321   6.762   3.715  0.5894 -0.4791  0.0975
 6292SOL    HW121076   7.402   6.722   3.744  0.5462  0.7838  2.1490
 6292SOL    HW221077   7.345   6.810   3.635  1.5130 -1.2362 -0.0937
 6293SOL     OW21078   4.949   1.276   4.731  0.1743 -0.1314  0.5033
 6293SOL    HW121079   5.031   1.261   4.779  0.5307  0.0732 -0.0336
 6293SOL    HW221080   4.889   1.209   4.764  1.2217 -1.7154 -0.6676
 6294SOL     OW21081   0.740   3.949   4.735  0.1343  0.0215 -0.1800
 6294SOL    HW121082   0.661   3.993   4.704 -1.5652 -3.2754 -1.0328
 6294SOL    HW221083   0.718   3.923   4.825  0.0516 -1.2420 -0.5537
 6295SOL     OW21084   6.090   4.530   6.988  0.1172 -0.5826 -0.0970
 6295SOL    HW121085   6.118   4.513   6.898 -0.1178  1.0431 -0.5036
 6295SOL    HW221086   5.996   4.511   6.987 -0.2869  1.2649 -0.7300
 6296SOL     OW21087   7.425   7.385   0.936  0.0855  0.1559 -0.1287
 6296SOL    HW121088   7.454   7.300   0.968 -0.2419  0.4529  1.0123
 6296SOL    HW221089   7.363   7.416   1.002  1.5740  2.0905  0.4543
 6297SOL     OW21090   0.766   9.324   8.004 -0.7902 -0.2934 -0.9077
 6297SOL    HW121091   0.813   9.360   8.078 -2.1442  1.3510 -0.8012
 6297SOL    HW221092   0.762   9.230   8.022  1.3985 -0.3394 -0.3786
 6298SOL     OW21093   1.768   8.002   0.534 -0.6798  0.2694  0.0128
 6298SOL    HW121094   1.781   7.917   0.492 -0.9021 -0.7561  1.8777
 6298SOL    HW221095   1.850   8.018   0.581 -1.1379  0.4093  0.7776
 6299SOL     OW21096   8.079   1.560   3.863  0.2724 -0.3558 -0.9571
 6299SOL    HW121097   8.018   1.632   3.877  1.5549  0.3942  1.3400
 6299SOL    HW221098   8.164   1.603   3.850  1.0570 -1.3950  0.4557
 6300SOL     OW21099   8.502   4.922   8.950  0.0988 -0.2945  0.0663
 6300SOL    HW121100   8.572   4.860   8.972 -0.2133 -0.2726  1.1697
 6300SOL    HW221101   8.509   4.991   9.016  0.2061  0.6713 -0.9326
 6301SOL     OW21102   7.261   1.938   3.252 -0.9585  0.1411 -0.3213
 6301SOL    HW121103   7.322   2.005   3.223 -2.3349  1.7010  0.2524
 6301SOL    HW221104   7.178   1.960   3.209 -1.7125 -0.5372  0.7306
 6302SOL     OW21105   6.260   0.028   5.882 -0.0254  0.2762  0.1794
 6302SOL    HW121106   6.245  -0.047   5.825 -0.2904  1.0295 -0.7673
 6302SOL    HW221107   6.354   0.041   5.882 -0.1052  1.0135 -1.0932
 6303SOL     OW21108   7.065   2.140   3.095 -0.1353 -0.1516  0.2479
 6303SOL    HW121109   7.110   2.108   3.016  2.2466  1.1774  0.9843
 6303SOL    HW221110   7.107   2.223   3.114 -2.3548  0.7346  1.5712
 6304SOL     OW21111   5.966   6.251   9.186 -0.0097  0.0141  0.2047
 6304SOL    HW121112   5.896   6.202   9.144  2.4180 -0.3826 -3.9505
 6304SOL    HW221113   5.949   6.343   9.163  0.9770 -0.1407 -1.3501
 6305SOL     OW21114   1.431   7.473   2.098 -0.0007  0.3372 -0.4283
 6305SOL    HW121115   1.368   7.445   2.164  0.5675  0.2633  0.0898
 6305SOL    HW221116   1.475   7.392   2.071 -0.2213  0.3686 -0.8959
 6306SOL     OW21117   8.278   2.855   1.658  0.6664 -0.1820 -0.1283
 6306SOL    HW121118   8.214   2.794   1.695 -1.3571  1.0410 -1.4097
 6306SOL    HW221119   8.231   2.938   1.649  3.1005  1.4278  0.8509
 6307SOL     OW21120   1.066   4.680   4.445  0.1968 -0.6382  0.1756
 6307SOL    HW121121   1.076   4.754   4.385  0.1203  0.2134  1.1770
 6307SOL    HW221122   0.986   4.700   4.494 -0.6367 -2.1168 -0.5192
 6308SOL     OW21123   8.784   5.608   3.764  0.4050  0.2189 -0.1563
 6308SOL    HW121124   8.857   5.664   3.791  0.0709 -0.2405  1.8573
 6308SOL    HW221125   8.706   5.652   3.798 -0.1557  0.0891 -1.2350
 6309SOL     OW21126   3.452   4.517   0.851 -0.0283  0.0553 -0.2906
 6309SOL    HW121127   3.369   4.560   0.833 -0.2308  0.9053  2.2975
 6309SOL    HW221128   3.428   4.427   0.875 -0.1002  0.0131 -0.5196
 6310SOL     OW21129   7.483   4.070   0.324 -0.4230 -0.3467  0.5687
 6310SOL    HW121130   7.457   3.987   0.283 -0.4458  0.0780 -0.2934
 6310SOL    HW221131   7.504   4.127   0.251  3.2508 -0.7058  1.1588
 6311SOL     OW21132   9.174   2.513   1.007 -0.0758 -0.4075 -0.3865
 6311SOL    HW121133   9.128   2.595   0.993  0.9088  0.1624 -0.3758
 6311SOL    HW221134   9.201   2.516   1.098 -0.4112 -0.9503 -0.2639
 6312SOL     OW21135   6.747   5.336   0.429  0.3772  0.3574 -0.2250
 6312SOL    HW121136   6.667   5.285   0.425  0.1881  0.7118 -1.3330
 6312SOL    HW221137   6.774   5.332   0.521 -0.4845 -0.4002  0.0046
 6313SOL     OW21138   2.276   2.923   7.410  0.1904  0.1251 -0.7345
 6313SOL    HW121139   2.292   2.991   7.475 -1.0225 -1.1275  0.9262
 6313SOL    HW221140   2.352   2.865   7.417 -1.2696 -1.6685  1.8128
 6314SOL     OW21141   6.712   7.088   6.469  0.2530  0.2105 -0.1981
 6314SOL    HW121142   6.730   7.036   6.390  1.5984 -0.0857  0.2748
 6314SOL    HW221143   6.622   7.066   6.492  0.4315 -1.0584 -0.6451
 6315SOL     OW21144   1.682   1.416   9.137 -0.1519  0.0459 -0.3955
 6315SOL    HW121145   1.742   1.427   9.063 -0.3941  1.6625 -0.3875
 6315SOL    HW221146   1.617   1.354   9.106 -0.2474  0.7079 -1.5565
 6316SOL     OW21147   6.302   7.252   8.762 -0.0324  0.2098 -0.0385
 6316SOL    HW121148   6.247   7.229   8.836 -0.3441 -0.4605 -0.4742
 6316SOL    HW221149   6.264   7.206   8.687 -0.5704  1.9613 -0.9218
 6317SOL     OW21150   7.417   0.899   9.372 -0.3314  0.2552  0.1866
 6317SOL    HW121151   7.496   0.946   9.347  0.8967 -0.0935  3.0448
 6317SOL    HW221152   7.435   0.808   9.348  0.0919  0.2120  0.6402
 6318SOL     OW21153   8.954   0.797   0.672 -0.3486 -0.0433  0.1682
 6318SOL    HW121154   9.037   0.763   0.707 -0.1490 -0.6378 -0.8519
 6318SOL    HW221155   8.892   0.789   0.745 -0.2889 -2.5568  0.0213
 6319SOL     OW21156   5.044   0.684   5.341  0.2655 -0.2692 -0.0884
 6319SOL    HW121157   4.969   0.624   5.335  0.4481 -0.7186  1.6939
 6319SOL    HW221158   5.021   0.744   5.412  0.9761  0.5123 -0.5052
 6320SOL     OW21159   2.025   0.516   3.300  0.2210 -0.4742 -0.0952
 6320SOL    HW121160   2.020   0.576   3.226 -0.7924 -0.0180  0.3277
 6320SOL    HW221161   2.087   0.556   3.360 -0.5446  0.2265  0.2412
 6321SOL     OW21162   4.004   0.243   2.232  0.7540  0.2915  0.1809
 6321SOL    HW121163   4.005   0.245   2.136  1.6085  0.8940  0.1915
 6321SOL    HW221164   3.947   0.315   2.257 -1.0253 -1.0318  0.1285
 6322SOL     OW21165   6.115   5.161   9.322  0.0070 -0.3891  0.0568
 6322SOL    HW121166   6.190   5.104   9.340 -0.0404  0.1345  2.0954
 6322SOL    HW221167   6.093   5.200   9.406 -3.3941 -1.5048 -0.1362
 6323SOL     OW21168   1.987   5.651   5.123  0.3399 -0.2498 -0.2595
 6323SOL    HW121169   2.000   5.593   5.048 -0.0723 -2.0559  0.9840
 6323SOL    HW221170   1.896   5.635   5.149  0.5551  0.1522  0.7646
 6324SOL     OW21171   1.270   9.266   2.192 -0.3740  0.0279 -0.5113
 6324SOL    HW121172   1.234   9.201   2.132  1.7427 -0.1255 -1.7358
 6324SOL    HW221173   1.344   9.222   2.234 -0.9337  0.6152  1.1543
 6325SOL     OW21174   8.974   3.863   7.341  0.1506  0.4223 -0.8182
 6325SOL    HW121175   9.012   3.850   7.427 -1.5009  0.3944 -0.0571
 6325SOL    HW221176   8.913   3.936   7.353 -1.1992 -0.5429 -1.5828
 6326SOL     OW21177   5.211   1.976   0.829  0.1641 -1.0864 -0.4706
 6326SOL    HW121178   5.305   1.969   0.849  0.4583 -2.5434 -2.1336
 6326SOL    HW221179   5.168   1.962   0.913  1.4151 -0.2990  0.3419
 6327SOL     OW21180   0.197   7.098   8.643  0.1138 -0.4104 -0.4351
 6327SOL    HW121181   0.143   7.074   8.567 -1.3683 -0.9476  0.7514
 6327SOL    HW221182   0.226   7.014   8.679  0.1096 -0.1848  0.0960
 6328SOL     OW21183   1.386   1.110   1.709 -0.5752 -0.0479  0.0221
 6328SOL    HW121184   1.347   1.181   1.760 -1.1760  0.2610 -0.8458
 6328SOL    HW221185   1.321   1.040   1.709 -0.2406 -0.3653  0.3559
 6329SOL     OW21186   4.701   9.498   7.874 -0.1964 -0.2847  0.3343
 6329SOL    HW121187   4.659   9.578   7.843  1.3018 -0.3555 -2.0599
 6329SOL    HW221188   4.715   9.446   7.795  1.7635 -1.5150  1.4271
 6330SOL     OW21189   7.785   7.603   8.621  0.3656 -0.1546 -0.3743
 6330SOL    HW121190   7.827   7.550   8.554  0.9924 -0.4455  0.2380
 6330SOL    HW221191   7.858   7.649   8.664 -0.1339  1.0237 -0.7318
 6331SOL     OW21192   7.406   0.184   0.780  0.1308 -0.5294 -0.5690
 6331SOL    HW121193   7.402   0.233   0.862 -1.8138 -1.2944 -0.1494
 6331SOL    HW221194   7.490   0.209   0.741 -0.7301  3.0968 -0.4124
 6332SOL     OW21195   9.408   6.221   4.761  0.1016 -0.0812 -0.0659
 6332SOL    HW121196   9.382   6.148   4.816 -1.4840 -0.0115 -0.6694
 6332SOL    HW221197   9.380   6.299   4.808  0.7511  0.0876  0.0481
 6333SOL     OW21198   7.882   9.470   2.394  0.6503 -0.3532  0.4981
 6333SOL    HW121199   7.866   9.519   2.314 -0.9551 -0.9234  0.4272
 6333SOL    HW221200   7.912   9.384   2.364  2.6256  0.2457  0.6050
 6334SOL     OW21201   8.793   2.577   2.842  0.2875  0.4153 -0.3544
 6334SOL    HW121202   8.730   2.639   2.805  1.4773  2.1235  0.3543
 6334SOL    HW221203   8.801   2.602   2.934  1.4407 -0.2191 -0.2608
 6335SOL     OW21204   9.036   7.421   5.496  0.2438  0.0723  0.3528
 6335SOL    HW121205   9.029   7.347   5.435 -0.0416 -0.0710  0.5566
 6335SOL    HW221206   8.947   7.434   5.529  0.3914  0.1611  0.7255
 6336SOL     OW21207   5.773   5.865   8.260 -0.3917  0.1908 -0.3147
 6336SOL    HW121208   5.681   5.892   8.257 -0.4104  0.1772  0.1253
 6336SOL    HW221209   5.807   5.888   8.174 -0.9860 -0.4480 -0.7329
 6337SOL     OW21210   4.225   7.053   7.933 -0.3883  0.1287  0.2805
 6337SOL    HW121211   4.176   7.036   7.853 -0.9979  0.2103  0.6306
 6337SOL    HW221212   4.158   7.062   8.001  0.0657 -5.0829  1.9146
 6338SOL     OW21213   3.077   5.344   7.492 -0.4346 -0.3000 -0.4891
 6338SOL    HW121214   3.165   5.380   7.507 -0.6071  0.0973 -0.4290
 6338SOL    HW221215   3.071   5.333   7.398 -0.1671 -0.7167 -0.4600
 6339SOL     OW21216   9.010   8.410   0.774 -0.3371  0.0016 -0.0653
 6339SOL    HW121217   8.955   8.388   0.849  1.0309 -1.1590  0.6480
 6339SOL    HW221218   9.022   8.504   0.779  0.4091 -0.1530  1.6993
 6340SOL     OW21219   1.402   4.188   7.830  0.1437 -0.6320 -0.1119
 6340SOL    HW121220   1.471   4.158   7.770  0.6544 -0.5259  0.4084
 6340SOL    HW221221   1.450   4.233   7.900 -0.5184  0.1645 -0.1612
 6341SOL     OW21222   8.303   7.171   3.342 -0.0660 -0.0671 -0.3850
 6341SOL    HW121223   8.315   7.229   3.418  3.7701  0.0693 -0.9066
 6341SOL    HW221224   8.336   7.086   3.371 -1.0980 -0.7516 -1.1389
 6342SOL     OW21225   2.013   8.638   2.817  0.6549  0.3402  0.3316
 6342SOL    HW121226   2.049   8.574   2.877  0.7254  1.4517  1.5270
 6342SOL    HW221227   1.947   8.685   2.869  1.2616  1.8484 -0.1969
 6343SOL     OW21228   4.062   2.945   2.217  0.3466 -0.0783  0.3547
 6343SOL    HW121229   3.984   2.895   2.195  1.1688 -1.1682 -0.2189
 6343SOL    HW221230   4.113   2.946   2.135  0.8157  0.8258  0.6448
 6344SOL     OW21231   0.619   7.624   6.798  0.2649  0.0301 -0.1728
 6344SOL    HW121232   0.688   7.626   6.733  1.2808  1.4064  0.8922
 6344SOL    HW221233   0.662   7.595   6.879 -0.4831  0.5027  0.4100
 6345SOL     OW21234   7.789   4.368   8.168 -0.2030  0.3986 -0.2456
 6345SOL    HW121235   7.803   4.447   8.220  0.1812  0.3136 -0.2169
 6345SOL    HW221236   7.759   4.400   8.083 -0.1114  0.5743 -0.2126
 6346SOL     OW21237   1.401   3.617   0.270  0.0826 -0.4721  0.6941
 6346SOL    HW121238   1.422   3.660   0.186 -1.4030  0.0024  0.5402
 6346SOL    HW221239   1.436   3.677   0.336 -0.3781  0.0770  0.4450
 6347SOL     OW21240   0.099   8.383   3.081  0.1211  0.1796 -0.7771
 6347SOL    HW121241   0.154   8.305   3.090  0.4183  0.2346 -1.9551
 6347SOL    HW221242   0.161   8.453   3.059 -0.2284  0.6042 -0.4288
 6348SOL     OW21243   0.803   0.967   3.115 -0.0511 -0.0943 -0.3793
 6348SOL    HW121244   0.851   0.902   3.166  1.1959 -1.0437 -2.6017
 6348SOL    HW221245   0.713   0.962   3.147  0.3773 -1.7158  0.6643
 6349SOL     OW21246   0.252   7.421   1.405  0.3017 -0.0384  0.6244
 6349SOL    HW121247   0.326   7.411   1.345 -1.8931  1.1116 -2.5178
 6349SOL    HW221248   0.175   7.410   1.350 -1.9325  2.5403  2.9479
 6350SOL     OW21249   8.078   3.741   3.649 -0.2944 -0.4970 -0.2022
 6350SOL    HW121250   8.012   3.702   3.593  0.4117 -0.6467 -0.9483
 6350SOL    HW221251   8.158   3.692   3.630  0.0832 -0.1753  0.5167
 6351SOL     OW21252   5.139   8.780   7.123 -0.4640 -0.0861  0.0008
 6351SOL    HW121253   5.079   8.707   7.138  1.5013 -1.6431  0.7564
 6351SOL    HW221254   5.127   8.837   7.198 -1.0023 -0.3566  0.1245
 6352SOL     OW21255   1.813   1.789   1.087 -0.1467 -0.4663  0.0610
 6352SOL    HW121256   1.762   1.724   1.038 -0.4310 -0.5483  0.4636
 6352SOL    HW221257   1.756   1.865   1.093  0.0761 -0.2793 -0.1562
 6353SOL     OW21258   1.232   5.040   0.889 -0.5284  0.6533 -0.5249
 6353SOL    HW121259   1.221   4.994   0.805 -0.2486 -2.6561  1.0616
 6353SOL    HW221260   1.320   5.076   0.885 -0.1522 -0.2753 -1.3370
 6354SOL     OW21261   8.076   0.352   0.204  0.3792  0.3301 -0.7879
 6354SOL    HW121262   7.994   0.399   0.219  1.2479  1.2854  1.4146
 6354SOL    HW221263   8.124   0.406   0.142  0.7697  1.7155  0.6444
 6355SOL     OW21264   3.907   6.710   1.898 -0.1865 -0.5351 -0.8542
 6355SOL    HW121265   3.901   6.778   1.831 -0.0383  0.9928  0.6152
 6355SOL    HW221266   3.920   6.629   1.849 -1.0307  0.3878 -2.7006
 6356SOL     OW21267   8.017   4.072   4.168 -0.6166  0.2795  0.0650
 6356SOL    HW121268   8.111   4.073   4.150 -0.5676  1.5626  0.3294
 6356SOL    HW221269   7.985   3.993   4.123  0.3933  0.4383 -0.9758
 6357SOL     OW21270   6.203   4.277   2.180 -0.1970 -0.1678  0.0062
 6357SOL    HW121271   6.159   4.319   2.105  1.6253  0.0583 -0.9860
 6357SOL    HW221272   6.276   4.335   2.201 -0.0031 -0.8234  1.2487
 6358SOL     OW21273   9.367   3.095   6.949 -0.1994  0.1610  0.3123
 6358SOL    HW121274   9.412   3.176   6.925  0.9057 -0.2201  1.0008
 6358SOL    HW221275   9.351   3.103   7.043  0.7202 -0.7543  0.5783
 6359SOL     OW21276   8.589   4.784   4.291  0.5874 -0.2411  0.0456
 6359SOL    HW121277   8.659   4.791   4.226 -0.5583  3.2273 -1.0635
 6359SOL    HW221278   8.508   4.781   4.239 -0.2170 -1.3723  1.3146
 6360SOL     OW21279   5.403   1.329   6.944 -0.8900 -0.3320  0.1786
 6360SOL    HW121280   5.365   1.302   6.860 -0.4347  1.8928 -0.7955
 6360SOL    HW221281   5.493   1.351   6.924 -1.0389  1.1819  1.0414
 6361SOL     OW21282   2.441   9.555   4.819  0.0804 -0.5692  0.2676
 6361SOL    HW121283   2.526   9.542   4.776  0.3956 -0.4956  0.8674
 6361SOL    HW221284   2.426   9.474   4.867  0.2158 -0.2456  0.8593
 6362SOL     OW21285   1.292   4.825   5.379 -0.4438 -0.2074  0.0963
 6362SOL    HW121286   1.386   4.843   5.377 -0.4322 -0.2475  0.2354
 6362SOL    HW221287   1.255   4.880   5.310 -0.1672 -1.1075 -0.7801
 6363SOL     OW21288   3.111   4.296   0.351  0.3672 -0.0293  0.0057
 6363SOL    HW121289   3.080   4.380   0.385 -0.2304 -0.2288 -0.0434
 6363SOL    HW221290   3.156   4.256   0.425  0.1946  0.1027  0.1837
 6364SOL     OW21291   4.148   9.346   7.001 -1.0206  0.5985  0.2008
 6364SOL    HW121292   4.199   9.426   7.019 -1.1009  1.1699 -1.9277
 6364SOL    HW221293   4.206   9.275   7.031  1.4125  1.1805 -2.6574
 6365SOL     OW21294   9.052   5.211   6.468 -0.2284  0.0086  0.0702
 6365SOL    HW121295   9.075   5.150   6.398 -0.8693 -0.0363 -0.1054
 6365SOL    HW221296   9.074   5.297   6.433  0.9744 -0.1336  0.4370
 6366SOL     OW21297   0.516   2.574   5.640 -0.5568 -0.2789  0.2952
 6366SOL    HW121298   0.434   2.609   5.674 -1.3318 -2.1590  0.4808
 6366SOL    HW221299   0.556   2.529   5.715  0.5902  0.4839  0.1699
 6367SOL     OW21300   0.698   4.864   5.225 -0.3924  0.0761  0.3736
 6367SOL    HW121301   0.698   4.769   5.209 -1.6990  0.0440  0.4128
 6367SOL    HW221302   0.747   4.875   5.307  0.7228 -0.4365 -0.2034
 6368SOL     OW21303   0.688   7.266   9.008  0.6076  0.6220 -0.0291
 6368SOL    HW121304   0.684   7.171   9.016  2.0530  0.1811 -3.0798
 6368SOL    HW221305   0.612   7.289   8.954  0.5362  1.1187  0.2803
 6369SOL     OW21306   1.765   6.121   4.865 -0.1261  0.5629 -0.0499
 6369SOL    HW121307   1.729   6.171   4.792 -2.0031  1.4238  1.3477
 6369SOL    HW221308   1.816   6.185   4.916 -2.2412  1.1065  1.5508
 6370SOL     OW21309   7.048   7.348   0.203 -0.0029  0.1560 -0.0861
 6370SOL    HW121310   6.967   7.393   0.178 -0.0182  1.0563  1.4879
 6370SOL    HW221311   7.019   7.262   0.232 -0.4710  0.6453  0.9449
 6371SOL     OW21312   1.469   9.553   1.009 -0.3816  0.3102  0.7271
 6371SOL    HW121313   1.443   9.553   1.102 -0.9457  0.9929  0.5792
 6371SOL    HW221314   1.518   9.472   0.998  0.1102  0.4546  1.7400
 6372SOL     OW21315   7.241   1.832   7.122 -0.4414 -0.3702  0.1823
 6372SOL    HW121316   7.269   1.854   7.210 -0.4278 -0.7200  0.2668
 6372SOL    HW221317   7.300   1.761   7.095  0.9059  1.0900 -0.8838
 6373SOL     OW21318   8.148   0.371   4.705  0.0538  0.2959 -0.2668
 6373SOL    HW121319   8.184   0.388   4.618  1.7172 -1.3166  0.0402
 6373SOL    HW221320   8.191   0.435   4.762  2.0382 -1.1711 -0.0225
 6374SOL     OW21321   3.255   7.965   2.890 -0.1127  0.5212 -0.4327
 6374SOL    HW121322   3.232   7.910   2.815 -0.4350 -0.3072  0.2650
 6374SOL    HW221323   3.173   8.006   2.916  0.0475  1.0042 -0.6890
 6375SOL     OW21324   2.707   9.326   8.596 -0.1405 -0.3068 -0.9151
 6375SOL    HW121325   2.661   9.302   8.515 -0.6735  1.1246 -1.0682
 6375SOL    HW221326   2.781   9.380   8.568  0.9347 -1.5568 -0.5724
 6376SOL     OW21327   3.433   0.427   5.988  0.0378 -0.2205  0.2666
 6376SOL    HW121328   3.478   0.349   6.021  0.2842 -0.5144 -0.7539
 6376SOL    HW221329   3.503   0.490   5.974 -0.2014  0.3523  1.4826
 6377SOL     OW21330   1.682   2.120   3.477  0.3783  0.5928 -0.1305
 6377SOL    HW121331   1.698   2.107   3.570  0.0404  0.5705 -0.0776
 6377SOL    HW221332   1.683   2.032   3.439  0.2767  0.5831 -0.1106
 6378SOL     OW21333   2.790   7.354   5.530  0.1264 -0.1961 -0.1502
 6378SOL    HW121334   2.832   7.268   5.529 -0.9431 -0.7220 -0.1082
 6378SOL    HW221335   2.751   7.364   5.444 -1.5307 -0.6606  0.5050
 6379SOL     OW21336   7.775   5.138   4.135 -0.1009  0.0633  0.5477
 6379SOL    HW121337   7.828   5.199   4.186 -0.9823  1.8970 -0.6185
 6379SOL    HW221338   7.794   5.052   4.173  0.9808  1.0726  2.4400
 6380SOL     OW21339   3.668   6.901   1.558 -0.1186  0.1182  0.3591
 6380SOL    HW121340   3.690   6.888   1.466  1.6510  3.3162  0.1700
 6380SOL    HW221341   3.642   6.814   1.589  0.6602 -1.3801 -2.7384
 6381SOL     OW21342   3.235   5.957   9.485 -0.0328 -0.1312 -0.0841
 6381SOL    HW121343   3.192   5.903   9.552 -0.8848 -2.6673 -2.5346
 6381SOL    HW221344   3.184   6.038   9.485 -1.2960 -0.8785  0.9583
 6382SOL     OW21345   2.564   2.377   0.174  0.1392 -0.8040  0.0009
 6382SOL    HW121346   2.501   2.321   0.130 -0.6539 -0.2383  0.3828
 6382SOL    HW221347   2.607   2.320   0.238 -1.5891 -0.7363  1.3218
 6383SOL     OW21348   7.194   3.721   7.719  0.2574 -0.2302 -0.3478
 6383SOL    HW121349   7.206   3.677   7.635  0.0811  0.8063 -0.9331
 6383SOL    HW221350   7.148   3.802   7.697  3.2865  1.8225  0.2468
 6384SOL     OW21351   2.724   0.122   4.798 -0.2682 -0.1037 -0.3974
 6384SOL    HW121352   2.747   0.065   4.725  1.6132 -0.6283  0.5468
 6384SOL    HW221353   2.736   0.067   4.876 -0.0247  1.1037  0.4375
 6385SOL     OW21354   5.169   8.478   1.192 -0.2779  0.2993  0.2288
 6385SOL    HW121355   5.114   8.405   1.164 -1.7520  1.2876  0.3758
 6385SOL    HW221356   5.218   8.445   1.267  2.0229 -1.6955 -1.9758
 6386SOL     OW21357   8.150   5.038   2.736 -0.1264 -0.3843  0.7736
 6386SOL    HW121358   8.070   5.077   2.769 -0.2859 -0.7119  0.7824
 6386SOL    HW221359   8.217   5.059   2.801 -0.0040  0.6595  0.3228
 6387SOL     OW21360   2.799   2.741   2.319 -0.2965  0.0380  0.1793
 6387SOL    HW121361   2.856   2.768   2.391  1.4342 -0.3872 -0.9870
 6387SOL    HW221362   2.756   2.662   2.351  0.7482 -0.3675  0.6171
 6388SOL     OW21363   4.269   0.074   3.782 -0.1875 -0.2574  0.4759
 6388SOL    HW121364   4.250   0.083   3.689  0.8876 -2.1789 -0.0005
 6388SOL    HW221365   4.330   0.145   3.802  0.2576 -0.3424 -0.5230
 6389SOL     OW21366   3.873   4.813   6.599  0.2634 -0.2360  0.9518
 6389SOL    HW121367   3.864   4.811   6.694 -0.1048 -0.7112  0.9091
 6389SOL    HW221368   3.840   4.899   6.574 -1.5845 -0.8695  1.0760
 6390SOL     OW21369   4.565   6.372   7.826 -0.0301 -0.0541 -0.1997
 6390SOL    HW121370   4.522   6.317   7.760 -1.7770  0.7099  0.2544
 6390SOL    HW221371   4.598   6.447   7.777 -1.5774  0.6544 -0.2024
 6391SOL     OW21372   1.248   1.793   0.872 -0.5503 -0.2072 -0.0315
 6391SOL    HW121373   1.300   1.740   0.811 -0.9153 -0.0793 -0.4630
 6391SOL    HW221374   1.159   1.758   0.864 -0.7660  0.3674 -0.2183
 6392SOL     OW21375   2.599   6.993   9.016 -0.0715  0.8780  0.3204
 6392SOL    HW121376   2.650   6.933   9.071 -1.3158 -0.1476  0.4017
 6392SOL    HW221377   2.508   6.971   9.034 -0.5702  2.6461  0.1522
 6393SOL     OW21378   8.151   1.243   6.435  0.5050  0.4507  0.7331
 6393SOL    HW121379   8.152   1.163   6.383  1.4022 -0.1085  1.5973
 6393SOL    HW221380   8.124   1.215   6.522  3.4740  0.5749  1.7936
 6394SOL     OW21381   1.118   8.630   8.806 -0.0040  0.2931  0.0353
 6394SOL    HW121382   1.129   8.608   8.898  3.0923  1.1831 -0.0067
 6394SOL    HW221383   1.076   8.716   8.807 -1.6693 -0.4973  0.5180
 6395SOL     OW21384   2.113   0.862   5.063  0.3695 -0.3491 -0.1298
 6395SOL    HW121385   2.184   0.892   5.120  0.1469 -0.3729  0.1665
 6395SOL    HW221386   2.057   0.809   5.121 -0.5712  0.7023 -0.0417
 6396SOL     OW21387   5.230   5.724   8.891  0.3241  0.4430  0.1768
 6396SOL    HW121388   5.196   5.690   8.808 -1.6693  1.3076  0.5631
 6396SOL    HW221389   5.159   5.779   8.925  1.6756  1.3240  1.7355
 6397SOL     OW21390   8.514   2.621   3.767 -0.1181  0.0171 -0.2393
 6397SOL    HW121391   8.587   2.608   3.707  0.9376  1.3318  0.7184
 6397SOL    HW221392   8.554   2.641   3.851 -1.5687  0.7318  0.3244
 6398SOL     OW21393   3.851   3.216   3.838 -0.0825 -0.2452 -0.0037
 6398SOL    HW121394   3.859   3.297   3.889 -2.8598  0.9000 -1.2085
 6398SOL    HW221395   3.799   3.158   3.893 -3.1383  1.0151 -1.3608
 6399SOL     OW21396   8.598   8.672   4.659  0.2898  0.8167 -0.4808
 6399SOL    HW121397   8.510   8.654   4.692  0.6508 -0.2249 -0.0714
 6399SOL    HW221398   8.584   8.697   4.567 -0.4019  0.3043 -0.5246
 6400SOL     OW21399   8.503   7.276   6.263 -0.3411 -0.9888  0.0310
 6400SOL    HW121400   8.440   7.299   6.195  0.0486  0.4414  0.1282
 6400SOL    HW221401   8.551   7.357   6.280  0.3551 -1.6178  1.1860
 6401SOL     OW21402   8.605   2.258   7.288 -0.7511 -0.6946  0.4881
 6401SOL    HW121403   8.621   2.305   7.206 -1.2662 -1.7381 -0.2225
 6401SOL    HW221404   8.653   2.309   7.354  0.8328 -0.6093 -0.6721
 6402SOL     OW21405   9.337   5.941   3.047  0.0479  0.0640  0.1029
 6402SOL    HW121406   9.327   6.033   3.072 -0.4745  0.1627 -0.4414
 6402SOL    HW221407   9.265   5.925   2.986  0.4710 -0.5475 -0.2442
 6403SOL     OW21408   2.348   8.999   5.015  0.0843 -0.5448  0.5091
 6403SOL    HW121409   2.341   9.041   4.930  4.5505  0.0769  0.1907
 6403SOL    HW221410   2.330   8.907   4.998  1.7674 -0.5974 -1.4156
 6404SOL     OW21411   2.358   6.263   2.897 -0.8156  0.1467  0.1878
 6404SOL    HW121412   2.448   6.272   2.930 -0.9168  0.0012  0.5055
 6404SOL    HW221413   2.365   6.282   2.804 -0.5924  0.9558  0.3612
 6405SOL     OW21414   4.872   6.853   7.394 -0.3888 -0.2189 -0.1627
 6405SOL    HW121415   4.780   6.842   7.368 -0.0773 -0.1612 -1.3391
 6405SOL    HW221416   4.921   6.835   7.314  0.6223 -0.1352  0.4337
 6406SOL     OW21417   9.068   6.181   2.286 -0.6661 -0.0753 -0.2241
 6406SOL    HW121418   9.013   6.208   2.213 -1.4605  0.0845  0.4122
 6406SOL    HW221419   9.129   6.253   2.298 -0.4046 -0.1916 -0.8542
 6407SOL     OW21420   0.478   8.900   5.450 -0.1932  0.6017  0.2068
 6407SOL    HW121421   0.392   8.859   5.462  0.7674 -1.9964 -1.0762
 6407SOL    HW221422   0.541   8.833   5.478  1.4619  2.2817  0.7047
 6408SOL     OW21423   4.294   0.605   3.973 -0.5033  0.3859  0.1906
 6408SOL    HW121424   4.331   0.543   4.036  0.4108 -0.3264 -1.0159
 6408SOL    HW221425   4.311   0.691   4.011  1.5891  0.0442  0.1163
 6409SOL     OW21426   1.295   6.955   7.728 -0.0311 -0.1970 -0.5103
 6409SOL    HW121427   1.228   6.886   7.726  0.1598 -0.3761 -0.8517
 6409SOL    HW221428   1.363   6.924   7.669  0.7983 -0.4520  0.5499
 6410SOL     OW21429   5.255   3.419   5.877  0.4158  0.2007  0.4773
 6410SOL    HW121430   5.350   3.431   5.881  0.7775 -2.2319  1.5276
 6410SOL    HW221431   5.221   3.468   5.952  1.0531 -0.1795  1.0282
 6411SOL     OW21432   9.270   6.194   7.451 -0.1968 -0.4052 -0.3046
 6411SOL    HW121433   9.306   6.145   7.377 -0.8634  0.8568 -1.5078
 6411SOL    HW221434   9.339   6.190   7.518  0.9163 -0.5901 -1.4212
 6412SOL     OW21435   5.915   5.131   0.943 -0.2505  0.2134  0.1801
 6412SOL    HW121436   5.902   5.217   0.903  1.4972  0.0242 -0.9157
 6412SOL    HW221437   5.962   5.150   1.024  1.5390  0.2379 -0.8172
 6413SOL     OW21438   5.307   5.015   2.686  0.1986  0.2556 -0.1755
 6413SOL    HW121439   5.246   5.033   2.758  0.3068 -0.1718  0.0224
 6413SOL    HW221440   5.269   5.061   2.611  0.4811  1.3564  0.3309
 6414SOL     OW21441   3.128   5.547   6.273  0.2128  0.1163  0.4844
 6414SOL    HW121442   3.188   5.549   6.198  0.3622  2.1706  0.5887
 6414SOL    HW221443   3.049   5.505   6.239  0.1256  1.3525 -0.9952
 6415SOL     OW21444   1.541   6.324   8.329 -0.7491 -0.3167  0.1689
 6415SOL    HW121445   1.543   6.405   8.380 -2.4194  0.1642 -0.4571
 6415SOL    HW221446   1.452   6.290   8.342 -0.9206 -0.6641 -1.6531
 6416SOL     OW21447   4.915   9.048   3.034 -0.3435  0.0539  0.0273
 6416SOL    HW121448   4.895   9.014   2.947  1.3200 -1.1715  0.0753
 6416SOL    HW221449   4.878   9.136   3.035 -0.0625  0.2415 -2.0701
 6417SOL     OW21450   1.212   3.869   5.398  0.1678  0.0069 -0.1768
 6417SOL    HW121451   1.196   3.794   5.457 -1.8447 -0.5239 -1.3147
 6417SOL    HW221452   1.282   3.839   5.339 -0.5746 -0.9642 -0.5790
 6418SOL     OW21453   1.354   8.336   6.721 -0.1179 -0.1717 -0.7336
 6418SOL    HW121454   1.383   8.392   6.793 -0.8458 -1.8952  0.9607
 6418SOL    HW221455   1.261   8.357   6.710 -0.0865 -0.1493 -0.9651
 6419SOL     OW21456   2.634   8.223   0.488  0.5511 -0.1053  0.0412
 6419SOL    HW121457   2.704   8.216   0.423  0.3240 -0.7865 -0.1372
 6419SOL    HW221458   2.676   8.201   0.571  0.6811  0.0678  0.0208
 6420SOL     OW21459   6.161   7.255   2.122 -0.1383  0.1143  0.6429
 6420SOL    HW121460   6.244   7.238   2.167 -0.1570  0.3231  0.7597
 6420SOL    HW221461   6.122   7.328   2.172  1.0081  2.1146 -1.2085
 6421SOL     OW21462   6.067   5.534   0.969 -0.1725 -0.2168 -0.8063
 6421SOL    HW121463   6.009   5.476   0.920 -0.3026 -2.1849  1.4876
 6421SOL    HW221464   6.145   5.482   0.987  0.5714  0.9954 -0.3513
 6422SOL     OW21465   8.812   2.847   8.688 -0.5715  0.7427  0.1079
 6422SOL    HW121466   8.868   2.865   8.763 -0.1121 -0.2666  0.0130
 6422SOL    HW221467   8.823   2.924   8.631  0.4039  0.7434  0.2800
 6423SOL     OW21468   8.535   3.590   1.890 -0.1780  0.2854 -0.7945
 6423SOL    HW121469   8.475   3.534   1.842 -1.2045 -0.2562  1.0241
 6423SOL    HW221470   8.554   3.542   1.971  0.8494  1.4844 -0.2733
 6424SOL     OW21471   1.008   2.641   3.678 -0.3720  0.0432 -0.0695
 6424SOL    HW121472   0.945   2.578   3.714  0.2180  0.3525  1.5770
 6424SOL    HW221473   0.965   2.675   3.599 -0.8124 -2.1988 -0.8669
 6425SOL     OW21474   0.701   5.409   4.093  0.0282 -0.1000 -0.0159
 6425SOL    HW121475   0.753   5.370   4.022  1.3326  3.0094 -0.9300
 6425SOL    HW221476   0.765   5.431   4.160 -0.6744  0.3681  0.5071
 6426SOL     OW21477   8.424   6.781   5.270  0.1642 -0.2721 -0.1587
 6426SOL    HW121478   8.420   6.687   5.285 -1.8842 -0.0594  0.9598
 6426SOL    HW221479   8.460   6.817   5.351 -0.8136  0.0267  0.1610
 6427SOL     OW21480   6.310   0.433   4.481 -0.2480 -0.1464  0.4841
 6427SOL    HW121481   6.260   0.514   4.479 -0.7751 -0.3976  2.1776
 6427SOL    HW221482   6.394   0.456   4.442 -0.1504  1.3865  1.5229
 6428SOL     OW21483   1.800   5.703   0.330  0.4077  0.0353 -0.2256
 6428SOL    HW121484   1.757   5.695   0.245 -0.4897 -0.9377  0.2982
 6428SOL    HW221485   1.789   5.617   0.371 -0.1626  0.7933  1.3258
 6429SOL     OW21486   7.328   5.374   9.041  0.0161 -0.8231  0.1986
 6429SOL    HW121487   7.304   5.454   9.088 -2.0169 -1.9208  1.1483
 6429SOL    HW221488   7.408   5.345   9.084  1.6280  1.3952 -1.1079
 6430SOL     OW21489   9.263   8.927   0.429 -0.2875  0.3430  0.2145
 6430SOL    HW121490   9.220   8.952   0.347  0.5070  1.9352  0.2445
 6430SOL    HW221491   9.219   8.846   0.455 -0.5786 -0.1882 -1.7529
 6431SOL     OW21492   9.212   6.648   2.194 -0.2488 -0.4167  0.1719
 6431SOL    HW121493   9.133   6.643   2.140 -0.6978  0.1896  0.7487
 6431SOL    HW221494   9.202   6.729   2.244  2.4290  1.6422 -2.2996
 6432SOL     OW21495   6.520   1.047   0.640  0.2833  0.2844 -0.4253
 6432SOL    HW121496   6.451   1.000   0.594 -0.6595  0.7538  0.4865
 6432SOL    HW221497   6.599   1.032   0.587 -0.5229 -0.1870 -1.5171
 6433SOL     OW21498   0.858   6.086   8.666  0.1323  0.1607  0.0662
 6433SOL    HW121499   0.835   6.127   8.749 -0.9034 -0.2590 -0.0012
 6433SOL    HW221500   0.796   6.123   8.603  0.0219 -0.5403 -0.2452
 6434SOL     OW21501   2.822   7.941   0.909 -0.0928  0.2992  0.1575
 6434SOL    HW121502   2.886   7.890   0.959  1.7357  0.7618 -1.5612
 6434SOL    HW221503   2.738   7.898   0.926  1.2257 -2.8322 -0.5550
 6435SOL     OW21504   2.354   5.121   6.288  0.6160 -0.2532 -0.2155
 6435SOL    HW121505   2.367   5.066   6.365 -0.7855 -0.5795 -0.1789
 6435SOL    HW221506   2.438   5.165   6.275  2.0937 -2.9992 -0.7184
 6436SOL     OW21507   0.784   1.543   4.390 -0.5432 -0.0501 -0.1166
 6436SOL    HW121508   0.691   1.552   4.412 -0.8676  0.7245 -1.7052
 6436SOL    HW221509   0.805   1.621   4.340  0.6535 -0.8110 -0.8403
 6437SOL     OW21510   0.524   6.704   4.172  0.1504 -0.0696 -0.0287
 6437SOL    HW121511   0.556   6.742   4.254 -3.8987  0.3597  1.5507
 6437SOL    HW221512   0.581   6.628   4.158  2.1851  0.9230  2.0667
 6438SOL     OW21513   4.113   7.808   3.024 -0.0770 -0.0491 -0.1649
 6438SOL    HW121514   4.185   7.869   3.004 -0.0926 -0.1805 -0.6279
 6438SOL    HW221515   4.034   7.859   3.010 -0.0937  0.5997  1.8993
 6439SOL     OW21516   3.760   6.331   3.167  0.3903  0.9451 -0.3236
 6439SOL    HW121517   3.768   6.403   3.229 -0.9102  0.9761 -0.1721
 6439SOL    HW221518   3.842   6.282   3.177  0.4698  1.2984  0.9609
 6440SOL     OW21519   6.943   5.403   8.816 -0.0574 -0.2982 -0.0634
 6440SOL    HW121520   6.946   5.325   8.871  1.7482 -0.1956  0.0429
 6440SOL    HW221521   7.021   5.396   8.761  0.4973  1.7279  0.3982
 6441SOL     OW21522   6.642   5.131   6.112 -0.1157  0.2363  0.2076
 6441SOL    HW121523   6.710   5.137   6.045  0.5305 -0.2221  0.8113
 6441SOL    HW221524   6.690   5.129   6.195 -0.9805  3.4064  0.9084
 6442SOL     OW21525   0.165   4.131   8.549 -0.7813 -0.0600  0.5670
 6442SOL    HW121526   0.132   4.219   8.568  0.4426  0.3706  0.7618
 6442SOL    HW221527   0.187   4.095   8.634  1.3288  0.5181  0.3164
 6443SOL     OW21528   9.339   9.031   9.234  0.0094  0.6249 -0.0928
 6443SOL    HW121529   9.304   9.114   9.204  0.1695  0.4222 -0.8637
 6443SOL    HW221530   9.306   9.022   9.324 -0.3445  1.3182 -0.1465
 6444SOL     OW21531   9.079   6.907   2.265 -0.0423  0.3160  0.1911
 6444SOL    HW121532   9.001   6.875   2.218  0.1476  1.0400 -0.6546
 6444SOL    HW221533   9.066   6.878   2.355 -1.4831  0.7358  0.1478
 6445SOL     OW21534   4.767   0.554   6.556  0.6095  0.2428 -0.5470
 6445SOL    HW121535   4.789   0.562   6.463  2.9828 -1.9796 -0.2925
 6445SOL    HW221536   4.718   0.472   6.562 -3.4331  2.4257 -0.2783
 6446SOL     OW21537   0.980   4.061   8.696 -0.6422 -0.0622 -0.2239
 6446SOL    HW121538   1.005   3.977   8.658 -1.1327 -0.1567 -0.3420
 6446SOL    HW221539   0.962   4.117   8.621  2.1037  0.9388 -0.2386
 6447SOL     OW21540   7.897   5.034   9.579 -0.1324  0.4009 -0.2679
 6447SOL    HW121541   7.940   5.028   9.665  2.2157 -1.9719 -1.4637
 6447SOL    HW221542   7.805   5.017   9.598  0.4198 -0.7431  1.7308
 6448SOL     OW21543   6.137   9.423   4.075 -0.6342 -0.1569 -0.1732
 6448SOL    HW121544   6.166   9.461   3.992  0.8190 -1.9322 -0.5360
 6448SOL    HW221545   6.079   9.352   4.051 -3.0338  1.4441  0.4956
 6449SOL     OW21546   6.758   3.178   1.182 -0.3970  0.2065 -0.2252
 6449SOL    HW121547   6.835   3.164   1.236 -0.6339  0.3077  0.1444
 6449SOL    HW221548   6.781   3.253   1.126 -0.2373  0.2533 -0.0968
 6450SOL     OW21549   1.428   5.128   6.205 -0.1853 -1.2182  0.2850
 6450SOL    HW121550   1.396   5.156   6.119  0.5370  1.2565  0.7239
 6450SOL    HW221551   1.353   5.136   6.263  0.2921  1.6510  0.7074
 6451SOL     OW21552   7.570   7.797   5.152 -0.3297 -0.2159  1.0080
 6451SOL    HW121553   7.494   7.789   5.211 -0.3511  0.6074  1.1023
 6451SOL    HW221554   7.636   7.841   5.205 -0.7907  1.7618  0.0491
 6452SOL     OW21555   6.057   1.393   3.077 -0.1669  0.2527 -0.1244
 6452SOL    HW121556   6.150   1.370   3.084 -0.1572  0.3986  0.2959
 6452SOL    HW221557   6.055   1.467   3.016  0.0403  0.4899  0.1475
 6453SOL     OW21558   0.098   1.504   6.807 -0.7549  0.8463  0.5994
 6453SOL    HW121559   0.016   1.488   6.760 -0.1750  0.9806 -0.4905
 6453SOL    HW221560   0.083   1.587   6.853 -1.1181  1.0359  0.1473
 6454SOL     OW21561   2.933   7.248   9.264 -0.0089 -0.2197 -0.1416
 6454SOL    HW121562   3.010   7.257   9.209  0.1147 -1.7776 -0.2666
 6454SOL    HW221563   2.965   7.209   9.345 -0.7389 -1.7696 -0.5421
 6455SOL     OW21564   7.817   7.466   7.356 -0.0445 -0.2399 -0.1922
 6455SOL    HW121565   7.851   7.528   7.291 -1.1563  0.1253 -0.4299
 6455SOL    HW221566   7.806   7.517   7.436 -0.5807 -0.2197 -0.2769
 6456SOL     OW21567   2.379   3.750   6.744 -0.1421  0.4408  0.4573
 6456SOL    HW121568   2.360   3.839   6.716 -1.6180  0.3325  1.0245
 6456SOL    HW221569   2.384   3.700   6.663 -0.1435  0.8786  0.1819
 6457SOL     OW21570   3.265   6.476   0.991  0.4012  0.7620  0.2303
 6457SOL    HW121571   3.353   6.440   0.994  0.3560  0.6230 -0.0641
 6457SOL    HW221572   3.207   6.400   0.999  0.2603  1.0713  3.6267
 6458SOL     OW21573   7.360   2.279   2.706 -0.4785  0.0627 -0.3066
 6458SOL    HW121574   7.402   2.229   2.636  0.0074  0.9106 -0.6466
 6458SOL    HW221575   7.307   2.216   2.753  0.0771 -0.7521 -0.7523
 6459SOL     OW21576   1.068   8.556   6.389  0.3306  0.3603 -0.2599
 6459SOL    HW121577   1.161   8.542   6.408  0.1501  0.4947  0.7567
 6459SOL    HW221578   1.047   8.490   6.323  0.8184 -0.5648  0.4826
 6460SOL     OW21579   2.345   0.002   0.236 -0.4617 -0.1818  0.1034
 6460SOL    HW121580   2.377  -0.085   0.262 -0.5007  0.0439  0.9295
 6460SOL    HW221581   2.363   0.007   0.143 -2.5831 -2.0306 -0.5003
 6461SOL     OW21582   4.481   2.430   2.477  0.0535  0.2724 -0.0624
 6461SOL    HW121583   4.434   2.347   2.469  2.3430 -0.9378 -2.1588
 6461SOL    HW221584   4.527   2.440   2.394  0.6657  3.1664  0.5213
 6462SOL     OW21585   1.668   4.685   8.265 -0.0922 -0.0658 -0.1522
 6462SOL    HW121586   1.713   4.763   8.297 -1.9991  0.1016  2.4363
 6462SOL    HW221587   1.713   4.612   8.308 -1.6383  0.0437  1.7463
 6463SOL     OW21588   5.707   0.509   9.392  0.7623 -0.1774 -0.2237
 6463SOL    HW121589   5.758   0.588   9.375  0.6466  0.0688  0.5247
 6463SOL    HW221590   5.616   0.537   9.384  0.7242 -0.3126 -0.2719
 6464SOL     OW21591   4.678   5.915   0.098 -0.4808  0.3967 -0.0703
 6464SOL    HW121592   4.747   5.854   0.071 -0.9837  0.3681 -1.3743
 6464SOL    HW221593   4.720   6.001   0.099 -0.4129  0.3729 -0.8255
 6465SOL     OW21594   0.013   5.947   6.482  0.0977  0.6965 -0.0827
 6465SOL    HW121595   0.015   6.020   6.543  0.6128 -1.0126  2.0610
 6465SOL    HW221596   0.064   5.977   6.406 -0.8654  3.0077  0.0994
 6466SOL     OW21597   5.606   6.575   5.776 -0.2072  0.5599  0.4390
 6466SOL    HW121598   5.653   6.645   5.822 -2.0702 -0.0108  3.4551
 6466SOL    HW221599   5.569   6.618   5.699 -1.2693  2.9902  2.1714
 6467SOL     OW21600   2.363   2.530   3.103  0.6283  0.1350  0.4068
 6467SOL    HW121601   2.429   2.493   3.045 -0.8175 -1.2169 -0.4708
 6467SOL    HW221602   2.403   2.526   3.190  1.6567 -0.7970 -0.0773
 6468SOL     OW21603   2.688   0.745   4.242  0.6696  0.7921 -0.4559
 6468SOL    HW121604   2.680   0.718   4.150 -1.1816  0.9674 -0.3898
 6468SOL    HW221605   2.698   0.663   4.290 -0.8843  0.4755 -0.6210
 6469SOL     OW21606   6.274   3.354   4.927 -0.4536  0.1686  0.8419
 6469SOL    HW121607   6.228   3.270   4.921  0.3874 -0.2087 -1.4251
 6469SOL    HW221608   6.208   3.419   4.906 -0.3908 -0.2286 -0.6757
 6470SOL     OW21609   2.891   1.545   7.847  0.0588  0.0232  0.7228
 6470SOL    HW121610   2.975   1.584   7.824  0.9913  0.3919  4.1344
 6470SOL    HW221611   2.827   1.613   7.829  0.9181  0.9044  0.8939
 6471SOL     OW21612   5.525   2.132   6.011  0.2401  0.3531  0.6189
 6471SOL    HW121613   5.493   2.173   6.091  0.2674 -0.0615  0.8484
 6471SOL    HW221614   5.620   2.139   6.015  0.2098  1.0977  0.2015
 6472SOL     OW21615   7.499   4.649   4.204  0.0589  0.4504 -0.6575
 6472SOL    HW121616   7.501   4.722   4.142 -0.5738 -0.3130 -1.6149
 6472SOL    HW221617   7.536   4.575   4.156  1.0049  0.2074  0.4112
 6473SOL     OW21618   8.114   3.160   2.556  0.3207 -0.6125 -0.0650
 6473SOL    HW121619   8.081   3.078   2.594  0.0208 -0.8555 -0.8283
 6473SOL    HW221620   8.068   3.168   2.473  0.3999  0.3060 -0.0257
 6474SOL     OW21621   7.992   9.367   5.546 -0.1791 -0.2873  0.1985
 6474SOL    HW121622   8.058   9.299   5.563  0.3023 -0.1830 -1.1325
 6474SOL    HW221623   8.043   9.448   5.539 -0.4087 -0.2490 -1.1231
 6475SOL     OW21624   6.365   9.064   5.075  0.4215  0.0643 -0.6836
 6475SOL    HW121625   6.379   9.005   5.001 -1.1223  0.2129 -1.1451
 6475SOL    HW221626   6.270   9.069   5.084  0.5444 -0.7348  1.9762
 6476SOL     OW21627   5.187   8.022   6.653 -0.1087  0.3726  0.2941
 6476SOL    HW121628   5.139   8.097   6.620 -1.2328 -0.8640 -1.0336
 6476SOL    HW221629   5.138   7.994   6.731 -1.1293 -0.3971 -0.5928
 6477SOL     OW21630   0.163   3.157   5.179  0.4210 -0.4523 -0.8750
 6477SOL    HW121631   0.117   3.211   5.114  1.0342  1.8667  0.5260
 6477SOL    HW221632   0.255   3.178   5.168  0.4685  0.7337  1.3361
 6478SOL     OW21633   3.029   5.513   1.168  0.6719 -0.5946  0.2242
 6478SOL    HW121634   3.032   5.540   1.260  0.6454  1.3609 -0.3138
 6478SOL    HW221635   3.120   5.497   1.144  0.7654 -0.2338  0.3417
 6479SOL     OW21636   8.683   2.280   1.199  0.1472 -0.3510  0.1410
 6479SOL    HW121637   8.776   2.270   1.178 -0.4916 -2.4213 -2.1120
 6479SOL    HW221638   8.667   2.215   1.267 -0.2345 -2.4109 -1.7917
 6480SOL     OW21639   1.136   7.658   0.345  0.2328  0.3619 -0.3069
 6480SOL    HW121640   1.162   7.731   0.400 -1.0260  0.4175  0.2647
 6480SOL    HW221641   1.043   7.645   0.365  0.6347 -2.0136  0.3413
 6481SOL     OW21642   5.275   3.672   9.336  0.3851  0.2181 -0.0859
 6481SOL    HW121643   5.325   3.655   9.256  0.9207  1.0871  0.0480
 6481SOL    HW221644   5.232   3.756   9.320 -3.1746 -1.6161 -1.2147
 6482SOL     OW21645   9.011   0.096   1.494 -0.0980  0.4891  0.4488
 6482SOL    HW121646   8.917   0.103   1.476 -0.1963  2.7277  1.4164
 6482SOL    HW221647   9.050   0.171   1.449  1.1802 -0.1492  0.4325
 6483SOL     OW21648   7.083   5.594   3.469 -0.3948  0.6620  0.1195
 6483SOL    HW121649   7.154   5.657   3.479  1.0415 -0.9852  0.7949
 6483SOL    HW221650   7.126   5.509   3.469 -2.3926 -0.4126  0.6835
 6484SOL     OW21651   2.016   4.303   9.373  0.0992 -0.2486  0.0125
 6484SOL    HW121652   1.933   4.254   9.374  0.0740 -0.5115  4.1401
 6484SOL    HW221653   2.083   4.235   9.363 -0.0816 -0.4992  0.4794
 6485SOL     OW21654   3.372   0.564   4.554  0.1994 -0.5688 -0.2098
 6485SOL    HW121655   3.350   0.557   4.461  1.0610  2.3950 -0.7649
 6485SOL    HW221656   3.466   0.547   4.557 -0.2352 -3.2717  0.6146
 6486SOL     OW21657   5.438   3.525   3.867 -0.2091 -0.0396  0.1468
 6486SOL    HW121658   5.391   3.607   3.879  1.1705  0.4752  2.9511
 6486SOL    HW221659   5.375   3.457   3.893 -0.5524  0.3486  0.3348
 6487SOL     OW21660   7.490   8.937   7.869 -0.6608  0.0044  0.3065
 6487SOL    HW121661   7.395   8.947   7.866 -0.5787  0.6673 -0.3735
 6487SOL    HW221662   7.524   9.024   7.846  0.1139 -0.1391  0.8424
 6488SOL     OW21663   0.792   2.877   1.591 -0.5797 -0.6317  0.2351
 6488SOL    HW121664   0.835   2.827   1.522  0.0417 -0.9300  0.8201
 6488SOL    HW221665   0.803   2.823   1.670 -1.1247 -0.2224  0.5997
 6489SOL     OW21666   7.894   1.858   7.803 -0.1198  0.2548 -0.6282
 6489SOL    HW121667   7.959   1.918   7.767 -0.2505  0.9189  0.2323
 6489SOL    HW221668   7.924   1.840   7.892 -1.0380  0.4721 -0.2647
 6490SOL     OW21669   1.750   2.624   0.898 -0.3651 -0.1210 -0.1462
 6490SOL    HW121670   1.688   2.696   0.906 -0.0133  0.2443 -0.7121
 6490SOL    HW221671   1.766   2.615   0.805  0.4589 -0.1924 -0.0053
 6491SOL     OW21672   4.809   1.710   2.318  0.7495  0.5620  0.0104
 6491SOL    HW121673   4.717   1.687   2.306  0.0276  2.9898  0.3677
 6491SOL    HW221674   4.824   1.701   2.412  1.6872 -2.2865 -0.3023
 6492SOL     OW21675   5.455   5.610   7.572 -0.0506  0.5935 -0.2598
 6492SOL    HW121676   5.423   5.546   7.508 -0.1476  0.1052  0.2630
 6492SOL    HW221677   5.388   5.678   7.573  0.4434  1.1226 -1.4116
 6493SOL     OW21678   7.038   3.874   2.568 -0.4951  0.0999  0.1318
 6493SOL    HW121679   7.050   3.856   2.662 -0.2364 -0.2749  0.0326
 6493SOL    HW221680   7.082   3.957   2.554  2.2666 -1.3052 -0.2460
 6494SOL     OW21681   8.251   5.493   3.458  0.2934  0.5721  0.2019
 6494SOL    HW121682   8.170   5.538   3.479  0.0957  0.3462 -0.0788
 6494SOL    HW221683   8.261   5.503   3.364 -1.1740 -2.2665 -0.3767
 6495SOL     OW21684   8.578   6.763   0.621  0.5297  0.5048 -0.5564
 6495SOL    HW121685   8.647   6.827   0.637  0.4792  0.5124 -0.3686
 6495SOL    HW221686   8.621   6.694   0.570  0.6027  0.6489 -0.6924
 6496SOL     OW21687   6.984   0.864   6.967  0.3939  0.4375  0.8669
 6496SOL    HW121688   7.075   0.871   6.996  0.1549  0.5100  1.6396
 6496SOL    HW221689   6.988   0.816   6.884  1.1290  0.3995  0.9191
 6497SOL     OW21690   2.717   9.438   0.931  0.2118  0.0236  0.2284
 6497SOL    HW121691   2.764   9.467   0.853  0.3784 -1.4414 -0.2298
 6497SOL    HW221692   2.738   9.505   0.997  0.6512  0.8838 -0.7627
 6498SOL     OW21693   6.634   6.102   1.024  0.3815 -0.0697  0.3814
 6498SOL    HW121694   6.566   6.036   1.036 -0.7784  0.7040 -1.5568
 6498SOL    HW221695   6.598   6.181   1.064  0.5354  0.1086  0.1702
 6499SOL     OW21696   0.124   8.129   4.836 -0.1582  0.1762  0.2347
 6499SOL    HW121697   0.165   8.064   4.779  0.0220  0.4719  0.0306
 6499SOL    HW221698   0.116   8.084   4.921 -2.3870 -1.0461 -0.5264
 6500SOL     OW21699   2.852   7.188   1.531 -0.1388 -0.3196  0.5798
 6500SOL    HW121700   2.773   7.148   1.495 -0.0284  0.2595 -0.3259
 6500SOL    HW221701   2.836   7.282   1.526  0.9408 -0.1634 -0.4165
 6501SOL     OW21702   2.465   5.738   7.925  0.4798 -0.3306 -0.0517
 6501SOL    HW121703   2.533   5.701   7.982 -1.7405 -2.7059  1.2916
 6501SOL    HW221704   2.500   5.822   7.896  2.8269 -0.2136  2.7293
 6502SOL     OW21705   0.405   3.475   5.615 -0.0700  0.0944  0.6616
 6502SOL    HW121706   0.370   3.523   5.540  1.3080 -0.3875 -0.3392
 6502SOL    HW221707   0.328   3.450   5.666 -0.8898  2.6875  0.8442
 6503SOL     OW21708   1.956   7.506   2.234  0.1193 -0.5128  0.0476
 6503SOL    HW121709   1.961   7.601   2.245 -1.0991 -0.5300  0.8906
 6503SOL    HW221710   1.888   7.493   2.167 -1.7721 -0.8578  1.9507
 6504SOL     OW21711   0.365   3.041   6.711  0.1419 -0.3280 -0.4448
 6504SOL    HW121712   0.300   3.109   6.698  0.0542 -0.6215 -1.6608
 6504SOL    HW221713   0.439   3.067   6.656  0.6941 -0.4697  0.2119
 6505SOL     OW21714   7.898   7.560   1.093  0.1128 -0.3232 -0.0753
 6505SOL    HW121715   7.957   7.599   1.029 -0.5168  0.6678 -0.0852
 6505SOL    HW221716   7.901   7.466   1.076  0.1377 -0.0953 -1.4079
 6506SOL     OW21717   2.086   0.104   5.404 -0.3009 -0.2501 -0.8553
 6506SOL    HW121718   2.001   0.060   5.399 -0.9463  1.0567 -2.0276
 6506SOL    HW221719   2.064   0.197   5.407  1.0675  0.0637  0.1747
 6507SOL     OW21720   2.657   4.214   5.347  0.0389 -0.3864 -0.9402
 6507SOL    HW121721   2.713   4.145   5.383  0.6791  1.0156  0.9028
 6507SOL    HW221722   2.694   4.295   5.381 -2.1059  0.7155 -1.0670
 6508SOL     OW21723   2.228   8.653   4.379  0.5335  0.0858 -0.0102
 6508SOL    HW121724   2.205   8.561   4.372 -1.0013  0.5120 -1.4238
 6508SOL    HW221725   2.177   8.695   4.309  1.1398  2.0047  0.6409
 6509SOL     OW21726   9.166   8.947   1.253 -0.1972 -0.2117  0.2248
 6509SOL    HW121727   9.074   8.947   1.226 -0.6476  0.8483  1.6555
 6509SOL    HW221728   9.212   8.991   1.182 -0.9876  0.3731  0.0569
 6510SOL     OW21729   9.373   6.572   0.913  0.0604 -0.1693 -0.0520
 6510SOL    HW121730   9.290   6.586   0.957  0.3224 -0.2461  0.4841
 6510SOL    HW221731   9.421   6.654   0.923  0.2239 -0.2730  0.0395
 6511SOL     OW21732   5.896   6.032   3.958  0.1712  0.1076  0.2636
 6511SOL    HW121733   5.944   6.115   3.950  0.0217  0.1786  0.0863
 6511SOL    HW221734   5.860   6.017   3.871 -2.5941  1.5640  1.0523
 6512SOL     OW21735   4.157   4.389   0.268 -0.8979  0.5466 -0.1894
 6512SOL    HW121736   4.249   4.394   0.244 -1.5686  1.9188 -2.9301
 6512SOL    HW221737   4.124   4.312   0.222 -1.0173 -0.4309  1.4407
 6513SOL     OW21738   5.406   8.489   2.376  0.0130 -0.2731  0.4296
 6513SOL    HW121739   5.318   8.467   2.343 -0.0979 -1.2129  1.3057
 6513SOL    HW221740   5.459   8.497   2.297 -0.8610  0.3285 -0.1197
 6514SOL     OW21741   3.117   3.604   5.077  0.2107  0.1701  0.2401
 6514SOL    HW121742   3.150   3.518   5.106 -3.8384 -1.5226  0.4148
 6514SOL    HW221743   3.117   3.657   5.156 -1.5019 -1.2225  1.2425
 6515SOL     OW21744   0.363   5.371   2.242 -0.6322  0.6553  0.4823
 6515SOL    HW121745   0.287   5.321   2.213  0.0465 -0.7227  0.9991
 6515SOL    HW221746   0.352   5.457   2.201 -1.6611 -0.0054 -0.7164
 6516SOL     OW21747   5.602   8.512   0.659 -0.0349 -0.2027 -0.7114
 6516SOL    HW121748   5.514   8.481   0.639 -1.0259  0.9627  1.4721
 6516SOL    HW221749   5.629   8.563   0.583 -1.7263  0.3613 -0.9603
 6517SOL     OW21750   5.685   0.066   8.364  1.0356 -0.6409  0.4669
 6517SOL    HW121751   5.754   0.014   8.324  1.9771  0.9431 -0.0611
 6517SOL    HW221752   5.636   0.102   8.290  0.0920 -1.1554  0.8289
 6518SOL     OW21753   7.282   5.756   2.345 -0.1854  0.4445 -0.7151
 6518SOL    HW121754   7.235   5.718   2.270  0.8046 -1.0730 -0.6182
 6518SOL    HW221755   7.262   5.696   2.418 -0.0951  1.1783 -0.0741
 6519SOL     OW21756   8.144   1.936   3.204 -0.2048 -0.7194  0.5574
 6519SOL    HW121757   8.228   1.981   3.205 -0.1258 -0.8024  2.7505
 6519SOL    HW221758   8.095   1.979   3.134  0.6129  1.3475  1.1706
 6520SOL     OW21759   7.481   9.225   7.528 -0.2030 -0.2989  0.8048
 6520SOL    HW121760   7.471   9.319   7.544  1.1528  0.0458 -0.2009
 6520SOL    HW221761   7.407   9.202   7.472  0.3195  0.5243 -0.2528
 6521SOL     OW21762   7.747   2.293   3.536  0.2923  0.2195  0.1285
 6521SOL    HW121763   7.758   2.255   3.623 -1.0938 -1.1301 -0.2497
 6521SOL    HW221764   7.836   2.299   3.502  0.7013 -1.3083  0.8104
 6522SOL     OW21765   5.916   9.165   4.471 -0.5198  0.2337 -0.0973
 6522SOL    HW121766   5.884   9.079   4.443  0.2997  0.4478 -1.7804
 6522SOL    HW221767   5.840   9.206   4.512 -1.0146 -1.1549  0.4412
 6523SOL     OW21768   1.360   0.360   1.849  0.0032  0.0660  0.1341
 6523SOL    HW121769   1.333   0.292   1.910 -0.2332 -0.8807 -0.9767
 6523SOL    HW221770   1.450   0.337   1.826 -0.5624 -0.8183 -1.4074
 6524SOL     OW21771   1.277   6.725   0.798 -0.0680  0.3883  0.1133
 6524SOL    HW121772   1.371   6.746   0.794 -0.1019  0.4629 -0.3030
 6524SOL    HW221773   1.260   6.712   0.891  0.5019 -0.2918  0.1327
 6525SOL     OW21774   4.157   2.699   2.822  0.5197 -0.4903 -0.0547
 6525SOL    HW121775   4.192   2.645   2.751  1.5533 -0.1303  0.1715
 6525SOL    HW221776   4.233   2.722   2.875 -0.2557 -0.9549  1.3229
 6526SOL     OW21777   1.557   0.065   3.877 -0.2176 -0.0955 -0.0876
 6526SOL    HW121778   1.652   0.056   3.878 -0.2164 -0.0662  0.3436
 6526SOL    HW221779   1.524  -0.024   3.864 -0.1583 -0.4335  1.7035
 6527SOL     OW21780   5.543   5.997   8.679 -0.0473  0.2722  0.3593
 6527SOL    HW121781   5.625   6.001   8.630  0.8882 -3.5354  1.2509
 6527SOL    HW221782   5.483   6.052   8.630  2.4171  1.3740 -1.6450
 6528SOL     OW21783   7.997   6.528   1.685 -0.1954 -0.3195 -0.1727
 6528SOL    HW121784   8.036   6.616   1.691 -2.9018  0.9246  0.8688
 6528SOL    HW221785   7.940   6.533   1.609 -0.4264 -1.1662 -0.0561
 6529SOL     OW21786   3.844   5.442   7.222 -0.0371  0.0280  0.9089
 6529SOL    HW121787   3.765   5.388   7.217 -0.3403  0.4375  1.2260
 6529SOL    HW221788   3.871   5.452   7.131 -1.6405  1.7483  0.5663
 6530SOL     OW21789   8.552   2.013   4.968 -0.0836 -0.3902 -0.6864
 6530SOL    HW121790   8.597   2.085   5.012 -0.6603 -0.5828  0.2421
 6530SOL    HW221791   8.613   1.985   4.899  0.8839 -0.1488  0.0461
 6531SOL     OW21792   6.466   6.261   2.089 -0.7302 -0.7206  0.2057
 6531SOL    HW121793   6.467   6.219   2.175  2.6200 -0.6170  0.3424
 6531SOL    HW221794   6.436   6.351   2.106 -0.5765 -0.8495  1.2047
 6532SOL     OW21795   7.948   5.539   0.054 -0.0976 -0.2062  0.3227
 6532SOL    HW121796   7.986   5.451   0.055 -0.1651 -0.2339  0.4594
 6532SOL    HW221797   8.022   5.597   0.070  0.1180 -0.1730 -0.7251
 6533SOL     OW21798   9.242   8.402   3.316 -0.2613  0.4094 -0.4422
 6533SOL    HW121799   9.207   8.483   3.279 -0.5153 -0.2195 -1.6342
 6533SOL    HW221800   9.325   8.388   3.272 -0.2161  0.0248 -0.2448
 6534SOL     OW21801   1.869   7.658   9.376  0.2388 -0.1572  0.0253
 6534SOL    HW121802   1.813   7.687   9.304  1.2147  0.3225 -0.5544
 6534SOL    HW221803   1.884   7.565   9.360 -2.0983 -0.8474  1.3509
 6535SOL     OW21804   5.899   6.489   8.551  0.1981  0.7208 -0.2304
 6535SOL    HW121805   5.959   6.555   8.514 -0.6139  0.7974 -1.4869
 6535SOL    HW221806   5.882   6.519   8.640  1.7160  0.9065  0.0270
 6536SOL     OW21807   0.107   0.786   3.101 -0.6716 -0.1409  0.3185
 6536SOL    HW121808   0.075   0.852   3.040 -1.1515 -0.6997 -0.0566
 6536SOL    HW221809   0.036   0.721   3.105  0.3297 -1.3193 -0.3801
 6537SOL     OW21810   6.528   5.314   4.937  0.5971  0.4666 -0.4583
 6537SOL    HW121811   6.530   5.330   5.031 -0.2035  0.9918 -0.5179
 6537SOL    HW221812   6.525   5.401   4.898  0.2531  0.2444 -0.9415
 6538SOL     OW21813   3.053   5.911   8.748  0.2493 -0.3781  0.1865
 6538SOL    HW121814   3.109   5.972   8.701  0.6297 -0.1202  0.9565
 6538SOL    HW221815   3.054   5.831   8.695  2.2488 -0.7652  0.7218
 6539SOL     OW21816   1.333   7.967   3.347 -0.1614 -0.2880  0.6000
 6539SOL    HW121817   1.392   7.948   3.420  0.0769  0.4863  0.6227
 6539SOL    HW221818   1.381   8.030   3.294 -0.5413 -0.4606  0.0399
 6540SOL     OW21819   9.552   2.371   7.698  1.0479 -0.1303  0.3827
 6540SOL    HW121820   9.590   2.455   7.670 -1.0394  0.8071  0.1947
 6540SOL    HW221821   9.553   2.318   7.618 -2.5485  1.6634 -1.0823
 6541SOL     OW21822   6.326   6.470   8.395  0.0700 -0.0652  0.9104
 6541SOL    HW121823   6.402   6.427   8.434  0.5383 -1.4566 -1.3602
 6541SOL    HW221824   6.251   6.426   8.435  0.4468  0.4312  2.2168
 6542SOL     OW21825   3.979   0.298   0.880  0.0539  0.1712  0.0419
 6542SOL    HW121826   3.949   0.387   0.893  0.0923  0.4429 -1.5391
 6542SOL    HW221827   3.914   0.243   0.923 -0.0140  0.9471  0.9424
 6543SOL     OW21828   6.297   1.406   6.056 -0.4850  0.6809  0.0179
 6543SOL    HW121829   6.243   1.385   6.132 -0.3326  1.4220  0.3441
 6543SOL    HW221830   6.371   1.456   6.092 -0.7640  1.6434 -0.6835
 6544SOL     OW21831   3.612   1.409   7.602  0.0332 -0.1364 -0.4528
 6544SOL    HW121832   3.572   1.428   7.687  0.8419  1.6533 -0.4017
 6544SOL    HW221833   3.706   1.408   7.621  0.2253  0.4588 -1.3395
 6545SOL     OW21834   7.399   1.618   1.358 -0.0961 -0.7134  0.3788
 6545SOL    HW121835   7.484   1.654   1.383  0.6278 -0.3832 -2.2955
 6545SOL    HW221836   7.349   1.693   1.327 -1.5113 -0.8788  2.0647
 6546SOL     OW21837   4.387   7.631   6.856 -0.2734 -0.3414  0.2870
 6546SOL    HW121838   4.410   7.718   6.823 -0.4077 -0.5294 -0.3186
 6546SOL    HW221839   4.330   7.648   6.931  1.9140  0.1418  1.9595
 6547SOL     OW21840   0.691   2.386   6.152  0.1625  0.0945  0.3700
 6547SOL    HW121841   0.785   2.407   6.150  0.1692  0.1363  0.9936
 6547SOL    HW221842   0.685   2.309   6.207 -0.3181  0.9303  1.5156
 6548SOL     OW21843   1.223   1.162   0.412  0.1120  0.1241  0.1792
 6548SOL    HW121844   1.170   1.151   0.333 -1.6488  1.5817  1.0885
 6548SOL    HW221845   1.275   1.082   0.417 -0.8295 -0.6559 -1.6336
 6549SOL     OW21846   3.173   4.435   4.043  0.2198  0.1382  0.0267
 6549SOL    HW121847   3.209   4.411   4.128 -0.4391 -1.4492 -0.0994
 6549SOL    HW221848   3.078   4.431   4.054  0.1233 -0.4029 -0.8462
 6550SOL     OW21849   7.830   4.004   2.910  0.7333  0.2932 -0.4101
 6550SOL    HW121850   7.843   4.030   2.819 -2.1251  0.1529 -0.9441
 6550SOL    HW221851   7.856   4.081   2.961  0.3750  1.1402 -1.4685
 6551SOL     OW21852   7.630   1.420   2.227 -0.0491 -0.1655  0.3349
 6551SOL    HW121853   7.684   1.378   2.161  0.7465 -1.5956  1.8010
 6551SOL    HW221854   7.541   1.417   2.192  0.2562 -1.5179 -0.3635
 6552SOL     OW21855   8.959   5.585   2.167 -0.1077  0.5106 -0.1000
 6552SOL    HW121856   8.986   5.514   2.109  0.6853  0.2541  0.5781
 6552SOL    HW221857   8.873   5.558   2.199  0.3517 -0.3449  0.4531
 6553SOL     OW21858   0.074   9.558   7.331  0.6085 -0.1199  0.0944
 6553SOL    HW121859   0.134   9.503   7.382 -0.1738 -0.2653  0.8686
 6553SOL    HW221860   0.097   9.648   7.356  0.2859 -0.1870  0.6421
 6554SOL     OW21861   0.965   4.446   8.400 -0.2958 -0.2364  0.0030
 6554SOL    HW121862   0.989   4.418   8.312  0.1111  2.6870 -0.9160
 6554SOL    HW221863   0.880   4.489   8.388 -1.3353 -1.7866  1.4800
 6555SOL     OW21864   7.998   9.227   0.447 -0.5192  0.4546 -0.2165
 6555SOL    HW121865   8.091   9.227   0.468 -0.9314 -0.5994  1.8419
 6555SOL    HW221866   7.977   9.134   0.432 -1.7306  0.3115  1.9932
 6556SOL     OW21867   1.594   0.949   6.665 -0.2393 -0.3337  0.0076
 6556SOL    HW121868   1.649   0.875   6.686 -0.1183 -0.1851  0.2192
 6556SOL    HW221869   1.514   0.935   6.715 -1.0482 -1.3566 -1.4874
 6557SOL     OW21870   4.352   0.819   5.613 -0.2465  0.5142 -0.0560
 6557SOL    HW121871   4.334   0.809   5.707 -1.7567 -1.2818 -0.4705
 6557SOL    HW221872   4.433   0.769   5.599 -0.2442  0.4338  0.2368
 6558SOL     OW21873   2.392   2.272   0.830 -0.3220  0.3397 -0.0579
 6558SOL    HW121874   2.372   2.277   0.924  0.1537  0.1774  0.0530
 6558SOL    HW221875   2.431   2.186   0.818 -1.5304 -0.1595 -0.6319
 6559SOL     OW21876   7.851   7.287   8.799 -0.5579 -0.1290 -0.1105
 6559SOL    HW121877   7.849   7.196   8.829  1.0161 -0.4855 -0.9876
 6559SOL    HW221878   7.881   7.281   8.708  0.8131  1.3547  0.2105
 6560SOL     OW21879   9.166   3.498   3.721 -0.1792 -0.2095  0.0991
 6560SOL    HW121880   9.250   3.543   3.729 -1.5836  2.3360  1.9788
 6560SOL    HW221881   9.126   3.536   3.643 -0.2827 -0.1804  0.1664
 6561SOL     OW21882   1.876   5.788   7.054  0.1437  0.3914  0.5070
 6561SOL    HW121883   1.906   5.858   7.113  1.7098 -0.6471  1.0244
 6561SOL    HW221884   1.945   5.722   7.060 -0.8252 -0.7689 -0.7214
 6562SOL     OW21885   4.671   7.628   4.316  0.2181  0.1032  0.8811
 6562SOL    HW121886   4.605   7.621   4.385  1.1055  0.3519  1.7835
 6562SOL    HW221887   4.753   7.649   4.363  0.6890  1.0813 -0.3087
 6563SOL     OW21888   5.208   6.176   8.037 -0.2303  0.9039 -0.6493
 6563SOL    HW121889   5.251   6.253   8.077 -0.7465  1.0419 -0.3571
 6563SOL    HW221890   5.281   6.123   8.005  0.1295  1.8243 -1.4461
 6564SOL     OW21891   4.538   2.009   7.115 -0.1541 -0.5109  0.3797
 6564SOL    HW121892   4.534   2.026   7.021  3.9510 -1.4594 -0.1711
 6564SOL    HW221893   4.572   2.090   7.153 -1.5784 -0.2118  1.1008
 6565SOL     OW21894   4.712   0.086   1.318 -0.3150 -0.4787 -0.2356
 6565SOL    HW121895   4.797   0.108   1.282  0.2654 -2.1052  0.0799
 6565SOL    HW221896   4.675   0.022   1.257 -0.6595 -0.9112  0.4081
 6566SOL     OW21897   3.511   1.475   2.055 -0.4412  0.4291  0.3897
 6566SOL    HW121898   3.428   1.523   2.060 -0.3025  0.7763 -0.4328
 6566SOL    HW221899   3.486   1.383   2.068 -0.6442  0.7282  2.5120
 6567SOL     OW21900   9.010   2.671   8.186 -0.1284 -0.3035  0.0284
 6567SOL    HW121901   9.029   2.700   8.276  2.3532  0.3948 -0.6422
 6567SOL    HW221902   9.067   2.596   8.173 -0.9342 -0.7888 -0.7933
 6568SOL     OW21903   8.783   6.913   0.680  0.5610  0.3387  0.4941
 6568SOL    HW121904   8.848   6.956   0.736 -0.2430  2.1167  0.1589
 6568SOL    HW221905   8.833   6.862   0.618  1.9490  4.0855 -1.7818
 6569SOL     OW21906   6.055   8.480   5.662  0.0417  0.2262  0.1953
 6569SOL    HW121907   5.967   8.442   5.649  0.5292 -1.9535  2.4638
 6569SOL    HW221908   6.045   8.539   5.736  0.7730 -1.5268  1.7780
 6570SOL     OW21909   0.288   2.692   6.911 -0.3027 -0.1167 -0.4524
 6570SOL    HW121910   0.293   2.618   6.972 -0.6079  1.0536  1.0641
 6570SOL    HW221911   0.194   2.712   6.907 -0.4430 -0.9581 -2.3427
 6571SOL     OW21912   4.942   8.114   8.539  0.4270  0.0371  0.1143
 6571SOL    HW121913   4.901   8.030   8.522 -1.6167  0.7326  1.2751
 6571SOL    HW221914   4.898   8.175   8.480 -0.6097  0.8759  1.6855
 6572SOL     OW21915   8.315   5.599   5.247  0.0225 -0.2992  0.7834
 6572SOL    HW121916   8.389   5.639   5.201 -0.6180 -1.6777 -1.6497
 6572SOL    HW221917   8.284   5.667   5.306  0.8148  1.7124 -0.9755
 6573SOL     OW21918   8.008   8.132   6.785  0.8805 -0.0892 -0.0208
 6573SOL    HW121919   7.936   8.078   6.817  0.2844  0.3667 -0.5801
 6573SOL    HW221920   7.968   8.216   6.765  1.6802  0.3538  0.2166
 6574SOL     OW21921   0.277   8.859   2.714  0.1469  0.1272  0.5382
 6574SOL    HW121922   0.308   8.945   2.686 -0.1594  0.4750  1.2403
 6574SOL    HW221923   0.267   8.809   2.633  0.0844  0.8338  0.1036
 6575SOL     OW21924   4.077   4.591   9.088  0.1296 -0.8782 -0.1588
 6575SOL    HW121925   4.016   4.550   9.027 -0.2645 -1.2729  0.4980
 6575SOL    HW221926   4.044   4.569   9.175  0.5589 -0.1312  0.2076
 6576SOL     OW21927   5.550   6.892   1.993  0.1137 -0.2380 -0.4596
 6576SOL    HW121928   5.490   6.921   1.924  2.1394 -0.3790 -2.3785
 6576SOL    HW221929   5.584   6.808   1.962  3.1302  0.9472 -0.7274
 6577SOL     OW21930   6.433   6.560   2.687 -0.0852 -0.2108 -0.3669
 6577SOL    HW121931   6.423   6.508   2.607  1.7886 -2.4313  0.7296
 6577SOL    HW221932   6.526   6.581   2.691 -0.3930  1.1687  0.5222
 6578SOL     OW21933   1.731   6.618   6.663 -0.3783 -0.4301  0.0311
 6578SOL    HW121934   1.756   6.668   6.586 -0.2022 -1.2772 -0.4784
 6578SOL    HW221935   1.793   6.645   6.730  0.3653 -0.7039 -0.5297
 6579SOL     OW21936   3.900   9.286   1.057  0.3752 -0.2354  0.1104
 6579SOL    HW121937   3.858   9.274   1.142  1.7716 -0.8052  0.7659
 6579SOL    HW221938   3.835   9.256   0.994 -0.6731  0.1500  0.9761
 6580SOL     OW21939   3.162   6.237   9.255  0.3088  0.3881  0.2758
 6580SOL    HW121940   3.109   6.304   9.212  0.8333  0.1846 -0.7211
 6580SOL    HW221941   3.175   6.170   9.187  1.3112  0.1447  0.6975
 6581SOL     OW21942   8.187   6.615   3.022 -0.7455 -0.1423 -0.1848
 6581SOL    HW121943   8.169   6.689   3.080 -0.4052  0.2064 -0.5119
 6581SOL    HW221944   8.102   6.574   3.007 -0.9307  0.1578  0.0337
 6582SOL     OW21945   0.591   0.371   0.754 -0.4133  0.0369 -0.2156
 6582SOL    HW121946   0.629   0.351   0.669 -2.2006 -2.1695 -0.5922
 6582SOL    HW221947   0.662   0.411   0.804  2.2141 -3.0595 -1.1416
 6583SOL     OW21948   2.707   2.059   7.750 -0.1094  0.0456  0.2713
 6583SOL    HW121949   2.640   2.119   7.716  0.7576  1.3591  0.7774
 6583SOL    HW221950   2.688   2.052   7.843 -0.1609 -0.4200  0.2271
 6584SOL     OW21951   0.778   2.923   1.176 -0.0947 -0.1050  0.0904
 6584SOL    HW121952   0.721   2.970   1.116 -0.4440  0.1006  0.5777
 6584SOL    HW221953   0.778   2.976   1.256  1.1756  0.1648 -0.0629
 6585SOL     OW21954   8.744   3.943   9.328 -0.1574 -0.3070  0.0342
 6585SOL    HW121955   8.731   4.034   9.300 -1.5963  0.0685  1.7335
 6585SOL    HW221956   8.707   3.890   9.258 -3.0563  0.5661  0.7896
 6586SOL     OW21957   2.951   5.426   5.038 -0.1102 -0.3104  0.4133
 6586SOL    HW121958   2.997   5.465   4.963 -0.4937 -1.4472 -0.4504
 6586SOL    HW221959   3.021   5.391   5.093  0.1174 -1.9593 -0.8532
 6587SOL     OW21960   3.137   4.117   3.563 -0.1570  0.0236  0.1257
 6587SOL    HW121961   3.229   4.117   3.591 -0.1512 -2.0877  0.2902
 6587SOL    HW221962   3.129   4.039   3.508 -1.5108  1.0250 -1.1474
 6588SOL     OW21963   3.162   5.378   5.238  0.1419 -0.6452 -0.1253
 6588SOL    HW121964   3.115   5.365   5.320 -0.7893  0.9208 -0.3675
 6588SOL    HW221965   3.223   5.304   5.233 -0.6125 -1.4125  1.3782
 6589SOL     OW21966   4.553   7.460   8.947  0.2917 -0.0396 -0.2016
 6589SOL    HW121967   4.588   7.547   8.927  0.4860  0.0449  0.4623
 6589SOL    HW221968   4.493   7.441   8.875  1.6180 -0.1495 -1.3170
 6590SOL     OW21969   3.709   1.154   1.391  0.2499  0.4213 -0.1433
 6590SOL    HW121970   3.679   1.112   1.472  0.8613 -1.2043 -0.7053
 6590SOL    HW221971   3.796   1.187   1.412  0.8324 -0.8840 -0.3690
 6591SOL     OW21972   3.748   2.431   6.106 -0.3861  0.2825 -0.7845
 6591SOL    HW121973   3.686   2.501   6.123  0.3783  0.7405  0.1926
 6591SOL    HW221974   3.833   2.467   6.130  0.0089 -1.0214 -0.0953
 6592SOL     OW21975   4.958   4.897   2.688 -0.1459  0.7867 -0.1884
 6592SOL    HW121976   5.017   4.924   2.617 -0.1715 -0.0894 -0.5590
 6592SOL    HW221977   4.964   4.802   2.689 -2.3837  0.5517 -1.0065
 6593SOL     OW21978   0.404   8.928   9.110  0.3438 -0.2651  0.4135
 6593SOL    HW121979   0.437   8.973   9.187  1.2283 -2.1806  1.2240
 6593SOL    HW221980   0.455   8.847   9.106 -1.2265 -1.2529 -0.8865
 6594SOL     OW21981   9.179   4.698   1.265  0.2983  0.1570 -0.3622
 6594SOL    HW121982   9.234   4.672   1.338  0.9567  2.0471 -0.1265
 6594SOL    HW221983   9.121   4.623   1.250 -0.2652 -0.0876  2.4697
 6595SOL     OW21984   3.353   2.106   7.113 -0.4109  0.2830 -0.1815
 6595SOL    HW121985   3.419   2.037   7.121 -1.0786 -0.2222  1.3043
 6595SOL    HW221986   3.400   2.187   7.133 -0.3442 -0.1391  1.4419
 6596SOL     OW21987   1.542   6.533   0.542 -0.0592 -0.1288 -0.0159
 6596SOL    HW121988   1.453   6.524   0.576  0.3040  0.2191  1.0499
 6596SOL    HW221989   1.562   6.447   0.505 -0.4031 -0.5751  0.8131
 6597SOL     OW21990   2.481   5.575   1.057 -0.4837  0.1742 -0.2499
 6597SOL    HW121991   2.531   5.549   0.980 -0.7457  0.1667 -0.4179
 6597SOL    HW221992   2.415   5.507   1.068  0.1168 -0.3044  0.5172
 6598SOL     OW21993   8.195   2.050   2.609 -0.0893 -0.4781 -0.3404
 6598SOL    HW121994   8.163   1.960   2.610  1.9205 -1.2916  2.2272
 6598SOL    HW221995   8.274   2.048   2.555 -0.3656 -0.0741 -0.7770
 6599SOL     OW21996   1.982   9.166   0.316 -0.6758 -0.3452 -0.5891
 6599SOL    HW121997   1.997   9.144   0.224 -0.7531 -1.7929 -0.2872
 6599SOL    HW221998   1.896   9.208   0.317 -0.9061 -0.7895 -1.1260
 6600SOL     OW21999   8.228   4.821   5.519  0.4213 -0.0228  0.5131
 6600SOL    HW122000   8.182   4.886   5.466 -0.2459  0.3550  1.5315
 6600SOL    HW222001   8.301   4.870   5.558  0.5251 -0.1428  0.4713
 6601SOL     OW22002   3.153   0.394   7.657 -0.4303 -0.3002  0.1404
 6601SOL    HW122003   3.135   0.367   7.567  2.3278 -2.4560  0.1105
 6601SOL    HW222004   3.197   0.479   7.649 -0.1413 -0.5116 -0.5352
 6602SOL     OW22005   2.010   1.909   2.185 -0.0314 -0.4172 -0.1312
 6602SOL    HW122006   1.956   1.947   2.254 -0.4578 -0.8045 -0.2459
 6602SOL    HW222007   1.986   1.816   2.184  0.9498 -0.6868  0.1049
 6603SOL     OW22008   5.686   6.597   3.875  0.0454 -0.2806 -0.0836
 6603SOL    HW122009   5.662   6.513   3.913 -0.6486 -0.4551 -0.8791
 6603SOL    HW222010   5.776   6.612   3.905  0.1333 -1.2420  0.1717
 6604SOL     OW22011   3.136   6.747   1.053 -0.6785 -0.3603 -0.2499
 6604SOL    HW122012   3.179   6.674   1.097 -1.2943  0.4743  1.8954
 6604SOL    HW222013   3.046   6.717   1.039 -0.3349 -0.8523 -1.6144
 6605SOL     OW22014   7.386   3.485   1.792  0.3930 -0.6565 -0.1896
 6605SOL    HW122015   7.358   3.394   1.783 -2.0889 -0.1321  1.3009
 6605SOL    HW222016   7.390   3.500   1.886 -0.1805  0.9944 -0.3879
 6606SOL     OW22017   3.245   4.123   8.616 -0.0918 -0.3811  0.1250
 6606SOL    HW122018   3.225   4.066   8.542 -0.3804 -0.1390  0.0157
 6606SOL    HW222019   3.258   4.209   8.577  1.1385 -0.5176  0.1952
 6607SOL     OW22020   0.036   4.128   3.316 -0.3267 -0.3255  0.8492
 6607SOL    HW122021   0.096   4.195   3.286 -2.0377  1.0627  0.3501
 6607SOL    HW222022  -0.008   4.098   3.237  1.3972 -3.1765  0.8276
 6608SOL     OW22023   6.723   3.779   7.841 -0.2274 -0.0915 -0.4151
 6608SOL    HW122024   6.793   3.728   7.800 -0.3520  0.7633 -1.7642
 6608SOL    HW222025   6.753   3.793   7.931  0.1390 -1.8864 -0.2262
 6609SOL     OW22026   0.147   7.334   0.742  0.3612 -0.5644 -0.6010
 6609SOL    HW122027   0.124   7.260   0.798  2.0371 -1.2047 -0.7174
 6609SOL    HW222028   0.168   7.294   0.658  0.3333  0.1547 -0.9575
 6610SOL     OW22029   3.629   4.708   8.557 -0.1134 -0.3365 -0.0849
 6610SOL    HW122030   3.645   4.797   8.526  1.0130  0.1636  1.7435
 6610SOL    HW222031   3.690   4.654   8.507 -1.1761 -0.1797 -1.5822
 6611SOL     OW22032   2.807   0.737   3.608  0.1302  0.2840 -0.5634
 6611SOL    HW122033   2.834   0.658   3.657 -0.8161 -0.1492 -0.7227
 6611SOL    HW222034   2.861   0.735   3.529  1.6555  0.9738  0.4150
 6612SOL     OW22035   8.137   1.948   6.540  0.5897  0.0532 -0.3789
 6612SOL    HW122036   8.228   1.918   6.543  0.5041 -0.2463 -0.6729
 6612SOL    HW222037   8.132   1.999   6.459 -0.0128 -1.6418 -1.4519
 6613SOL     OW22038   5.499   2.262   5.192  0.1161 -0.0495  0.4690
 6613SOL    HW122039   5.551   2.336   5.221  0.9267 -0.3595 -0.1632
 6613SOL    HW222040   5.434   2.249   5.262  0.7915  0.4260  1.1946
 6614SOL     OW22041   0.984   4.015   2.862 -0.0234 -0.4240 -0.1389
 6614SOL    HW122042   0.947   4.102   2.845 -0.6910 -0.5895  0.4156
 6614SOL    HW222043   1.050   4.003   2.794 -0.2703  0.3162 -0.5178
 6615SOL     OW22044   2.581   5.765   7.325 -0.3748  0.5029  0.1210
 6615SOL    HW122045   2.622   5.843   7.361 -0.2247  0.3243  0.3443
 6615SOL    HW222046   2.583   5.777   7.230  0.2061  0.4867  0.1309
 6616SOL     OW22047   2.326   7.739   4.985 -0.6073 -0.1437  0.5853
 6616SOL    HW122048   2.320   7.652   5.024 -0.4005  0.2152  1.4530
 6616SOL    HW222049   2.277   7.795   5.046  0.8467  0.6644  1.0665
 6617SOL     OW22050   7.506   6.673   9.144 -0.7277 -0.4117  0.1515
 6617SOL    HW122051   7.429   6.623   9.169 -0.2361 -0.9875  0.5573
 6617SOL    HW222052   7.525   6.729   9.219 -1.7694  1.0376 -0.6212
 6618SOL     OW22053   6.908   9.023   8.878 -0.0796  0.3918  0.2812
 6618SOL    HW122054   6.968   9.060   8.813 -0.7044  1.2932  0.2047
 6618SOL    HW222055   6.914   8.929   8.864  1.0976  0.4768  0.0803
 6619SOL     OW22056   2.422   3.381   0.423 -0.3008  0.3911  0.4405
 6619SOL    HW122057   2.413   3.336   0.339  0.5741 -1.2811  1.1915
 6619SOL    HW222058   2.516   3.394   0.434 -0.5037  2.0718  0.4590
 6620SOL     OW22059   8.656   6.191   6.024  0.1416  0.3859 -0.1522
 6620SOL    HW122060   8.631   6.266   5.971 -0.0960 -0.0244 -0.6290
 6620SOL    HW222061   8.748   6.207   6.046  0.0741  0.8474 -0.1872
 6621SOL     OW22062   7.054   3.886   2.857  0.4847  0.5731 -0.1881
 6621SOL    HW122063   7.021   3.975   2.869  1.4223  1.1303 -1.4762
 6621SOL    HW222064   7.143   3.889   2.893 -0.3746 -0.5960  2.2021
 6622SOL     OW22065   4.446   0.209   5.171  0.6998 -0.2206 -0.0750
 6622SOL    HW122066   4.414   0.192   5.083  0.5874  0.6858 -0.2211
 6622SOL    HW222067   4.381   0.269   5.208  1.4540  0.4693  0.1492
 6623SOL     OW22068   5.874   3.180   3.418  0.2438  0.0459 -0.1677
 6623SOL    HW122069   5.881   3.096   3.464 -0.4136  0.2471  0.3167
 6623SOL    HW222070   5.780   3.190   3.402  0.3306  0.6482 -0.3091
 6624SOL     OW22071   0.913   9.393   4.396 -0.7502 -0.1230 -0.0828
 6624SOL    HW122072   0.974   9.320   4.384 -0.8353 -0.0179 -1.2032
 6624SOL    HW222073   0.957   9.468   4.357 -0.7437  0.4050  0.9062
 6625SOL     OW22074   3.108   2.307   7.318  0.4166 -0.1778  0.5284
 6625SOL    HW122075   3.085   2.214   7.317  1.4040 -0.4824 -1.7794
 6625SOL    HW222076   3.132   2.326   7.227 -0.6908  2.5987  0.7312
 6626SOL     OW22077   4.624   0.758   0.817  0.4924 -0.2415 -0.2779
 6626SOL    HW122078   4.645   0.665   0.807  0.5930 -0.2478 -0.0232
 6626SOL    HW222079   4.574   0.763   0.899 -0.2853 -0.1915 -0.7436
 6627SOL     OW22080   0.294   6.940   4.976  0.0717 -0.1843 -0.2743
 6627SOL    HW122081   0.383   6.975   4.986  0.2625 -1.0741  1.4500
 6627SOL    HW222082   0.285   6.927   4.881  1.5862  0.3704 -0.5365
 6628SOL     OW22083   5.026   0.261   0.706 -0.2000 -0.6271  0.1705
 6628SOL    HW122084   4.968   0.320   0.658  0.7416  0.9782  0.9395
 6628SOL    HW222085   4.978   0.178   0.708 -2.0514  0.3711 -0.0586
 6629SOL     OW22086   5.116   0.855   0.938 -0.1545  0.1078 -0.1351
 6629SOL    HW122087   5.088   0.943   0.911  0.0021  0.0299 -0.5571
 6629SOL    HW222088   5.084   0.797   0.868  0.4836 -0.0660 -0.2851
 6630SOL     OW22089   5.020   0.723   7.669  0.2318  0.7276  0.6079
 6630SOL    HW122090   4.945   0.692   7.719  0.2256 -0.4716 -0.1125
 6630SOL    HW222091   5.050   0.800   7.717 -0.6024  0.4132  1.6811
 6631SOL     OW22092   0.440   9.473   4.154  0.4560  0.3242 -0.1955
 6631SOL    HW122093   0.519   9.476   4.208  1.1441  0.2873 -1.1777
 6631SOL    HW222094   0.398   9.559   4.167  1.8380  1.2206 -1.3636
 6632SOL     OW22095   2.734   8.055   4.513 -0.6683  0.3398  0.1918
 6632SOL    HW122096   2.714   7.968   4.546 -2.4085  0.8699  0.6008
 6632SOL    HW222097   2.658   8.108   4.536  0.4234  2.0139  0.0831
 6633SOL     OW22098   5.941   8.132   4.806  0.1024 -0.1637 -0.0112
 6633SOL    HW122099   5.883   8.061   4.830  0.9945 -0.6512  0.7937
 6633SOL    HW222100   5.985   8.156   4.888  0.6890  0.4983 -0.5022
 6634SOL     OW22101   5.095   1.673   0.177 -0.1075 -0.0707  0.2246
 6634SOL    HW122102   5.062   1.589   0.144 -0.2452  0.5638 -1.3756
 6634SOL    HW222103   5.178   1.685   0.131  0.1742  0.4316  0.8530
 6635SOL     OW22104   6.746   8.381   7.426  0.1728 -0.4283  1.2252
 6635SOL    HW122105   6.657   8.356   7.452  0.8954 -3.7195  0.9294
 6635SOL    HW222106   6.748   8.370   7.331 -0.1523  3.7976  0.4959
 6636SOL     OW22107   6.383   5.722   8.461 -0.0081 -0.4794  0.0946
 6636SOL    HW122108   6.392   5.685   8.549  1.6888  1.0622  0.6117
 6636SOL    HW222109   6.463   5.696   8.416 -0.0879  0.2019 -0.4448
 6637SOL     OW22110   6.544   2.119   6.768  0.6923 -0.6653  0.1707
 6637SOL    HW122111   6.564   2.206   6.733 -1.4791 -0.2259 -0.1436
 6637SOL    HW222112   6.619   2.096   6.822  1.2464  1.4826  0.3786
 6638SOL     OW22113   8.688   4.512   2.492 -0.0911  0.1274  0.2994
 6638SOL    HW122114   8.757   4.550   2.438 -0.0265  1.2667  1.1439
 6638SOL    HW222115   8.629   4.585   2.511 -1.3647 -0.7525 -0.1235
 6639SOL     OW22116   6.089   2.366   0.615 -0.2629  0.3779 -0.5462
 6639SOL    HW122117   6.085   2.459   0.591  0.7282  0.6581  0.2883
 6639SOL    HW222118   6.173   2.337   0.582 -0.6669 -0.2979 -0.9989
 6640SOL     OW22119   4.546   9.080   8.320 -0.4310  0.0064  0.2135
 6640SOL    HW122120   4.586   9.161   8.351  0.7500 -0.7924  0.8764
 6640SOL    HW222121   4.490   9.051   8.392 -0.2083 -0.1899  0.3079
 6641SOL     OW22122   7.867   3.452   0.384  0.0459 -0.6572 -0.7466
 6641SOL    HW122123   7.808   3.527   0.381  0.3887 -0.3448  0.0070
 6641SOL    HW222124   7.949   3.485   0.345  0.7357 -0.1075  1.0477
 6642SOL     OW22125   6.164   7.984   3.585 -0.0085  0.4620 -0.0839
 6642SOL    HW122126   6.206   7.905   3.549 -0.8974  0.8478 -2.1516
 6642SOL    HW222127   6.099   7.950   3.647  2.1068 -0.2076  1.8664
 6643SOL     OW22128   3.653   2.271   8.384  0.1718  0.2511 -0.3908
 6643SOL    HW122129   3.689   2.270   8.473 -0.9847  0.4420  0.1001
 6643SOL    HW222130   3.619   2.182   8.371  0.1885  0.2715 -0.5806
 6644SOL     OW22131   5.867   1.486   0.577 -0.0719 -0.2756 -0.6365
 6644SOL    HW122132   5.954   1.473   0.614 -0.2425  0.8914  0.2474
 6644SOL    HW222133   5.868   1.438   0.494  1.8924  0.8493 -1.3238
 6645SOL     OW22134   7.178   6.474   5.533 -0.0913  0.3027  0.0242
 6645SOL    HW122135   7.249   6.456   5.471 -2.4295 -0.2583 -2.7141
 6645SOL    HW222136   7.221   6.484   5.617  3.1242 -0.8146 -1.3470
 6646SOL     OW22137   8.101   9.204   8.514 -0.2383  0.1077  0.1957
 6646SOL    HW122138   8.083   9.225   8.423 -0.1670  1.7901  0.5423
 6646SOL    HW222139   8.081   9.111   8.522  1.4115 -0.4907 -1.9396
 6647SOL     OW22140   3.875   1.073   8.162 -0.2340  0.4524 -0.0640
 6647SOL    HW122141   3.893   0.982   8.138 -1.3337  0.2591 -0.1917
 6647SOL    HW222142   3.928   1.088   8.241 -0.5189 -0.4848  0.3132
 6648SOL     OW22143   3.073   0.246   8.301  0.2102 -0.3844 -0.5063
 6648SOL    HW122144   3.124   0.322   8.273 -0.8049 -0.5305 -3.0331
 6648SOL    HW222145   2.982   0.269   8.282 -0.5034 -0.9193  1.9923
 6649SOL     OW22146   7.727   6.782   1.997  0.1935 -0.2143 -0.8738
 6649SOL    HW122147   7.662   6.728   1.953  0.7298 -1.2954 -0.3869
 6649SOL    HW222148   7.785   6.719   2.040  0.8874  0.7546 -0.3498
 6650SOL     OW22149   8.870   7.376   1.706  0.0402 -0.4762 -0.1570
 6650SOL    HW122150   8.961   7.390   1.679 -0.8726  0.9686 -2.7902
 6650SOL    HW222151   8.829   7.329   1.633 -1.1943 -1.8863  1.3373
 6651SOL     OW22152   8.075   2.139   4.200  0.2448 -0.2702 -0.8292
 6651SOL    HW122153   8.157   2.181   4.226 -0.0488 -1.3276  2.2501
 6651SOL    HW222154   8.054   2.178   4.115  3.3527  0.8107 -1.2494
 6652SOL     OW22155   9.077   6.714   2.786  0.3741 -0.0878  0.6023
 6652SOL    HW122156   9.055   6.735   2.696  1.5741 -2.3170 -0.2844
 6652SOL    HW222157   9.021   6.771   2.839 -0.4968  1.1147 -1.5333
 6653SOL     OW22158   9.236   1.768   7.173 -0.1793  0.5754  0.4817
 6653SOL    HW122159   9.174   1.726   7.232 -0.8260 -1.1131 -1.3092
 6653SOL    HW222160   9.183   1.832   7.125  0.3009  1.7976  1.5344
 6654SOL     OW22161   4.048   4.053   9.430  0.4289 -0.1151  0.1225
 6654SOL    HW122162   4.076   4.136   9.391  0.3812 -0.2094 -0.1171
 6654SOL    HW222163   4.083   3.986   9.370  1.7215 -0.3407  1.0835
 6655SOL     OW22164   1.037   0.576   3.339 -0.1653  0.5773 -0.3545
 6655SOL    HW122165   1.014   0.527   3.418 -0.4477  1.8134  0.3517
 6655SOL    HW222166   1.042   0.510   3.270  0.9004 -0.6601  0.8517
 6656SOL     OW22167   4.022   3.935   2.290 -0.1274  0.3530  0.3705
 6656SOL    HW122168   4.090   3.876   2.321 -0.8187 -1.2211 -0.9650
 6656SOL    HW222169   4.027   3.930   2.195 -2.5045 -0.3060  0.2273
 6657SOL     OW22170   8.197   7.364   9.079 -0.3971 -0.3395 -0.0450
 6657SOL    HW122171   8.247   7.344   9.000 -1.0829  0.9998 -0.8664
 6657SOL    HW222172   8.238   7.443   9.114 -1.0174 -0.0661  0.0861
 6658SOL     OW22173   0.125   0.670   8.140 -0.3240 -0.3682 -0.7350
 6658SOL    HW122174   0.072   0.707   8.211 -0.3217  1.6437 -1.7196
 6658SOL    HW222175   0.210   0.653   8.180 -0.4020  0.4915 -0.1949
 6659SOL     OW22176   4.828   3.290   8.781  0.2610 -0.4103 -0.3731
 6659SOL    HW122177   4.811   3.355   8.849  1.5530 -0.1007 -0.3212
 6659SOL    HW222178   4.903   3.240   8.813  0.8176 -0.3403 -1.4951
 6660SOL     OW22179   8.848   8.856   3.645 -0.6497  0.9498  0.2289
 6660SOL    HW122180   8.824   8.924   3.581  0.0615  2.4469  1.4897
 6660SOL    HW222181   8.790   8.872   3.719 -0.5199  0.1230  0.5164
 6661SOL     OW22182   0.794   2.134   1.358  0.3193  0.1079 -0.6245
 6661SOL    HW122183   0.826   2.224   1.359  0.0903  0.2098 -1.9393
 6661SOL    HW222184   0.719   2.135   1.299  0.1367 -0.8953 -0.4322
 6662SOL     OW22185   8.196   2.812   0.429  0.5574  0.3175 -0.0423
 6662SOL    HW122186   8.178   2.721   0.405 -1.2413  0.6000  0.0369
 6662SOL    HW222187   8.227   2.807   0.519 -0.0729 -0.1874  0.1555
 6663SOL     OW22188   5.776   9.318   2.548 -0.2464  0.1453 -0.0306
 6663SOL    HW122189   5.858   9.291   2.508 -0.6482 -0.8728 -0.1979
 6663SOL    HW222190   5.709   9.296   2.483 -1.0436 -2.7005  1.5964
 6664SOL     OW22191   5.414   2.195   6.604 -0.0092 -0.1531 -0.0586
 6664SOL    HW122192   5.398   2.112   6.649 -1.4125  0.2023  0.1322
 6664SOL    HW222193   5.504   2.187   6.571  0.1742 -1.4024  0.6757
 6665SOL     OW22194   2.715   5.305   2.343 -0.3168 -0.4108  0.4573
 6665SOL    HW122195   2.693   5.223   2.298 -0.1786 -0.3601  0.2944
 6665SOL    HW222196   2.799   5.332   2.304 -0.0191 -0.5495  0.9939
 6666SOL     OW22197   0.489   7.820   5.480 -0.0108  0.5304  0.4412
 6666SOL    HW122198   0.441   7.829   5.562 -1.9250 -0.1776 -0.5329
 6666SOL    HW222199   0.449   7.885   5.422  0.5116  0.2229 -0.2713
 6667SOL     OW22200   9.514   2.536   2.742 -0.0813 -0.4355  0.0528
 6667SOL    HW122201   9.471   2.599   2.801  2.6062  1.2451  0.3611
 6667SOL    HW222202   9.461   2.456   2.751 -2.1453  0.9765  1.6048
 6668SOL     OW22203   2.907   5.838   6.900  0.5372  0.1713 -0.0344
 6668SOL    HW122204   2.882   5.772   6.965  0.1825  0.2187 -0.1200
 6668SOL    HW222205   3.002   5.841   6.904  0.5860 -0.6802 -0.3454
 6669SOL     OW22206   2.450   5.621   8.799 -0.3687 -0.1332  0.4714
 6669SOL    HW122207   2.423   5.539   8.842  0.7331 -0.1462  1.2048
 6669SOL    HW222208   2.545   5.612   8.790 -0.5453 -0.1172 -2.0204
 6670SOL     OW22209   5.194   9.175   7.095  0.4087 -0.4366  0.4365
 6670SOL    HW122210   5.114   9.223   7.117 -1.4661 -2.9394 -0.3818
 6670SOL    HW222211   5.211   9.199   7.004 -2.3548 -3.3204 -1.0782
 6671SOL     OW22212   6.630   3.455   2.220 -0.2602  0.1675  0.1866
 6671SOL    HW122213   6.603   3.387   2.282  0.6150 -0.9253 -0.5940
 6671SOL    HW222214   6.627   3.412   2.134  1.1944  0.8371 -0.2225
 6672SOL     OW22215   3.425   9.067   4.091 -0.2151 -0.1963  0.4830
 6672SOL    HW122216   3.352   9.053   4.031  0.1167  0.6689 -0.1389
 6672SOL    HW222217   3.451   9.158   4.078  1.5807 -0.7238 -0.0247
 6673SOL     OW22218   2.993   8.936   4.317  0.1077  0.5613 -0.1162
 6673SOL    HW122219   3.070   8.960   4.368  0.5872 -0.4904 -0.3047
 6673SOL    HW222220   2.931   8.903   4.382  0.9116 -1.2655 -0.1956
 6674SOL     OW22221   4.393   8.396   8.167  0.1980  0.1960 -0.0926
 6674SOL    HW122222   4.313   8.448   8.158  0.2284  0.8632  2.6917
 6674SOL    HW222223   4.364   8.306   8.151 -0.5279  0.6846 -1.7284
 6675SOL     OW22224   4.339   7.896   4.712  0.3055  0.0065  0.3088
 6675SOL    HW122225   4.339   7.863   4.623  1.6226 -0.5890  0.5224
 6675SOL    HW222226   4.286   7.976   4.707  0.5031  0.0737 -1.0308
 6676SOL     OW22227   8.219   0.350   2.846  0.1585  0.7832 -0.0887
 6676SOL    HW122228   8.265   0.292   2.908 -1.4462  0.4690  0.8637
 6676SOL    HW222229   8.184   0.421   2.900  0.7951  1.8476 -1.0255
 6677SOL     OW22230   3.751   7.992   0.479 -0.5742 -0.2180  0.4578
 6677SOL    HW122231   3.783   8.067   0.528 -2.5070  0.7276  0.3384
 6677SOL    HW222232   3.658   7.988   0.498 -0.8415 -1.5378 -0.9130
 6678SOL     OW22233   8.335   2.130   0.265 -0.1533 -0.0920 -0.0945
 6678SOL    HW122234   8.386   2.211   0.262 -1.7243  1.0358  1.5143
 6678SOL    HW222235   8.375   2.079   0.335 -1.7712  1.3046  2.0029
 6679SOL     OW22236   8.681   3.542   8.950  0.6916 -0.7872 -0.0756
 6679SOL    HW122237   8.634   3.475   8.900  0.6665 -0.0626 -1.0525
 6679SOL    HW222238   8.772   3.532   8.925  0.5713  0.1353 -0.9720
 6680SOL     OW22239   6.948   6.415   3.927 -0.3719 -0.1191 -0.1036
 6680SOL    HW122240   6.954   6.508   3.908 -0.8805  0.6342  3.0078
 6680SOL    HW222241   6.857   6.401   3.953 -0.1123 -1.3305  0.2209
 6681SOL     OW22242   5.594   0.037   8.097 -0.0546  0.3201 -0.2214
 6681SOL    HW122243   5.649  -0.031   8.057  0.8481  0.7972  0.1853
 6681SOL    HW222244   5.608   0.114   8.042 -0.8849  0.2581 -0.5358
 6682SOL     OW22245   7.827   5.021   6.124  0.1159 -0.0372  0.3831
 6682SOL    HW122246   7.885   4.983   6.058 -0.4181  0.1865 -0.2259
 6682SOL    HW222247   7.870   5.101   6.152  1.1970 -0.9861  1.5882
 6683SOL     OW22248   2.224   8.948   7.798  0.1918 -0.0361 -0.4309
 6683SOL    HW122249   2.243   8.943   7.705  0.1897  0.6316 -0.4732
 6683SOL    HW222250   2.222   8.857   7.828 -0.7209 -0.2934 -1.2513
 6684SOL     OW22251   5.278   2.999   3.639  0.0394  0.3343  0.6107
 6684SOL    HW122252   5.286   3.047   3.721  0.9134  0.1189  0.6620
 6684SOL    HW222253   5.297   3.064   3.571 -0.7052  0.5179  0.5685
 6685SOL     OW22254   7.759   5.264   9.416  0.1736 -0.2886 -0.2277
 6685SOL    HW122255   7.837   5.246   9.469 -1.5986 -1.0440  2.3424
 6685SOL    HW222256   7.745   5.184   9.365 -0.4337 -1.3097  1.4482
 6686SOL     OW22257   1.569   5.451   7.935  0.3433 -0.3121 -0.2365
 6686SOL    HW122258   1.481   5.418   7.951  0.4625 -0.6313 -0.2147
 6686SOL    HW222259   1.626   5.380   7.965  0.6037 -0.1646 -0.3804
 6687SOL     OW22260   1.752   3.558   2.920 -0.2333 -0.0558  0.2111
 6687SOL    HW122261   1.809   3.573   2.995 -0.3789  0.0438  0.3022
 6687SOL    HW222262   1.797   3.599   2.847 -0.0920 -0.1506  0.2445
 6688SOL     OW22263   8.089   4.994   8.845 -0.1405 -0.7494  0.2182
 6688SOL    HW122264   8.054   5.066   8.898  1.0725  0.2927 -0.3426
 6688SOL    HW222265   8.145   4.945   8.905 -0.4361 -0.8228  0.4341
 6689SOL     OW22266   0.107   5.168   4.578  0.8820  0.2553  0.5537
 6689SOL    HW122267   0.059   5.221   4.642  1.6628  0.6504  0.8296
 6689SOL    HW222268   0.194   5.209   4.574  0.6586  0.6256 -1.2226
 6690SOL     OW22269   5.004   1.664   8.556 -0.2201 -0.2354  0.4052
 6690SOL    HW122270   5.036   1.586   8.510 -1.4778 -1.6082  1.7371
 6690SOL    HW222271   5.021   1.736   8.495 -1.1254 -1.8370 -1.9046
 6691SOL     OW22272   5.130   3.015   6.668  0.0154  0.0805 -0.1760
 6691SOL    HW122273   5.142   3.110   6.657  1.6106  0.0253  0.6561
 6691SOL    HW222274   5.119   3.004   6.763  1.7102 -0.6881 -0.0272
 6692SOL     OW22275   7.132   7.504   0.412  0.5758 -0.6215 -0.0039
 6692SOL    HW122276   7.140   7.452   0.332 -0.3645 -2.1180  0.8262
 6692SOL    HW222277   7.174   7.450   0.479 -0.3771 -0.3130  0.8710
 6693SOL     OW22278   6.286   8.258   3.853  0.0973  0.2114 -0.0098
 6693SOL    HW122279   6.271   8.244   3.760 -0.5644  0.5444  0.0440
 6693SOL    HW222280   6.199   8.278   3.889  0.1703 -0.9292  0.8581
 6694SOL     OW22281   9.136   9.473   8.729 -0.4508  0.8463  0.7767
 6694SOL    HW122282   9.062   9.412   8.731  0.0232  0.2554  0.3983
 6694SOL    HW222283   9.128   9.518   8.645  1.4828 -1.5767 -0.8043
 6695SOL     OW22284   6.009   7.322   8.092  0.2149  0.1068  0.4728
 6695SOL    HW122285   6.089   7.324   8.144  0.0390  0.4541  0.7331
 6695SOL    HW222286   6.037   7.348   8.004  0.7173 -1.5781  0.0987
 6696SOL     OW22287   9.069   3.631   1.623  0.5650 -1.0153 -0.5504
 6696SOL    HW122288   9.002   3.699   1.625  0.4901 -1.1005  0.3006
 6696SOL    HW222289   9.124   3.650   1.699  1.6152 -0.8405 -1.3362
 6697SOL     OW22290   1.699   0.818   5.302  0.6101 -0.2930  0.1077
 6697SOL    HW122291   1.746   0.881   5.248  1.9082  1.0024  2.5621
 6697SOL    HW222292   1.764   0.790   5.367 -1.0695 -1.0696  1.5254
 6698SOL     OW22293   5.542   1.780   9.024  0.4983  0.1495 -0.3930
 6698SOL    HW122294   5.525   1.742   8.938 -2.1063  0.3111 -0.0421
 6698SOL    HW222295   5.611   1.726   9.061  1.1642 -0.3714 -2.2829
 6699SOL     OW22296   9.371   9.492   0.716  0.3242 -0.2686  0.7726
 6699SOL    HW122297   9.293   9.536   0.750 -0.6320 -0.2470 -1.3185
 6699SOL    HW222298   9.440   9.557   0.722 -0.8745  1.3366 -1.5048
 6700SOL     OW22299   6.253   1.264   0.493  0.1554 -0.2510 -0.6671
 6700SOL    HW122300   6.328   1.296   0.544 -0.1153  0.2648 -0.5903
 6700SOL    HW222301   6.248   1.171   0.515 -1.1830  0.3059  1.8935
 6701SOL     OW22302   7.176   1.626   9.078  0.0016  0.1369  0.1095
 6701SOL    HW122303   7.138   1.551   9.032  0.4940 -0.2274  0.2936
 6701SOL    HW222304   7.270   1.614   9.070  0.1727  2.1775 -2.2547
 6702SOL     OW22305   8.578   0.057   1.046 -0.8336  0.1403 -0.3453
 6702SOL    HW122306   8.507   0.003   1.082 -0.2569 -1.3323 -1.3158
 6702SOL    HW222307   8.640   0.067   1.119 -0.6513 -1.0767 -0.3042
 6703SOL     OW22308   7.913   0.453   2.488  0.0613 -0.1290  0.3477
 6703SOL    HW122309   7.896   0.537   2.530  0.3126  0.4649 -0.6830
 6703SOL    HW222310   7.959   0.401   2.554 -0.2576  0.4777  1.0553
 6704SOL     OW22311   1.563   4.623   8.727  0.2883  0.2451  0.1353
 6704SOL    HW122312   1.508   4.556   8.767  1.9699 -0.9559  0.5326
 6704SOL    HW222313   1.651   4.587   8.729  1.0009  1.7542 -1.2412
 6705SOL     OW22314   8.198   6.076   8.857  0.1009 -0.7934  0.0891
 6705SOL    HW122315   8.192   5.993   8.811 -0.4111 -1.4938  1.3770
 6705SOL    HW222316   8.107   6.100   8.877  0.2136  0.2526 -0.5447
 6706SOL     OW22317   7.738   3.805   4.230 -0.5386 -0.2113  0.0098
 6706SOL    HW122318   7.704   3.835   4.314 -1.0985  0.2344 -0.3664
 6706SOL    HW222319   7.816   3.753   4.252 -1.2472 -0.9348  0.8669
 6707SOL     OW22320   5.791   7.202   6.630  0.4678 -0.7188 -0.7059
 6707SOL    HW122321   5.839   7.193   6.548 -0.4113  0.1659 -1.3428
 6707SOL    HW222322   5.719   7.262   6.610 -1.8634 -3.1275 -0.2143
 6708SOL     OW22323   3.402   1.408   7.369 -0.7036  0.6124  0.5350
 6708SOL    HW122324   3.474   1.361   7.413  0.4116  2.3813  0.6815
 6708SOL    HW222325   3.400   1.371   7.281 -0.1204  0.0067  0.7603
 6709SOL     OW22326   3.379   4.108   7.629  0.1011  0.1981 -0.1585
 6709SOL    HW122327   3.452   4.157   7.590  0.4132  0.3388  0.5911
 6709SOL    HW222328   3.381   4.131   7.722 -0.8368  0.1191 -0.1065
 6710SOL     OW22329   7.158   6.619   7.582 -0.2172  0.5266  0.3287
 6710SOL    HW122330   7.118   6.706   7.583  0.7009  0.9680 -0.1428
 6710SOL    HW222331   7.218   6.620   7.657  0.6518  0.7230 -0.3595
 6711SOL     OW22332   4.936   7.320   5.005  0.5735  0.3771  0.0964
 6711SOL    HW122333   4.920   7.276   5.089  1.7389 -0.2253  0.0299
 6711SOL    HW222334   4.913   7.254   4.939  0.4924  0.5454 -0.0448
 6712SOL     OW22335   0.026   0.609   2.189 -0.0981 -0.6165  0.2778
 6712SOL    HW122336  -0.035   0.675   2.157  0.0108 -0.7104 -0.1309
 6712SOL    HW222337  -0.010   0.582   2.274  0.7344  1.1528  1.2453
 6713SOL     OW22338   1.339   8.072   7.151  0.6636 -0.0778  0.0908
 6713SOL    HW122339   1.311   8.163   7.142  0.8654  0.1568  1.5763
 6713SOL    HW222340   1.423   8.077   7.197 -0.1940 -1.0743  1.8650
 6714SOL     OW22341   0.877   2.305   6.785  0.0563 -0.5126  0.3300
 6714SOL    HW122342   0.931   2.384   6.791 -0.3027 -0.3681  3.6952
 6714SOL    HW222343   0.804   2.331   6.729  0.2647  1.3682  0.8359
 6715SOL     OW22344   8.782   8.086   5.027  0.0414 -0.1755 -0.0220
 6715SOL    HW122345   8.782   8.052   4.938 -0.4349  0.4466 -0.2679
 6715SOL    HW222346   8.696   8.127   5.037  0.8830  1.7100 -0.0546
 6716SOL     OW22347   0.685   2.941   7.900  0.2636  0.3924  0.0319
 6716SOL    HW122348   0.642   3.026   7.888  3.1235  1.6334 -2.8749
 6716SOL    HW222349   0.751   2.937   7.831  0.3300 -4.2509  0.0540
 6717SOL     OW22350   7.000   9.387   2.670 -0.0083 -0.1096  0.0342
 6717SOL    HW122351   6.998   9.466   2.724  1.2545  1.6562 -2.3640
 6717SOL    HW222352   6.923   9.394   2.613 -0.0322 -0.7704 -0.0316
 6718SOL     OW22353   2.370   8.169   3.469  0.3897  0.6429 -0.1718
 6718SOL    HW122354   2.401   8.249   3.426  0.9182 -0.1290 -1.2908
 6718SOL    HW222355   2.450   8.125   3.498  0.0497  0.9954  1.3620
 6719SOL     OW22356   6.736   4.583   1.194  0.7488  0.3356 -0.7764
 6719SOL    HW122357   6.690   4.499   1.191  2.1498 -0.4768 -0.1968
 6719SOL    HW222358   6.737   4.614   1.104  0.7048 -0.5390 -1.0780
 6720SOL     OW22359   8.164   6.808   2.366 -0.2454  0.4175 -0.0972
 6720SOL    HW122360   8.140   6.829   2.456 -0.4193 -1.0030  0.2195
 6720SOL    HW222361   8.134   6.883   2.314 -0.9583  0.8453  0.9108
 6721SOL     OW22362   9.219   2.284   3.047 -0.5877  0.2460  0.2102
 6721SOL    HW122363   9.128   2.313   3.054 -0.7522 -0.2160  0.0038
 6721SOL    HW222364   9.238   2.245   3.132 -0.7323 -0.0801  0.0935
 6722SOL     OW22365   5.443   2.954   7.892  0.0643  0.0081 -0.5851
 6722SOL    HW122366   5.377   3.022   7.907 -0.5398 -1.0189  1.9298
 6722SOL    HW222367   5.394   2.872   7.897  1.4459 -0.7646  1.0503
 6723SOL     OW22368   0.066   5.155   7.973 -0.0006  0.5990  0.1412
 6723SOL    HW122369   0.132   5.088   7.991 -0.7342 -0.3375 -0.4937
 6723SOL    HW222370   0.106   5.212   7.907 -0.3712 -0.9300 -1.4957
 6724SOL     OW22371   7.258   6.056   2.674 -0.0899 -0.0762 -0.0133
 6724SOL    HW122372   7.251   6.143   2.634 -0.5716  0.2080  0.6593
 6724SOL    HW222373   7.334   6.016   2.631  0.3392  0.8000 -0.1082
 6725SOL     OW22374   6.116   5.955   6.729  0.4295 -0.4290  0.3567
 6725SOL    HW122375   6.158   5.903   6.661 -0.6146  0.1237 -0.7471
 6725SOL    HW222376   6.132   5.905   6.810  1.2945 -1.3374 -0.3443
 6726SOL     OW22377   7.053   0.729   1.753  0.0095 -0.7404 -0.8155
 6726SOL    HW122378   7.027   0.653   1.806  0.1366 -0.4697 -0.3599
 6726SOL    HW222379   7.007   0.717   1.670  1.6197 -2.4229 -1.5500
 6727SOL     OW22380   3.664   9.137   1.633  0.4603 -0.0151 -0.2532
 6727SOL    HW122381   3.597   9.194   1.596  0.9627  0.8392  0.1160
 6727SOL    HW222382   3.721   9.196   1.683  0.1414 -1.0230  1.3951
 6728SOL     OW22383   5.108   7.052   3.174  0.4305 -0.1761 -0.2117
 6728SOL    HW122384   5.182   6.996   3.150  1.3483  0.7487  0.3971
 6728SOL    HW222385   5.141   7.142   3.162 -1.2043  0.2680 -1.7988
 6729SOL     OW22386   5.423   9.295   5.570 -0.2997 -1.2172 -0.1687
 6729SOL    HW122387   5.483   9.296   5.645 -0.2084 -0.8933 -0.2433
 6729SOL    HW222388   5.377   9.211   5.577 -2.2606 -0.0931  1.8091
 6730SOL     OW22389   9.426   0.046   8.265  0.0249 -0.3901  0.3507
 6730SOL    HW122390   9.362   0.053   8.195  0.7264 -1.3709 -0.4266
 6730SOL    HW222391   9.390   0.098   8.337 -1.7065 -1.0539  0.0025
 6731SOL     OW22392   1.733   4.397   0.674  0.7699 -0.2926 -0.3777
 6731SOL    HW122393   1.739   4.331   0.743 -0.9761 -0.5567 -0.4297
 6731SOL    HW222394   1.690   4.352   0.602 -1.2837  1.0855 -0.0916
 6732SOL     OW22395   3.096   8.927   5.465  0.0427 -0.3378  0.5473
 6732SOL    HW122396   3.004   8.908   5.450 -0.5431  2.6345 -0.3745
 6732SOL    HW222397   3.139   8.904   5.382 -0.0689 -0.6927  0.5883
 6733SOL     OW22398   2.389   7.412   0.940 -0.4963 -0.0665  0.5096
 6733SOL    HW122399   2.306   7.451   0.910  0.0053  0.0677 -0.7520
 6733SOL    HW222400   2.396   7.330   0.891 -0.1218 -0.3190  0.9859
 6734SOL     OW22401   6.475   2.340   1.001 -0.2978 -0.0874  0.6369
 6734SOL    HW122402   6.549   2.397   1.022 -0.0027 -0.3278  0.2521
 6734SOL    HW222403   6.451   2.300   1.085 -0.4515  0.5306  0.8939
 6735SOL     OW22404   1.530   6.339   7.048 -0.0079  0.5239 -0.4367
 6735SOL    HW122405   1.441   6.368   7.026 -0.2258 -0.2838 -0.6439
 6735SOL    HW222406   1.530   6.246   7.028  0.2975  0.0918  1.3921
 6736SOL     OW22407   7.831   8.851   7.376  0.6374  0.5870 -0.0682
 6736SOL    HW122408   7.739   8.832   7.355  0.0999  3.6304 -0.8399
 6736SOL    HW222409   7.871   8.764   7.385 -2.0472 -0.8469 -0.7576
 6737SOL     OW22410   9.238   3.206   2.985  0.4248  0.2020  0.3350
 6737SOL    HW122411   9.252   3.111   2.979  0.7378  0.2762 -0.1386
 6737SOL    HW222412   9.318   3.240   3.024  0.2574  0.2578  0.6321
 6738SOL     OW22413   9.024   5.975   4.434  0.1159 -0.0130 -0.0677
 6738SOL    HW122414   9.018   5.930   4.350 -0.4043 -1.2577  0.6198
 6738SOL    HW222415   9.115   5.962   4.461 -0.2830 -1.5485  0.5991
 6739SOL     OW22416   2.178   5.008   8.514 -0.8089  0.0184  0.3737
 6739SOL    HW122417   2.175   4.913   8.530  1.0840 -0.2794 -0.8141
 6739SOL    HW222418   2.266   5.025   8.482 -1.3975  2.0563 -0.3449
 6740SOL     OW22419   8.814   7.067   8.860 -0.1632 -0.3310  0.4168
 6740SOL    HW122420   8.887   7.022   8.903 -0.7739 -0.7866  1.0191
 6740SOL    HW222421   8.739   7.049   8.917 -0.8316 -0.2385 -0.4139
 6741SOL     OW22422   1.442   2.646   3.176  0.2730 -0.3114  0.3496
 6741SOL    HW122423   1.490   2.630   3.257 -0.4051 -1.8099  0.4702
 6741SOL    HW222424   1.382   2.717   3.197  2.2073  1.4840  0.2526
 6742SOL     OW22425   1.708   6.658   0.072 -0.0205  0.0059 -0.3944
 6742SOL    HW122426   1.760   6.588   0.032 -0.6464  0.0010 -1.2354
 6742SOL    HW222427   1.636   6.673   0.009 -0.6948  0.4170  0.4552
 6743SOL     OW22428   7.627   4.392   2.359 -0.6492  0.0224 -0.5880
 6743SOL    HW122429   7.593   4.360   2.275  1.7702  1.5208 -2.2616
 6743SOL    HW222430   7.722   4.386   2.351 -0.3144 -0.5875  2.4437
 6744SOL     OW22431   8.644   6.431   5.875  0.0414  0.1302 -0.0181
 6744SOL    HW122432   8.561   6.407   5.836 -1.1503 -0.3420  2.5798
 6744SOL    HW222433   8.636   6.524   5.896  1.1797  0.7182 -1.9605
 6745SOL     OW22434   0.460   9.416   0.223  0.3513  0.3557  0.3070
 6745SOL    HW122435   0.493   9.468   0.296 -0.6961 -1.4424  2.1605
 6745SOL    HW222436   0.373   9.387   0.252  1.3758 -3.5156  0.0297
 6746SOL     OW22437   7.826   3.785   3.361 -0.0472 -0.2206 -0.8167
 6746SOL    HW122438   7.797   3.870   3.393  0.6181 -0.0316 -0.7013
 6746SOL    HW222439   7.761   3.760   3.296 -0.7015 -0.0076 -0.2572
 6747SOL     OW22440   2.595   2.673   4.002 -0.0198 -0.6944 -0.0341
 6747SOL    HW122441   2.573   2.761   3.975 -1.1161 -0.8452  0.3348
 6747SOL    HW222442   2.653   2.685   4.078 -2.4271 -0.2277  1.8667
 6748SOL     OW22443   1.285   8.637   5.773  0.7790  0.8115  0.0939
 6748SOL    HW122444   1.225   8.709   5.796 -1.7395 -1.2431  0.3612
 6748SOL    HW222445   1.350   8.639   5.842 -1.2586  0.7114  2.1504
 6749SOL     OW22446   5.970   8.757   5.334  0.3162 -0.0725  0.0472
 6749SOL    HW122447   5.979   8.747   5.428 -2.3868 -1.6955  0.2343
 6749SOL    HW222448   6.041   8.705   5.297  0.1138 -1.1883  1.1887
 6750SOL     OW22449   3.857   3.773   0.190  0.0284 -0.2650 -0.1795
 6750SOL    HW122450   3.783   3.712   0.190 -0.9990  0.9427  0.6475
 6750SOL    HW222451   3.859   3.808   0.101  0.1471 -0.9346 -0.4454
 6751SOL     OW22452   6.351   4.737   9.119 -0.7704  0.1441  0.2976
 6751SOL    HW122453   6.267   4.741   9.075 -0.2688  1.0752 -0.6193
 6751SOL    HW222454   6.355   4.649   9.156 -2.0480  0.0209  0.1725
 6752SOL     OW22455   0.356   7.283   6.215  0.4058 -0.2589  0.1988
 6752SOL    HW122456   0.386   7.289   6.306  0.3089  0.2200  0.2014
 6752SOL    HW222457   0.289   7.214   6.217  1.1425 -0.9809  0.2860
 6753SOL     OW22458   4.716   7.922   2.069 -0.4818  0.0883 -0.4066
 6753SOL    HW122459   4.809   7.903   2.079 -0.3777  0.9169  0.2544
 6753SOL    HW222460   4.712   7.993   2.004 -0.6929 -0.2916 -0.8182
 6754SOL     OW22461   8.869   6.807   1.594 -0.1179 -0.5626 -0.5947
 6754SOL    HW122462   8.887   6.736   1.655 -1.9325 -0.4639  0.1120
 6754SOL    HW222463   8.904   6.885   1.636 -0.3463 -0.6693 -0.1996
 6755SOL     OW22464   4.163   8.580   7.428  0.2836  0.1364 -0.0235
 6755SOL    HW122465   4.246   8.542   7.399  0.1461 -0.3012  0.1580
 6755SOL    HW222466   4.099   8.511   7.415 -0.0060  0.3796  0.1010
 6756SOL     OW22467   2.326   0.013   5.340  0.5471 -0.1530  0.4837
 6756SOL    HW122468   2.252   0.073   5.355  0.4159  1.2012 -4.2124
 6756SOL    HW222469   2.401   0.059   5.378 -0.4600 -0.1056  2.5746
 6757SOL     OW22470   5.440   2.221   2.927 -0.0168  0.3784 -0.2824
 6757SOL    HW122471   5.398   2.139   2.902  0.2144 -0.0715  0.7463
 6757SOL    HW222472   5.532   2.197   2.941  0.1483  0.9154 -0.4301
 6758SOL     OW22473   1.782   8.255   3.543  0.5035 -0.1578  0.1923
 6758SOL    HW122474   1.760   8.256   3.450 -1.3592  2.0614  0.5723
 6758SOL    HW222475   1.871   8.290   3.546  0.2520  0.6000 -0.7017
 6759SOL     OW22476   6.685   0.190   5.107  0.3052 -0.2093 -0.1934
 6759SOL    HW122477   6.759   0.170   5.049  0.3670 -1.0226  0.1519
 6759SOL    HW222478   6.631   0.110   5.105  1.0630 -0.8311  2.0020
 6760SOL     OW22479   3.998   7.605   0.903 -0.2184  0.0424 -0.3016
 6760SOL    HW122480   3.999   7.511   0.922 -1.0590  0.2992  1.1760
 6760SOL    HW222481   3.924   7.639   0.953  0.4820  1.5982 -0.2563
 6761SOL     OW22482   0.419   6.419   1.943  0.1227 -0.5217  0.2547
 6761SOL    HW122483   0.415   6.466   1.860 -1.1683 -1.1074 -0.0539
 6761SOL    HW222484   0.428   6.327   1.918 -3.0282 -1.0475  0.5668
 6762SOL     OW22485   1.658   6.783   3.199 -0.1051  0.2693 -0.1987
 6762SOL    HW122486   1.736   6.756   3.150  1.0044  0.3337  1.4396
 6762SOL    HW222487   1.660   6.729   3.278 -2.2301 -0.3388 -0.5141
 6763SOL     OW22488   4.359   4.568   1.068  0.9454 -0.1379 -0.4242
 6763SOL    HW122489   4.357   4.488   1.016  1.6546  0.2456 -1.0764
 6763SOL    HW222490   4.285   4.619   1.037 -1.6609 -1.8969  2.3586
 6764SOL     OW22491   9.350   5.136   0.077  0.2517  0.6515 -0.3369
 6764SOL    HW122492   9.262   5.107   0.101  0.2995  0.4776 -0.3695
 6764SOL    HW222493   9.348   5.139  -0.019  0.5729 -0.2873 -0.3846
 6765SOL     OW22494   1.974   8.832   2.624 -0.3998 -0.7347  0.7675
 6765SOL    HW122495   1.891   8.854   2.668  0.6544 -0.7250  2.8847
 6765SOL    HW222496   2.026   8.788   2.691  2.3519  1.6143  0.3968
 6766SOL     OW22497   4.446   3.085   7.797 -0.0500 -0.0254  0.1238
 6766SOL    HW122498   4.369   3.033   7.775  0.7022 -1.0173 -0.2464
 6766SOL    HW222499   4.426   3.172   7.763 -0.5378 -0.5600 -1.0161
 6767SOL     OW22500   4.586   2.144   8.301 -0.0829 -0.8414  0.1218
 6767SOL    HW122501   4.572   2.210   8.234  2.0527  0.2879  0.7006
 6767SOL    HW222502   4.673   2.108   8.282 -1.1165 -3.4607 -0.1100
 6768SOL     OW22503   9.235   0.388   2.395 -0.3348  0.0889 -0.1129
 6768SOL    HW122504   9.159   0.404   2.338 -1.4114  0.5158  1.3707
 6768SOL    HW222505   9.215   0.305   2.438  0.0102  0.2328  0.3293
 6769SOL     OW22506   5.243   7.599   9.345  0.0764  0.6740 -0.1370
 6769SOL    HW122507   5.241   7.588   9.440 -0.0328  0.5178 -0.1582
 6769SOL    HW222508   5.172   7.661   9.326 -0.9149 -0.4666 -0.2732
 6770SOL     OW22509   8.789   9.164   1.481  0.2807  0.5262  0.3660
 6770SOL    HW122510   8.789   9.091   1.543 -0.8864 -0.2341 -0.4772
 6770SOL    HW222511   8.725   9.226   1.517 -2.0976 -0.9067 -1.0814
 6771SOL     OW22512   2.956   3.817   2.735 -0.0873  0.5338 -0.6018
 6771SOL    HW122513   3.028   3.879   2.746 -0.9257  1.9599 -2.5090
 6771SOL    HW222514   2.958   3.795   2.642 -2.3097  0.9095 -0.7887
 6772SOL     OW22515   5.518   1.959   3.128  0.3199 -0.9777 -0.7148
 6772SOL    HW122516   5.606   1.926   3.113  0.7558  0.4896 -1.5911
 6772SOL    HW222517   5.528   2.054   3.131 -0.8807 -0.8643  1.6870
 6773SOL     OW22518   7.163   8.690   4.100  1.1057  0.5253 -0.1087
 6773SOL    HW122519   7.103   8.633   4.053  0.8804  0.1939  0.5638
 6773SOL    HW222520   7.179   8.645   4.183  2.7756  0.3033 -0.5100
 6774SOL     OW22521   0.280   9.135   2.273 -0.8313 -0.0957  0.1269
 6774SOL    HW122522   0.191   9.118   2.304 -0.1892 -1.2336  1.4339
 6774SOL    HW222523   0.310   9.209   2.326 -1.2562  0.8210 -0.8761
 6775SOL     OW22524   3.553   9.235   2.422 -0.1065 -0.3907  0.6058
 6775SOL    HW122525   3.578   9.281   2.342  0.0214 -0.3323  0.6791
 6775SOL    HW222526   3.542   9.305   2.487 -1.9243 -0.2700  0.2017
 6776SOL     OW22527   5.784   5.168   5.510 -0.6086 -0.1769  0.3584
 6776SOL    HW122528   5.762   5.110   5.437  1.9393 -1.6412  0.6309
 6776SOL    HW222529   5.748   5.253   5.485 -0.8370 -0.9079 -2.0378
 6777SOL     OW22530   3.817   2.414   3.030 -0.3500  0.1351  0.0383
 6777SOL    HW122531   3.784   2.326   3.046  0.3098  0.0628  1.1052
 6777SOL    HW222532   3.831   2.451   3.117 -1.6041  1.6907 -0.3725
 6778SOL     OW22533   3.286   9.431   8.344  0.3739  0.1739  0.2546
 6778SOL    HW122534   3.217   9.438   8.410  0.5389  0.0793  0.4386
 6778SOL    HW222535   3.244   9.456   8.262 -0.4144 -1.8210  0.0081
 6779SOL     OW22536   0.644   0.994   2.386 -0.5519 -0.1426 -0.2770
 6779SOL    HW122537   0.720   1.049   2.407 -1.1608  0.7167 -0.2551
 6779SOL    HW222538   0.663   0.960   2.298 -0.6887  1.0749 -0.8048
 6780SOL     OW22539   3.920   0.265   6.330 -0.1017 -0.2968  0.2410
 6780SOL    HW122540   3.882   0.192   6.378 -1.5612 -0.0479 -0.4920
 6780SOL    HW222541   3.973   0.312   6.395  1.0248 -2.0806  0.6833
 6781SOL     OW22542   3.261   7.778   6.128  0.0304 -1.0226 -0.6352
 6781SOL    HW122543   3.302   7.761   6.043  0.4816 -1.5698 -0.3111
 6781SOL    HW222544   3.191   7.841   6.108 -0.3101 -1.6558 -1.5248
 6782SOL     OW22545   5.384   1.223   5.432  0.0812  0.3003 -0.6645
 6782SOL    HW122546   5.469   1.209   5.389  0.7761  2.2541 -0.0583
 6782SOL    HW222547   5.389   1.174   5.513  0.9646  0.9806 -0.2844
 6783SOL     OW22548   9.327   4.586   1.461  0.3490 -0.1604 -0.1098
 6783SOL    HW122549   9.385   4.510   1.452 -0.1465 -0.9634  2.5414
 6783SOL    HW222550   9.380   4.651   1.507 -0.3965 -0.4328  1.1948
 6784SOL     OW22551   0.189   6.242   2.436  0.0553 -0.6705  0.3205
 6784SOL    HW122552   0.259   6.273   2.377 -1.7819 -0.2411 -1.7485
 6784SOL    HW222553   0.230   6.243   2.523  2.7470 -0.8473 -0.8326
 6785SOL     OW22554   0.083   0.527   5.941 -0.2032  0.4266  0.7850
 6785SOL    HW122555   0.108   0.584   5.869  0.6202  0.5892  1.1957
 6785SOL    HW222556  -0.005   0.557   5.966 -0.1323  0.9347  0.4324
 6786SOL     OW22557   8.487   9.049   9.374 -0.2421 -0.1229 -0.5633
 6786SOL    HW122558   8.483   9.084   9.463  1.3577  1.0223 -0.9018
 6786SOL    HW222559   8.436   9.111   9.321 -0.2464 -0.1821 -0.6300
 6787SOL     OW22560   0.167   7.541   6.663 -0.3403  0.1977 -0.0523
 6787SOL    HW122561   0.088   7.489   6.645  0.1521 -0.3785 -0.5758
 6787SOL    HW222562   0.203   7.502   6.742 -0.3560  0.1925 -0.0476
 6788SOL     OW22563   7.139   9.335   3.265  0.0828  0.2280  0.2361
 6788SOL    HW122564   7.061   9.375   3.227  1.0629  0.8502 -1.1933
 6788SOL    HW222565   7.200   9.407   3.279  0.6343 -0.3210  0.7799
 6789SOL     OW22566   5.366   7.738   6.368 -0.1736 -0.0240  0.0230
 6789SOL    HW122567   5.414   7.681   6.309  2.1700 -0.2964  2.0434
 6789SOL    HW222568   5.338   7.811   6.314  0.2180 -1.1517 -1.7751
 6790SOL     OW22569   6.435   3.221   8.410  1.0554 -0.6872 -0.3197
 6790SOL    HW122570   6.452   3.315   8.402 -1.5549 -0.1640 -0.5270
 6790SOL    HW222571   6.348   3.215   8.451  1.5588 -3.0391  0.6060
 6791SOL     OW22572   5.057   8.478   7.100  0.0076 -0.1405 -0.0299
 6791SOL    HW122573   5.008   8.406   7.140 -2.4530  0.8341 -1.0583
 6791SOL    HW222574   5.038   8.471   7.006  1.4418  0.6460 -0.4150
 6792SOL     OW22575   2.911   7.972   8.610  0.0842 -0.0991 -0.5814
 6792SOL    HW122576   3.002   7.998   8.595  0.0591  1.4073  1.5499
 6792SOL    HW222577   2.868   7.986   8.525  1.3914  1.2488 -1.0662
 6793SOL     OW22578   5.044   2.720   6.679  0.6084  0.1041  0.3516
 6793SOL    HW122579   5.082   2.702   6.765  0.6452 -1.8224 -0.0297
 6793SOL    HW222580   4.959   2.676   6.681 -0.8253  2.6821  0.4749
 6794SOL     OW22581   4.353   9.290   5.393 -0.8110  0.5147 -0.1114
 6794SOL    HW122582   4.368   9.276   5.487  0.5190  0.5903 -0.2959
 6794SOL    HW222583   4.365   9.204   5.354 -1.8564  0.3845 -0.1667
 6795SOL     OW22584   4.834   9.183   4.562  0.0419 -0.0673  0.5266
 6795SOL    HW122585   4.851   9.276   4.545  0.9442 -0.4570 -0.8800
 6795SOL    HW222586   4.777   9.155   4.491  1.6313 -1.0954 -0.4051
 6796SOL     OW22587   9.136   9.240   4.222  0.3739  0.5535  0.3309
 6796SOL    HW122588   9.171   9.288   4.147 -1.4716  1.6846  0.1337
 6796SOL    HW222589   9.094   9.306   4.276 -0.2171 -0.5360  1.2565
 6797SOL     OW22590   8.793   0.150   9.045  0.2405 -0.3025  0.2222
 6797SOL    HW122591   8.871   0.180   9.092  0.7321 -0.9426 -0.1751
 6797SOL    HW222592   8.750   0.231   9.017  0.1441  0.0814  1.4253
 6798SOL     OW22593   5.704   1.258   3.483 -0.1735  0.0081 -0.2716
 6798SOL    HW122594   5.744   1.277   3.398 -2.0414  0.2508 -1.1452
 6798SOL    HW222595   5.741   1.174   3.509 -1.0270 -1.0484 -2.3086
 6799SOL     OW22596   5.893   0.009   3.095 -0.1408 -0.1849 -0.1379
 6799SOL    HW122597   5.930   0.064   3.165 -1.6155 -0.8290  1.1978
 6799SOL    HW222598   5.808   0.048   3.076  0.2894  0.0552 -1.7094
 6800SOL     OW22599   3.774   2.306   1.596 -0.0971 -0.7358 -0.0355
 6800SOL    HW122600   3.737   2.278   1.512 -1.3013 -0.3675  0.3426
 6800SOL    HW222601   3.718   2.380   1.622 -0.1105 -1.2174  1.3657
 6801SOL     OW22602   6.775   6.315   6.617 -0.0451  0.4790  0.4045
 6801SOL    HW122603   6.814   6.374   6.553 -1.0924  0.4363 -0.2850
 6801SOL    HW222604   6.685   6.302   6.587 -0.6562  0.6875  2.0360
 6802SOL     OW22605   8.435   1.534   6.368  0.3119  0.3473 -0.8232
 6802SOL    HW122606   8.507   1.524   6.305  1.3148  0.6434  0.2444
 6802SOL    HW222607   8.360   1.493   6.325  1.6285 -1.9934 -1.0619
 6803SOL     OW22608   9.577   4.407   1.821  0.4711  0.3198 -0.1599
 6803SOL    HW122609   9.629   4.481   1.791  2.2446 -1.2735 -1.2423
 6803SOL    HW222610   9.614   4.384   1.906  0.3806  0.2631 -0.1351
 6804SOL     OW22611   3.154   5.723   2.780  0.5896 -0.4783 -0.5801
 6804SOL    HW122612   3.175   5.789   2.715  3.6494 -0.4662  0.2937
 6804SOL    HW222613   3.215   5.651   2.763 -0.1766 -1.5120  0.7767
 6805SOL     OW22614   5.361   5.958   4.539 -0.8633  0.8255  0.3551
 6805SOL    HW122615   5.280   5.987   4.582 -0.3093 -1.1123  2.9373
 6805SOL    HW222616   5.345   5.867   4.517  0.5546  0.4269  0.8613
 6806SOL     OW22617   6.937   5.292   3.795 -0.3364 -0.3264 -0.1150
 6806SOL    HW122618   6.935   5.238   3.874  0.6783 -0.8107 -0.4040
 6806SOL    HW222619   7.024   5.331   3.795 -0.5052  0.0565 -0.7421
 6807SOL     OW22620   1.765   8.897   6.662  0.4144 -0.4459  0.3238
 6807SOL    HW122621   1.785   8.803   6.664 -0.1366 -0.5797  0.0012
 6807SOL    HW222622   1.806   8.928   6.581  0.6533 -0.3976  0.4647
 6808SOL     OW22623   9.013   1.867   4.120  0.1986 -0.0347 -0.0509
 6808SOL    HW122624   9.047   1.924   4.051  0.5807 -1.2150 -0.8854
 6808SOL    HW222625   8.959   1.803   4.073  0.1453 -0.6307  0.7968
 6809SOL     OW22626   7.182   2.091   0.343  0.7812  0.3703 -0.3914
 6809SOL    HW122627   7.241   2.086   0.419  2.4680 -0.4807 -1.6800
 6809SOL    HW222628   7.094   2.090   0.381  1.5629 -0.1517  1.5481
 6810SOL     OW22629   0.535   5.244   0.796  0.0591  0.0004 -0.0324
 6810SOL    HW122630   0.465   5.221   0.734  1.0128  0.9417 -1.5097
 6810SOL    HW222631   0.616   5.233   0.747  0.8496  0.9856  0.9898
 6811SOL     OW22632   2.462   8.583   8.259 -0.0354 -0.1988  0.2761
 6811SOL    HW122633   2.418   8.534   8.328 -1.1988  0.0770 -0.2473
 6811SOL    HW222634   2.449   8.675   8.284 -0.4367 -0.0981 -0.2813
 6812SOL     OW22635   0.876   8.483   5.575 -0.2968  0.0568  0.1789
 6812SOL    HW122636   0.855   8.438   5.494  0.4150  1.2429 -0.7042
 6812SOL    HW222637   0.970   8.500   5.570 -0.7841  3.1599 -0.4019
 6813SOL     OW22638   1.317   9.465   0.791  0.1907  0.2317  0.1715
 6813SOL    HW122639   1.369   9.497   0.864  1.3453 -0.7484 -0.2065
 6813SOL    HW222640   1.361   9.500   0.713 -0.3067  0.2330 -0.1148
 6814SOL     OW22641   4.473   8.755   0.438  0.4424 -0.1439  0.0119
 6814SOL    HW122642   4.402   8.691   0.434  0.5374 -0.2058 -0.8819
 6814SOL    HW222643   4.469   8.800   0.353  0.9217  0.4430  0.2980
 6815SOL     OW22644   0.360   1.475   3.008 -0.4971  0.1217 -0.4871
 6815SOL    HW122645   0.329   1.460   2.918 -0.5591 -0.3130 -0.3981
 6815SOL    HW222646   0.281   1.493   3.058 -0.8385 -2.4574  0.0361
 6816SOL     OW22647   5.793   7.962   0.089  0.3288 -0.4846  0.5279
 6816SOL    HW122648   5.869   7.975   0.032  0.4043  2.1313  1.0672
 6816SOL    HW222649   5.824   7.988   0.176 -1.5697  2.6894  0.4332
 6817SOL     OW22650   2.270   3.090   1.218  0.2639  0.7106 -0.2241
 6817SOL    HW122651   2.269   3.137   1.134  1.0654  1.4546  0.1664
 6817SOL    HW222652   2.325   3.014   1.203  1.6920  1.6546  0.0198
 6818SOL     OW22653   4.532   3.809   2.977  0.1808 -0.1107  0.0874
 6818SOL    HW122654   4.627   3.799   2.975  0.3263  1.1927 -0.7603
 6818SOL    HW222655   4.507   3.793   3.068  1.5015  1.7996  0.8311
 6819SOL     OW22656   5.021   4.323   4.684  0.0165  0.0720 -0.0569
 6819SOL    HW122657   5.098   4.327   4.741 -0.5183 -0.9780  0.7770
 6819SOL    HW222658   5.042   4.255   4.620  0.2757  0.6637 -0.6103
 6820SOL     OW22659   5.075   1.999   3.636  0.1574  0.9582  0.5420
 6820SOL    HW122660   4.991   1.999   3.681  0.7505  1.2890  1.6691
 6820SOL    HW222661   5.124   2.071   3.676  1.9230 -0.7990  1.7055
 6821SOL     OW22662   4.169   0.127   7.202  0.1347  0.0096 -0.0664
 6821SOL    HW122663   4.214   0.061   7.149  0.7086 -0.6761  1.2447
 6821SOL    HW222664   4.077   0.103   7.196  0.1312  0.2234 -1.1211
 6822SOL     OW22665   6.621   6.735   4.606 -0.2139  0.3177  0.0782
 6822SOL    HW122666   6.710   6.767   4.590  1.2638 -2.8871  1.0647
 6822SOL    HW222667   6.597   6.690   4.525 -0.1365 -0.4538  0.4791
 6823SOL     OW22668   2.582   4.775   9.050 -0.1844  0.6126 -0.5031
 6823SOL    HW122669   2.673   4.753   9.032 -0.8075 -2.5754 -0.4115
 6823SOL    HW222670   2.543   4.787   8.963  0.0153  0.4156 -0.6218
 6824SOL     OW22671   1.708   5.507   9.564 -0.4994 -0.0062 -0.2863
 6824SOL    HW122672   1.715   5.600   9.587 -2.5752  0.1823 -0.2069
 6824SOL    HW222673   1.797   5.473   9.574  0.6399  2.2638 -1.6795
 6825SOL     OW22674   6.209   1.183   3.450  0.0416  0.1564  0.2744
 6825SOL    HW122675   6.210   1.129   3.529 -0.3420 -0.9913 -0.4811
 6825SOL    HW222676   6.274   1.143   3.392  1.5436  1.9707  0.6048
 6826SOL     OW22677   8.031   6.490   9.450  1.0215  0.3307 -0.1143
 6826SOL    HW122678   8.126   6.480   9.455  1.1500 -0.4215 -2.6189
 6826SOL    HW222679   7.996   6.409   9.487  1.3374  0.4583  0.4790
 6827SOL     OW22680   1.834   7.249   8.878  0.6550 -0.0791 -0.5787
 6827SOL    HW122681   1.772   7.281   8.812 -0.1567  0.8909  0.5992
 6827SOL    HW222682   1.806   7.160   8.896  0.4326 -0.1019 -1.0265
 6828SOL     OW22683   7.889   8.477   3.858 -0.0738  0.1421  0.1010
 6828SOL    HW122684   7.945   8.400   3.855  3.2628  2.3565 -0.0371
 6828SOL    HW222685   7.880   8.504   3.766 -1.1136  0.0248  0.1540
 6829SOL     OW22686   7.678   3.927   7.702  0.0950  0.5322  0.6107
 6829SOL    HW122687   7.677   3.890   7.790 -0.2531  0.3083  0.5147
 6829SOL    HW222688   7.597   3.896   7.662  0.6310 -0.0347 -0.0659
 6830SOL     OW22689   5.741   7.640   2.690  0.2126 -0.0987 -0.8320
 6830SOL    HW122690   5.680   7.604   2.626  0.3464 -0.7238 -0.6130
 6830SOL    HW222691   5.685   7.677   2.759  0.0206 -2.6735  0.5112
 6831SOL     OW22692   5.245   8.073   5.166 -0.2892 -0.2955  0.1314
 6831SOL    HW122693   5.187   8.000   5.188 -0.4356 -0.4792 -0.8278
 6831SOL    HW222694   5.268   8.058   5.074 -1.0150  1.3163 -0.3469
 6832SOL     OW22695   2.951   1.884   3.729  0.5810 -0.5342  0.4641
 6832SOL    HW122696   3.025   1.826   3.710  0.1380 -0.8949 -0.2063
 6832SOL    HW222697   2.941   1.938   3.651  0.4754 -0.1148  0.7625
 6833SOL     OW22698   1.702   5.762   9.336  0.0198  0.3721 -0.4932
 6833SOL    HW122699   1.793   5.780   9.356 -0.5176  1.7264  0.9280
 6833SOL    HW222700   1.686   5.804   9.252  1.0283 -1.0918 -1.4645
 6834SOL     OW22701   9.395   7.010   6.385 -0.0202  0.0949 -0.1083
 6834SOL    HW122702   9.391   6.916   6.369  1.0037 -0.2436  1.3638
 6834SOL    HW222703   9.334   7.025   6.457 -1.0732  0.7883 -1.1060
 6835SOL     OW22704   3.336   5.035   0.174  0.2865 -0.1935 -0.4537
 6835SOL    HW122705   3.419   5.082   0.161  1.2532 -1.4111  0.9720
 6835SOL    HW222706   3.344   4.957   0.119 -0.3051  0.1145 -0.9900
 6836SOL     OW22707   8.492   8.428   0.017  0.1086 -0.0310  0.0063
 6836SOL    HW122708   8.459   8.339   0.002  1.6871 -0.9094  1.3963
 6836SOL    HW222709   8.511   8.461  -0.071 -1.7132 -0.5319 -0.6317
 6837SOL     OW22710   3.194   2.215   5.727 -0.6848 -0.1767 -0.8962
 6837SOL    HW122711   3.170   2.306   5.708 -1.2990  0.1140  1.0629
 6837SOL    HW222712   3.172   2.204   5.820 -0.5826 -2.3198 -1.0988
 6838SOL     OW22713   4.147   4.039   6.316  0.1038 -0.3317 -0.0549
 6838SOL    HW122714   4.104   4.124   6.327  2.8103  1.1007  0.5119
 6838SOL    HW222715   4.167   4.034   6.223  0.6674  0.0722  0.0377
 6839SOL     OW22716   8.749   1.716   7.820 -0.1045 -0.4746 -0.8253
 6839SOL    HW122717   8.695   1.638   7.829 -0.6795  0.0372  0.4585
 6839SOL    HW222718   8.837   1.687   7.843 -0.4915 -0.5525  0.6690
 6840SOL     OW22719   7.671   0.026   0.571  0.1901  0.5838  0.8392
 6840SOL    HW122720   7.743   0.034   0.633 -1.1906  1.5891  2.3741
 6840SOL    HW222721   7.627  -0.055   0.595  0.9854 -0.2325 -0.3438
 6841SOL     OW22722   1.920   0.945   2.936  0.2509  0.2852 -1.0716
 6841SOL    HW122723   1.850   0.925   2.998  0.2473 -1.4677 -1.5888
 6841SOL    HW222724   1.880   1.008   2.876 -0.6406 -0.0796 -0.8869
 6842SOL     OW22725   1.182   5.921   7.307 -0.2980 -0.0558  1.0433
 6842SOL    HW122726   1.244   5.875   7.251 -0.4928  0.2271  0.5887
 6842SOL    HW222727   1.237   5.970   7.369 -0.0342  0.9708  0.0187
 6843SOL     OW22728   5.183   0.826   8.544 -0.0607 -0.3296  0.2610
 6843SOL    HW122729   5.179   0.778   8.627 -1.9503 -0.0438  0.3733
 6843SOL    HW222730   5.093   0.850   8.526  0.1466 -1.3124 -2.4597
 6844SOL     OW22731   7.858   5.295   6.977 -0.2228  0.5587  0.0077
 6844SOL    HW122732   7.843   5.203   6.999 -2.0335  0.7148 -0.4961
 6844SOL    HW222733   7.952   5.300   6.959 -0.0367 -1.1113  0.3862
 6845SOL     OW22734   4.385   6.331   5.996 -0.7900 -0.5414 -0.2437
 6845SOL    HW122735   4.361   6.241   6.021  0.6690 -1.3137 -1.4962
 6845SOL    HW222736   4.394   6.328   5.901  1.4006  0.3454 -0.1304
 6846SOL     OW22737   7.261   4.116   7.813 -0.1508 -0.3946 -0.3093
 6846SOL    HW122738   7.299   4.031   7.837 -2.4033 -1.1288  1.0218
 6846SOL    HW222739   7.213   4.143   7.892 -1.6215  0.8291 -1.5655
 6847SOL     OW22740   3.528   9.078   0.447 -0.6656 -0.5402  0.1685
 6847SOL    HW122741   3.464   9.027   0.496 -0.2894 -0.5721  0.6370
 6847SOL    HW222742   3.556   9.146   0.508 -2.4186  1.3268 -0.9825
 6848SOL     OW22743   6.738   8.245   6.909  0.0460  0.1041  0.0025
 6848SOL    HW122744   6.772   8.261   6.997 -1.7103 -1.4078  1.0214
 6848SOL    HW222745   6.694   8.160   6.916 -2.0755  0.9898 -1.7687
 6849SOL     OW22746   4.546   6.323   2.383  0.3475 -0.6682  0.7458
 6849SOL    HW122747   4.462   6.359   2.413 -0.5464 -0.3060 -1.9725
 6849SOL    HW222748   4.611   6.384   2.417 -0.7986  1.1309 -0.1375
 6850SOL     OW22749   2.436   4.291   0.494  0.2478 -1.1059 -0.3114
 6850SOL    HW122750   2.522   4.316   0.461 -0.3183 -2.0214 -2.6508
 6850SOL    HW222751   2.455   4.218   0.553  1.1321 -0.7726 -0.1570
 6851SOL     OW22752   8.639   5.749   8.545 -0.0961  0.6240  0.2113
 6851SOL    HW122753   8.584   5.681   8.507  1.8898 -0.6838 -0.5019
 6851SOL    HW222754   8.640   5.819   8.480 -2.5736  1.6454  1.1761
 6852SOL     OW22755   5.587   7.444   5.794  0.0776  0.6412 -0.3093
 6852SOL    HW122756   5.493   7.455   5.786  0.0680  1.3993  0.7187
 6852SOL    HW222757   5.625   7.519   5.749  0.2511 -0.2983 -1.8192
 6853SOL     OW22758   2.317   2.972   5.521  0.0969 -0.0546 -0.3305
 6853SOL    HW122759   2.229   2.991   5.553 -0.6508 -1.4158 -1.4388
 6853SOL    HW222760   2.369   2.953   5.599 -0.4060  1.3894  0.3805
 6854SOL     OW22761   0.086   4.542   0.985  0.1147  0.1749 -0.2316
 6854SOL    HW122762   0.056   4.488   1.058  0.5052 -0.7037 -0.7103
 6854SOL    HW222763   0.110   4.479   0.917 -0.4226  0.9819 -1.1942
 6855SOL     OW22764   1.831   6.000   3.952 -0.1462  0.5507 -0.4902
 6855SOL    HW122765   1.825   6.052   4.032  2.2573  0.4553 -0.1687
 6855SOL    HW222766   1.831   6.064   3.881 -1.8700  0.6592 -0.4266
 6856SOL     OW22767   9.224   4.451   5.146 -0.1559  0.2522  0.1132
 6856SOL    HW122768   9.313   4.471   5.117 -1.1761  1.9903 -2.1438
 6856SOL    HW222769   9.170   4.464   5.068 -2.3089 -1.6172  1.1932
 6857SOL     OW22770   7.964   4.204   8.704 -0.8332 -0.5104 -0.1581
 6857SOL    HW122771   7.919   4.262   8.764 -1.3405 -0.7053 -0.3449
 6857SOL    HW222772   7.957   4.117   8.744  2.4455 -0.1246  1.6494
 6858SOL     OW22773   2.952   2.075   2.434  0.4853 -0.4270  0.6484
 6858SOL    HW122774   3.010   2.150   2.423 -0.6451  0.5701  1.2234
 6858SOL    HW222775   2.864   2.109   2.415 -0.0902 -1.5020  1.2713
 6859SOL     OW22776   5.742   7.339   6.221 -0.0285 -0.1363 -0.2968
 6859SOL    HW122777   5.660   7.383   6.199  0.4707  1.4477  0.7974
 6859SOL    HW222778   5.714   7.258   6.264 -1.0139  0.0200 -0.6045
 6860SOL     OW22779   1.005   7.147   3.696  0.0492 -0.2748  0.0180
 6860SOL    HW122780   1.060   7.097   3.757 -0.9123 -2.2543 -0.6618
 6860SOL    HW222781   1.068   7.191   3.639  0.9622 -1.2289  0.2322
 6861SOL     OW22782   3.373   9.451   0.580 -0.0134  0.6470 -0.1947
 6861SOL    HW122783   3.353   9.370   0.628 -0.1473  0.4261 -0.6164
 6861SOL    HW222784   3.335   9.437   0.493  1.2668  0.5602 -0.7575
 6862SOL     OW22785   3.849   1.533   7.392 -0.1125  0.1020 -0.3934
 6862SOL    HW122786   3.811   1.445   7.382  0.3061 -0.0816 -0.3763
 6862SOL    HW222787   3.801   1.587   7.329 -0.5502 -0.0787 -0.2245
 6863SOL     OW22788   8.560   8.975   4.506 -0.4467 -0.1757 -0.5793
 6863SOL    HW122789   8.535   8.959   4.415  1.7319 -0.9591 -1.1053
 6863SOL    HW222790   8.537   9.066   4.522  0.2993  0.3660 -2.3470
 6864SOL     OW22791   3.518   6.493   1.117  0.1013 -0.2599  0.2972
 6864SOL    HW122792   3.484   6.562   1.175  1.2539 -0.6206  1.4612
 6864SOL    HW222793   3.596   6.531   1.078  1.6416 -1.3534  2.1319
 6865SOL     OW22794   2.534   4.477   0.165 -0.3262  0.5034 -0.2165
 6865SOL    HW122795   2.469   4.407   0.169 -0.3009  0.5010  0.2516
 6865SOL    HW222796   2.568   4.474   0.076  2.3471 -2.5277  0.7076
 6866SOL     OW22797   1.686   2.953   2.447  0.1815  0.3291 -0.0676
 6866SOL    HW122798   1.722   2.893   2.382  0.2243  1.4829 -1.1596
 6866SOL    HW222799   1.763   2.984   2.496  0.1956 -0.2340  0.2719
 6867SOL     OW22800   9.349   4.279   3.880 -0.2272 -0.0450  0.4711
 6867SOL    HW122801   9.397   4.196   3.877  1.2713  0.8042 -0.4197
 6867SOL    HW222802   9.343   4.300   3.973 -1.2290 -1.4550  0.7557
 6868SOL     OW22803   8.393   0.132   6.599  0.2441 -0.0054  0.3649
 6868SOL    HW122804   8.462   0.128   6.534  0.6891  0.5853  0.7993
 6868SOL    HW222805   8.312   0.119   6.549  0.7367 -2.3236  0.0533
 6869SOL     OW22806   1.301   7.876   5.236 -0.5802  0.1230  0.3532
 6869SOL    HW122807   1.249   7.950   5.205  1.6518  1.3290 -0.7641
 6869SOL    HW222808   1.276   7.804   5.178 -0.6304  0.8380 -0.5400
 6870SOL     OW22809   0.203   6.195   1.181  0.1809 -0.2960 -0.2640
 6870SOL    HW122810   0.149   6.193   1.102 -0.5145  1.7122  0.1068
 6870SOL    HW222811   0.292   6.179   1.150  0.0845  1.5173 -1.6407
 6871SOL     OW22812   1.964   5.794   6.790 -0.1200 -0.3218 -0.4776
 6871SOL    HW122813   1.935   5.817   6.878  0.5677 -0.2884 -0.2603
 6871SOL    HW222814   1.948   5.700   6.783 -4.2538  0.2596 -1.8510
 6872SOL     OW22815   9.128   2.762   1.716 -0.3384 -0.7077  0.4159
 6872SOL    HW122816   9.035   2.741   1.725 -0.7270  0.2468 -1.1096
 6872SOL    HW222817   9.138   2.848   1.757 -0.1435 -0.7476  0.4568
 6873SOL     OW22818   0.293   1.561   7.251 -0.3545  0.0998  0.6266
 6873SOL    HW122819   0.198   1.563   7.238 -0.2804  1.3359  0.1063
 6873SOL    HW222820   0.329   1.572   7.163  0.3072 -1.6464  0.6382
 6874SOL     OW22821   0.515   8.205   4.760 -0.3076  0.0986 -0.0261
 6874SOL    HW122822   0.507   8.116   4.796  0.5364  0.1924  0.3985
 6874SOL    HW222823   0.436   8.250   4.791 -0.9558 -0.6069 -0.5842
 6875SOL     OW22824   3.567   7.544   0.177 -0.0879 -0.5185 -0.7815
 6875SOL    HW122825   3.628   7.523   0.105 -0.0065 -2.5508 -0.1785
 6875SOL    HW222826   3.590   7.633   0.202  1.2757 -0.5049 -1.9244
 6876SOL     OW22827   2.135   2.167   0.221  0.1003 -0.2208 -0.4766
 6876SOL    HW122828   2.173   2.110   0.288  0.4706  1.5414  0.8894
 6876SOL    HW222829   2.041   2.165   0.238  0.2355  0.5757  0.4194
 6877SOL     OW22830   9.301   5.614   2.303 -0.4847 -0.5308  0.3214
 6877SOL    HW122831   9.395   5.621   2.286 -0.4515 -0.5461  0.5032
 6877SOL    HW222832   9.260   5.666   2.234 -0.3522 -0.6977  0.1158
 6878SOL     OW22833   4.442   2.738   0.218 -0.2288 -0.1065  0.5267
 6878SOL    HW122834   4.461   2.801   0.149 -1.2689  0.9793  1.2001
 6878SOL    HW222835   4.461   2.653   0.178 -0.7366  0.4958 -1.0832
 6879SOL     OW22836   1.517   2.763   8.007 -0.1089  0.4909 -0.0086
 6879SOL    HW122837   1.580   2.694   7.986  0.3880  1.0330 -0.3464
 6879SOL    HW222838   1.477   2.735   8.089 -1.1688 -1.0580 -0.9989
 6880SOL     OW22839   4.847   2.508   9.100  0.2826  0.3434  0.4107
 6880SOL    HW122840   4.921   2.453   9.075  1.0459  1.2677  0.5756
 6880SOL    HW222841   4.784   2.498   9.028  1.4249  1.0822 -0.7508
 6881SOL     OW22842   9.289   0.012   6.727  0.2626  0.1330  0.1655
 6881SOL    HW122843   9.245   0.008   6.643  0.2491  0.1308  0.1727
 6881SOL    HW222844   9.340   0.093   6.724  1.1608 -0.4355 -0.2968
 6882SOL     OW22845   1.176   8.722   5.392  0.7665 -0.1692 -0.5691
 6882SOL    HW122846   1.140   8.638   5.363  1.2318 -1.0684  1.3429
 6882SOL    HW222847   1.252   8.699   5.445  2.5081  1.5776 -2.1179
 6883SOL     OW22848   8.271   1.061   7.033 -0.1709 -0.0415  0.6323
 6883SOL    HW122849   8.351   1.036   6.986 -0.8879 -0.2573 -0.5019
 6883SOL    HW222850   8.209   0.992   7.012 -1.2225  1.0583  0.0080
 6884SOL     OW22851   2.204   7.974   0.359  0.1396 -0.3742  0.0616
 6884SOL    HW122852   2.196   7.970   0.455 -1.8204  2.6150  0.1347
 6884SOL    HW222853   2.278   8.033   0.344  0.0637 -0.3595 -0.2553
 6885SOL     OW22854   0.113   5.906   1.203  0.2150  0.4878  0.3369
 6885SOL    HW122855   0.189   5.963   1.188 -0.3047  0.9182 -0.7553
 6885SOL    HW222856   0.151   5.825   1.238  1.1979  0.6516 -0.2991
 6886SOL     OW22857   0.570   0.913   6.656 -0.2663  0.0403  0.0700
 6886SOL    HW122858   0.624   0.971   6.601 -1.3652  1.1541  0.1227
 6886SOL    HW222859   0.564   0.832   6.606 -1.6170  1.1834 -1.7299
 6887SOL     OW22860   4.488   9.217   5.907  0.2005 -0.2328  0.9543
 6887SOL    HW122861   4.578   9.217   5.874  0.1352  0.4361  0.7642
 6887SOL    HW222862   4.446   9.143   5.863  0.4213 -0.0270  0.3939
 6888SOL     OW22863   4.912   6.354   8.241 -0.0760 -0.6152  0.5847
 6888SOL    HW122864   4.829   6.323   8.207  1.1015 -3.0684 -0.2665
 6888SOL    HW222865   4.955   6.396   8.166  0.7106 -2.1368  0.1556
 6889SOL     OW22866   5.828   9.128   7.664  0.0375 -0.4415  0.4939
 6889SOL    HW122867   5.805   9.081   7.583  0.1235 -1.1196  0.8529
 6889SOL    HW222868   5.746   9.167   7.694 -0.4334 -1.8911  1.1589
 6890SOL     OW22869   2.353   7.347   0.579  0.5308  0.2016 -0.5641
 6890SOL    HW122870   2.273   7.310   0.541  0.5739 -1.2644  0.6613
 6890SOL    HW222871   2.330   7.438   0.599 -0.3782  0.1900 -1.4711
 6891SOL     OW22872   0.447   1.024   0.390  0.1937 -0.0329 -0.2046
 6891SOL    HW122873   0.415   0.973   0.316  0.0565 -0.3726  0.0829
 6891SOL    HW222874   0.517   0.971   0.427  1.4378  0.9199 -1.1148
 6892SOL     OW22875   2.749   2.011   8.663 -0.0804 -0.3626 -0.5924
 6892SOL    HW122876   2.674   2.066   8.686  0.2566 -0.6916  1.5736
 6892SOL    HW222877   2.824   2.070   8.665  0.3122 -0.8382  1.9510
 6893SOL     OW22878   2.484   6.404   4.949 -1.1121  0.3928  0.2615
 6893SOL    HW122879   2.480   6.384   5.043 -2.0333 -0.1372  0.1216
 6893SOL    HW222880   2.510   6.496   4.945  0.3493  0.0393  0.9930
 6894SOL     OW22881   2.396   0.658   5.924  0.4180  0.7673  0.2268
 6894SOL    HW122882   2.457   0.730   5.914  0.7763  0.5035  0.4802
 6894SOL    HW222883   2.346   0.657   5.842  0.6493  1.0803  0.0806
 6895SOL     OW22884   4.313   0.035   5.882  0.0159 -0.4917 -0.1951
 6895SOL    HW122885   4.400   0.028   5.921 -0.7985  0.9496  2.1258
 6895SOL    HW222886   4.286   0.125   5.901 -0.8753  0.0363 -3.4289
 6896SOL     OW22887   2.513   7.646   7.179  0.1689 -0.0323  0.4664
 6896SOL    HW122888   2.532   7.637   7.086  2.4800 -1.4606  1.0124
 6896SOL    HW222889   2.568   7.719   7.208  0.6419 -0.5894  0.9966
 6897SOL     OW22890   1.317   1.903   2.870 -0.6762 -0.3905  0.6144
 6897SOL    HW122891   1.297   1.810   2.878 -3.3607  0.1706  1.2054
 6897SOL    HW222892   1.323   1.919   2.776  1.0650 -1.3245  0.5124
 6898SOL     OW22893   1.331   0.933   7.801  0.1700 -0.1103  0.1046
 6898SOL    HW122894   1.310   1.021   7.832 -0.1658  0.2579 -1.1293
 6898SOL    HW222895   1.246   0.892   7.785  0.3369 -0.2115 -0.5413
 6899SOL     OW22896   5.119   0.915   4.587  0.5447 -0.2490  0.3514
 6899SOL    HW122897   5.184   0.847   4.569 -0.9392 -1.8379  0.7355
 6899SOL    HW222898   5.034   0.871   4.576 -0.4766  1.0614  2.2964
 6900SOL     OW22899   8.356   3.954   1.378 -0.2897 -0.1600  0.5110
 6900SOL    HW122900   8.339   3.860   1.382 -0.2459 -0.1299  1.8121
 6900SOL    HW222901   8.269   3.995   1.376 -0.3659 -0.2451 -2.4376
 6901SOL     OW22902   4.590   1.974   5.623  0.2239 -0.0360  0.4933
 6901SOL    HW122903   4.628   2.059   5.601 -1.4192  0.6750  0.2451
 6901SOL    HW222904   4.644   1.910   5.577  0.3422  1.0195 -0.8745
 6902SOL     OW22905   2.600   3.196   3.521  0.1175  0.3219  0.2405
 6902SOL    HW122906   2.674   3.142   3.495  1.6583  2.3034  0.2564
 6902SOL    HW222907   2.635   3.252   3.590 -0.8593  2.5224 -0.9612
 6903SOL     OW22908   3.499   7.119   5.206 -0.1655  0.1637 -0.0551
 6903SOL    HW122909   3.564   7.170   5.158 -0.3915  0.6176  0.1223
 6903SOL    HW222910   3.478   7.172   5.283 -0.4562 -0.1614  0.0932
 6904SOL     OW22911   7.715   8.953   0.562  0.2933  0.4713 -0.2185
 6904SOL    HW122912   7.690   9.029   0.510 -0.4324  0.4764  0.1318
 6904SOL    HW222913   7.633   8.917   0.593  0.6795  0.0413  0.3234
 6905SOL     OW22914   1.270   2.036   8.737 -0.4349 -0.7496  0.2268
 6905SOL    HW122915   1.252   2.117   8.689  1.3977  0.3696  1.3065
 6905SOL    HW222916   1.228   2.049   8.823  0.9708 -0.3386  0.8779
 6906SOL     OW22917   6.334   8.286   0.235  0.2458  0.0203  0.0169
 6906SOL    HW122918   6.276   8.340   0.181  0.8161  0.6543  0.0328
 6906SOL    HW222919   6.275   8.244   0.298  0.0325  2.5445  1.6505
 6907SOL     OW22920   6.276   2.757   4.257  0.0388  0.5115  0.2973
 6907SOL    HW122921   6.243   2.747   4.346 -0.1044  0.1950  0.2096
 6907SOL    HW222922   6.320   2.842   4.257 -1.0419  1.0893  0.3321
 6908SOL     OW22923   9.141   1.081   3.120 -0.5109  0.7558  0.1719
 6908SOL    HW122924   9.061   1.052   3.077  1.6387 -0.0518 -3.7024
 6908SOL    HW222925   9.131   1.176   3.128 -1.3157  0.8435 -1.5915
 6909SOL     OW22926   0.500   0.277   1.098  0.6161  0.2946  0.3652
 6909SOL    HW122927   0.436   0.347   1.085 -1.0067 -0.8736  1.6617
 6909SOL    HW222928   0.582   0.323   1.113  0.0877  1.8574 -1.1038
 6910SOL     OW22929   0.601   7.851   6.257 -0.6151 -0.2049  0.4225
 6910SOL    HW122930   0.578   7.762   6.283 -0.4500 -0.2235  0.5046
 6910SOL    HW222931   0.692   7.861   6.284 -0.2751 -0.4024 -0.6014
 6911SOL     OW22932   8.173   2.802   5.412 -0.2615 -0.0821 -0.2733
 6911SOL    HW122933   8.097   2.782   5.358  0.2138 -1.5526 -0.4314
 6911SOL    HW222934   8.143   2.871   5.471 -1.4962 -0.1480 -0.7984
 6912SOL     OW22935   7.062   5.939   6.162  0.3111 -0.2315  0.0864
 6912SOL    HW122936   7.052   5.937   6.067 -0.9303 -0.9985  0.2152
 6912SOL    HW222937   6.974   5.958   6.195  0.8779  0.8166  1.0689
 6913SOL     OW22938   1.916   1.392   5.182 -0.0574 -0.5259 -0.1176
 6913SOL    HW122939   1.833   1.379   5.137  0.0856  1.0024 -0.8640
 6913SOL    HW222940   1.965   1.310   5.167 -0.9832 -1.0007 -0.6049
 6914SOL     OW22941   3.256   6.732   9.571  0.0660  0.5712 -0.4001
 6914SOL    HW122942   3.231   6.681   9.494 -1.2899  1.0580 -0.3006
 6914SOL    HW222943   3.199   6.809   9.568  0.7520  1.1287  0.5064
 6915SOL     OW22944   0.825   0.753   2.479 -0.3006 -0.7523 -0.2020
 6915SOL    HW122945   0.769   0.792   2.547  0.9871 -0.8845  0.9787
 6915SOL    HW222946   0.813   0.659   2.489  0.8914 -0.8202  0.7552
 6916SOL     OW22947   1.779   5.170   5.973  0.4025 -0.1968 -0.6697
 6916SOL    HW122948   1.770   5.252   6.022  0.0871 -0.6887  0.1190
 6916SOL    HW222949   1.872   5.161   5.956  0.7940 -1.0065  1.6259
 6917SOL     OW22950   9.162   7.700   0.265 -0.6769 -0.1165 -0.0030
 6917SOL    HW122951   9.255   7.696   0.288 -0.7813  1.1915  0.6928
 6917SOL    HW222952   9.126   7.768   0.321 -1.8223  0.2097 -1.0993
 6918SOL     OW22953   2.914   1.455   2.638 -0.0495  0.1336  0.0919
 6918SOL    HW122954   2.986   1.458   2.701  0.4463 -0.7056 -0.4210
 6918SOL    HW222955   2.956   1.447   2.553 -0.7275 -1.9566 -0.1053
 6919SOL     OW22956   4.295   4.939   0.894 -0.1287 -0.6472  0.9729
 6919SOL    HW122957   4.246   4.991   0.830 -2.4485 -1.0791  2.2858
 6919SOL    HW222958   4.387   4.958   0.875 -0.8091  1.4452 -0.6174
 6920SOL     OW22959   0.804   7.828   5.278 -0.0513  0.2402 -0.5766
 6920SOL    HW122960   0.722   7.785   5.255  1.1170 -1.1297 -2.4767
 6920SOL    HW222961   0.804   7.831   5.374 -2.0744 -0.1664 -0.5334
 6921SOL     OW22962   2.019   1.271   8.081 -0.0752  0.0150 -0.2080
 6921SOL    HW122963   2.033   1.194   8.026  3.0132 -0.6362  1.2935
 6921SOL    HW222964   2.036   1.345   8.023  0.9646 -0.5908 -0.7038
 6922SOL     OW22965   5.005   3.095   4.305  0.3948 -0.0198 -0.7982
 6922SOL    HW122966   5.053   3.012   4.304 -0.0727 -0.2970 -0.6860
 6922SOL    HW222967   5.062   3.155   4.352  0.8486 -0.2103 -1.0994
 6923SOL     OW22968   7.413   2.119   3.131 -0.3281 -0.1221  0.2090
 6923SOL    HW122969   7.425   2.080   3.044  0.8391  0.6775 -0.0137
 6923SOL    HW222970   7.428   2.213   3.117  0.9936 -0.1103  1.4559
 6924SOL     OW22971   4.899   4.591   5.566 -0.4099 -0.5074 -0.1261
 6924SOL    HW122972   4.992   4.572   5.563 -0.3584 -0.2331 -0.3210
 6924SOL    HW222973   4.857   4.505   5.574 -0.3411 -1.1249 -4.1385
 6925SOL     OW22974   1.596   1.090   4.872 -0.2875 -0.5558 -0.1816
 6925SOL    HW122975   1.572   1.082   4.965  1.6411 -1.5563  0.2897
 6925SOL    HW222976   1.556   1.013   4.831 -1.1819 -0.0894 -0.2257
 6926SOL     OW22977   2.613   7.285   0.489  0.2242 -0.6318  0.1098
 6926SOL    HW122978   2.584   7.233   0.414 -2.6794  0.6591  0.2005
 6926SOL    HW222979   2.533   7.319   0.527  1.7640  0.7036  2.4210
 6927SOL     OW22980   4.471   0.291   3.708  0.1449 -0.7535  0.5045
 6927SOL    HW122981   4.408   0.329   3.646 -0.2663 -0.7769  0.9030
 6927SOL    HW222982   4.545   0.352   3.706  0.2236 -0.8645 -0.1641
 6928SOL     OW22983   8.858   1.469   4.076  0.5370 -0.5582 -0.1963
 6928SOL    HW122984   8.881   1.469   4.169  0.0501 -0.7996 -0.0687
 6928SOL    HW222985   8.868   1.560   4.048  3.7609 -0.9535 -0.7138
 6929SOL     OW22986   6.830   1.706   3.575  0.3417 -0.4243 -0.4092
 6929SOL    HW122987   6.822   1.801   3.563 -0.6741 -0.3180  0.8471
 6929SOL    HW222988   6.907   1.695   3.630  0.1814 -0.2781 -0.1511
 6930SOL     OW22989   6.965   5.875   4.527  0.0227 -0.4892 -0.4326
 6930SOL    HW122990   6.931   5.963   4.516  0.1349  0.0108  2.4596
 6930SOL    HW222991   6.896   5.817   4.494 -1.0056  0.6345 -0.3000
 6931SOL     OW22992   2.597   3.674   3.495  0.1926 -0.3841  0.2212
 6931SOL    HW122993   2.567   3.599   3.547 -2.1345 -0.0828 -0.5454
 6931SOL    HW222994   2.669   3.711   3.545 -0.6897 -1.2469  2.2491
 6932SOL     OW22995   7.835   9.287   8.052 -0.4975 -0.2398  0.1412
 6932SOL    HW122996   7.759   9.262   8.105  0.2988 -1.9105  0.5502
 6932SOL    HW222997   7.877   9.204   8.029  1.1745  0.6421 -0.1364
 6933SOL     OW22998   8.886   4.289   1.524 -0.0139  0.0888 -0.8450
 6933SOL    HW122999   8.830   4.349   1.574  0.1756  1.4733 -2.2031
 6933SOL    HW223000   8.975   4.320   1.542  0.2052 -0.8127 -0.3112
 6934SOL     OW23001   2.251   9.253   6.731  0.2055 -0.5929  0.4825
 6934SOL    HW123002   2.234   9.237   6.824  1.6729  1.8440  1.2659
 6934SOL    HW223003   2.253   9.349   6.724  1.7703 -0.7280 -1.7459
 6935SOL     OW23004   9.546   6.523   5.314  0.1768 -0.5458 -0.4982
 6935SOL    HW123005   9.468   6.576   5.331 -0.2642 -1.1673 -0.5614
 6935SOL    HW223006   9.588   6.514   5.399 -0.9116 -1.9022 -0.0738
 6936SOL     OW23007   5.620   4.252   8.231 -0.1769  0.9174 -0.1925
 6936SOL    HW123008   5.676   4.329   8.223  1.7070 -0.4136 -0.5216
 6936SOL    HW223009   5.656   4.203   8.305 -1.8444  0.7217  0.5262
 6937SOL     OW23010   7.902   6.127   6.832 -0.1455  0.1432  0.9012
 6937SOL    HW123011   7.865   6.061   6.890 -2.0259  1.1571  0.9459
 6937SOL    HW223012   7.996   6.112   6.835 -0.4797 -2.2769  1.1786
 6938SOL     OW23013   7.368   1.423   2.087  1.1063 -0.3214  0.1869
 6938SOL    HW123014   7.378   1.364   2.013 -1.3281 -0.3296 -0.2396
 6938SOL    HW223015   7.305   1.379   2.144 -0.7376  1.7321 -0.1142
 6939SOL     OW23016   1.361   9.350   6.518  0.0471  0.5806 -0.3642
 6939SOL    HW123017   1.409   9.410   6.575 -0.1304  0.6528 -0.2901
 6939SOL    HW223018   1.351   9.399   6.436  1.9766 -0.2192 -1.1532
 6940SOL     OW23019   0.164   3.774   2.745 -0.0254  0.5968  0.3973
 6940SOL    HW123020   0.253   3.776   2.709 -0.2250  1.0383 -0.0926
 6940SOL    HW223021   0.159   3.853   2.799 -0.2270  0.7446  0.1605
 6941SOL     OW23022   4.640   2.263   7.180  0.0734 -0.1230 -0.1473
 6941SOL    HW123023   4.596   2.279   7.263 -0.1941  2.3501 -0.6904
 6941SOL    HW223024   4.732   2.251   7.203 -0.2694 -1.4977  0.6418
 6942SOL     OW23025   4.558   5.072   6.022  0.8612 -0.1421 -0.0204
 6942SOL    HW123026   4.555   5.055   6.116  1.6897 -2.3543 -0.3194
 6942SOL    HW223027   4.502   5.004   5.984 -1.0690  1.8998 -1.0621
 6943SOL     OW23028   6.176   7.577   0.023  0.4153 -0.4754 -0.0340
 6943SOL    HW123029   6.103   7.550  -0.034  0.3692  2.5353 -1.5782
 6943SOL    HW223030   6.138   7.643   0.081  0.5611 -3.1591  3.4499
 6944SOL     OW23031   2.605   8.811   6.606 -0.2759 -0.1156 -0.1075
 6944SOL    HW123032   2.614   8.860   6.524  0.9683  0.9458  0.6106
 6944SOL    HW223033   2.659   8.734   6.594  3.4716  2.0599  1.0977
 6945SOL     OW23034   2.543   9.327   7.057 -0.4900  0.0101  0.1284
 6945SOL    HW123035   2.537   9.416   7.022  1.1407 -0.1296 -0.6079
 6945SOL    HW223036   2.503   9.333   7.144 -1.1622  1.2532 -0.2328
 6946SOL     OW23037   0.553   0.574   4.478 -0.3321  0.2066  0.2004
 6946SOL    HW123038   0.632   0.581   4.424  0.5266  2.8610  1.6292
 6946SOL    HW223039   0.586   0.569   4.568 -1.7895  0.9093  0.8058
 6947SOL     OW23040   2.127   5.384   8.865 -0.0741  0.2355 -0.3338
 6947SOL    HW123041   2.034   5.373   8.883  0.3645  0.1085  2.1989
 6947SOL    HW223042   2.129   5.430   8.781 -2.3187 -1.8511 -1.6794
 6948SOL     OW23043   9.507   8.326   8.922  0.0689  0.0031 -0.0895
 6948SOL    HW123044   9.431   8.383   8.907  0.0113 -0.4107 -1.4779
 6948SOL    HW223045   9.528   8.338   9.015 -1.3824  0.5021  0.1958
 6949SOL     OW23046   4.334   8.251   4.553 -0.3179  0.2664 -0.2410
 6949SOL    HW123047   4.252   8.211   4.522 -1.2925 -0.2961  2.7578
 6949SOL    HW223048   4.319   8.345   4.546 -2.2835  0.2761  2.4116
 6950SOL     OW23049   5.402   7.023   4.487 -0.3676 -0.0625 -0.1037
 6950SOL    HW123050   5.357   7.009   4.570  1.8421  1.2904  1.4275
 6950SOL    HW223051   5.375   7.111   4.459  0.5678  0.3792  0.3485
 6951SOL     OW23052   9.158   4.723   2.094  0.0640 -0.0722  0.0357
 6951SOL    HW123053   9.184   4.771   2.172 -1.6151  1.0968 -0.0640
 6951SOL    HW223054   9.157   4.789   2.024 -1.5569 -0.3652 -0.2661
 6952SOL     OW23055   5.140   3.090   6.096  0.3232 -0.2824 -0.0684
 6952SOL    HW123056   5.180   3.048   6.020  0.4956  0.4946 -0.4152
 6952SOL    HW223057   5.146   3.184   6.077  3.1007  0.1441  2.2270
 6953SOL     OW23058   1.170   1.074   0.672 -0.0370  0.4799  0.5179
 6953SOL    HW123059   1.108   1.131   0.718 -0.0261  0.2530  0.8233
 6953SOL    HW223060   1.204   1.127   0.601 -1.6021  0.1952 -0.5069
 6954SOL     OW23061   1.415   0.833   8.060 -0.3767 -0.2983  0.2351
 6954SOL    HW123062   1.429   0.927   8.068  0.3117 -0.2074 -1.5205
 6954SOL    HW223063   1.375   0.822   7.974 -0.1079 -1.6364  0.2551
 6955SOL     OW23064   8.356   6.398   0.460  0.5832 -0.7597  0.5107
 6955SOL    HW123065   8.344   6.473   0.402  2.0331  0.5686  1.8238
 6955SOL    HW223066   8.274   6.393   0.510 -0.8088 -2.1079 -1.7126
 6956SOL     OW23067   6.052   7.600   8.547  0.0548  0.0492 -0.0323
 6956SOL    HW123068   6.046   7.672   8.484 -1.1089 -0.0931 -0.1077
 6956SOL    HW223069   6.096   7.530   8.500  3.2891  1.3970  0.7144
 6957SOL     OW23070   5.202   7.124   6.206  0.0209  0.1732  0.1091
 6957SOL    HW123071   5.165   7.172   6.132  1.3411  0.9811 -0.0531
 6957SOL    HW223072   5.278   7.078   6.169 -0.1398 -0.5491  0.6659
 6958SOL     OW23073   5.919   4.784   1.466  0.2359  0.5900 -0.4734
 6958SOL    HW123074   5.913   4.876   1.442 -0.6850  0.4236 -0.9191
 6958SOL    HW223075   5.833   4.748   1.445  0.6727 -0.4352 -0.5660
 6959SOL     OW23076   6.645   5.420   5.762  0.6431 -0.2136 -0.5412
 6959SOL    HW123077   6.608   5.368   5.833 -0.0693 -0.2607 -0.9395
 6959SOL    HW223078   6.735   5.436   5.789  0.1068  0.6361  0.8597
 6960SOL     OW23079   7.038   1.963   1.897  0.0083 -0.1636 -0.5236
 6960SOL    HW123080   6.996   1.979   1.982 -3.0449  1.1419 -2.1078
 6960SOL    HW223081   7.040   1.868   1.888  0.0841 -0.3050  0.8634
 6961SOL     OW23082   1.811   5.176   1.607 -0.4172 -0.0754 -0.5975
 6961SOL    HW123083   1.738   5.117   1.587 -0.4483 -0.0098 -0.6779
 6961SOL    HW223084   1.781   5.262   1.577 -2.0452  0.8203  3.0618
 6962SOL     OW23085   1.552   3.812   1.632 -0.3895  0.5694 -0.0491
 6962SOL    HW123086   1.491   3.780   1.565 -1.1820 -0.8056  1.2505
 6962SOL    HW223087   1.565   3.737   1.690 -0.3209  1.8920  1.7450
 6963SOL     OW23088   6.754   2.192   2.244 -0.2924  0.0992 -0.1687
 6963SOL    HW123089   6.740   2.153   2.330  3.6443 -0.5113  0.3875
 6963SOL    HW223090   6.778   2.283   2.263 -1.2026  0.4724 -0.7819
 6964SOL     OW23091   0.273   6.126   5.437 -0.4939 -0.2787 -0.0501
 6964SOL    HW123092   0.242   6.200   5.385 -2.6142 -0.5775  0.6898
 6964SOL    HW223093   0.290   6.162   5.524  0.3252 -0.3222 -0.1798
 6965SOL     OW23094   8.590   3.536   0.599  0.3727 -0.2320  0.4852
 6965SOL    HW123095   8.663   3.500   0.649  0.8572 -1.2107 -0.8674
 6965SOL    HW223096   8.620   3.534   0.508 -0.2229  2.0983  0.1683
 6966SOL     OW23097   0.070   2.155   9.184  0.2516 -0.5924  0.2509
 6966SOL    HW123098   0.087   2.242   9.221 -0.6528 -0.1049 -0.4551
 6966SOL    HW223099   0.044   2.102   9.260 -0.4003  0.0809  0.5080
 6967SOL     OW23100   1.279   6.183   1.837 -0.2077 -0.0258 -0.0414
 6967SOL    HW123101   1.305   6.103   1.883  1.5544 -1.4002 -3.1130
 6967SOL    HW223102   1.361   6.229   1.821 -1.1774  2.4003  1.4658
 6968SOL     OW23103   3.386   0.615   9.120 -0.5060  0.0298  0.3292
 6968SOL    HW123104   3.443   0.556   9.071  0.3593 -0.6321  2.0679
 6968SOL    HW223105   3.300   0.605   9.079  0.2127 -0.3198 -1.1769
 6969SOL     OW23106   8.602   0.948   2.022 -0.2832  0.6063  0.1085
 6969SOL    HW123107   8.644   0.956   1.936  1.3173 -0.3304  0.7573
 6969SOL    HW223108   8.660   0.995   2.081  0.6261 -1.8182  1.2477
 6970SOL     OW23109   5.367   0.525   6.434  0.2089 -0.1500  0.3852
 6970SOL    HW123110   5.282   0.534   6.477  0.1265  1.3578 -0.0043
 6970SOL    HW223111   5.429   0.506   6.505 -0.4600 -1.4762  0.6423
 6971SOL     OW23112   1.821   4.960   2.186 -0.1642  0.1635  0.3096
 6971SOL    HW123113   1.761   4.952   2.112 -0.1843 -1.9404  0.4976
 6971SOL    HW223114   1.769   5.001   2.255 -0.5270  0.9516 -0.4142
 6972SOL     OW23115   5.631   2.290   0.458  0.0242 -0.1920 -0.2633
 6972SOL    HW123116   5.563   2.357   0.460 -2.4235 -2.4502 -1.2884
 6972SOL    HW223117   5.613   2.236   0.535  0.9082 -0.6052 -0.3350
 6973SOL     OW23118   4.922   6.780   2.589  0.3000 -0.4266 -0.1335
 6973SOL    HW123119   5.015   6.760   2.602  0.9924  0.7211 -2.6365
 6973SOL    HW223120   4.914   6.872   2.615 -0.4958 -0.8837  1.3643
 6974SOL     OW23121   2.337   2.391   4.137  0.1474  0.3276 -0.2999
 6974SOL    HW123122   2.351   2.486   4.142  1.8379  0.1902 -1.3838
 6974SOL    HW223123   2.279   2.379   4.062 -2.5305  0.6324  1.5968
 6975SOL     OW23124   6.461   4.228   1.517 -0.5222 -0.1221 -0.3251
 6975SOL    HW123125   6.511   4.256   1.440 -1.3684  0.6329 -0.6214
 6975SOL    HW223126   6.417   4.307   1.547 -0.6412 -0.5317  0.6068
 6976SOL     OW23127   4.378   6.531   4.898 -0.1775  0.2517  0.4552
 6976SOL    HW123128   4.300   6.569   4.857 -0.3152 -0.9849 -0.4933
 6976SOL    HW223129   4.422   6.484   4.827  0.3896 -0.7002  1.4124
 6977SOL     OW23130   6.438   1.108   3.254  0.2400 -0.4868 -0.1822
 6977SOL    HW123131   6.412   1.171   3.187  2.4532  0.1208 -0.5705
 6977SOL    HW223132   6.480   1.161   3.322 -0.5315 -1.2627  0.9301
 6978SOL     OW23133   1.496   9.172   6.892  0.2778  0.5169  0.0424
 6978SOL    HW123134   1.417   9.121   6.908 -0.3550  1.4653  0.0123
 6978SOL    HW223135   1.568   9.114   6.916 -0.4633  0.0463  1.1707
 6979SOL     OW23136   1.467   5.065   8.837 -0.2513 -0.0541  0.3141
 6979SOL    HW123137   1.448   5.004   8.766 -2.4149 -0.2039  0.9424
 6979SOL    HW223138   1.562   5.059   8.850  0.2009 -0.1066 -2.4299
 6980SOL     OW23139   9.093   5.904   1.792 -0.2907 -0.2924 -0.0527
 6980SOL    HW123140   9.188   5.914   1.785 -0.1953  0.4176  1.7691
 6980SOL    HW223141   9.058   5.947   1.714  0.9042 -1.9883 -1.6177
 6981SOL     OW23142   0.190   4.929   7.542 -0.0632  0.1841  0.0860
 6981SOL    HW123143   0.169   4.898   7.454 -0.9359 -1.6205  0.8749
 6981SOL    HW223144   0.156   5.019   7.545  0.7034  0.5682 -1.6445
 6982SOL     OW23145   3.894   8.607   9.569  0.2601 -0.1572 -0.5095
 6982SOL    HW123146   3.861   8.544   9.632 -0.4134 -0.7166 -1.4118
 6982SOL    HW223147   3.982   8.628   9.601  1.0391 -2.5405 -0.8867
 6983SOL     OW23148   4.316   7.669   9.004  0.5343 -0.1225 -0.2065
 6983SOL    HW123149   4.311   7.574   9.017 -0.0543 -0.1359 -0.5010
 6983SOL    HW223150   4.350   7.703   9.087  0.4646 -0.5589  0.0028
 6984SOL     OW23151   0.378   8.587   1.315 -0.8176  0.4321  0.4149
 6984SOL    HW123152   0.319   8.600   1.241 -1.4486 -2.1738  0.3828
 6984SOL    HW223153   0.369   8.667   1.367 -2.0675  1.3599 -1.1531
 6985SOL     OW23154   3.846   3.529   3.126 -0.2727 -0.6652 -0.4019
 6985SOL    HW123155   3.756   3.529   3.094 -0.4185  0.3196 -0.0190
 6985SOL    HW223156   3.862   3.619   3.153  0.0071 -1.3139  1.8219
 6986SOL     OW23157   0.257   4.898   8.515  0.6933  0.7696 -0.1955
 6986SOL    HW123158   0.200   4.861   8.582  2.2731  1.7909  1.8540
 6986SOL    HW223159   0.237   4.849   8.436 -0.9263 -0.8466  1.1360
 6987SOL     OW23160   4.504   8.992   9.435 -0.6990  0.3997 -0.1011
 6987SOL    HW123161   4.434   8.955   9.382 -0.3401 -0.1495 -0.2003
 6987SOL    HW223162   4.557   9.043   9.374  0.0667 -0.7374 -0.4011
 6988SOL     OW23163   4.934   7.421   7.877 -0.9321 -0.4850  0.0635
 6988SOL    HW123164   4.844   7.413   7.847 -1.5722 -0.9658  2.0190
 6988SOL    HW223165   4.966   7.331   7.885  0.5212 -0.3467 -2.6560
 6989SOL     OW23166   0.840   0.981   8.537 -0.7490  0.4242  0.3285
 6989SOL    HW123167   0.828   1.000   8.630 -1.4099  1.7679 -0.0024
 6989SOL    HW223168   0.877   1.062   8.501 -0.2202 -0.1840 -0.5283
 6990SOL     OW23169   7.532   1.932   9.516  0.7237 -0.5659 -0.3086
 6990SOL    HW123170   7.551   1.860   9.456  1.1794 -0.9080  0.2365
 6990SOL    HW223171   7.437   1.941   9.513  0.7400 -0.5691 -1.0860
 6991SOL     OW23172   2.383   1.887   7.465  0.1413  0.1370 -0.2994
 6991SOL    HW123173   2.413   1.803   7.430 -0.2114  0.7265 -2.0887
 6991SOL    HW223174   2.437   1.952   7.420 -0.6012  0.9460 -0.0257
 6992SOL     OW23175   2.376   0.983   7.308 -0.4341  0.5804  0.0703
 6992SOL    HW123176   2.328   1.029   7.239  0.0356 -0.5942 -1.0918
 6992SOL    HW223177   2.458   1.031   7.318  0.2940 -0.2531 -1.5252
 6993SOL     OW23178   9.469   8.573   3.043 -0.0760 -0.1368 -0.3165
 6993SOL    HW123179   9.536   8.505   3.051  0.5893  0.6674  1.2809
 6993SOL    HW223180   9.442   8.569   2.951 -0.9659 -3.3886 -0.0603
 6994SOL     OW23181   7.480   8.027   5.464  0.3415 -0.4723 -0.5017
 6994SOL    HW123182   7.406   7.967   5.453  0.0617  0.2333 -2.8253
 6994SOL    HW223183   7.460   8.074   5.545 -1.1280 -1.1638 -0.4294
 6995SOL     OW23184   7.853   2.809   4.550 -0.4322  0.4843 -0.2332
 6995SOL    HW123185   7.884   2.896   4.574  2.8742 -0.4056 -0.8842
 6995SOL    HW223186   7.867   2.804   4.456 -0.0864 -0.9346 -0.1211
 6996SOL     OW23187   2.591   1.171   9.492  0.6088  0.1045 -0.0393
 6996SOL    HW123188   2.594   1.258   9.533  0.5779  0.8254 -1.5034
 6996SOL    HW223189   2.503   1.139   9.510  0.5384  0.4818  0.3071
 6997SOL     OW23190   9.476   6.208   2.509  0.3708  0.1330 -0.3945
 6997SOL    HW123191   9.546   6.154   2.473 -0.1120 -1.1165  0.5010
 6997SOL    HW223192   9.396   6.172   2.471  0.1237  0.9212 -0.6362
 6998SOL     OW23193   3.976   9.297   5.890 -0.2411 -0.2490 -0.7766
 6998SOL    HW123194   4.066   9.320   5.866 -0.0651 -0.9189 -0.7671
 6998SOL    HW223195   3.922   9.346   5.827  0.1843 -1.3035 -2.0147
 6999SOL     OW23196   2.710   1.481   6.121 -0.2295 -0.1049  0.1536
 6999SOL    HW123197   2.677   1.550   6.063 -2.3896 -1.6394 -0.5394
 6999SOL    HW223198   2.783   1.523   6.168 -0.1939  2.0360 -1.6250
 7000SOL     OW23199   0.662   1.186   5.070  0.2302 -0.2829 -0.4733
 7000SOL    HW123200   0.643   1.269   5.114  1.7100  0.4178 -1.1274
 7000SOL    HW223201   0.620   1.120   5.126 -1.4650  0.9216 -0.2541
 7001SOL     OW23202   7.502   5.651   2.916 -0.0841  0.0007 -0.0361
 7001SOL    HW123203   7.544   5.737   2.917 -0.0042 -0.0235 -0.7043
 7001SOL    HW223204   7.480   5.637   2.823 -1.3364 -0.0961  0.2575
 7002SOL     OW23205   4.393   6.538   6.844  0.8565 -0.3165  0.1982
 7002SOL    HW123206   4.486   6.555   6.857  0.7012 -0.1888  1.1721
 7002SOL    HW223207   4.371   6.471   6.908  0.0454  0.3976  0.6872
 7003SOL     OW23208   3.480   3.462   7.594  0.6510 -0.0046 -0.2941
 7003SOL    HW123209   3.395   3.456   7.551  0.6274  0.4024 -0.3121
 7003SOL    HW223210   3.528   3.527   7.542  0.7702  0.1811  0.0452
 7004SOL     OW23211   3.561   1.162   2.454 -0.3113  0.1488  0.2808
 7004SOL    HW123212   3.568   1.070   2.480 -0.0671  0.5417  1.7112
 7004SOL    HW223213   3.468   1.182   2.465 -0.4570 -0.0579 -0.5352
 7005SOL     OW23214   7.449   0.514   0.252  0.3672  0.1903 -0.6337
 7005SOL    HW123215   7.463   0.576   0.323  0.9673 -0.8826  0.2232
 7005SOL    HW223216   7.521   0.530   0.192  0.8576 -0.0653 -0.1210
 7006SOL     OW23217   6.921   6.273   3.417  0.2150 -0.5453  0.5092
 7006SOL    HW123218   6.951   6.340   3.356 -0.0907 -1.5665 -0.8164
 7006SOL    HW223219   6.999   6.221   3.437  0.0374 -1.1261 -0.2409
 7007SOL     OW23220   0.870   0.873   4.412  0.1472 -0.1250 -0.0852
 7007SOL    HW123221   0.806   0.941   4.392 -0.7772 -1.3494 -1.5521
 7007SOL    HW223222   0.833   0.793   4.374  1.6234 -1.2786  0.7659
 7008SOL     OW23223   6.009   9.357   3.390  0.0413  0.7645  0.4395
 7008SOL    HW123224   5.917   9.330   3.387  0.4962 -0.8269 -0.7941
 7008SOL    HW223225   6.049   9.295   3.451  1.0321 -1.3045 -2.1305
 7009SOL     OW23226   3.080   4.990   6.596 -0.2142 -0.2490  0.1483
 7009SOL    HW123227   3.003   4.983   6.652 -1.1245  0.7754 -0.9005
 7009SOL    HW223228   3.102   4.900   6.573 -0.4022 -0.6175  1.3563
 7010SOL     OW23229   0.597   8.631   5.278  0.2222  0.7017  0.4749
 7010SOL    HW123230   0.598   8.595   5.367  1.1322  2.0253  1.0318
 7010SOL    HW223231   0.659   8.703   5.281  2.2402 -0.7587 -1.9061
 7011SOL     OW23232   2.009   3.165   4.064 -0.1543  0.8975  0.4839
 7011SOL    HW123233   1.940   3.112   4.023 -0.2449  0.5623  1.0507
 7011SOL    HW223234   2.034   3.115   4.141  0.3168  1.3080  0.5998
 7012SOL     OW23235   3.956   3.856   8.357 -0.3386 -0.5923  0.4516
 7012SOL    HW123236   4.015   3.782   8.373 -1.4372 -1.3405  1.2074
 7012SOL    HW223237   3.978   3.886   8.269  1.2883 -0.7141  0.7728
 7013SOL     OW23238   6.168   0.020   4.817 -0.4927  0.0866  0.3700
 7013SOL    HW123239   6.110   0.082   4.860 -0.2203  0.4430  0.2252
 7013SOL    HW223240   6.138   0.018   4.726 -0.0552  0.5417  0.2122
 7014SOL     OW23241   7.342   6.097   8.682  0.0640 -0.3756  0.0035
 7014SOL    HW123242   7.334   6.028   8.616 -1.9238 -1.4660  1.2996
 7014SOL    HW223243   7.436   6.115   8.687  0.4111 -1.4817 -1.8630
 7015SOL     OW23244   1.129   2.641   3.283  0.2595 -0.6267 -0.4019
 7015SOL    HW123245   1.205   2.604   3.238  0.4056  0.2143 -0.8770
 7015SOL    HW223246   1.063   2.649   3.214  0.4508  0.5870 -0.4578
 7016SOL     OW23247   5.792   5.768   6.069 -0.1641 -0.3901  0.5133
 7016SOL    HW123248   5.753   5.698   6.015  0.0702 -0.0319 -0.1377
 7016SOL    HW223249   5.718   5.811   6.110 -0.4734  0.2588 -0.6859
 7017SOL     OW23250   9.378   1.190   6.560  0.6757 -0.2416 -0.4168
 7017SOL    HW123251   9.324   1.137   6.502  2.3794 -2.0579 -0.4251
 7017SOL    HW223252   9.338   1.179   6.647  0.5371 -0.8896 -0.5567
 7018SOL     OW23253   8.744   8.565   0.451 -0.3331  0.9330  0.2437
 7018SOL    HW123254   8.766   8.481   0.490 -1.5194  0.4864 -0.0070
 7018SOL    HW223255   8.723   8.545   0.360 -0.6767  1.4885  0.1912
 7019SOL     OW23256   5.375   1.991   8.754  0.2000 -0.0887  0.0606
 7019SOL    HW123257   5.365   1.912   8.806  0.5671 -0.9284 -1.0958
 7019SOL    HW223258   5.334   2.060   8.806 -1.6736 -1.3539  0.3321
 7020SOL     OW23259   4.369   4.869   3.981 -0.2164 -0.3850 -0.8893
 7020SOL    HW123260   4.375   4.776   3.958  1.7066 -1.0681  1.8763
 7020SOL    HW223261   4.460   4.898   3.986 -0.4097  0.0943  3.5601
 7021SOL     OW23262   6.477   1.686   7.616  0.3328  0.2926 -0.4304
 7021SOL    HW123263   6.511   1.759   7.668  0.9813 -0.6508  0.4964
 7021SOL    HW223264   6.417   1.727   7.553  1.9466  1.8085 -1.0491
 7022SOL     OW23265   6.831   6.956   4.771 -0.2548  0.4287  0.0208
 7022SOL    HW123266   6.839   6.914   4.857 -0.3598 -1.2836 -0.7776
 7022SOL    HW223267   6.867   6.893   4.709 -0.9426  1.2796 -1.3049
 7023SOL     OW23268   6.513   4.701   2.050  0.5052  0.0702 -0.3698
 7023SOL    HW123269   6.564   4.745   1.982 -0.1026 -0.9116 -1.5024
 7023SOL    HW223270   6.574   4.690   2.123  1.1240  1.2846 -0.6857
 7024SOL     OW23271   8.612   5.035   0.523  0.3254 -0.4777 -0.0041
 7024SOL    HW123272   8.609   5.077   0.437  1.1443  0.0908  0.2415
 7024SOL    HW223273   8.565   4.953   0.510 -0.5758  0.1269 -0.6987
 7025SOL     OW23274   7.367   6.841   3.185  0.0479 -0.3187 -0.6628
 7025SOL    HW123275   7.440   6.902   3.170 -0.0622  0.1152  0.4591
 7025SOL    HW223276   7.379   6.773   3.119  0.4867  0.6324 -1.5971
 7026SOL     OW23277   6.794   0.824   3.307  0.4607 -0.0176 -0.4622
 7026SOL    HW123278   6.711   0.783   3.284  0.5666  0.8584 -2.7840
 7026SOL    HW223279   6.808   0.803   3.399 -2.7102  0.4564  0.2453
 7027SOL     OW23280   5.105   2.694   3.881 -0.7413 -0.3770 -0.5366
 7027SOL    HW123281   5.066   2.746   3.951  0.3679  0.4444 -0.5146
 7027SOL    HW223282   5.059   2.723   3.802 -1.2517 -0.5447 -0.3082
 7028SOL     OW23283   8.905   1.426   3.535  0.3276  0.1720  0.3004
 7028SOL    HW123284   8.864   1.436   3.621  0.5812 -0.4212  0.4936
 7028SOL    HW223285   8.842   1.373   3.485  1.2368 -1.5302  0.8881
 7029SOL     OW23286   2.511   6.377   0.029  0.1910  0.5430 -0.5371
 7029SOL    HW123287   2.448   6.330  -0.025  0.2857 -0.3477  0.1120
 7029SOL    HW223288   2.595   6.333   0.012  0.5103  1.2492 -0.8354
 7030SOL     OW23289   5.510   3.142   7.164  0.0985  0.3547  0.1934
 7030SOL    HW123290   5.537   3.216   7.110 -1.9343  0.4567 -0.7938
 7030SOL    HW223291   5.525   3.065   7.108  0.7316  0.1645  0.6171
 7031SOL     OW23292   5.011   9.331   2.765  0.0056 -0.1610  0.7562
 7031SOL    HW123293   5.058   9.253   2.736 -0.6980 -0.6118  0.7911
 7031SOL    HW223294   5.038   9.400   2.705  0.1781 -0.5772  0.3494
 7032SOL     OW23295   8.014   1.482   8.828  0.2961  0.2976  0.1097
 7032SOL    HW123296   7.950   1.455   8.894  1.5105  1.4128  1.8327
 7032SOL    HW223297   8.090   1.426   8.844  0.9419  1.2003  0.3143
 7033SOL     OW23298   5.708   3.035   0.134 -0.2187  0.3746  0.1596
 7033SOL    HW123299   5.670   3.085   0.206 -0.5610 -0.7504  0.7732
 7033SOL    HW223300   5.633   2.998   0.088  0.0269  0.5338 -0.3708
 7034SOL     OW23301   5.529   7.807   2.196  0.2269  0.2039  0.0407
 7034SOL    HW123302   5.576   7.728   2.220  1.2361  0.0471 -2.2373
 7034SOL    HW223303   5.530   7.861   2.275  1.1556 -1.2717  1.0689
 7035SOL     OW23304   4.226   0.655   3.007 -1.1876 -0.2885 -0.3900
 7035SOL    HW123305   4.206   0.720   2.940 -0.8160 -0.3115 -0.5264
 7035SOL    HW223306   4.221   0.571   2.961  2.2887 -0.1603 -1.2563
 7036SOL     OW23307   8.497   6.715   8.728  0.0600  0.8425 -0.3186
 7036SOL    HW123308   8.589   6.703   8.752  0.1641  0.3729 -0.9531
 7036SOL    HW223309   8.455   6.738   8.811  1.1546  3.5628 -0.4099
 7037SOL     OW23310   0.650   7.770   0.938 -0.0862  0.1190  0.0419
 7037SOL    HW123311   0.582   7.799   0.877  0.8525  1.1377 -0.5508
 7037SOL    HW223312   0.625   7.680   0.960 -1.6443  0.4792 -0.1225
 7038SOL     OW23313   1.090   4.628   7.891 -0.6029  0.9537 -0.4577
 7038SOL    HW123314   1.075   4.547   7.843 -0.0378  1.7941 -2.1106
 7038SOL    HW223315   1.003   4.651   7.925 -0.5281 -1.0546  1.3014
 7039SOL     OW23316   8.268   5.057   4.665  0.2731 -0.1269 -0.4472
 7039SOL    HW123317   8.319   5.129   4.701  0.1575 -0.7939  1.1138
 7039SOL    HW223318   8.332   5.005   4.616  0.9086 -0.4092  0.6511
 7040SOL     OW23319   5.621   7.517   8.895 -0.6343 -0.2354  0.4614
 7040SOL    HW123320   5.597   7.603   8.929 -0.3617 -0.2874  0.7890
 7040SOL    HW223321   5.540   7.483   8.856 -0.8266  0.0255  0.6311
 7041SOL     OW23322   7.597   0.327   0.619 -0.4919 -0.0783  0.0397
 7041SOL    HW123323   7.525   0.320   0.557  0.8113 -0.5405 -1.4771
 7041SOL    HW223324   7.667   0.273   0.582  0.7863  0.6577  1.2611
 7042SOL     OW23325   1.545   8.632   8.045 -0.2951  0.2507 -0.6090
 7042SOL    HW123326   1.451   8.621   8.028  0.0930 -1.4864 -1.9578
 7042SOL    HW223327   1.555   8.608   8.138 -0.8468 -2.6254 -1.1823
 7043SOL     OW23328   8.978   2.409   2.764  0.2133 -0.7120  0.2152
 7043SOL    HW123329   9.034   2.474   2.722 -0.3379 -0.8563 -0.7771
 7043SOL    HW223330   8.904   2.459   2.798 -0.3664 -0.8352 -0.8225
 7044SOL     OW23331   9.172   8.504   2.971  0.0044 -0.2453  0.5286
 7044SOL    HW123332   9.080   8.525   2.960  0.3357  0.4915 -1.1300
 7044SOL    HW223333   9.207   8.575   3.024 -0.2430 -0.2069  0.6413
 7045SOL     OW23334   0.801   6.142   7.355 -0.2618 -0.4606  0.3215
 7045SOL    HW123335   0.762   6.214   7.405 -0.4029 -0.2914 -0.0309
 7045SOL    HW223336   0.746   6.134   7.277  0.8336  0.2767 -0.5523
 7046SOL     OW23337   6.395   8.710   3.789  0.2650 -0.2045  0.0253
 7046SOL    HW123338   6.349   8.746   3.864 -0.7118  0.7123 -0.9744
 7046SOL    HW223339   6.330   8.659   3.742  0.2512  0.9603 -1.3101
 7047SOL     OW23340   8.697   4.227   8.503  0.6183  0.4583  0.2504
 7047SOL    HW123341   8.700   4.222   8.598  3.2540  0.2681  0.2206
 7047SOL    HW223342   8.686   4.320   8.484  0.7401  0.5688  0.7203
 7048SOL     OW23343   7.507   6.591   4.326 -0.0854 -0.5659  0.4980
 7048SOL    HW123344   7.450   6.588   4.249  0.3076  1.1133  0.1084
 7048SOL    HW223345   7.594   6.569   4.293 -0.0269 -0.4296  0.5586
 7049SOL     OW23346   5.054   9.540   0.949  0.1252 -0.0902  0.3113
 7049SOL    HW123347   5.052   9.634   0.968  0.7534  0.2517 -1.2058
 7049SOL    HW223348   5.002   9.501   1.019  0.5763  1.2906  1.4774
 7050SOL     OW23349   8.311   0.720   4.988 -0.0947 -0.1727 -0.0346
 7050SOL    HW123350   8.284   0.812   4.987 -2.5983 -0.8119 -1.3476
 7050SOL    HW223351   8.388   0.717   4.932 -2.2682  0.6719 -3.4369
 7051SOL     OW23352   4.160   4.727   1.011  0.2439 -0.4742 -0.0099
 7051SOL    HW123353   4.073   4.700   0.981 -1.2220  0.6428  2.8679
 7051SOL    HW223354   4.179   4.807   0.962 -0.4874 -0.5390 -0.4115
 7052SOL     OW23355   5.177   5.128   5.546 -0.6885  0.0525 -0.2794
 7052SOL    HW123356   5.239   5.175   5.491 -0.9173  0.5021 -0.1523
 7052SOL    HW223357   5.218   5.128   5.633 -0.9306  0.4680 -0.1652
 7053SOL     OW23358   7.745   3.319   1.797 -0.5016  0.2855 -0.3415
 7053SOL    HW123359   7.809   3.253   1.823  0.9357  1.0582 -1.7515
 7053SOL    HW223360   7.774   3.399   1.841 -1.6528  0.2455  0.5501
 7054SOL     OW23361   4.713   1.602   5.206  0.0245  0.0458 -0.0210
 7054SOL    HW123362   4.776   1.580   5.274  2.1926  0.3915 -1.7836
 7054SOL    HW223363   4.690   1.518   5.166 -0.3115 -0.0365  0.3389
 7055SOL     OW23364   9.445   7.988   7.373 -0.1188 -0.5032  0.0960
 7055SOL    HW123365   9.434   7.969   7.280  1.0195 -0.6842 -0.0213
 7055SOL    HW223366   9.540   7.989   7.386 -0.2616 -1.9913  1.5678
 7056SOL     OW23367   8.386   0.295   5.790  0.5125  0.0777 -0.1621
 7056SOL    HW123368   8.469   0.342   5.800  0.5509  0.4487 -1.9459
 7056SOL    HW223369   8.319   0.363   5.793  0.1007 -0.3365  2.5399
 7057SOL     OW23370   5.245   5.229   3.249 -0.8150  0.8319  0.5463
 7057SOL    HW123371   5.269   5.146   3.292  0.7321  0.4913 -0.8814
 7057SOL    HW223372   5.159   5.212   3.211  0.6054 -1.1655 -2.1203
 7058SOL     OW23373   0.149   0.770   1.737 -0.1200  0.0239 -0.9670
 7058SOL    HW123374   0.211   0.800   1.804 -1.2943  0.4813 -0.0504
 7058SOL    HW223375   0.096   0.704   1.783 -0.4641 -0.1882 -1.6673
 7059SOL     OW23376   8.433   2.903   3.386 -0.4946 -0.4883  0.9804
 7059SOL    HW123377   8.424   2.990   3.426  1.0323 -0.0787  0.4992
 7059SOL    HW223378   8.374   2.904   3.312  0.4408  0.6367  0.2126
 7060SOL     OW23379   1.934   8.718   2.365  0.0945 -0.3045 -0.1826
 7060SOL    HW123380   1.977   8.747   2.285  0.4513  0.7527  0.3664
 7060SOL    HW223381   1.929   8.797   2.419 -0.8905 -0.8105  0.5059
 7061SOL     OW23382   0.265   8.158   3.154  0.6206 -0.2763 -0.8247
 7061SOL    HW123383   0.204   8.124   3.219  0.0006 -0.0386 -1.2692
 7061SOL    HW223384   0.239   8.115   3.072  1.0242 -0.1452 -1.0199
 7062SOL     OW23385   7.656   3.520   2.409  0.3847 -0.6107  0.2824
 7062SOL    HW123386   7.583   3.566   2.450 -0.1831 -1.0533 -0.2152
 7062SOL    HW223387   7.626   3.429   2.402  0.9878 -0.7981  0.0770
 7063SOL     OW23388   1.165   3.936   7.695  0.0485 -0.0622 -0.2014
 7063SOL    HW123389   1.204   3.970   7.775 -0.4088 -0.3634  0.1550
 7063SOL    HW223390   1.122   4.012   7.655  0.2055  0.0699 -0.1224
 7064SOL     OW23391   2.968   7.653   4.626  0.5458 -1.0427  0.4572
 7064SOL    HW123392   2.964   7.731   4.571  1.1807 -1.0324  0.4183
 7064SOL    HW223393   2.987   7.582   4.565 -2.0657 -1.6046  0.1608
 7065SOL     OW23394   6.556   2.247   5.981 -0.0882  0.5068  0.2943
 7065SOL    HW123395   6.585   2.163   6.017  1.0707  0.8718  0.2789
 7065SOL    HW223396   6.592   2.248   5.892  1.3152  1.6809  0.8391
 7066SOL     OW23397   6.326   1.121   4.713 -0.4712 -0.1181 -0.0834
 7066SOL    HW123398   6.250   1.065   4.697 -1.6601  0.9833  1.4788
 7066SOL    HW223399   6.379   1.112   4.633 -2.4487 -0.5701 -1.4118
 7067SOL     OW23400   7.917   1.049   4.029  0.2546 -0.0426 -0.8670
 7067SOL    HW123401   7.844   1.108   4.045 -0.0128 -0.8956  1.4526
 7067SOL    HW223402   7.965   1.089   3.957 -0.4439  2.4900 -0.0395
 7068SOL     OW23403   2.640   8.366   1.569  0.2344 -0.0034  0.2495
 7068SOL    HW123404   2.635   8.405   1.656 -1.2237  0.6868 -0.1016
 7068SOL    HW223405   2.549   8.360   1.541  0.6546 -0.6760 -1.0311
 7069SOL     OW23406   3.598   5.123   4.443  0.0608 -0.2048  0.2840
 7069SOL    HW123407   3.615   5.029   4.453  1.2082 -0.0886 -0.4531
 7069SOL    HW223408   3.652   5.150   4.369 -0.9563  0.8651 -0.1074
 7070SOL     OW23409   1.317   8.542   6.444  0.0163  0.4331  0.3991
 7070SOL    HW123410   1.360   8.571   6.525  0.5710  1.0276 -0.0986
 7070SOL    HW223411   1.388   8.506   6.391  0.2455  2.8363 -1.0725
 7071SOL     OW23412   5.851   6.434   2.318 -0.1491 -0.0687  0.9209
 7071SOL    HW123413   5.940   6.415   2.347 -0.7593 -0.9991  2.2509
 7071SOL    HW223414   5.846   6.394   2.231  0.2174 -1.5202  1.5332
 7072SOL     OW23415   3.301   5.327   2.300 -0.1824 -0.2745 -0.4378
 7072SOL    HW123416   3.364   5.331   2.228  1.5189  2.8852  1.0067
 7072SOL    HW223417   3.248   5.406   2.289  0.4224  0.5321  1.9519
 7073SOL     OW23418   0.543   0.170   2.769  0.1266 -0.2564  0.4045
 7073SOL    HW123419   0.568   0.157   2.678 -0.5146  0.7372  0.0745
 7073SOL    HW223420   0.613   0.128   2.819  1.4077  0.7187 -0.5104
 7074SOL     OW23421   0.681   3.625   6.123 -0.2643  0.6883  0.0366
 7074SOL    HW123422   0.760   3.581   6.155 -0.7605  0.1925  0.6298
 7074SOL    HW223423   0.633   3.649   6.203 -1.8411 -1.1316 -0.2783
 7075SOL     OW23424   0.663   0.652   8.707  0.1768  0.4652 -0.4487
 7075SOL    HW123425   0.691   0.575   8.757 -0.1754  0.6238 -0.0008
 7075SOL    HW223426   0.683   0.630   8.616 -1.3317 -0.8023 -0.5225
 7076SOL     OW23427   6.111   6.290   5.800  0.0634  0.0204 -0.7165
 7076SOL    HW123428   6.197   6.247   5.807  0.4685  1.0651  2.0945
 7076SOL    HW223429   6.071   6.250   5.723  2.8778 -0.8188 -1.8891
 7077SOL     OW23430   2.140   0.876   3.535 -0.2987  0.3085 -0.4859
 7077SOL    HW123431   2.157   0.785   3.562 -0.4975  0.1563 -0.8638
 7077SOL    HW223432   2.057   0.871   3.488  0.6311  0.3596 -2.2201
 7078SOL     OW23433   4.677   3.434   6.695  0.4296  0.1204 -0.0707
 7078SOL    HW123434   4.664   3.369   6.765  0.3268  1.1726  0.9295
 7078SOL    HW223435   4.683   3.517   6.742 -0.2518  0.9356 -1.3818
 7079SOL     OW23436   7.308   0.918   4.232  0.5772  0.1423  0.1963
 7079SOL    HW123437   7.354   0.926   4.316  2.0647  1.4023 -0.6847
 7079SOL    HW223438   7.237   0.982   4.237  1.8812  1.6996 -0.2040
 7080SOL     OW23439   1.528   7.615   9.389  0.0862  0.3496 -0.4641
 7080SOL    HW123440   1.558   7.671   9.317  1.0826  1.1894  0.5772
 7080SOL    HW223441   1.589   7.632   9.461 -0.5811 -0.8510  0.4327
 7081SOL     OW23442   2.215   6.718   3.801  0.4951 -0.4934  0.6948
 7081SOL    HW123443   2.218   6.675   3.887 -0.8107  1.8541  2.0253
 7081SOL    HW223444   2.144   6.781   3.809  1.4203  0.9451 -1.5846
 7082SOL     OW23445   4.816   4.208   2.189  0.0493  0.4425 -0.5850
 7082SOL    HW123446   4.883   4.155   2.144  0.5728  0.6749 -0.0950
 7082SOL    HW223447   4.859   4.236   2.270 -1.6255 -1.9557  1.3070
 7083SOL     OW23448   4.875   6.057   5.760  0.3368 -0.0301  0.3159
 7083SOL    HW123449   4.866   6.138   5.709  0.4408  0.3084  0.8349
 7083SOL    HW223450   4.875   6.086   5.851  3.0537 -0.3352  0.4846
 7084SOL     OW23451   2.335   6.256   0.450  0.1455 -0.4540  0.0171
 7084SOL    HW123452   2.348   6.161   0.453  0.7531 -0.3631  0.6781
 7084SOL    HW223453   2.268   6.270   0.383  0.8692 -1.2637 -0.9060
 7085SOL     OW23454   6.932   7.613   5.453  0.3942 -0.7422  0.2488
 7085SOL    HW123455   6.890   7.694   5.427 -0.3043 -1.1088  0.2257
 7085SOL    HW223456   6.968   7.631   5.540  0.0778 -0.4667  0.3231
 7086SOL     OW23457   5.798   6.930   5.065  0.1986 -0.4506 -0.4301
 7086SOL    HW123458   5.817   7.023   5.047  0.3515 -0.4304 -0.1799
 7086SOL    HW223459   5.787   6.927   5.160  1.3339 -0.8864 -0.3014
 7087SOL     OW23460   4.416   5.535   4.406 -0.2893 -0.1551  0.0214
 7087SOL    HW123461   4.434   5.608   4.347 -0.2722 -0.0642  0.1382
 7087SOL    HW223462   4.331   5.555   4.445 -0.3752 -0.2943 -0.0919
 7088SOL     OW23463   7.767   0.672   5.759 -0.0225 -0.0614  0.3310
 7088SOL    HW123464   7.824   0.672   5.837  1.0768 -1.7377 -0.4099
 7088SOL    HW223465   7.743   0.580   5.748  0.2447  0.0747 -1.5921
 7089SOL     OW23466   2.109   3.874   8.907  0.1208 -0.2280  0.3084
 7089SOL    HW123467   2.022   3.869   8.948  0.1879 -0.0897  0.4690
 7089SOL    HW223468   2.170   3.858   8.979  0.2642  0.7523  0.4072
 7090SOL     OW23469   6.489   5.585   1.459 -0.2150  0.0059 -0.1949
 7090SOL    HW123470   6.531   5.651   1.403 -0.6439 -0.0675 -0.6067
 7090SOL    HW223471   6.407   5.565   1.415  0.8133 -2.3496 -1.2362
 7091SOL     OW23472   3.981   8.359   5.835  0.2108 -0.6814  0.1574
 7091SOL    HW123473   3.965   8.287   5.896  1.3513 -0.9929  0.1120
 7091SOL    HW223474   3.992   8.436   5.891  0.2451 -0.7828  0.2907
 7092SOL     OW23475   5.770   7.053   3.223 -0.0539  0.3779 -0.3625
 7092SOL    HW123476   5.796   6.974   3.270  0.6861  0.1195 -1.1912
 7092SOL    HW223477   5.840   7.116   3.242 -2.1817  2.0585  3.0565
 7093SOL     OW23478   2.853   4.943   6.752  0.2096  0.0569 -0.6489
 7093SOL    HW123479   2.788   4.876   6.730 -0.2046  0.7840 -1.7343
 7093SOL    HW223480   2.872   4.929   6.844 -2.8548  0.9591  0.2388
 7094SOL     OW23481   3.398   6.467   6.911 -0.0041 -0.2442 -0.2139
 7094SOL    HW123482   3.326   6.436   6.965 -0.9369 -1.8800 -2.2465
 7094SOL    HW223483   3.377   6.558   6.892 -1.7607 -0.7730 -1.0067
 7095SOL     OW23484   2.164   8.343   2.274  0.0607 -0.4983  0.3048
 7095SOL    HW123485   2.242   8.391   2.301  0.5450 -0.9571 -0.2570
 7095SOL    HW223486   2.194   8.286   2.203 -1.3113  1.2630 -1.8540
 7096SOL     OW23487   1.817   5.797   2.807  0.1930  0.0834 -0.2173
 7096SOL    HW123488   1.911   5.817   2.811  0.2842  0.1067 -1.7966
 7096SOL    HW223489   1.808   5.738   2.733 -1.1282  0.6081 -0.5107
 7097SOL     OW23490   5.864   1.724   5.155  0.2418 -0.4062  0.3689
 7097SOL    HW123491   5.827   1.636   5.165  0.0349 -0.2973  0.5632
 7097SOL    HW223492   5.945   1.710   5.106  0.6729 -0.8107  1.1757
 7098SOL     OW23493   6.217   7.754   0.610 -0.5525  0.4397 -0.1809
 7098SOL    HW123494   6.245   7.751   0.519  0.9370  0.9511  0.2454
 7098SOL    HW223495   6.121   7.762   0.605 -0.4708  0.7564 -1.6884
 7099SOL     OW23496   4.327   2.944   9.216  0.3898 -0.4607 -0.2506
 7099SOL    HW123497   4.319   3.019   9.157  0.9142  1.1015  1.5777
 7099SOL    HW223498   4.373   2.878   9.164  1.3309  1.0525 -1.4173
 7100SOL     OW23499   4.246   9.540   0.329 -0.7351  0.1779  0.0663
 7100SOL    HW123500   4.183   9.514   0.263 -1.4438  2.2668 -0.1642
 7100SOL    HW223501   4.331   9.530   0.286 -0.7814 -2.8584  0.4559
 7101SOL     OW23502   2.764   4.940   0.208 -0.7762 -0.0149 -0.0956
 7101SOL    HW123503   2.795   4.875   0.145 -0.0945  1.8826 -1.8283
 7101SOL    HW223504   2.842   4.969   0.254 -0.8851  0.4288 -0.1832
 7102SOL     OW23505   8.284   8.144   4.492 -0.3294 -0.2165  0.2802
 7102SOL    HW123506   8.342   8.079   4.454  2.6406  2.4668 -0.1824
 7102SOL    HW223507   8.219   8.093   4.540  0.9795 -3.4876 -1.1435
 7103SOL     OW23508   3.448   9.401   0.166  0.0838  0.3963 -0.9248
 7103SOL    HW123509   3.526   9.383   0.218  1.5126  0.6324 -2.8725
 7103SOL    HW223510   3.464   9.357   0.083 -3.1533 -1.9784 -0.4624
 7104SOL     OW23511   0.635   5.355   1.442  0.0735 -0.0296  0.0600
 7104SOL    HW123512   0.647   5.408   1.521 -2.0421  2.1387 -0.9460
 7104SOL    HW223513   0.565   5.294   1.465 -0.3455  0.4111 -0.0120
 7105SOL     OW23514   8.186   3.452   0.960  0.2912  0.2460 -0.1336
 7105SOL    HW123515   8.218   3.404   1.037 -1.5455 -1.4483 -0.3576
 7105SOL    HW223516   8.094   3.469   0.979  0.2092  1.2382 -1.3056
 7106SOL     OW23517   9.249   9.043   7.657 -0.2467  0.3796 -0.1868
 7106SOL    HW123518   9.312   9.032   7.585 -0.0681  0.9115 -0.1113
 7106SOL    HW223519   9.164   9.027   7.616 -0.0698 -0.3489 -0.2878
 7107SOL     OW23520   4.316   3.679   7.249  0.1836  0.1749  0.1081
 7107SOL    HW123521   4.365   3.615   7.196  1.8059  0.9033  0.6658
 7107SOL    HW223522   4.308   3.637   7.334  0.0762  0.1746  0.0977
 7108SOL     OW23523   0.592   8.399   5.146 -0.1163  0.1848  0.8099
 7108SOL    HW123524   0.607   8.479   5.198 -1.2668  0.1952  1.1454
 7108SOL    HW223525   0.497   8.395   5.134  0.0967  0.0810 -1.1688
 7109SOL     OW23526   8.566   1.512   7.922  0.3388  0.4035 -0.3945
 7109SOL    HW123527   8.641   1.454   7.909 -0.3388 -0.9401  1.2781
 7109SOL    HW223528   8.513   1.468   7.989 -0.8505  2.3621  0.0383
 7110SOL     OW23529   3.205   4.334   4.304  0.7403 -0.7274 -0.1038
 7110SOL    HW123530   3.247   4.251   4.327  0.4116 -1.0345 -0.5799
 7110SOL    HW223531   3.117   4.328   4.341  0.8075 -0.4733  0.1002
 7111SOL     OW23532   0.811   4.768   2.069  0.6049  0.0817  0.2429
 7111SOL    HW123533   0.904   4.780   2.091  0.7046  0.6963 -0.4518
 7111SOL    HW223534   0.809   4.687   2.018  0.6214 -0.4159  1.0195
 7112SOL     OW23535   5.128   5.903   5.851 -0.4410 -0.6986 -0.2456
 7112SOL    HW123536   5.035   5.925   5.855 -0.1746  0.6274 -0.6288
 7112SOL    HW223537   5.137   5.825   5.904 -1.2786  0.9272  2.4770
 7113SOL     OW23538   2.629   9.566   6.934  0.1536 -0.1234  0.1612
 7113SOL    HW123539   2.616   9.599   6.845  0.3750 -0.5150 -0.0179
 7113SOL    HW223540   2.639   9.645   6.987 -0.1388  0.1187 -0.1334
 7114SOL     OW23541   5.006   3.372   2.660 -0.2142  0.1195  0.5233
 7114SOL    HW123542   5.042   3.435   2.722  0.4595 -0.3670  0.6384
 7114SOL    HW223543   5.083   3.331   2.620 -0.6424 -0.2565  0.0701
 7115SOL     OW23544   6.854   0.786   0.419 -0.1700  0.1309 -0.2218
 7115SOL    HW123545   6.879   0.780   0.327  0.5758  1.9720 -0.1950
 7115SOL    HW223546   6.836   0.879   0.432 -1.8085 -0.3245  1.1345
 7116SOL     OW23547   2.850   1.860   5.230  0.4959  0.6327 -0.6362
 7116SOL    HW123548   2.906   1.801   5.281  0.2066  0.3309 -0.6654
 7116SOL    HW223549   2.779   1.883   5.290 -0.9174 -1.2671 -1.4858
 7117SOL     OW23550   8.020   7.163   3.351 -0.1828 -0.1927  0.1737
 7117SOL    HW123551   8.109   7.198   3.343 -0.2153  0.0722  0.9217
 7117SOL    HW223552   8.031   7.083   3.403 -0.2363 -0.7964 -0.7196
 7118SOL     OW23553   8.809   3.099   7.603  0.4732 -0.9606 -0.6219
 7118SOL    HW123554   8.773   3.030   7.546 -0.1568 -0.6804 -0.5783
 7118SOL    HW223555   8.893   3.121   7.563 -0.1812 -0.4056 -1.7713
 7119SOL     OW23556   1.950   8.491   7.183 -0.0351  0.5988  0.1472
 7119SOL    HW123557   2.018   8.532   7.129  0.6517 -0.3410  0.2626
 7119SOL    HW223558   1.996   8.467   7.264  0.2557 -2.5239 -0.8175
 7120SOL     OW23559   0.361   9.295   5.348  0.0590  0.1541  0.6204
 7120SOL    HW123560   0.294   9.352   5.386  0.6266  2.2415 -1.2360
 7120SOL    HW223561   0.312   9.231   5.297 -0.5764  0.9258  0.2330
 7121SOL     OW23562   0.127   7.164   5.091  0.0928 -0.9890  0.7042
 7121SOL    HW123563   0.154   7.072   5.082 -0.1859 -1.1432  1.3365
 7121SOL    HW223564   0.103   7.191   5.003  0.2208 -1.5172  0.5031
 7122SOL     OW23565   3.213   7.941   5.862  0.2351  0.4103  0.4044
 7122SOL    HW123566   3.137   7.996   5.841  0.5969  0.4900 -0.7911
 7122SOL    HW223567   3.283   8.004   5.882  0.0999  0.3461  1.0738
 7123SOL     OW23568   7.112   9.242   6.142  0.0729 -0.7873 -0.4803
 7123SOL    HW123569   7.046   9.298   6.184 -0.2443 -0.3802 -1.4884
 7123SOL    HW223570   7.072   9.216   6.058  1.2443 -0.4182 -1.1813
 7124SOL     OW23571   5.730   6.457   7.063 -0.1760  0.2320  0.2404
 7124SOL    HW123572   5.672   6.513   7.012 -1.1447 -1.9568 -1.2249
 7124SOL    HW223573   5.671   6.405   7.118  0.5959 -0.1825  0.6927
 7125SOL     OW23574   1.570   6.340   4.813  0.0858  0.5251 -0.4587
 7125SOL    HW123575   1.585   6.279   4.885 -0.5540 -0.4647 -1.1449
 7125SOL    HW223576   1.476   6.336   4.797  0.4332 -0.8412 -2.6620
 7126SOL     OW23577   8.490   2.369   4.839 -0.3480 -0.0248  0.5107
 7126SOL    HW123578   8.433   2.324   4.902  2.1852  0.4609  3.3841
 7126SOL    HW223579   8.570   2.316   4.836  0.5503  1.2993 -0.3971
 7127SOL     OW23580   5.266   6.467   8.410 -0.0530  0.2778  0.2324
 7127SOL    HW123581   5.179   6.469   8.451 -0.4268 -1.1533 -0.4302
 7127SOL    HW223582   5.320   6.523   8.466 -1.0875  0.1694  1.3852
 7128SOL     OW23583   8.136   3.184   1.046  0.3028  0.4695 -0.7157
 7128SOL    HW123584   8.122   3.096   1.080  2.8298  0.5615  0.8224
 7128SOL    HW223585   8.113   3.178   0.953 -3.3857 -0.7152  0.1117
 7129SOL     OW23586   5.797   4.921   6.051  0.5257 -0.0717  0.5496
 7129SOL    HW123587   5.845   4.988   6.100  1.3094 -0.6285  0.5609
 7129SOL    HW223588   5.775   4.854   6.116 -0.5258  0.3044  0.6016
 7130SOL     OW23589   0.635   1.090   2.826 -0.0105 -0.5366  0.4417
 7130SOL    HW123590   0.641   1.028   2.754 -0.6694 -0.0331 -0.0635
 7130SOL    HW223591   0.726   1.105   2.853  0.2830 -0.4286 -0.5523
 7131SOL     OW23592   3.638   2.613   2.065 -0.6328 -0.0860  0.5073
 7131SOL    HW123593   3.566   2.611   2.129 -0.5046 -2.0099  0.6518
 7131SOL    HW223594   3.652   2.521   2.042  0.3247  0.4446 -1.1917
 7132SOL     OW23595   1.357   0.883   8.342  0.3445  0.4854  0.4601
 7132SOL    HW123596   1.400   0.894   8.257  2.0560  1.5005  1.4106
 7132SOL    HW223597   1.301   0.807   8.331  1.3241 -0.0311 -1.2659
 7133SOL     OW23598   9.367   0.674   4.785  0.2204 -0.0377 -0.3932
 7133SOL    HW123599   9.377   0.633   4.700 -0.4032 -1.0518  0.0132
 7133SOL    HW223600   9.369   0.768   4.766  2.1634 -0.1923 -1.2747
 7134SOL     OW23601   0.376   2.310   6.716 -0.5402 -0.1776 -0.5857
 7134SOL    HW123602   0.428   2.373   6.766  0.1812 -0.5995 -0.7925
 7134SOL    HW223603   0.411   2.225   6.742  1.0036 -0.3679 -3.0341
 7135SOL     OW23604   0.176   1.151   5.896 -0.1624 -0.2272  0.8642
 7135SOL    HW123605   0.112   1.218   5.873 -0.2387 -0.2560  0.9932
 7135SOL    HW223606   0.246   1.199   5.941 -0.8872 -0.4286  2.2516
 7136SOL     OW23607   5.367   6.526   3.254 -0.0349  0.2196  0.4779
 7136SOL    HW123608   5.424   6.592   3.296 -0.7455  1.2000 -0.0714
 7136SOL    HW223609   5.423   6.449   3.246  1.4441  1.3301 -0.5769
 7137SOL     OW23610   7.641   5.182   2.940  0.1745 -0.4172 -0.3811
 7137SOL    HW123611   7.582   5.243   2.984  1.8522  1.2750 -0.3017
 7137SOL    HW223612   7.666   5.119   3.008  0.2139  0.2321  0.2264
 7138SOL     OW23613   0.461   2.788   6.136 -0.1060  0.1731 -0.3189
 7138SOL    HW123614   0.376   2.776   6.180 -0.3701 -1.6900 -1.2540
 7138SOL    HW223615   0.510   2.844   6.196 -0.7892 -1.4523  1.9230
 7139SOL     OW23616   6.499   1.984   8.999  0.1109 -0.0377 -0.1121
 7139SOL    HW123617   6.575   2.001   8.944 -0.2290  1.7913 -0.0922
 7139SOL    HW223618   6.536   1.948   9.080  0.7304 -1.3518 -0.9566
 7140SOL     OW23619   0.934   7.369   0.483 -0.3428  0.4287  0.8682
 7140SOL    HW123620   0.891   7.451   0.459 -1.0791  0.0912  0.9987
 7140SOL    HW223621   0.873   7.327   0.543  0.0395 -0.2013  0.8198
 7141SOL     OW23622   0.980   0.427   7.779 -0.0222 -0.2466 -0.3800
 7141SOL    HW123623   0.960   0.420   7.873 -0.8161 -0.0759 -0.5310
 7141SOL    HW223624   1.055   0.486   7.775  0.1175 -0.3762  0.1565
 7142SOL     OW23625   6.514   7.371   7.525  0.1701 -0.1960  0.5296
 7142SOL    HW123626   6.528   7.461   7.495 -0.6328 -0.1117  0.3843
 7142SOL    HW223627   6.501   7.321   7.445 -1.0271 -0.1426  0.6783
 7143SOL     OW23628   3.153   7.365   1.216 -0.5205  0.1988 -0.2427
 7143SOL    HW123629   3.088   7.296   1.231  0.2091 -0.7255 -1.0975
 7143SOL    HW223630   3.213   7.326   1.152 -0.2663  1.7631 -0.9901
 7144SOL     OW23631   4.884   6.683   7.909 -0.5121  0.0153  0.4377
 7144SOL    HW123632   4.804   6.717   7.950 -1.0742 -1.1416  0.3441
 7144SOL    HW223633   4.891   6.593   7.941  0.8516  0.1486  0.5634
 7145SOL     OW23634   2.322   5.219   1.717  0.3307  1.3528  0.0344
 7145SOL    HW123635   2.235   5.180   1.711  0.2916  1.6032 -1.8818
 7145SOL    HW223636   2.330   5.249   1.807 -0.8491 -0.2713  0.7190
 7146SOL     OW23637   8.310   7.454   4.822 -0.1651  0.3512 -0.4385
 7146SOL    HW123638   8.218   7.460   4.797 -0.6826  0.1175  1.2245
 7146SOL    HW223639   8.345   7.381   4.771 -1.4647 -0.9001  0.3905
 7147SOL     OW23640   2.272   1.808   1.881 -0.2290  0.6537  0.1183
 7147SOL    HW123641   2.295   1.716   1.895  0.2571  0.7195 -0.2053
 7147SOL    HW223642   2.192   1.821   1.932 -1.8015 -0.6360 -1.8338
 7148SOL     OW23643   0.266   2.733   5.543  0.1666 -0.8687 -0.2114
 7148SOL    HW123644   0.316   2.804   5.584 -3.7999  1.1872  1.6919
 7148SOL    HW223645   0.265   2.755   5.450 -0.0088  0.9454  0.1915
 7149SOL     OW23646   5.906   9.203   2.993  0.1998 -0.3392  1.0989
 7149SOL    HW123647   5.941   9.137   3.052 -0.3428 -2.2915 -0.6668
 7149SOL    HW223648   5.982   9.233   2.943  0.1542 -1.0855  0.5640
 7150SOL     OW23649   7.588   1.043   0.511  0.3161  0.1847  0.0408
 7150SOL    HW123650   7.594   1.013   0.602 -1.3824 -1.2465 -0.2620
 7150SOL    HW223651   7.605   1.138   0.516 -0.1291  0.2097  1.8953
 7151SOL     OW23652   7.939   0.294   7.326 -0.1142  0.5043 -0.2691
 7151SOL    HW123653   7.980   0.348   7.258 -1.6783  0.5858 -1.1953
 7151SOL    HW223654   7.854   0.335   7.341 -0.4518 -0.4643  0.5754
 7152SOL     OW23655   5.175   5.985   2.535 -0.2866  0.4729 -0.1281
 7152SOL    HW123656   5.264   6.011   2.557  0.2819 -0.8593 -0.7846
 7152SOL    HW223657   5.145   6.053   2.474  0.7544  0.2340 -0.9218
 7153SOL     OW23658   6.401   9.266   6.074 -0.1870 -0.3023 -0.0319
 7153SOL    HW123659   6.329   9.311   6.119  1.2503  2.3181 -0.1936
 7153SOL    HW223660   6.427   9.326   6.004  1.4086 -1.7122 -0.7117
 7154SOL     OW23661   1.270   1.763   6.699  0.7434  0.0388 -0.1371
 7154SOL    HW123662   1.332   1.805   6.758  2.0763  1.3296 -2.2999
 7154SOL    HW223663   1.298   1.791   6.612  1.1068 -4.4697 -1.7312
 7155SOL     OW23664   1.253   3.381   3.281  0.1565  0.1830  0.4615
 7155SOL    HW123665   1.252   3.312   3.348  0.1273  1.7511  2.1497
 7155SOL    HW223666   1.312   3.448   3.317 -1.0359  1.7468 -0.3901
 7156SOL     OW23667   1.724   2.888   8.341 -0.2947 -0.0186  0.2844
 7156SOL    HW123668   1.659   2.935   8.393 -2.7250 -2.2001 -0.5406
 7156SOL    HW223669   1.736   2.941   8.263 -1.3635  0.2780  0.3089
 7157SOL     OW23670   4.457   6.969   2.293  0.2468 -0.7619 -0.3634
 7157SOL    HW123671   4.486   7.057   2.314  0.9872 -0.9508 -0.5325
 7157SOL    HW223672   4.372   6.960   2.335  0.8464 -0.4927  0.9663
 7158SOL     OW23673   7.721   5.208   7.484  0.2751  0.0202  0.0916
 7158SOL    HW123674   7.699   5.208   7.577 -0.5421  1.6857 -0.0652
 7158SOL    HW223675   7.653   5.262   7.443  0.7470 -0.4881 -1.4463
 7159SOL     OW23676   4.353   4.189   5.804 -0.1568  0.7465 -0.7783
 7159SOL    HW123677   4.356   4.284   5.802 -0.9311  0.7590 -2.9863
 7159SOL    HW223678   4.442   4.161   5.781  0.0064  0.9245 -0.3657
 7160SOL     OW23679   2.207   9.354   4.406  0.3551 -0.3346  0.2399
 7160SOL    HW123680   2.132   9.332   4.351 -0.4003  0.1180  1.0638
 7160SOL    HW223681   2.211   9.282   4.469  3.3337 -2.7517 -2.3724
 7161SOL     OW23682   7.730   0.576   1.460  0.3834 -0.1157 -0.4784
 7161SOL    HW123683   7.769   0.523   1.390 -1.5025 -2.6086  0.2012
 7161SOL    HW223684   7.636   0.565   1.448 -0.0166  1.1268  1.2080
 7162SOL     OW23685   2.851   9.268   2.545 -0.6285  0.2823  0.0864
 7162SOL    HW123686   2.873   9.261   2.452 -1.2394 -0.4993 -0.0057
 7162SOL    HW223687   2.760   9.300   2.545 -1.1205 -1.0614  0.3794
 7163SOL     OW23688   6.059   2.173   0.111  0.1277  0.4747 -0.1132
 7163SOL    HW123689   6.132   2.159   0.050  0.7521  0.6435  0.5709
 7163SOL    HW223690   6.085   2.251   0.161 -0.1924  0.1256  0.6130
 7164SOL     OW23691   4.789   6.537   4.045 -0.1436  0.0274 -0.0300
 7164SOL    HW123692   4.706   6.525   3.999  0.8442  0.6567 -2.0981
 7164SOL    HW223693   4.829   6.450   4.045 -0.0093  0.0889 -0.6506
 7165SOL     OW23694   5.299   3.698   2.967  0.1965 -0.4327 -0.4773
 7165SOL    HW123695   5.382   3.676   2.924  0.3864  1.8323 -1.4000
 7165SOL    HW223696   5.299   3.794   2.972 -1.9435 -0.4250  0.3692
 7166SOL     OW23697   7.174   2.572   5.369 -0.1823  0.4281  0.2433
 7166SOL    HW123698   7.180   2.623   5.450  1.2261  0.5843  0.0663
 7166SOL    HW223699   7.153   2.483   5.398 -0.8464  0.7214  0.6831
 7167SOL     OW23700   6.238   6.510   3.441 -0.0927  0.2972  0.0214
 7167SOL    HW123701   6.260   6.424   3.405  2.5558  0.1005  1.8284
 7167SOL    HW223702   6.171   6.492   3.507  0.4063 -0.3841  0.3501
 7168SOL     OW23703   6.937   1.725   0.866 -0.4556  0.0995 -0.0624
 7168SOL    HW123704   6.907   1.810   0.899 -2.0767 -0.6488  0.4444
 7168SOL    HW223705   6.925   1.665   0.939  2.0211 -0.3498  0.0718
 7169SOL     OW23706   4.148   0.630   0.011 -0.2412  0.6782 -0.3060
 7169SOL    HW123707   4.095   0.635  -0.068  0.1143 -0.0401 -0.5978
 7169SOL    HW223708   4.191   0.544   0.006 -0.4127  0.5105  0.7862
 7170SOL     OW23709   5.175   3.772   6.665 -0.3039 -0.1310 -0.0859
 7170SOL    HW123710   5.139   3.694   6.708 -2.8062  0.3095 -1.2340
 7170SOL    HW223711   5.266   3.749   6.646 -0.4848 -2.0954  1.1699
 7171SOL     OW23712   8.079   4.816   7.778 -0.5116 -0.4715  0.3567
 7171SOL    HW123713   8.014   4.856   7.721 -0.7717 -1.2137  0.1120
 7171SOL    HW223714   8.085   4.725   7.747 -0.9484 -1.0070  1.7572
 7172SOL     OW23715   0.790   6.947   5.251 -0.2546 -0.0373  0.3100
 7172SOL    HW123716   0.854   7.008   5.216 -0.8453  0.6621  0.4364
 7172SOL    HW223717   0.789   6.875   5.187  0.4436  0.0666  0.1668
 7173SOL     OW23718   8.446   9.550   8.030 -0.5283  0.6620  0.2586
 7173SOL    HW123719   8.521   9.606   8.010  1.3895 -1.9416 -0.2938
 7173SOL    HW223720   8.422   9.510   7.947 -1.5727  0.3117  0.7022
 7174SOL     OW23721   8.966   6.094   7.889 -0.3424 -0.2008 -0.1394
 7174SOL    HW123722   8.935   6.104   7.799  1.7662  1.3458 -0.7784
 7174SOL    HW223723   9.059   6.074   7.880  0.2212  1.2980  1.6612
 7175SOL     OW23724   2.355   8.127   1.504  0.0920  0.1162 -0.1126
 7175SOL    HW123725   2.262   8.140   1.522  0.6626  0.9238  2.7437
 7175SOL    HW223726   2.388   8.214   1.483  0.5256  0.2239  0.9113
 7176SOL     OW23727   4.044   2.648   0.264 -0.8432 -0.5323 -0.7354
 7176SOL    HW123728   4.034   2.716   0.197 -0.5634  0.2884  0.0355
 7176SOL    HW223729   3.956   2.614   0.277 -1.3262  1.0084  0.2213
 7177SOL     OW23730   6.881   6.280   7.423  0.3287 -0.0024  0.0278
 7177SOL    HW123731   6.975   6.296   7.425  0.5316 -0.0030 -3.6372
 7177SOL    HW223732   6.842   6.368   7.426  0.3373 -0.0297  2.3005
 7178SOL     OW23733   3.714   0.826   4.662  0.5890 -0.1635 -0.1643
 7178SOL    HW123734   3.699   0.733   4.679  2.6152 -0.4794  0.1946
 7178SOL    HW223735   3.658   0.872   4.724  0.2835 -1.1598  0.3108
 7179SOL     OW23736   8.726   6.856   6.623 -0.1110  0.1587 -0.3153
 7179SOL    HW123737   8.775   6.883   6.700 -2.2246  1.9999  0.4896
 7179SOL    HW223738   8.709   6.762   6.636 -0.8787  0.5437  1.7493
 7180SOL     OW23739   3.962   0.091   8.962 -0.5205 -0.0883 -0.6200
 7180SOL    HW123740   4.052   0.114   8.982 -0.6000 -0.6935  0.5267
 7180SOL    HW223741   3.964   0.061   8.871 -0.0843  2.4913 -1.5404
 7181SOL     OW23742   2.096   2.263   8.058 -0.4537 -0.3234  0.5687
 7181SOL    HW123743   2.137   2.311   8.130  1.6539 -0.4831 -0.4299
 7181SOL    HW223744   2.149   2.285   7.981 -1.1241 -2.0535 -0.4585
 7182SOL     OW23745   1.161   1.395   1.021  0.4041  0.0958 -0.2979
 7182SOL    HW123746   1.213   1.466   0.981 -0.0775 -0.1455 -1.3942
 7182SOL    HW223747   1.221   1.320   1.021  0.3579  0.0512 -0.7533
 7183SOL     OW23748   7.689   0.193   2.736 -0.7181  0.2046  0.4306
 7183SOL    HW123749   7.630   0.123   2.764  0.5737 -1.1902 -0.1759
 7183SOL    HW223750   7.667   0.267   2.792 -2.2188 -0.6382  1.0093
 7184SOL     OW23751   0.283   8.918   7.738 -0.5299 -0.0619  0.0493
 7184SOL    HW123752   0.270   8.998   7.687 -0.0973  0.0409  0.0975
 7184SOL    HW223753   0.240   8.936   7.822 -1.1971 -0.2112 -0.2468
 7185SOL     OW23754   1.375   4.996   0.235  0.4712  0.2964 -0.3306
 7185SOL    HW123755   1.410   5.064   0.292 -1.3687  1.0343 -0.0158
 7185SOL    HW223756   1.360   5.039   0.151 -2.0669  0.7766  0.2740
 7186SOL     OW23757   0.276   8.208   8.179  0.1663  0.5551 -0.3942
 7186SOL    HW123758   0.220   8.151   8.126  1.2625  1.3527 -2.5219
 7186SOL    HW223759   0.224   8.287   8.194 -0.9918 -0.4978  1.7517
 7187SOL     OW23760   7.991   5.049   9.326 -0.1056  0.3712  0.2181
 7187SOL    HW123761   8.071   5.101   9.319 -0.6255  1.2343  0.5458
 7187SOL    HW223762   7.971   5.048   9.420 -1.3278  1.5018  0.0043
 7188SOL     OW23763   2.851   0.724   0.494 -0.2278  0.3384  0.2934
 7188SOL    HW123764   2.824   0.632   0.486  0.5193  0.1669 -0.4183
 7188SOL    HW223765   2.812   0.767   0.418 -1.3984  0.8336  1.1525
 7189SOL     OW23766   6.824   5.246   3.541 -0.8482  0.0687 -0.7820
 7189SOL    HW123767   6.739   5.203   3.552 -0.6886 -0.2873 -0.9376
 7189SOL    HW223768   6.863   5.243   3.629 -0.9721  0.1832 -0.7224
 7190SOL     OW23769   9.018   0.451   2.230  0.2191 -0.3050 -0.6847
 7190SOL    HW123770   8.923   0.454   2.246  0.0808  0.9286 -1.5664
 7190SOL    HW223771   9.040   0.541   2.207  1.2443 -1.0009 -2.5802
 7191SOL     OW23772   4.238   1.380   0.201 -0.1348 -0.8032 -0.0289
 7191SOL    HW123773   4.195   1.415   0.280 -0.3210 -0.9195 -0.0772
 7191SOL    HW223774   4.326   1.356   0.230 -0.5374 -1.8256  0.4062
 7192SOL     OW23775   0.162   3.745   1.478  0.3850  0.1077  0.3567
 7192SOL    HW123776   0.171   3.650   1.482 -0.6889  0.0275  1.5185
 7192SOL    HW223777   0.068   3.760   1.471  0.5217  1.0880  0.4337
 7193SOL     OW23778   7.160   8.948   0.635 -0.4652  0.3456  0.5519
 7193SOL    HW123779   7.129   8.886   0.569 -0.0070 -1.7801  2.2201
 7193SOL    HW223780   7.093   8.945   0.704  1.2298 -1.0173  2.2300
 7194SOL     OW23781   7.843   5.215   1.056 -0.2835 -0.4888  0.1198
 7194SOL    HW123782   7.778   5.252   1.115  1.6299  1.9322  0.8646
 7194SOL    HW223783   7.893   5.290   1.025  0.9687 -2.0610 -1.8950
 7195SOL     OW23784   5.511   7.136   3.155  0.7066  0.2606  0.1296
 7195SOL    HW123785   5.491   7.206   3.218  1.5578  2.0797 -1.5163
 7195SOL    HW223786   5.593   7.098   3.186  0.3025  0.0573  0.9699
 7196SOL     OW23787   1.505   8.935   0.039  0.0477 -0.0801 -0.4526
 7196SOL    HW123788   1.436   8.882   0.079 -0.7735 -0.6581 -2.5012
 7196SOL    HW223789   1.562   8.872  -0.005  1.6656  0.4331  0.7855
 7197SOL     OW23790   8.080   1.274   2.575  0.1197  0.2809 -0.3152
 7197SOL    HW123791   7.985   1.283   2.587 -0.2368 -1.8928 -1.0636
 7197SOL    HW223792   8.117   1.299   2.660 -0.9413  2.8167 -0.5067
 7198SOL     OW23793   7.588   6.152   5.121  0.3825  0.7400  0.0715
 7198SOL    HW123794   7.653   6.106   5.174 -0.3375 -0.3903  0.0066
 7198SOL    HW223795   7.627   6.238   5.103  1.9021  0.0398 -0.0710
 7199SOL     OW23796   6.208   7.427   4.415 -0.4731 -0.1408 -0.1869
 7199SOL    HW123797   6.156   7.374   4.475  0.4299  1.0661  1.7365
 7199SOL    HW223798   6.175   7.516   4.426 -0.2295  0.1273 -1.4427
 7200SOL     OW23799   2.103   6.053   8.267  0.1197  0.0477  0.2266
 7200SOL    HW123800   2.061   5.977   8.227  0.0004  0.5168 -0.5640
 7200SOL    HW223801   2.144   6.099   8.194  1.8110 -0.2503  0.9301
 7201SOL     OW23802   6.335   4.510   0.214 -0.4773  0.0598 -0.7380
 7201SOL    HW123803   6.264   4.530   0.275  1.5678 -0.0444  1.8744
 7201SOL    HW223804   6.293   4.504   0.128 -3.3596  1.3374  0.4659
 7202SOL     OW23805   8.238   3.674   6.247 -0.0466  0.1152  0.2283
 7202SOL    HW123806   8.229   3.717   6.332 -0.5928 -0.5863  0.5315
 7202SOL    HW223807   8.293   3.597   6.265 -0.5541 -0.2946  0.0513
 7203SOL     OW23808   6.702   7.574   3.189 -0.3824  0.1654  0.0643
 7203SOL    HW123809   6.655   7.648   3.150  0.0511  0.1239 -0.5496
 7203SOL    HW223810   6.773   7.555   3.127 -0.5309 -0.8114  0.1809
 7204SOL     OW23811   6.291   2.652   3.760 -0.3472 -0.0925 -0.3000
 7204SOL    HW123812   6.250   2.690   3.838 -1.7003 -0.1202 -0.9715
 7204SOL    HW223813   6.271   2.559   3.765  0.5968 -0.2972 -0.0818
 7205SOL     OW23814   0.171   2.739   9.194  0.2158  0.0689  0.4213
 7205SOL    HW123815   0.248   2.735   9.137 -0.2355  0.6923 -0.2368
 7205SOL    HW223816   0.128   2.821   9.171 -0.5777 -0.2137  0.8757
 7206SOL     OW23817   6.299   6.331   0.031  0.2022  0.3268 -0.1227
 7206SOL    HW123818   6.242   6.272  -0.019  2.0003  0.4155 -2.4264
 7206SOL    HW223819   6.243   6.405   0.053 -1.6729 -1.4336  1.4335
 7207SOL     OW23820   2.258   9.065   0.581  0.2724  0.0114  0.0491
 7207SOL    HW123821   2.280   9.095   0.493  0.5292 -1.6748 -0.5084
 7207SOL    HW223822   2.173   9.022   0.571  0.4330 -0.4361  0.5612
 7208SOL     OW23823   2.349   7.595   1.225 -0.3699 -0.5733  0.4445
 7208SOL    HW123824   2.262   7.582   1.187 -0.2539  0.5881 -0.2576
 7208SOL    HW223825   2.396   7.647   1.160  0.3379  0.1663  1.5161
 7209SOL     OW23826   7.036   7.629   5.954  0.3850 -0.2292 -0.2613
 7209SOL    HW123827   6.949   7.601   5.984 -0.2398  0.8177 -1.0040
 7209SOL    HW223828   7.071   7.680   6.027 -0.6380  1.3173 -0.7866
 7210SOL     OW23829   6.344   1.232   2.820  0.0497 -0.1735 -0.2390
 7210SOL    HW123830   6.386   1.158   2.863  1.3270 -0.3081 -1.6347
 7210SOL    HW223831   6.251   1.222   2.840 -0.0394 -3.0665 -1.6521
 7211SOL     OW23832   8.825   6.893   2.178 -0.2288 -0.0854  0.0866
 7211SOL    HW123833   8.751   6.872   2.121  0.9401  0.8324 -1.9163
 7211SOL    HW223834   8.787   6.941   2.251 -1.6529  0.0787 -0.7290
 7212SOL     OW23835   2.275   5.606   7.286  0.4705 -0.1031 -0.3002
 7212SOL    HW123836   2.312   5.693   7.270 -0.6268  0.5190  0.4757
 7212SOL    HW223837   2.348   5.546   7.269  1.3052  0.9733 -0.6252
 7213SOL     OW23838   4.972   7.005   9.238 -0.4099 -0.0088 -0.0272
 7213SOL    HW123839   5.028   6.963   9.304 -0.1646  1.6208  0.8457
 7213SOL    HW223840   5.005   7.094   9.233 -1.1671  0.2041 -1.5540
 7214SOL     OW23841   3.321   2.834   8.773 -0.2997  0.7357  0.1969
 7214SOL    HW123842   3.388   2.773   8.741 -0.4173 -0.2882  1.7711
 7214SOL    HW223843   3.240   2.803   8.733 -0.6957 -1.4357  2.4296
 7215SOL     OW23844   8.851   8.042   5.874 -0.5369  0.1018  0.1418
 7215SOL    HW123845   8.819   7.994   5.950 -0.6830 -0.9139 -0.5480
 7215SOL    HW223846   8.888   7.975   5.817  1.2363  1.0521  0.1154
 7216SOL     OW23847   6.957   7.786   9.023 -0.3610 -0.1664  0.1747
 7216SOL    HW123848   6.887   7.740   9.068 -0.7126  0.3680  0.1744
 7216SOL    HW223849   7.038   7.748   9.058 -0.6233  0.3712  1.4057
 7217SOL     OW23850   4.895   4.773   3.435  0.1469  0.5919 -0.1621
 7217SOL    HW123851   4.804   4.740   3.436  0.6564 -0.9731 -1.3964
 7217SOL    HW223852   4.945   4.703   3.477  0.8536  1.2512  0.0994
 7218SOL     OW23853   9.031   4.700   0.844  0.7169  1.1961  0.2681
 7218SOL    HW123854   9.081   4.659   0.774  0.8176 -0.0253  1.0321
 7218SOL    HW223855   9.098   4.730   0.906  0.6130  2.0239 -0.0019
 7219SOL     OW23856   9.302   5.942   4.404  0.0428  0.2902  0.0629
 7219SOL    HW123857   9.377   5.992   4.437 -1.2890  2.7384 -0.3879
 7219SOL    HW223858   9.320   5.931   4.311 -0.2304  1.0715 -0.0900
 7220SOL     OW23859   1.024   9.544   8.613 -0.2790 -0.0060  0.1804
 7220SOL    HW123860   1.102   9.575   8.660  0.3804 -2.0322  0.5278
 7220SOL    HW223861   0.954   9.545   8.679 -0.5627  1.7338 -0.1095
 7221SOL     OW23862   4.978   1.953   6.891  0.1274  0.1171  0.1519
 7221SOL    HW123863   4.921   1.879   6.913  0.2052 -0.3958 -1.2312
 7221SOL    HW223864   5.021   1.976   6.973 -0.4698 -0.8816  0.7696
 7222SOL     OW23865   6.757   0.963   2.242 -1.0169  0.8800 -0.1074
 7222SOL    HW123866   6.671   0.989   2.208 -1.0803  1.1306  0.2366
 7222SOL    HW223867   6.801   0.922   2.167 -2.4147 -1.6760  0.3788
 7223SOL     OW23868   1.561   7.534   4.050  0.3678 -0.1332 -0.5249
 7223SOL    HW123869   1.490   7.592   4.023  1.0129  0.9227 -0.0643
 7223SOL    HW223870   1.582   7.483   3.972 -0.9206 -0.5040 -0.6492
 7224SOL     OW23871   1.422   7.792   3.990 -0.3640  0.3141 -0.3926
 7224SOL    HW123872   1.374   7.797   3.908  0.4781 -1.1085 -1.0083
 7224SOL    HW223873   1.510   7.826   3.970 -0.3619  0.6179  0.0996
 7225SOL     OW23874   6.795   8.654   2.722  0.4268 -0.2069 -0.8802
 7225SOL    HW123875   6.776   8.564   2.747 -0.2325  0.0583 -0.3782
 7225SOL    HW223876   6.719   8.704   2.753  1.4974  0.7641  0.3283
 7226SOL     OW23877   8.481   5.679   4.774  0.4724  0.1065  0.9790
 7226SOL    HW123878   8.526   5.597   4.796  2.3780  0.0572 -2.2994
 7226SOL    HW223879   8.392   5.652   4.751  0.8465 -0.9757  0.7136
 7227SOL     OW23880   7.997   1.344   3.445  0.2999  0.0612 -0.2787
 7227SOL    HW123881   7.929   1.334   3.512  1.3946  0.2221  0.8881
 7227SOL    HW223882   7.949   1.367   3.365 -1.0729 -0.6210  0.3199
 7228SOL     OW23883   1.186   5.801   0.482  0.1464 -0.1284 -0.2393
 7228SOL    HW123884   1.232   5.762   0.557  0.6894 -1.0941 -1.0502
 7228SOL    HW223885   1.094   5.802   0.508  0.2558 -0.9852  0.2063
 7229SOL     OW23886   9.043   9.525   9.258  0.2076  0.2250  0.6219
 7229SOL    HW123887   9.051   9.603   9.203  0.2037 -0.3417 -0.2019
 7229SOL    HW223888   8.979   9.550   9.325 -0.1049  0.8004  0.1246
 7230SOL     OW23889   2.928   3.692   8.381 -0.1062 -0.0385  0.3506
 7230SOL    HW123890   2.907   3.753   8.311 -1.5173  0.1750  0.9126
 7230SOL    HW223891   2.925   3.606   8.340  1.1404  0.1951 -0.2772
 7231SOL     OW23892   7.684   9.535   4.014  0.1594 -0.5343 -0.2723
 7231SOL    HW123893   7.645   9.465   3.960 -0.4284 -0.2276 -0.2498
 7231SOL    HW223894   7.610   9.590   4.038  0.6106  0.0406 -0.2013
 7232SOL     OW23895   1.792   9.123   6.454  0.1802  0.3783  0.0325
 7232SOL    HW123896   1.860   9.176   6.496 -0.4223  0.6562  0.6734
 7232SOL    HW223897   1.714   9.138   6.507 -0.5710  0.6094 -1.1075
 7233SOL     OW23898   3.880   0.357   3.811  0.3455 -0.5299 -0.6672
 7233SOL    HW123899   3.959   0.403   3.840  0.6609 -1.3669 -0.1728
 7233SOL    HW223900   3.837   0.329   3.891 -1.0400  0.8402 -0.8936
 7234SOL     OW23901   7.777   8.706   7.801 -0.1751 -0.2896  0.4623
 7234SOL    HW123902   7.735   8.646   7.739 -0.2336  0.7333 -0.5227
 7234SOL    HW223903   7.784   8.788   7.753 -0.0344  0.4801  1.7617
 7235SOL     OW23904   3.512   3.801   5.226 -0.7203  0.2647  0.4996
 7235SOL    HW123905   3.441   3.862   5.245 -1.2186 -0.6984  1.9442
 7235SOL    HW223906   3.483   3.718   5.266 -0.3188 -1.0843 -1.8461
 7236SOL     OW23907   4.600   3.830   3.938  0.2936 -0.0627  0.0068
 7236SOL    HW123908   4.538   3.759   3.949  1.1525 -0.5505  2.3349
 7236SOL    HW223909   4.573   3.896   4.001  0.3983  1.0573 -1.0725
 7237SOL     OW23910   9.491   3.759   3.619 -0.0590  0.1527  0.1443
 7237SOL    HW123911   9.571   3.798   3.584  0.0748 -0.8182 -0.6617
 7237SOL    HW223912   9.420   3.806   3.574  0.1057 -2.0005 -2.6317
 7238SOL     OW23913   8.467   6.798   1.362  0.3768 -0.1338  0.0449
 7238SOL    HW123914   8.534   6.758   1.307 -0.5517  1.2058 -2.2034
 7238SOL    HW223915   8.410   6.726   1.387 -0.4183 -0.5592 -2.6523
 7239SOL     OW23916   3.472   1.087   4.911 -0.0031  0.1842 -0.3824
 7239SOL    HW123917   3.412   1.078   4.985 -2.3857 -0.9800 -2.3095
 7239SOL    HW223918   3.460   1.176   4.880 -0.5669  0.0305 -0.6089
 7240SOL     OW23919   2.515   0.563   4.487  0.0496  0.1866 -0.2212
 7240SOL    HW123920   2.597   0.608   4.510  0.9846 -2.0282  1.0451
 7240SOL    HW223921   2.447   0.618   4.526  1.0480  1.1009  0.3076
 7241SOL     OW23922   1.109   6.667   2.364 -0.3093  0.1193  0.2974
 7241SOL    HW123923   1.034   6.685   2.419  0.5711  2.9615  0.7406
 7241SOL    HW223924   1.072   6.650   2.277 -1.4841  1.0390  0.5961
 7242SOL     OW23925   4.527   7.012   4.327 -0.1248 -0.2217  0.0817
 7242SOL    HW123926   4.593   7.021   4.259 -1.1873  0.7842 -0.8597
 7242SOL    HW223927   4.487   6.926   4.310  0.1983 -0.3554 -0.0170
 7243SOL     OW23928   7.931   1.609   2.685  0.2832 -0.1990 -0.5822
 7243SOL    HW123929   7.858   1.588   2.627 -0.5533  0.6894  0.1123
 7243SOL    HW223930   7.908   1.567   2.768 -0.5067  1.7918  0.2689
 7244SOL     OW23931   0.816   5.232   0.730 -0.0506  0.0419  0.5356
 7244SOL    HW123932   0.872   5.264   0.801  2.4299  0.8360 -1.6051
 7244SOL    HW223933   0.872   5.171   0.682 -1.1190  0.6026 -1.5409
 7245SOL     OW23934   7.339   4.670   1.779  0.2417 -0.7699  0.0465
 7245SOL    HW123935   7.303   4.718   1.704  0.2587  0.8776  1.0633
 7245SOL    HW223936   7.310   4.580   1.765 -2.2587  0.0346 -0.4193
 7246SOL     OW23937   6.286   1.737   7.416 -0.4167 -0.1403 -0.0950
 7246SOL    HW123938   6.367   1.787   7.400 -0.6612  0.3308  0.1336
 7246SOL    HW223939   6.219   1.784   7.367  0.0133 -2.4337 -3.1781
 7247SOL     OW23940   1.622   9.168   0.039  0.0074 -0.1311  0.3722
 7247SOL    HW123941   1.577   9.085   0.056 -0.0104 -0.5729 -1.5506
 7247SOL    HW223942   1.567   9.211  -0.027  2.4649 -0.8505 -2.3748
 7248SOL     OW23943   8.401   9.501   3.824 -0.2847 -0.3128 -0.5536
 7248SOL    HW123944   8.410   9.594   3.844  0.9849 -0.7490  1.0808
 7248SOL    HW223945   8.443   9.492   3.739  0.5138  0.4461 -0.2610
 7249SOL     OW23946   8.441   8.595   2.905 -0.2399  0.0537 -0.0178
 7249SOL    HW123947   8.359   8.592   2.855 -0.8409  0.7406  0.9017
 7249SOL    HW223948   8.486   8.513   2.882 -1.2330 -0.3857 -0.4438
 7250SOL     OW23949   8.966   7.708   4.731  0.0380  0.0050 -0.2432
 7250SOL    HW123950   8.943   7.776   4.667  1.9256  0.2161 -0.7688
 7250SOL    HW223951   8.943   7.626   4.688  1.2928  0.1431 -1.2555
 7251SOL     OW23952   4.757   7.232   1.867  0.6675  0.0148  0.8474
 7251SOL    HW123953   4.806   7.173   1.810 -0.8722 -1.3372  0.8148
 7251SOL    HW223954   4.731   7.305   1.810 -3.1153 -2.5415 -1.1835
 7252SOL     OW23955   0.757   3.873   4.044 -0.2354 -0.3956 -0.3582
 7252SOL    HW123956   0.775   3.944   4.106 -0.5710 -0.9827  0.4303
 7252SOL    HW223957   0.840   3.828   4.035  0.4992  1.1848 -2.3385
 7253SOL     OW23958   3.606   0.723   7.249  0.3451 -0.0261 -0.0200
 7253SOL    HW123959   3.560   0.756   7.172  0.0242 -2.3775 -0.9090
 7253SOL    HW223960   3.684   0.779   7.256 -1.7391  3.0273  0.6085
 7254SOL     OW23961   4.730   1.794   4.938  0.3922  0.1440 -0.4054
 7254SOL    HW123962   4.806   1.783   4.881 -0.0335 -0.3875 -0.8772
 7254SOL    HW223963   4.748   1.738   5.014  0.6625  0.3535 -0.3124
 7255SOL     OW23964   0.454   2.896   6.932  0.5272  0.1564 -0.2276
 7255SOL    HW123965   0.424   2.940   6.852 -1.3845 -1.0501 -0.2209
 7255SOL    HW223966   0.407   2.813   6.934  2.9817 -1.3429  0.4918
 7256SOL     OW23967   2.039   7.128   8.244 -0.1839  0.0288 -0.6497
 7256SOL    HW123968   1.945   7.147   8.241 -0.6727 -1.8172  1.2042
 7256SOL    HW223969   2.047   7.041   8.205  0.7034 -0.0396 -0.3265
 7257SOL     OW23970   0.251   2.891   6.379  0.1733  0.4835  0.8946
 7257SOL    HW123971   0.259   2.843   6.461 -1.4238  0.4343  1.0451
 7257SOL    HW223972   0.224   2.824   6.315  2.3094  0.3211  0.0787
 7258SOL     OW23973   6.019   1.639   7.176  0.8083 -0.5214 -0.0138
 7258SOL    HW123974   6.070   1.565   7.208  0.8540 -0.5922 -0.2532
 7258SOL    HW223975   6.081   1.712   7.176  0.1536  0.1693  2.7109
 7259SOL     OW23976   5.286   4.309   4.751  0.2474 -0.5007  0.3958
 7259SOL    HW123977   5.305   4.291   4.659 -1.3811  0.2268 -0.1126
 7259SOL    HW223978   5.359   4.268   4.799  0.8475 -1.3370 -1.1665
 7260SOL     OW23979   0.517   2.334   8.464 -0.0019  0.3646 -0.3658
 7260SOL    HW123980   0.562   2.382   8.394  1.6388 -1.1357 -0.4003
 7260SOL    HW223981   0.580   2.268   8.493 -1.1738  0.0162  1.5762
 7261SOL     OW23982   5.691   2.578   3.211  0.3921  0.6002 -0.1645
 7261SOL    HW123983   5.706   2.670   3.192  1.8695  0.4232  0.0164
 7261SOL    HW223984   5.623   2.551   3.149  1.0895  1.4162 -1.3167
 7262SOL     OW23985   0.793   9.016   1.289  0.4735 -0.1620 -0.2900
 7262SOL    HW123986   0.845   8.939   1.265  1.8538  0.7747 -0.4173
 7262SOL    HW223987   0.844   9.090   1.257 -0.8673  0.8166 -0.2355
 7263SOL     OW23988   3.803   1.412   3.467  0.3899  0.0884 -0.6515
 7263SOL    HW123989   3.869   1.448   3.408 -0.4649  0.3718 -1.4621
 7263SOL    HW223990   3.853   1.371   3.537  1.4648 -0.9653 -1.9850
 7264SOL     OW23991   7.337   2.549   5.139  0.0808 -0.3040  0.0876
 7264SOL    HW123992   7.380   2.627   5.174  0.4623 -0.0296 -0.9343
 7264SOL    HW223993   7.271   2.525   5.204  0.5487  0.3599  0.8151
 7265SOL     OW23994   8.689   8.477   0.186  0.2149  0.1183  0.0372
 7265SOL    HW123995   8.637   8.487   0.106  0.4075  0.7179 -0.0142
 7265SOL    HW223996   8.768   8.430   0.158 -0.7728 -1.8167  0.3147
 7266SOL     OW23997   7.612   1.251   1.571  0.4515  0.2960  0.2542
 7266SOL    HW123998   7.630   1.311   1.643  1.1876  0.1370  0.2070
 7266SOL    HW223999   7.520   1.225   1.583  0.8690 -0.5863  1.7618
 7267SOL     OW24000   5.186   4.547   5.598  0.1315 -0.5603  0.2007
 7267SOL    HW124001   5.247   4.571   5.528 -0.1448 -0.9850 -0.1920
 7267SOL    HW224002   5.187   4.622   5.657  1.4127 -0.7523  0.4641
 7268SOL     OW24003   6.908   3.092   0.434 -0.2358  0.4003  0.3026
 7268SOL    HW124004   6.911   3.057   0.345  2.9249  2.0307 -0.3503
 7268SOL    HW224005   6.920   3.186   0.423  1.4576  0.5058  2.4851
 7269SOL     OW24006   0.330   3.079   6.180 -0.0220 -0.1337 -0.2796
 7269SOL    HW124007   0.423   3.058   6.192 -0.1180 -0.2086  0.3838
 7269SOL    HW224008   0.285   3.021   6.242 -0.4750  0.2574 -0.2417
 7270SOL     OW24009   2.639   0.814   6.461 -0.0551  0.2944  0.8006
 7270SOL    HW124010   2.547   0.798   6.481  0.3118 -1.3540  1.2782
 7270SOL    HW224011   2.648   0.790   6.369  0.1402 -0.7806  1.0832
 7271SOL     OW24012   1.647   1.932   7.081  0.3455  0.2460  0.2495
 7271SOL    HW124013   1.628   1.889   7.165 -0.3669  0.2137  0.0779
 7271SOL    HW224014   1.671   2.022   7.106  0.3028  0.1901  0.5013
 7272SOL     OW24015   1.848   8.648   6.610  0.2275  0.1292 -0.2084
 7272SOL    HW124016   1.856   8.633   6.516  1.1949 -1.5549  0.1067
 7272SOL    HW224017   1.929   8.613   6.648 -0.7038 -0.4690  1.3666
 7273SOL     OW24018   3.021   5.718   0.429  0.0491  0.2273  0.4145
 7273SOL    HW124019   3.064   5.642   0.467  3.0839  2.7116  2.4263
 7273SOL    HW224020   2.974   5.758   0.502 -0.7349  0.8247 -0.3866
 7274SOL     OW24021   3.421   4.278   6.532 -0.4176 -0.2866 -0.3846
 7274SOL    HW124022   3.371   4.215   6.584 -2.6397 -0.0915 -2.1373
 7274SOL    HW224023   3.512   4.252   6.544 -1.0866 -2.2576  0.9401
 7275SOL     OW24024   0.229   4.809   6.897  0.3172 -0.6684  0.3951
 7275SOL    HW124025   0.176   4.736   6.864  2.3306 -0.8308 -2.9813
 7275SOL    HW224026   0.301   4.766   6.945 -0.1381 -0.6867  1.0788
 7276SOL     OW24027   8.360   2.266   0.605 -0.0803  0.1190  0.6375
 7276SOL    HW124028   8.292   2.250   0.670 -0.8350 -1.9611 -0.5728
 7276SOL    HW224029   8.441   2.274   0.657 -0.8399 -0.1088  1.9054
 7277SOL     OW24030   5.791   7.238   2.370 -0.0499  0.2394  0.1734
 7277SOL    HW124031   5.811   7.191   2.451 -0.0473  1.1802  0.7329
 7277SOL    HW224032   5.725   7.183   2.327 -0.1367 -0.2197  0.8660
 7278SOL     OW24033   5.887   5.929   4.628  0.1789  0.4762 -0.1098
 7278SOL    HW124034   5.927   5.968   4.550  1.2723 -0.8863 -0.2704
 7278SOL    HW224035   5.795   5.957   4.624  0.3353  0.8804 -1.5986
 7279SOL     OW24036   1.133   4.969   4.380 -0.7240  0.4573 -0.0543
 7279SOL    HW124037   1.160   5.060   4.387 -2.2269  0.9944 -0.7585
 7279SOL    HW224038   1.101   4.960   4.290 -0.0718 -0.9359 -0.1815
 7280SOL     OW24039   3.279   1.980   2.682 -0.1979 -0.0948  0.6004
 7280SOL    HW124040   3.288   1.966   2.588  0.9246 -0.6960  0.7711
 7280SOL    HW224041   3.203   2.036   2.692 -0.0683  0.3300 -0.6981
 7281SOL     OW24042   8.188   7.372   0.447  0.2212 -0.4404 -0.2383
 7281SOL    HW124043   8.211   7.283   0.473 -0.3575 -0.8742 -1.1693
 7281SOL    HW224044   8.134   7.362   0.368 -0.3828  0.6995 -0.0059
 7282SOL     OW24045   2.076   1.620   3.979 -0.0332 -0.2169  0.3016
 7282SOL    HW124046   1.994   1.659   4.008 -0.6711 -0.8803 -0.5332
 7282SOL    HW224047   2.104   1.565   4.052  0.5551  1.2656  1.2430
 7283SOL     OW24048   7.199   8.381   7.112  0.5452 -0.4142 -0.2157
 7283SOL    HW124049   7.206   8.428   7.029 -0.5018 -1.6179 -1.0333
 7283SOL    HW224050   7.263   8.310   7.105  0.0737 -0.8406 -0.2238
 7284SOL     OW24051   5.571   5.896   0.920 -0.4389 -0.3733  0.2744
 7284SOL    HW124052   5.618   5.817   0.890  0.2875 -0.3540  1.3149
 7284SOL    HW224053   5.639   5.949   0.961 -1.2831 -0.0835  1.3114
 7285SOL     OW24054   9.308   0.208   6.232 -0.5037 -0.2285 -0.1375
 7285SOL    HW124055   9.331   0.254   6.151  0.2526  1.2505  0.8618
 7285SOL    HW224056   9.380   0.228   6.292 -1.2211 -0.9870  1.0137
 7286SOL     OW24057   6.639   0.694   0.095  0.7369  0.2041  0.0962
 7286SOL    HW124058   6.624   0.673   0.187 -0.1329 -1.3372 -0.3480
 7286SOL    HW224059   6.621   0.612   0.049  3.3449  0.3163 -1.2666
 7287SOL     OW24060   3.087   3.292   6.512 -0.0551  0.2735 -0.3384
 7287SOL    HW124061   3.168   3.241   6.509 -0.6046 -0.6759  0.2828
 7287SOL    HW224062   3.113   3.378   6.545  0.6949 -0.0416 -0.0913
 7288SOL     OW24063   8.295   9.088   7.358  0.1156 -0.4308 -0.2773
 7288SOL    HW124064   8.276   8.996   7.379 -0.1775 -0.4896 -0.7717
 7288SOL    HW224065   8.250   9.138   7.427 -1.5255 -0.5898 -1.1681
 7289SOL     OW24066   9.282   3.927   3.511 -0.5250 -0.1001  0.2831
 7289SOL    HW124067   9.254   3.847   3.467  1.1575 -0.9480  0.6849
 7289SOL    HW224068   9.213   3.944   3.576 -0.3687 -1.8802  0.9689
 7290SOL     OW24069   8.116   8.182   3.301 -0.1794 -0.0318  0.0065
 7290SOL    HW124070   8.080   8.159   3.215  2.5933 -0.3089 -1.2039
 7290SOL    HW224071   8.183   8.115   3.318  0.6273  1.0785  1.4977
 7291SOL     OW24072   6.780   9.377   6.836 -0.0510 -0.2625 -0.6853
 7291SOL    HW124073   6.861   9.337   6.868  1.1224 -0.2692 -3.3460
 7291SOL    HW224074   6.736   9.307   6.788 -0.4462  0.3654 -1.2548
 7292SOL     OW24075   8.076   8.175   7.620 -0.1757 -1.0813 -0.1817
 7292SOL    HW124076   8.066   8.116   7.695 -1.5596 -0.3004  0.2835
 7292SOL    HW224077   7.987   8.200   7.597  0.3455  1.9999  0.6154
 7293SOL     OW24078   8.119   6.420   4.887  0.2016 -0.3820 -0.1453
 7293SOL    HW124079   8.040   6.367   4.900  0.1933 -0.6666 -1.2313
 7293SOL    HW224080   8.175   6.367   4.831  0.0526  0.8664 -1.5603
 7294SOL     OW24081   5.222   1.102   2.922 -0.1358 -0.2712 -0.5877
 7294SOL    HW124082   5.260   1.103   3.009 -1.2605 -0.7459 -0.0808
 7294SOL    HW224083   5.257   1.023   2.881  1.9843  0.9662 -1.3256
 7295SOL     OW24084   5.874   3.685   2.051  0.4628  0.2292  0.3072
 7295SOL    HW124085   5.890   3.602   2.096  1.0104 -0.3292 -0.8538
 7295SOL    HW224086   5.841   3.744   2.119  1.0242 -0.6391  1.3702
 7296SOL     OW24087   5.365   3.509   7.127  0.0991 -0.4858 -0.0098
 7296SOL    HW124088   5.276   3.544   7.125  0.0938 -0.5424 -1.4080
 7296SOL    HW224089   5.366   3.449   7.202 -1.9454 -2.8439 -1.7616
 7297SOL     OW24090   2.967   8.121   7.711 -0.0148  0.1498  0.4277
 7297SOL    HW124091   2.990   8.147   7.621 -2.7844 -0.8551 -0.6746
 7297SOL    HW224092   3.022   8.045   7.729 -0.1302 -0.2599 -0.8383
 7298SOL     OW24093   7.448   8.894   0.649 -0.8469 -0.1705 -0.1797
 7298SOL    HW124094   7.450   8.862   0.740 -0.3052  1.3083  0.3598
 7298SOL    HW224095   7.355   8.891   0.625 -0.7709 -2.6871 -0.4020
 7299SOL     OW24096   2.435   3.757   7.521 -0.6928  0.2127 -0.1141
 7299SOL    HW124097   2.485   3.723   7.595  0.3363  1.2591 -0.2966
 7299SOL    HW224098   2.449   3.694   7.451  0.7250  0.6602 -0.2737
 7300SOL     OW24099   5.913   7.256   7.424 -0.0132  0.4928 -0.0861
 7300SOL    HW124100   5.921   7.212   7.340  1.0358 -0.4004  0.4527
 7300SOL    HW224101   5.998   7.297   7.438 -1.0733  3.1180 -0.7520
 7301SOL     OW24102   2.900   8.139   2.766  0.0889 -0.1551 -0.0350
 7301SOL    HW124103   2.929   8.220   2.807 -0.3121 -0.1010  0.1490
 7301SOL    HW224104   2.840   8.167   2.696 -1.8375 -0.3396  1.4450
 7302SOL     OW24105   3.856   5.816   6.465  0.2990  0.0580 -0.3892
 7302SOL    HW124106   3.949   5.821   6.444  0.5722 -0.8173  0.5639
 7302SOL    HW224107   3.847   5.868   6.545 -0.1991  0.8680 -0.9547
 7303SOL     OW24108   1.840   5.435   1.462 -0.0317 -0.6280 -0.1271
 7303SOL    HW124109   1.748   5.436   1.487  0.2698  0.3714  1.0640
 7303SOL    HW224110   1.849   5.507   1.399  0.1256  0.0053  0.5991
 7304SOL     OW24111   7.386   4.201   3.917  0.1671 -0.0961  0.6526
 7304SOL    HW124112   7.380   4.128   3.855 -0.9323 -0.0699  0.7029
 7304SOL    HW224113   7.311   4.189   3.975  0.2089  0.8429  0.9170
 7305SOL     OW24114   4.044   5.667   9.141 -0.2447 -0.3888 -0.1235
 7305SOL    HW124115   4.044   5.749   9.091  1.9784 -0.4037 -0.2692
 7305SOL    HW224116   4.047   5.696   9.233 -0.9426 -0.3395 -0.1090
 7306SOL     OW24117   5.033   4.165   5.445 -0.3954 -0.2988  0.3311
 7306SOL    HW124118   4.951   4.210   5.467  0.6388  1.6857  0.2991
 7306SOL    HW224119   5.089   4.178   5.522  0.2678 -0.7433 -0.0629
 7307SOL     OW24120   3.591   8.930   6.777  0.1339  0.5346  0.4087
 7307SOL    HW124121   3.590   8.909   6.684  0.1886 -2.6407  1.0179
 7307SOL    HW224122   3.515   8.988   6.789 -1.2005 -0.7327 -1.2807
 7308SOL     OW24123   2.809   0.988   1.500  0.6497  0.0846  0.3861
 7308SOL    HW124124   2.768   0.951   1.421  1.2777  0.8387 -0.3057
 7308SOL    HW224125   2.735   1.014   1.555  0.0794 -3.3970  1.5686
 7309SOL     OW24126   8.748   6.973   7.345 -0.1569 -0.6647 -0.2892
 7309SOL    HW124127   8.666   6.995   7.389 -0.7027 -2.4675 -0.3075
 7309SOL    HW224128   8.776   7.054   7.305 -1.4583  0.2128  0.4923
 7310SOL     OW24129   2.695   7.344   6.854 -1.2575  0.5987 -0.0413
 7310SOL    HW124130   2.657   7.330   6.940  0.1676 -0.7739  0.4035
 7310SOL    HW224131   2.714   7.256   6.821  1.9570  1.1682  0.0025
 7311SOL     OW24132   8.767   0.058   0.189  0.1719  0.2113 -0.6035
 7311SOL    HW124133   8.678   0.035   0.216  0.4717 -1.0864 -0.6852
 7311SOL    HW224134   8.775   0.150   0.213 -1.4264  0.5521 -1.2423
 7312SOL     OW24135   7.078   6.769   1.052 -0.6867  0.1081 -0.3301
 7312SOL    HW124136   7.071   6.695   0.992 -1.5935 -1.1560  1.2257
 7312SOL    HW224137   6.995   6.815   1.043  0.0111  1.1922 -1.5480
 7313SOL     OW24138   0.056   7.142   9.002  0.2461  0.7263 -0.1269
 7313SOL    HW124139   0.060   7.233   9.029  0.6758  0.3776  1.0219
 7313SOL    HW224140   0.145   7.120   8.975  0.0913  0.7097 -0.6358
 7314SOL     OW24141   1.774   3.031   3.472 -0.5292 -0.6428 -0.1227
 7314SOL    HW124142   1.719   3.050   3.397 -1.0098  2.1625  0.8380
 7314SOL    HW224143   1.863   3.026   3.436 -0.6277  1.6339 -0.8159
 7315SOL     OW24144   7.751   2.168   6.664  0.1631 -0.0621  0.3923
 7315SOL    HW124145   7.790   2.119   6.735 -0.0558  0.2843  0.7540
 7315SOL    HW224146   7.742   2.257   6.697  2.7296  0.8341 -1.0599
 7316SOL     OW24147   0.936   1.588   5.273 -0.0916 -0.2544  0.1996
 7316SOL    HW124148   1.007   1.645   5.303  0.9216 -0.5423 -1.5019
 7316SOL    HW224149   0.857   1.642   5.280  0.7798  1.2484 -0.9970
 7317SOL     OW24150   3.193   2.490   3.296  0.1690 -0.3282 -0.6301
 7317SOL    HW124151   3.267   2.462   3.349  0.6337  0.8709 -0.6071
 7317SOL    HW224152   3.214   2.460   3.208 -0.0063 -1.2251 -0.3784
 7318SOL     OW24153   8.955   3.542   5.676 -0.7966  0.8847  0.4425
 7318SOL    HW124154   8.972   3.627   5.634 -0.6212  0.2743 -0.7604
 7318SOL    HW224155   8.995   3.478   5.617  1.3145  0.0819  2.5507
 7319SOL     OW24156   2.500   9.252   1.046 -0.1336 -0.0231 -0.2116
 7319SOL    HW124157   2.463   9.227   0.962 -0.1404  1.6364 -0.7292
 7319SOL    HW224158   2.570   9.315   1.025 -1.9049  2.5535  1.0837
 7320SOL     OW24159   3.482   7.579   2.786 -0.0908 -0.3113  0.1165
 7320SOL    HW124160   3.558   7.523   2.772 -0.4768 -0.6614 -0.6760
 7320SOL    HW224161   3.414   7.540   2.731 -0.2287  1.2175 -0.8452
 7321SOL     OW24162   4.058   8.254   0.628  0.0225  0.1791 -0.4177
 7321SOL    HW124163   4.143   8.238   0.588  0.0590  2.3911 -1.3704
 7321SOL    HW224164   4.066   8.341   0.669 -1.4241 -0.0642  0.4777
 7322SOL     OW24165   5.075   9.416   4.239  0.1409  0.0279 -0.0284
 7322SOL    HW124166   4.993   9.381   4.203  0.5110 -0.6416 -0.2376
 7322SOL    HW224167   5.084   9.503   4.200  0.3915 -0.5743 -1.3468
 7323SOL     OW24168   8.419   4.046   5.139 -0.1414  0.1770 -0.7805
 7323SOL    HW124169   8.427   4.109   5.211 -1.5623  1.7411 -1.9054
 7323SOL    HW224170   8.465   4.088   5.066  0.1969 -0.8042 -1.1459
 7324SOL     OW24171   9.200   5.332   9.165  0.9066 -0.3544  0.0079
 7324SOL    HW124172   9.226   5.327   9.073  1.8270 -0.3529  0.2587
 7324SOL    HW224173   9.241   5.412   9.197  1.1351 -0.6956  0.5843
 7325SOL     OW24174   6.138   1.689   4.437  0.0253  0.1632 -0.6455
 7325SOL    HW124175   6.228   1.704   4.408  0.1514 -1.7240 -1.3454
 7325SOL    HW224176   6.142   1.609   4.488 -1.2799 -0.0123 -0.7809
 7326SOL     OW24177   3.633   3.257   7.449  0.1462  0.1949  0.1411
 7326SOL    HW124178   3.645   3.317   7.375  0.4824  1.2349  1.0216
 7326SOL    HW224179   3.538   3.245   7.453  0.1185  0.1735 -0.4189
 7327SOL     OW24180   5.868   0.096   7.956  0.0596 -0.2176 -0.3107
 7327SOL    HW124181   5.921   0.174   7.938  0.4325 -0.3445  0.2006
 7327SOL    HW224182   5.891   0.072   8.046  0.8616 -1.6342 -0.8670
 7328SOL     OW24183   3.427   7.851   4.484 -0.0199 -0.0271  0.1453
 7328SOL    HW124184   3.440   7.841   4.390 -1.5125  0.1360 -0.1083
 7328SOL    HW224185   3.416   7.761   4.517  0.6321 -0.0937  0.2077
 7329SOL     OW24186   7.118   6.777   1.327 -0.2299  0.3178 -0.3914
 7329SOL    HW124187   7.030   6.741   1.339  0.0204 -0.4047 -0.7141
 7329SOL    HW224188   7.122   6.799   1.234 -1.1634  3.2841  0.1387
 7330SOL     OW24189   4.205   6.100   1.654 -0.5478 -0.1381  0.5583
 7330SOL    HW124190   4.172   6.011   1.650 -0.3183 -0.1736 -1.7141
 7330SOL    HW224191   4.287   6.098   1.605  0.1702  1.0515  1.6410
 7331SOL     OW24192   0.458   7.508   5.045  0.0626  0.3108 -0.0271
 7331SOL    HW124193   0.503   7.453   4.981 -2.7467  0.0047 -1.9255
 7331SOL    HW224194   0.428   7.447   5.113 -3.4240 -0.8087 -2.3432
 7332SOL     OW24195   7.324   3.557   9.367 -0.3680 -0.2336 -0.2464
 7332SOL    HW124196   7.413   3.591   9.370 -0.3466 -0.3811  1.7135
 7332SOL    HW224197   7.336   3.462   9.360 -0.3018 -0.3995  1.6104
 7333SOL     OW24198   6.366   4.473   9.208 -0.5354  0.0452 -0.2697
 7333SOL    HW124199   6.286   4.459   9.259 -0.5409  0.5070 -0.1464
 7333SOL    HW224200   6.353   4.421   9.129 -0.5141 -0.7150  0.2035
 7334SOL     OW24201   0.352   1.252   9.577  0.7697  0.1104  0.4456
 7334SOL    HW124202   0.399   1.334   9.582  0.5041  0.4750 -1.8483
 7334SOL    HW224203   0.303   1.247   9.659 -0.0882  2.8049  0.1837
 7335SOL     OW24204   1.686   6.890   2.580 -0.2035  0.5400 -0.0157
 7335SOL    HW124205   1.615   6.940   2.539 -0.1755  0.4449 -0.1821
 7335SOL    HW224206   1.679   6.803   2.540  0.3239  0.6694 -0.4076
 7336SOL     OW24207   4.257   1.660   8.909  1.2561  0.5875 -0.0516
 7336SOL    HW124208   4.193   1.590   8.909  0.8180  0.9831 -0.1368
 7336SOL    HW224209   4.205   1.741   8.908  1.7469  0.9145  0.2876
 7337SOL     OW24210   7.849   7.752   7.682  0.0526  0.1193  0.4725
 7337SOL    HW124211   7.911   7.680   7.672 -1.3115 -1.1257  0.7275
 7337SOL    HW224212   7.833   7.758   7.776 -3.2592 -2.3502  0.2359
 7338SOL     OW24213   1.217   5.016   6.445 -0.2913 -0.7634 -0.2743
 7338SOL    HW124214   1.166   5.007   6.364  0.7952 -0.4625 -1.0173
 7338SOL    HW224215   1.263   4.933   6.453 -0.7869 -0.9938  0.3411
 7339SOL     OW24216   0.241   0.452   6.863 -0.0492 -0.0646 -0.1166
 7339SOL    HW124217   0.209   0.527   6.813  1.1591 -0.5229 -1.6797
 7339SOL    HW224218   0.197   0.458   6.948  0.5346  2.7893  0.0685
 7340SOL     OW24219   1.706   5.007   6.569 -0.1330 -0.4140 -0.3269
 7340SOL    HW124220   1.692   4.913   6.577  0.0401 -0.3804  0.4307
 7340SOL    HW224221   1.659   5.032   6.490 -2.0090 -0.7652  0.6348
 7341SOL     OW24222   6.576   2.575   1.807  0.1678 -0.0918  0.1880
 7341SOL    HW124223   6.610   2.569   1.717  0.4460  3.1238 -0.0077
 7341SOL    HW224224   6.639   2.630   1.853 -1.4173  0.6187  1.6073
 7342SOL     OW24225   2.983   2.619   5.571 -0.0660 -0.6595 -0.3278
 7342SOL    HW124226   2.924   2.667   5.629 -0.1579  0.2149 -1.1318
 7342SOL    HW224227   2.932   2.606   5.490  0.6257 -0.4400 -0.8041
 7343SOL     OW24228   3.004   3.025   2.204 -0.3929 -0.4138 -0.4135
 7343SOL    HW124229   3.043   3.112   2.196  3.0097 -1.7693 -0.1795
 7343SOL    HW224230   2.942   3.020   2.131 -0.5878  2.1157 -0.4952
 7344SOL     OW24231   2.680   2.634   9.167  0.4413  0.3625 -0.4630
 7344SOL    HW124232   2.685   2.606   9.259  0.5267 -1.0208 -0.8715
 7344SOL    HW224233   2.587   2.629   9.145  0.2797  1.6914 -0.1771
 7345SOL     OW24234   4.306   2.073   5.351 -0.4333  0.2039 -0.2487
 7345SOL    HW124235   4.326   2.130   5.424  1.5566 -1.8030  0.8913
 7345SOL    HW224236   4.266   1.995   5.391  0.9836 -1.0733 -1.2109
 7346SOL     OW24237   8.400   2.693   9.126 -0.2489  0.2692  0.1145
 7346SOL    HW124238   8.352   2.756   9.180 -1.7109  0.0404 -0.8501
 7346SOL    HW224239   8.376   2.608   9.163 -1.1025  0.1226 -0.7454
 7347SOL     OW24240   8.362   7.140   5.827 -0.5240  0.1915  0.4041
 7347SOL    HW124241   8.319   7.194   5.761 -0.9022  0.2139  0.6621
 7347SOL    HW224242   8.316   7.162   5.909 -1.1632 -1.0288  0.3997
 7348SOL     OW24243   7.153   1.955   3.812  0.4793 -0.3137 -0.4609
 7348SOL    HW124244   7.173   1.997   3.895 -0.0055  2.0985 -1.4725
 7348SOL    HW224245   7.234   1.911   3.787  1.9658  2.2650 -0.5382
 7349SOL     OW24246   3.085   2.979   1.307  0.4699  0.1965 -0.1886
 7349SOL    HW124247   3.049   3.067   1.301 -1.1808 -0.3419  1.0475
 7349SOL    HW224248   3.012   2.925   1.339  1.4908 -1.5811 -0.6929
 7350SOL     OW24249   6.423   4.729   5.388 -0.5001  0.0492 -0.5756
 7350SOL    HW124250   6.441   4.759   5.477 -0.1713 -0.3466 -0.5062
 7350SOL    HW224251   6.508   4.702   5.353 -0.8927 -1.6939 -0.2931
 7351SOL     OW24252   2.967   4.844   9.390  0.3740  0.3323 -0.8853
 7351SOL    HW124253   2.948   4.823   9.482  0.6960  0.6165 -0.7539
 7351SOL    HW224254   3.012   4.766   9.357 -1.3979 -0.5557 -1.3382
 7352SOL     OW24255   1.857   9.454   1.442  0.4049  0.3180 -0.8255
 7352SOL    HW124256   1.805   9.446   1.521 -0.6179  1.2822 -1.3651
 7352SOL    HW224257   1.863   9.549   1.427 -0.0912  0.1426 -2.3133
 7353SOL     OW24258   6.198   7.109   7.192  0.2319  0.2499 -0.1113
 7353SOL    HW124259   6.116   7.138   7.152  0.0574  1.3729  0.9929
 7353SOL    HW224260   6.259   7.102   7.119 -0.2466  1.6281 -0.6873
 7354SOL     OW24261   1.977   8.042   5.017 -0.0892 -1.1823  0.0951
 7354SOL    HW124262   1.934   7.964   5.053  0.2369 -1.4785 -0.1519
 7354SOL    HW224263   1.962   8.109   5.083 -0.2301 -1.4977  0.3919
 7355SOL     OW24264   9.205   9.018   2.315  0.0713  0.4086  0.0241
 7355SOL    HW124265   9.189   9.037   2.223  0.5080 -3.2478 -0.9578
 7355SOL    HW224266   9.127   9.050   2.361 -1.2797  0.0740 -1.9451
 7356SOL     OW24267   7.519   7.449   3.951 -0.3529 -0.3800  0.1395
 7356SOL    HW124268   7.434   7.486   3.976 -0.1251  0.2486  0.0114
 7356SOL    HW224269   7.534   7.378   4.013  0.0714  0.9617  1.6713
 7357SOL     OW24270   7.684   1.449   0.339  0.1496  0.0961 -0.1468
 7357SOL    HW124271   7.619   1.494   0.285 -1.5732 -0.5819  1.2619
 7357SOL    HW224272   7.719   1.380   0.282  0.0236  0.7852 -1.0837
 7358SOL     OW24273   1.738   8.130   3.028 -0.0491 -0.3613  0.7778
 7358SOL    HW124274   1.791   8.130   2.948  0.5652  1.5268  1.1212
 7358SOL    HW224275   1.648   8.141   2.998 -0.0220 -1.4388  0.2822
 7359SOL     OW24276   8.751   7.142   2.914 -0.3074 -0.0189 -0.2925
 7359SOL    HW124277   8.750   7.224   2.963  0.3639 -1.0362  1.5226
 7359SOL    HW224278   8.670   7.098   2.939 -0.4117 -0.1472 -0.8422
 7360SOL     OW24279   6.534   2.304   3.308  0.5608  0.3848  0.4001
 7360SOL    HW124280   6.483   2.238   3.354  1.1942 -0.4882 -0.1085
 7360SOL    HW224281   6.474   2.378   3.298 -0.5276 -0.5126  0.0322
 7361SOL     OW24282   2.936   8.275   8.231 -0.3773  0.5213 -0.2081
 7361SOL    HW124283   2.853   8.308   8.197 -0.8318 -0.4076 -0.0252
 7361SOL    HW224284   2.912   8.197   8.281  0.7688 -0.7481 -1.5624
 7362SOL     OW24285   0.576   5.987   0.177 -0.2651 -0.7169 -0.1805
 7362SOL    HW124286   0.618   6.032   0.251 -1.1512  0.8951 -0.6148
 7362SOL    HW224287   0.638   5.996   0.105  0.2744 -1.6528  0.1439
 7363SOL     OW24288   3.806   8.517   1.297 -0.1166  0.1898  0.1556
 7363SOL    HW124289   3.762   8.590   1.340 -1.5260  0.2182 -1.2570
 7363SOL    HW224290   3.736   8.466   1.258  0.8086 -2.0707  1.2670
 7364SOL     OW24291   4.174   7.466   4.438  0.1892  0.3131 -0.4646
 7364SOL    HW124292   4.169   7.373   4.417  0.6524  0.0295  0.6202
 7364SOL    HW224293   4.114   7.508   4.376 -0.2336 -0.7287 -0.7809
 7365SOL     OW24294   9.532   3.977   9.007 -0.6434  0.9447 -0.4819
 7365SOL    HW124295   9.577   3.913   9.062 -0.7296 -0.7108 -2.2391
 7365SOL    HW224296   9.492   4.038   9.069 -1.4599 -1.2978  1.3306
 7366SOL     OW24297   8.251   3.247   4.351  0.0197  0.1112 -0.4900
 7366SOL    HW124298   8.208   3.301   4.418  4.4963  1.9931  1.2870
 7366SOL    HW224299   8.259   3.305   4.276 -0.5728 -0.2526 -0.8368
 7367SOL     OW24300   1.388   3.032   4.009 -0.0780  0.4129  0.4152
 7367SOL    HW124301   1.481   3.053   4.001 -0.3737  1.8982  0.5912
 7367SOL    HW224302   1.373   3.025   4.103 -0.6022  2.6300  0.5564
 7368SOL     OW24303   0.422   7.150   1.621  0.0387 -0.0146 -0.3857
 7368SOL    HW124304   0.475   7.104   1.555 -0.0588  0.0105 -0.4830
 7368SOL    HW224305   0.333   7.116   1.606  0.2077 -0.9027  0.5112
 7369SOL     OW24306   2.336   0.143   2.898 -0.0570  0.0342 -0.8693
 7369SOL    HW124307   2.298   0.230   2.908  2.3738  1.0625  0.2270
 7369SOL    HW224308   2.429   0.155   2.918  0.7676 -2.4348 -2.7669
 7370SOL     OW24309   3.903   7.054   4.147  0.1467 -1.0143 -0.0000
 7370SOL    HW124310   3.944   6.974   4.116  0.1429 -0.1717 -2.4421
 7370SOL    HW224311   3.937   7.122   4.089  0.9389  0.9777  2.6265
 7371SOL     OW24312   9.264   0.405   7.960  0.0160  0.2703 -0.1143
 7371SOL    HW124313   9.346   0.434   8.000  0.6076 -0.3121 -0.8742
 7371SOL    HW224314   9.279   0.313   7.939 -0.7025  0.2548 -0.5916
 7372SOL     OW24315   9.228   3.704   4.804 -0.0116  0.5742 -0.0691
 7372SOL    HW124316   9.150   3.750   4.773 -1.0018 -1.0936 -0.1211
 7372SOL    HW224317   9.202   3.612   4.810  1.2285  0.2926  2.2252
 7373SOL     OW24318   8.875   3.368   2.515 -0.2656 -0.4169 -0.3739
 7373SOL    HW124319   8.943   3.350   2.580 -1.2364  1.5105  1.3035
 7373SOL    HW224320   8.870   3.289   2.462  0.4991 -2.1522  1.9987
 7374SOL     OW24321   4.286   0.243   6.109 -0.0271 -0.0463  0.5014
 7374SOL    HW124322   4.300   0.336   6.090 -1.8818  0.5421  1.6679
 7374SOL    HW224323   4.370   0.211   6.140  0.3470  1.5964  1.2996
 7375SOL     OW24324   2.437   4.788   7.457  0.1449  0.3431  0.1103
 7375SOL    HW124325   2.427   4.864   7.514  1.0117  2.0241 -1.8559
 7375SOL    HW224326   2.352   4.778   7.414 -0.5358 -0.9760  1.6345
 7376SOL     OW24327   1.693   9.297   5.626  0.1856  0.0954 -0.8368
 7376SOL    HW124328   1.755   9.280   5.555  1.3530 -1.8868  0.5400
 7376SOL    HW224329   1.617   9.336   5.583  0.9311 -0.7834 -3.1261
 7377SOL     OW24330   5.898   4.441   1.091  0.4520 -0.2339 -0.1032
 7377SOL    HW124331   5.915   4.415   1.182  2.8618 -0.9489 -0.6986
 7377SOL    HW224332   5.934   4.370   1.038 -2.0762 -0.4743 -1.6654
 7378SOL     OW24333   6.515   6.960   0.838  0.5673  0.1628 -0.3500
 7378SOL    HW124334   6.458   7.031   0.809 -0.3018  0.3293  1.6025
 7378SOL    HW224335   6.456   6.899   0.881  1.4913 -1.1506 -0.8823
 7379SOL     OW24336   9.171   1.765   9.446 -0.8493  0.6229  0.1182
 7379SOL    HW124337   9.104   1.697   9.450 -2.2773  1.9868  0.1653
 7379SOL    HW224338   9.228   1.738   9.374 -0.8316 -1.0860  0.7316
 7380SOL     OW24339   7.425   9.305   6.890 -0.4624 -0.2253  0.0422
 7380SOL    HW124340   7.391   9.216   6.875 -2.5320  0.2470  1.4336
 7380SOL    HW224341   7.351   9.362   6.870  1.0804  1.3141 -1.6443
 7381SOL     OW24342   4.884   6.845   3.423  0.5634  0.8019  0.2709
 7381SOL    HW124343   4.953   6.831   3.359  1.7035 -0.2591  1.6561
 7381SOL    HW224344   4.803   6.829   3.375  1.3656  0.0936 -0.9067
 7382SOL     OW24345   9.536   4.445   7.443 -0.3798 -0.0971 -0.9048
 7382SOL    HW124346   9.627   4.471   7.428 -0.2861  0.4222  0.3966
 7382SOL    HW224347   9.523   4.369   7.387  1.0677 -0.5813 -0.6208
 7383SOL     OW24348   1.444   5.134   4.041  0.5300  0.0133  0.0956
 7383SOL    HW124349   1.440   5.214   3.989  2.0165  0.7781  1.1029
 7383SOL    HW224350   1.436   5.063   3.977  2.2958  0.9293 -1.1939
 7384SOL     OW24351   4.323   8.214   0.896  0.6934  0.0981  0.2143
 7384SOL    HW124352   4.281   8.178   0.818 -0.1477  1.4764 -0.0123
 7384SOL    HW224353   4.306   8.150   0.965  0.8543 -0.8122 -0.5816
 7385SOL     OW24354   0.174   4.848   1.805 -0.1430 -0.0260  0.0771
 7385SOL    HW124355   0.107   4.912   1.779 -0.4209  0.1366  1.1441
 7385SOL    HW224356   0.229   4.838   1.727 -2.2781 -1.3106 -1.3696
 7386SOL     OW24357   5.724   9.194   6.050  0.7440  0.3268 -0.0587
 7386SOL    HW124358   5.676   9.119   6.086  0.4242  0.2044 -0.7180
 7386SOL    HW224359   5.690   9.270   6.097  1.3019  0.0329  0.8466
 7387SOL     OW24360   0.917   7.731   8.851  0.2916 -0.1793  0.1397
 7387SOL    HW124361   0.854   7.754   8.783 -0.5678  0.3125  1.0887
 7387SOL    HW224362   0.977   7.671   8.807 -1.5023 -1.6107 -0.5089
 7388SOL     OW24363   7.782   4.555   7.185 -0.9839  0.4900 -0.1778
 7388SOL    HW124364   7.825   4.471   7.172 -1.1015  0.4428 -0.2618
 7388SOL    HW224365   7.688   4.535   7.179 -1.0367  0.5081  0.4762
 7389SOL     OW24366   5.561   4.308   6.464  0.3767  0.4095  0.3240
 7389SOL    HW124367   5.584   4.400   6.480  1.8521  0.5912 -2.2132
 7389SOL    HW224368   5.487   4.312   6.402  0.7978 -0.0690 -0.2254
 7390SOL     OW24369   1.199   7.048   7.251 -0.4538  0.1770 -0.2331
 7390SOL    HW124370   1.276   7.105   7.257 -0.0379 -0.4730  0.9378
 7390SOL    HW224371   1.196   7.004   7.336 -2.1477  0.2126 -0.2536
 7391SOL     OW24372   0.612   5.234   5.973 -0.2533  0.7232 -0.6209
 7391SOL    HW124373   0.632   5.154   6.021  2.4852  1.5211 -0.2656
 7391SOL    HW224374   0.569   5.203   5.893  1.5697 -1.2422 -0.9503
 7392SOL     OW24375   7.936   3.614   4.226 -0.8742 -0.3265 -0.7313
 7392SOL    HW124376   7.909   3.540   4.280 -1.1312  1.2908  1.5365
 7392SOL    HW224377   8.032   3.611   4.227 -0.8823 -0.6015 -0.6213
 7393SOL     OW24378   7.632   8.035   7.776  0.0354 -0.0082 -0.3579
 7393SOL    HW124379   7.551   8.038   7.827  0.4332 -0.3838  0.3114
 7393SOL    HW224380   7.701   8.027   7.842  0.6267  0.4643 -0.9138
 7394SOL     OW24381   9.372   0.890   0.537  0.0759 -0.3054 -0.4610
 7394SOL    HW124382   9.409   0.821   0.481  2.4955  1.6429 -1.4650
 7394SOL    HW224383   9.448   0.930   0.579 -1.4297  0.4778  1.6762
 7395SOL     OW24384   1.723   6.347   8.678 -0.4415  0.0695  0.1295
 7395SOL    HW124385   1.635   6.308   8.680  0.4955 -2.2790 -0.4939
 7395SOL    HW224386   1.766   6.313   8.756  0.3754 -0.0269 -0.3507
 7396SOL     OW24387   2.200   3.476   6.603  0.7407 -0.1108 -0.9534
 7396SOL    HW124388   2.111   3.504   6.624 -0.0047 -2.4486 -0.7419
 7396SOL    HW224389   2.206   3.483   6.508 -0.4203 -1.9024 -1.1902
 7397SOL     OW24390   5.404   7.852   5.306 -0.6686 -0.2316  0.3059
 7397SOL    HW124391   5.482   7.876   5.255 -1.8048  0.3433 -1.2427
 7397SOL    HW224392   5.391   7.924   5.367 -1.5110  1.0584 -1.3090
 7398SOL     OW24393   4.948   5.332   8.208  0.7981  0.2373 -0.2667
 7398SOL    HW124394   5.021   5.395   8.211  0.3006  1.0715 -2.9694
 7398SOL    HW224395   4.869   5.387   8.214  0.3686 -0.1428 -1.9277
 7399SOL     OW24396   2.460   2.990   0.832 -0.3241  0.1433  0.0735
 7399SOL    HW124397   2.463   2.990   0.928 -0.9368 -0.8569  0.1068
 7399SOL    HW224398   2.466   2.898   0.808 -0.7204  0.3415 -0.8330
 7400SOL     OW24399   9.512   7.361   6.793 -0.4997  0.1556  0.0669
 7400SOL    HW124400   9.476   7.428   6.735  0.0363  1.6718  1.4266
 7400SOL    HW224401   9.488   7.390   6.881  0.5166 -0.9801  0.7468
 7401SOL     OW24402   0.852   3.342   2.628 -0.1548  1.2677 -0.4872
 7401SOL    HW124403   0.828   3.264   2.580 -0.7609  2.1314 -1.6362
 7401SOL    HW224404   0.847   3.316   2.720  0.3344 -0.2149 -0.8503
 7402SOL     OW24405   1.977   0.366   5.902  0.0345  0.1349 -0.3432
 7402SOL    HW124406   2.006   0.449   5.863 -0.8080  0.4143 -0.3913
 7402SOL    HW224407   1.984   0.380   5.996 -0.2159  0.3045 -0.3489
 7403SOL     OW24408   8.002   1.491   6.699  0.4980  0.5632  0.3063
 7403SOL    HW124409   8.088   1.484   6.656 -0.8434 -2.5555 -2.2740
 7403SOL    HW224410   7.967   1.575   6.669  1.7879  0.8915 -0.3591
 7404SOL     OW24411   1.051   6.726   8.705  0.6631  0.5450 -0.0636
 7404SOL    HW124412   1.042   6.643   8.752  1.6326  0.6580  0.3310
 7404SOL    HW224413   1.053   6.701   8.613  1.1104  0.1164  0.0609
 7405SOL     OW24414   6.244   7.042   3.053  0.2392 -0.7114 -0.7384
 7405SOL    HW124415   6.307   7.000   2.996 -0.3105 -0.5175 -1.5064
 7405SOL    HW224416   6.198   7.104   2.996  0.2138  0.0568  0.0907
 7406SOL     OW24417   3.381   4.997   6.585 -0.2061  0.0935 -0.4787
 7406SOL    HW124418   3.415   4.913   6.554 -0.0549 -0.5380  1.2848
 7406SOL    HW224419   3.287   4.992   6.570 -0.3290 -0.8066  0.4359
 7407SOL     OW24420   7.820   8.684   3.688 -0.2764  0.1624 -0.0489
 7407SOL    HW124421   7.878   8.741   3.739 -0.1489  1.0278 -1.1289
 7407SOL    HW224422   7.750   8.661   3.749 -1.1686  2.7267  0.0161
 7408SOL     OW24423   1.939   9.555   6.709 -0.3078 -0.0960 -0.3629
 7408SOL    HW124424   1.949   9.535   6.616 -0.7842 -0.2010 -0.3914
 7408SOL    HW224425   2.026   9.538   6.746 -0.0578  0.1489 -0.8214
 7409SOL     OW24426   2.914   2.648   0.394 -0.5584 -0.6136 -0.0673
 7409SOL    HW124427   2.946   2.564   0.428 -2.6261 -1.2816  0.3967
 7409SOL    HW224428   2.878   2.626   0.308  2.3389  0.6020 -1.7485
 7410SOL     OW24429   1.464   7.206   8.839 -0.4215 -0.0761 -0.4379
 7410SOL    HW124430   1.477   7.299   8.818  0.7660 -0.3662 -1.0917
 7410SOL    HW224431   1.393   7.178   8.782  0.1982  0.0936 -1.3173
 7411SOL     OW24432   6.192   6.788   1.664 -0.4753  0.6802  0.6964
 7411SOL    HW124433   6.250   6.857   1.696 -0.4376  1.7214 -1.4507
 7411SOL    HW224434   6.109   6.833   1.646 -0.5929  0.0991 -0.2831
 7412SOL     OW24435   3.514   6.682   8.516  0.1200  0.4405  0.0716
 7412SOL    HW124436   3.567   6.716   8.588 -0.5237 -0.5454  1.0451
 7412SOL    HW224437   3.570   6.616   8.474  0.0500  0.1396  0.4461
 7413SOL     OW24438   4.124   1.450   1.330  0.3446 -0.2865  0.0754
 7413SOL    HW124439   4.146   1.506   1.404  0.2986 -0.1719  0.0026
 7413SOL    HW224440   4.061   1.501   1.279  0.1263 -0.5003  0.1325
 7414SOL     OW24441   6.989   3.444   6.076 -0.0813 -0.6678  0.0302
 7414SOL    HW124442   7.006   3.438   5.982 -2.3232 -0.8387 -0.4229
 7414SOL    HW224443   6.942   3.364   6.097  0.5624 -0.7205  1.3573
 7415SOL     OW24444   0.708   3.247   9.263  0.2325 -0.1885  0.1472
 7415SOL    HW124445   0.718   3.184   9.191  1.3353 -0.1600  0.2543
 7415SOL    HW224446   0.781   3.227   9.322  1.0823  1.6873 -0.1933
 7416SOL     OW24447   7.829   8.630   0.517  0.3896 -0.2263 -0.0222
 7416SOL    HW124448   7.852   8.669   0.433  0.4936 -1.0833 -0.4014
 7416SOL    HW224449   7.913   8.605   0.555  0.3529  0.2827  0.4074
 7417SOL     OW24450   3.988   0.650   1.299  0.3785 -0.4201 -0.1898
 7417SOL    HW124451   3.970   0.579   1.237  0.1660 -0.3784 -0.1765
 7417SOL    HW224452   3.965   0.730   1.251 -2.4792 -0.5144  0.8639
 7418SOL     OW24453   7.692   3.987   5.310  0.4375 -0.2529 -0.0747
 7418SOL    HW124454   7.769   4.035   5.279 -0.3622  1.7580  0.8575
 7418SOL    HW224455   7.688   4.007   5.404 -1.7434  0.5107 -0.2838
 7419SOL     OW24456   2.591   0.786   2.146  0.1700  0.5243  0.4291
 7419SOL    HW124457   2.519   0.777   2.209  0.2395  1.4640  0.6673
 7419SOL    HW224458   2.641   0.862   2.178  0.7227  0.4627 -0.2617
 7420SOL     OW24459   8.071   8.844   7.967 -0.1540 -0.1804 -0.2907
 7420SOL    HW124460   8.109   8.823   7.882 -0.1350 -2.6422  0.2622
 7420SOL    HW224461   8.116   8.786   8.028 -1.4478  0.2398  1.1201
 7421SOL     OW24462   6.864   2.717   3.817 -0.0506  0.4011  0.4609
 7421SOL    HW124463   6.811   2.638   3.816 -0.5335  0.7211 -0.4109
 7421SOL    HW224464   6.953   2.687   3.799 -0.5156  0.2278 -1.8435
 7422SOL     OW24465   1.386   7.427   4.332  0.0389  0.0652 -0.3142
 7422SOL    HW124466   1.342   7.349   4.298  0.2114  0.2958 -1.0768
 7422SOL    HW224467   1.360   7.497   4.272  0.0184  0.5672  0.2691
 7423SOL     OW24468   2.227   8.889   2.521  0.3052  0.7148  0.3554
 7423SOL    HW124469   2.141   8.852   2.543 -0.8813  1.6947 -2.2928
 7423SOL    HW224470   2.223   8.979   2.554  0.2684  0.8097  0.0887
 7424SOL     OW24471   0.635   1.945   8.671 -0.0920  0.1605 -0.3647
 7424SOL    HW124472   0.630   2.013   8.604 -0.1755 -0.2556 -0.7857
 7424SOL    HW224473   0.545   1.919   8.686 -0.1166  0.5690  0.2496
 7425SOL     OW24474   8.877   8.080   4.012  0.1398  0.1965 -0.2728
 7425SOL    HW124475   8.786   8.085   4.041  0.1380  1.7952 -0.4939
 7425SOL    HW224476   8.876   8.120   3.925  1.2675  1.3937  0.2535
 7426SOL     OW24477   2.525   1.780   9.332  0.5628  0.4778 -0.2354
 7426SOL    HW124478   2.576   1.764   9.252  0.0036  0.0298 -0.5118
 7426SOL    HW224479   2.532   1.874   9.346  1.7873  0.3753 -0.0419
 7427SOL     OW24480   0.264   3.420   2.378  0.4641  0.0354 -0.0965
 7427SOL    HW124481   0.191   3.448   2.323  0.4607 -0.0433 -0.1328
 7427SOL    HW224482   0.242   3.452   2.465 -1.3476 -2.8715  0.6609
 7428SOL     OW24483   7.446   0.560   1.416  0.6663 -0.4323 -0.1137
 7428SOL    HW124484   7.468   0.640   1.369  1.0842 -0.9899 -0.8898
 7428SOL    HW224485   7.367   0.583   1.466  1.0008  0.5678 -0.0207
 7429SOL     OW24486   8.223   7.500   5.387  0.0620 -0.7157 -0.0235
 7429SOL    HW124487   8.188   7.523   5.301  1.1218  2.0295  0.1665
 7429SOL    HW224488   8.318   7.505   5.376  0.2001  0.2893  1.4264
 7430SOL     OW24489   0.607   7.423   7.422 -0.0249 -0.4035  0.4638
 7430SOL    HW124490   0.691   7.439   7.379  0.4949  1.6590  2.0736
 7430SOL    HW224491   0.548   7.487   7.381 -0.1088 -0.0154  1.1813
 7431SOL     OW24492   9.519   1.211   4.578 -0.6263 -0.2319 -0.2710
 7431SOL    HW124493   9.539   1.303   4.564 -0.1719 -0.5911 -2.1472
 7431SOL    HW224494   9.518   1.201   4.674  0.6505  1.4183 -0.0548
 7432SOL     OW24495   9.138   0.126   5.742 -0.4818  0.0275 -0.2356
 7432SOL    HW124496   9.208   0.191   5.734  0.0478 -0.7131 -2.8359
 7432SOL    HW224497   9.182   0.048   5.775 -0.3095 -0.1112 -0.7891
 7433SOL     OW24498   8.994   4.251   4.975 -0.2948  0.3928  0.4723
 7433SOL    HW124499   8.985   4.346   4.971 -0.0921  0.3864 -2.5035
 7433SOL    HW224500   8.925   4.218   4.918  2.0987 -0.9647 -1.8526
 7434SOL     OW24501   9.099   2.937   0.690  0.4903 -0.4086 -0.1357
 7434SOL    HW124502   9.057   2.938   0.603  1.4382 -0.2800 -0.6073
 7434SOL    HW224503   9.051   3.003   0.740 -0.4064 -0.8445 -0.3854
 7435SOL     OW24504   4.064   1.004   7.280  0.1211  0.7365 -0.3273
 7435SOL    HW124505   4.059   0.926   7.336 -1.6965  1.6470  0.8630
 7435SOL    HW224506   4.117   1.066   7.330 -0.0117  0.9325 -0.4282
 7436SOL     OW24507   5.142   1.994   6.153 -0.1438 -0.1942 -0.0472
 7436SOL    HW124508   5.110   2.082   6.134 -1.7506 -0.7277  0.0509
 7436SOL    HW224509   5.177   1.962   6.070 -0.0894  0.3158 -0.2224
 7437SOL     OW24510   0.959   2.898   8.877 -0.3585  0.1441  0.0579
 7437SOL    HW124511   0.949   2.920   8.784  1.3728  1.3092  0.0971
 7437SOL    HW224512   0.980   2.982   8.919 -1.2958 -0.3349  1.5485
 7438SOL     OW24513   3.403   7.400   1.705  0.6475 -0.0863  0.1223
 7438SOL    HW124514   3.486   7.443   1.686  0.5152 -0.1060 -0.5275
 7438SOL    HW224515   3.406   7.318   1.656  1.5667 -1.6462  2.5927
 7439SOL     OW24516   4.748   2.156   2.390  0.0234  0.9037 -0.4756
 7439SOL    HW124517   4.691   2.102   2.336  1.4550 -2.1736  0.8809
 7439SOL    HW224518   4.727   2.131   2.480  3.0604 -0.0264  0.0911
 7440SOL     OW24519   0.941   5.270   1.514 -0.0260  0.2300  0.0766
 7440SOL    HW124520   0.918   5.179   1.530  1.9817 -0.4627 -0.5800
 7440SOL    HW224521   0.892   5.294   1.435 -1.1870  0.0132  0.7096
 7441SOL     OW24522   0.029   4.742   1.160  0.3893 -0.1613 -0.7589
 7441SOL    HW124523   0.003   4.693   1.082 -0.9115 -1.7602  0.5942
 7441SOL    HW224524   0.087   4.683   1.207 -0.1825  0.1015  0.2941
 7442SOL     OW24525   9.113   8.732   8.741  0.2450  0.5098 -0.5660
 7442SOL    HW124526   9.053   8.702   8.673  0.7574 -0.7338 -0.5014
 7442SOL    HW224527   9.172   8.658   8.755 -0.2703  0.4444  1.7129
 7443SOL     OW24528   7.098   7.153   1.135 -0.2002  0.3197  0.2938
 7443SOL    HW124529   7.034   7.143   1.065  0.2903  1.8761 -0.4442
 7443SOL    HW224530   7.177   7.109   1.102 -0.3463 -0.0406  0.4225
 7444SOL     OW24531   6.667   7.539   5.224  0.1465  0.4335  0.9621
 7444SOL    HW124532   6.717   7.517   5.145 -0.3921  0.4543  0.6016
 7444SOL    HW224533   6.710   7.616   5.260  1.7120 -0.8314  1.9149
 7445SOL     OW24534   6.497   9.007   7.308 -0.1091 -0.0143 -0.0514
 7445SOL    HW124535   6.555   8.983   7.235 -0.8640  2.9734 -1.7792
 7445SOL    HW224536   6.557   9.023   7.382  1.0274  0.2910 -1.0036
 7446SOL     OW24537   6.680   2.051   8.812  0.1889  0.0827 -0.1951
 7446SOL    HW124538   6.676   1.994   8.735  0.6637 -0.6296  0.2887
 7446SOL    HW224539   6.724   2.130   8.781  0.5418 -0.2708 -0.6178
 7447SOL     OW24540   4.045   8.014   1.974 -0.3445 -0.2801 -0.0872
 7447SOL    HW124541   3.982   7.971   2.032 -0.0669  0.3713  0.6994
 7447SOL    HW224542   4.055   7.952   1.901 -2.7809  0.0822 -0.8426
 7448SOL     OW24543   3.703   3.972   1.166 -0.0249 -0.3439  0.3576
 7448SOL    HW124544   3.641   3.989   1.237  0.7771  1.3128  0.6964
 7448SOL    HW224545   3.765   3.908   1.203 -1.1460 -1.5603  0.2095
 7449SOL     OW24546   4.690   1.638   4.248  0.0713 -0.5579  0.3494
 7449SOL    HW124547   4.739   1.590   4.181  0.7934 -0.4642  0.7867
 7449SOL    HW224548   4.708   1.730   4.230 -3.0242 -0.2354 -1.7897
 7450SOL     OW24549   1.970   3.104   1.968  0.4386 -0.2210  0.2491
 7450SOL    HW124550   1.919   3.027   1.990 -0.1309  0.2966  0.7580
 7450SOL    HW224551   2.059   3.083   1.997  0.2371 -0.5854  0.6144
 7451SOL     OW24552   0.406   4.050   5.627  0.2823 -0.8514  1.0412
 7451SOL    HW124553   0.368   4.138   5.622  1.9740 -0.1516 -1.7310
 7451SOL    HW224554   0.442   4.044   5.715  0.5935  1.4575  1.1159
 7452SOL     OW24555   8.621   5.156   1.970 -0.0047  0.3871 -0.3220
 7452SOL    HW124556   8.685   5.096   2.008 -0.9256  0.6787  1.8339
 7452SOL    HW224557   8.552   5.098   1.935 -1.3075  0.0650  2.5030
 7453SOL     OW24558   1.179   1.605   3.135  0.0214 -0.1507 -0.4123
 7453SOL    HW124559   1.099   1.598   3.084 -0.3662  0.9939 -0.0053
 7453SOL    HW224560   1.150   1.634   3.222  0.8136 -0.3914 -0.0548
 7454SOL     OW24561   3.382   3.567   4.418  0.2479 -0.8722 -0.3404
 7454SOL    HW124562   3.397   3.659   4.439  0.5785 -1.3442  1.7419
 7454SOL    HW224563   3.466   3.524   4.438  0.1245 -1.6268 -1.3694
 7455SOL     OW24564   3.830   0.614   4.411 -0.3379 -0.6910 -0.3372
 7455SOL    HW124565   3.852   0.677   4.342 -1.4032 -0.9862 -0.9653
 7455SOL    HW224566   3.741   0.638   4.437  0.6889  0.6175  2.2984
 7456SOL     OW24567   0.292   2.129   0.660 -0.4737  0.3552 -0.5078
 7456SOL    HW124568   0.259   2.162   0.577  1.4103 -0.3300 -1.5847
 7456SOL    HW224569   0.354   2.195   0.689  0.3098 -0.3117 -0.6381
 7457SOL     OW24570   6.021   8.174   6.796 -0.2927  0.2731  0.0960
 7457SOL    HW124571   6.039   8.085   6.765 -0.7709 -0.0430  0.6972
 7457SOL    HW224572   6.072   8.183   6.876 -0.7501  0.3014  0.3903
 7458SOL     OW24573   1.264   0.219   6.308 -0.0785  0.4172 -0.4461
 7458SOL    HW124574   1.279   0.204   6.402 -1.9307 -0.3648 -0.2358
 7458SOL    HW224575   1.352   0.221   6.271  0.7345  1.2686  1.3653
 7459SOL     OW24576   4.240   8.635   6.510  0.3167 -0.5811  0.1418
 7459SOL    HW124577   4.163   8.603   6.464  1.1961  0.4118 -2.1932
 7459SOL    HW224578   4.226   8.729   6.518  1.6101 -0.2363 -1.1191
 7460SOL     OW24579   1.891   1.412   7.442 -0.3173  0.1628  0.5075
 7460SOL    HW124580   1.944   1.377   7.371 -1.1099  0.8026 -0.4250
 7460SOL    HW224581   1.894   1.345   7.510 -0.9615 -1.2540 -0.8199
 7461SOL     OW24582   3.989   3.722   5.469 -0.0947 -0.7114  0.2557
 7461SOL    HW124583   3.902   3.751   5.497  0.3287  2.8287 -1.5593
 7461SOL    HW224584   3.976   3.690   5.380  0.2598 -1.5571  0.5030
 7462SOL     OW24585   1.217   1.612   8.401  0.2165 -0.3579  0.0145
 7462SOL    HW124586   1.302   1.643   8.432  0.0863 -0.9087  0.9460
 7462SOL    HW224587   1.225   1.517   8.400 -0.1416 -0.3868 -0.6327
 7463SOL     OW24588   8.176   3.589   0.505  0.3543 -0.6366  0.1697
 7463SOL    HW124589   8.232   3.659   0.539 -0.8353 -0.2767  1.4460
 7463SOL    HW224590   8.137   3.626   0.426 -0.7447  0.4065  1.1648
 7464SOL     OW24591   7.902   6.557   7.057  0.4933  0.2224 -0.3435
 7464SOL    HW124592   7.870   6.630   7.110 -0.8307 -1.3502  1.1004
 7464SOL    HW224593   7.988   6.537   7.093 -0.0736 -0.3358  0.7176
 7465SOL     OW24594   5.057   2.721   5.870 -0.7043 -0.0197 -0.2799
 7465SOL    HW124595   5.003   2.800   5.867 -0.3999  0.1754 -0.9291
 7465SOL    HW224596   4.996   2.649   5.859 -1.0044  0.1124  0.4708
 7466SOL     OW24597   3.600   0.714   0.816  0.2865 -0.1743  0.1811
 7466SOL    HW124598   3.512   0.698   0.784 -0.0294  2.7260 -0.7211
 7466SOL    HW224599   3.587   0.747   0.905  0.2903  1.4232 -0.3745
 7467SOL     OW24600   1.607   5.240   9.445  0.3199 -0.1934  0.2983
 7467SOL    HW124601   1.657   5.321   9.437  0.4546 -0.4064 -1.1940
 7467SOL    HW224602   1.662   5.173   9.406 -1.4348 -0.2858 -2.2399
 7468SOL     OW24603   4.154   1.285   5.389 -0.0323  0.0323  0.3616
 7468SOL    HW124604   4.099   1.345   5.440 -0.5095  0.1544 -0.2846
 7468SOL    HW224605   4.238   1.284   5.435 -0.4550  0.1267  1.1571
 7469SOL     OW24606   0.995   5.308   1.782 -0.0958  0.1242  0.5166
 7469SOL    HW124607   0.990   5.237   1.718  2.1223 -0.4611  0.8923
 7469SOL    HW224608   1.012   5.386   1.730  2.8700 -0.5261  0.3486
 7470SOL     OW24609   5.845   9.456   4.287  0.3901 -0.1361 -0.1775
 7470SOL    HW124610   5.869   9.367   4.312 -0.0801 -0.7297 -1.7030
 7470SOL    HW224611   5.750   9.453   4.276  0.1633  0.9554  1.1737
 7471SOL     OW24612   8.026   7.238   4.963  0.1737  0.2381 -0.0677
 7471SOL    HW124613   8.021   7.270   5.053  0.1963  0.2878 -0.0843
 7471SOL    HW224614   8.086   7.164   4.967 -0.2045 -0.0639  0.0475
 7472SOL     OW24615   7.671   4.251   0.638 -0.4973  1.0706  0.5236
 7472SOL    HW124616   7.707   4.177   0.687  0.4026  2.0311  1.3582
 7472SOL    HW224617   7.600   4.213   0.586 -0.2746 -0.3113  1.1841
 7473SOL     OW24618   4.962   7.298   8.869 -0.2376 -0.1543  0.0098
 7473SOL    HW124619   5.015   7.280   8.792  1.2194  0.4284  0.8402
 7473SOL    HW224620   4.931   7.388   8.856  1.1042  0.4321  0.6828
 7474SOL     OW24621   9.299   3.870   5.471  0.2964 -0.1516  0.0156
 7474SOL    HW124622   9.245   3.898   5.544  0.2004  0.0919 -0.1462
 7474SOL    HW224623   9.245   3.886   5.393  0.1985 -0.8953 -0.0768
 7475SOL     OW24624   3.090   1.288   8.311 -0.1522 -0.1203  0.1514
 7475SOL    HW124625   3.049   1.263   8.228 -1.0105  0.5669  0.3574
 7475SOL    HW224626   3.135   1.371   8.291 -0.1268 -0.0976  0.3037
 7476SOL     OW24627   0.297   8.816   4.376  0.0634  0.3742 -0.3472
 7476SOL    HW124628   0.377   8.868   4.373  0.6792 -0.6030 -1.7380
 7476SOL    HW224629   0.288   8.791   4.467  1.1276  0.8251 -0.1051
 7477SOL     OW24630   6.739   0.896   2.929 -0.2960 -0.2621 -0.0519
 7477SOL    HW124631   6.648   0.865   2.925  0.1373 -1.7560  0.9753
 7477SOL    HW224632   6.789   0.820   2.958  1.2289  0.6777 -0.1196
 7478SOL     OW24633   8.655   7.730   4.084 -0.2946  0.1139  0.1262
 7478SOL    HW124634   8.563   7.759   4.081 -0.6295 -0.9515 -0.5237
 7478SOL    HW224635   8.690   7.770   4.164 -1.3699  0.4018  0.4758
 7479SOL     OW24636   2.799   2.143   6.299  0.4256 -0.1711  0.1528
 7479SOL    HW124637   2.812   2.218   6.242  2.3885 -1.2927 -0.9793
 7479SOL    HW224638   2.784   2.181   6.386  0.4950  1.5169 -0.5502
 7480SOL     OW24639   4.411   8.296   2.440 -0.2790 -0.3998  0.1314
 7480SOL    HW124640   4.484   8.248   2.401 -0.2555  0.2437 -0.6655
 7480SOL    HW224641   4.338   8.234   2.440 -0.4927 -0.2158 -1.6797
 7481SOL     OW24642   1.886   2.229   5.058  0.4890  0.4419 -0.2232
 7481SOL    HW124643   1.901   2.140   5.089  1.3628  0.8349  0.5473
 7481SOL    HW224644   1.831   2.269   5.126 -0.7041  0.2291 -1.0271
 7482SOL     OW24645   2.924   6.668   3.149 -0.5621 -0.1418 -0.6515
 7482SOL    HW124646   2.883   6.589   3.183 -0.9401  0.6241  0.7392
 7482SOL    HW224647   2.993   6.636   3.091 -0.8652 -1.4806 -0.3067
 7483SOL     OW24648   5.883   0.523   6.016  0.1977  0.0527 -0.1044
 7483SOL    HW124649   5.837   0.488   5.939 -0.2724 -0.5545  0.4442
 7483SOL    HW224650   5.889   0.617   5.999 -2.2124  0.3327  0.2852
 7484SOL     OW24651   6.010   1.012   3.288 -0.1479 -0.1156  0.0346
 7484SOL    HW124652   6.064   1.073   3.336  1.2437 -1.9439  0.9103
 7484SOL    HW224653   5.946   0.981   3.351  0.3576 -0.9588  0.1471
 7485SOL     OW24654   7.573   4.596   2.566 -0.1459 -0.3354  0.7271
 7485SOL    HW124655   7.595   4.533   2.498 -0.2636  0.1117  0.2701
 7485SOL    HW224656   7.611   4.559   2.646  0.7433 -0.4542  0.2691
 7486SOL     OW24657   1.148   6.437   3.590  0.1653  0.4005  0.1957
 7486SOL    HW124658   1.184   6.417   3.504  0.5379  1.0619  0.1906
 7486SOL    HW224659   1.183   6.369   3.647 -1.7386 -1.3018 -0.5358
 7487SOL     OW24660   9.498   7.425   0.367  0.2145  0.4540  0.6872
 7487SOL    HW124661   9.448   7.507   0.370 -0.1290  0.2532  0.4959
 7487SOL    HW224662   9.587   7.451   0.389  0.2080  0.9603  0.1400
 7488SOL     OW24663   7.644   4.823   9.476 -0.3969  0.1243 -0.1313
 7488SOL    HW124664   7.735   4.796   9.467 -0.1134  0.2203  1.9704
 7488SOL    HW224665   7.636   4.853   9.567 -2.4004  0.5895 -0.4024
 7489SOL     OW24666   4.936   7.162   2.318 -0.0328 -0.7753 -0.1830
 7489SOL    HW124667   5.023   7.128   2.339 -0.5325 -1.2581  1.1983
 7489SOL    HW224668   4.904   7.200   2.400 -1.0811 -0.4856 -0.7022
 7490SOL     OW24669   9.444   1.643   4.343 -0.3594 -0.0367  0.0577
 7490SOL    HW124670   9.477   1.731   4.357 -0.1700  0.0167 -0.7230
 7490SOL    HW224671   9.380   1.652   4.272  0.9267 -0.7978 -1.2432
 7491SOL     OW24672   9.322   2.361   7.901  0.4456 -0.2381 -0.7114
 7491SOL    HW124673   9.261   2.391   7.833  2.1478  2.1982 -1.2858
 7491SOL    HW224674   9.404   2.346   7.855  1.0842 -0.5693  0.4878
 7492SOL     OW24675   1.991   0.380   6.187 -0.0372  0.2762  0.5696
 7492SOL    HW124676   2.078   0.376   6.227 -0.8751  0.6932  2.5111
 7492SOL    HW224677   1.951   0.458   6.225 -0.9402  0.6294 -1.0268
 7493SOL     OW24678   1.265   0.707   6.001  0.7396 -0.9002  0.6246
 7493SOL    HW124679   1.292   0.742   5.916  1.1904 -0.3394  0.9895
 7493SOL    HW224680   1.300   0.769   6.065 -0.0565 -1.0265  1.1989
 7494SOL     OW24681   2.844   8.247   1.058  0.0422 -0.0389  0.0680
 7494SOL    HW124682   2.865   8.276   0.969  0.9530  0.7941  0.5410
 7494SOL    HW224683   2.820   8.327   1.104 -0.3215 -0.4551  0.6123
 7495SOL     OW24684   9.204   7.600   0.541 -0.5066 -0.0609  0.0935
 7495SOL    HW124685   9.180   7.631   0.453 -1.9002 -0.6117  0.2459
 7495SOL    HW224686   9.124   7.559   0.574 -0.3536  1.1219  2.0831
 7496SOL     OW24687   9.159   3.342   4.501  0.8916 -0.4813 -0.0016
 7496SOL    HW124688   9.101   3.340   4.425 -0.1504 -1.0817  0.7741
 7496SOL    HW224689   9.207   3.424   4.493 -0.7916  0.5249 -0.1594
 7497SOL     OW24690   1.154   6.506   2.966 -0.1877 -0.0103  0.4524
 7497SOL    HW124691   1.191   6.577   2.914 -2.1282  0.8465  0.1326
 7497SOL    HW224692   1.224   6.480   3.026  0.6247  2.0742  0.4730
 7498SOL     OW24693   3.917   2.050   4.575  0.3371 -0.0989 -0.3200
 7498SOL    HW124694   4.005   2.061   4.611 -0.0340 -0.2481  0.6620
 7498SOL    HW224695   3.931   2.011   4.488  1.3778  2.4091 -1.3680
 7499SOL     OW24696   0.064   8.075   5.409  0.1211 -0.7753 -0.0107
 7499SOL    HW124697   0.002   8.093   5.480 -0.2887 -0.2447 -0.4988
 7499SOL    HW224698   0.049   8.144   5.345  0.7783 -1.0076 -0.4325
 7500SOL     OW24699   3.442   8.782   4.086 -0.1290 -0.2486  0.7937
 7500SOL    HW124700   3.445   8.877   4.074  0.9197 -0.4293 -0.6683
 7500SOL    HW224701   3.534   8.756   4.089 -0.4047 -1.2122  1.3434
 7501SOL     OW24702   9.536   7.411   7.869 -0.1365  0.1810  0.0941
 7501SOL    HW124703   9.503   7.346   7.932  0.5053 -0.2743 -0.0304
 7501SOL    HW224704   9.507   7.495   7.905 -1.0890 -0.1769  0.1916
 7502SOL     OW24705   1.463   3.091   8.163  0.0824  0.1294  0.2002
 7502SOL    HW124706   1.463   3.182   8.131 -0.0889  0.2651  0.5853
 7502SOL    HW224707   1.555   3.069   8.172  0.2221 -0.5031 -2.0546
 7503SOL     OW24708   5.514   2.140   3.771  0.4818  0.3025 -0.0691
 7503SOL    HW124709   5.442   2.200   3.753  1.7928  1.9066 -0.2742
 7503SOL    HW224710   5.552   2.173   3.853 -0.2788 -1.8127  1.2136
 7504SOL     OW24711   5.818   7.152   4.084  0.3250 -0.0250  0.1384
 7504SOL    HW124712   5.839   7.238   4.049 -0.6923  0.1162 -0.1477
 7504SOL    HW224713   5.738   7.165   4.135 -0.3245 -0.9457 -0.5979
 7505SOL     OW24714   1.802   2.675   8.504 -0.2214  0.4367 -0.2566
 7505SOL    HW124715   1.812   2.741   8.435 -1.9332 -1.3450 -2.3714
 7505SOL    HW224716   1.863   2.606   8.480  0.1731  0.3828  0.8441
 7506SOL     OW24717   2.147   4.528   0.371 -0.0569 -0.1003  0.1140
 7506SOL    HW124718   2.222   4.575   0.335 -0.5783  0.0105 -0.8668
 7506SOL    HW224719   2.074   4.554   0.316 -0.3650 -2.0989 -0.5108
 7507SOL     OW24720   7.064   1.456   2.727  0.4210 -0.0709 -0.3477
 7507SOL    HW124721   7.130   1.511   2.686  0.1125  0.4571 -0.1423
 7507SOL    HW224722   7.001   1.517   2.764 -0.2867 -0.5679 -0.7032
 7508SOL     OW24723   1.879   6.400   7.298 -0.1682 -0.5640  0.2605
 7508SOL    HW124724   1.930   6.360   7.369  2.6488  0.0462 -1.2516
 7508SOL    HW224725   1.858   6.487   7.331 -1.5460 -1.3175  1.4614
 7509SOL     OW24726   1.998   6.653   3.403 -0.2111  0.5744  0.3931
 7509SOL    HW124727   1.909   6.637   3.371 -0.0636  3.7057 -2.1394
 7509SOL    HW224728   2.006   6.748   3.403  2.9834  0.4096  1.0482
 7510SOL     OW24729   8.151   4.917   4.208  0.0636 -0.1648  0.1957
 7510SOL    HW124730   8.223   4.867   4.171 -1.2262  0.2584 -3.2753
 7510SOL    HW224731   8.188   5.005   4.223  1.0651 -0.8025  1.7661
 7511SOL     OW24732   0.922   0.816   3.310  0.6184  0.2155  0.3637
 7511SOL    HW124733   0.944   0.729   3.342  2.1250  0.2342 -0.5038
 7511SOL    HW224734   0.947   0.875   3.381  2.1048  0.1102 -0.0241
 7512SOL     OW24735   1.459   6.116   2.151  0.2709 -0.2899 -0.2063
 7512SOL    HW124736   1.465   6.152   2.239 -1.2459  2.8686 -1.2253
 7512SOL    HW224737   1.387   6.052   2.156 -2.1339  2.2580  0.2930
 7513SOL     OW24738   4.131   6.065   7.207  0.0508  0.6712  0.0662
 7513SOL    HW124739   4.070   6.036   7.140 -0.2088  1.8177 -0.2136
 7513SOL    HW224740   4.126   5.998   7.275 -0.2519 -0.1096 -0.7076
 7514SOL     OW24741   3.554   7.073   6.955 -0.2268 -0.4469  0.0157
 7514SOL    HW124742   3.609   7.020   7.013 -0.6812 -0.3400  0.5508
 7514SOL    HW224743   3.607   7.152   6.939 -0.4229 -0.1132  0.9452
 7515SOL     OW24744   4.169   5.105   0.698 -0.6043  0.4378 -0.1505
 7515SOL    HW124745   4.087   5.061   0.676 -0.4365  0.5959 -1.1428
 7515SOL    HW224746   4.167   5.186   0.648  0.4594  0.1234 -0.7357
 7516SOL     OW24747   2.365   1.225   4.797 -0.3186 -0.0335 -0.0507
 7516SOL    HW124748   2.333   1.178   4.720  1.4296 -0.9258 -0.2651
 7516SOL    HW224749   2.312   1.190   4.869 -0.6094 -0.6563 -0.5507
 7517SOL     OW24750   2.623   3.512   7.675 -0.1968 -0.3177  0.0196
 7517SOL    HW124751   2.527   3.513   7.684 -0.1569  0.1774  0.4883
 7517SOL    HW224752   2.638   3.488   7.583 -0.7442 -1.2642  0.1655
 7518SOL     OW24753   2.290   8.576   2.658 -0.0047 -0.5036  0.0277
 7518SOL    HW124754   2.222   8.633   2.693  1.1762 -0.0254  1.7006
 7518SOL    HW224755   2.372   8.615   2.690  0.9229 -2.3010 -0.0471
 7519SOL     OW24756   9.577   7.787   0.084  0.6546  0.2339  0.1950
 7519SOL    HW124757   9.610   7.803   0.172 -0.1282 -0.4232  0.6234
 7519SOL    HW224758   9.556   7.875   0.050 -0.2221  0.4116  1.1468
 7520SOL     OW24759   8.831   8.336   0.952  0.3997  0.6453 -0.4573
 7520SOL    HW124760   8.765   8.374   1.010  0.5794  0.3681 -0.0715
 7520SOL    HW224761   8.885   8.281   1.008  1.9161  2.0521 -0.4466
 7521SOL     OW24762   4.756   5.764   1.526  0.2035 -0.2806 -0.3916
 7521SOL    HW124763   4.832   5.710   1.507  0.5883  0.7347 -1.8614
 7521SOL    HW224764   4.779   5.811   1.606  2.0136  1.5627 -1.9096
 7522SOL     OW24765   3.513   6.264   7.561 -0.0926 -0.0576 -0.0915
 7522SOL    HW124766   3.435   6.281   7.614 -0.1952  0.7910 -0.4951
 7522SOL    HW224767   3.481   6.206   7.491 -0.9361  2.0697 -1.5737
 7523SOL     OW24768   1.218   8.289   0.322 -0.0173  0.4137  0.1460
 7523SOL    HW124769   1.162   8.358   0.356 -0.2494 -0.3529  1.4099
 7523SOL    HW224770   1.305   8.310   0.355  0.0404  0.4806 -0.0504
 7524SOL     OW24771   1.644   5.161   9.065 -0.0779 -0.1325 -0.1367
 7524SOL    HW124772   1.683   5.084   9.022 -1.4321 -0.3159 -1.1040
 7524SOL    HW224773   1.627   5.133   9.154 -0.3562 -0.8938 -0.4218
 7525SOL     OW24774   3.817   7.226   3.506  0.2411 -0.8997 -0.4716
 7525SOL    HW124775   3.896   7.175   3.522  0.1513 -1.5415 -1.9409
 7525SOL    HW224776   3.821   7.249   3.413 -0.8897 -0.2179 -0.3792
 7526SOL     OW24777   4.563   3.698   2.395 -0.5389 -0.1082 -0.0737
 7526SOL    HW124778   4.475   3.677   2.427 -0.8089 -0.8659 -1.2626
 7526SOL    HW224779   4.549   3.761   2.324  0.0491  1.4400  1.1008
 7527SOL     OW24780   9.062   7.095   5.457  0.5448 -0.0042  0.1152
 7527SOL    HW124781   9.058   7.012   5.409  1.5228  0.3883 -0.6716
 7527SOL    HW224782   9.132   7.083   5.520  1.5280  0.6296 -0.8287
 7528SOL     OW24783   4.652   8.644   0.589  0.4740  0.7805 -0.0570
 7528SOL    HW124784   4.727   8.640   0.530  0.5422  0.7912  0.0288
 7528SOL    HW224785   4.590   8.701   0.545  0.6944  1.1215  0.0716
 7529SOL     OW24786   0.227   5.316   6.422  0.0928  0.3057  0.8169
 7529SOL    HW124787   0.260   5.282   6.339 -0.0845  0.3102  0.7425
 7529SOL    HW224788   0.208   5.408   6.405 -1.1506  0.0056  0.4913
 7530SOL     OW24789   1.807   0.454   3.454 -0.2461  0.1290  0.2853
 7530SOL    HW124790   1.881   0.477   3.398  0.0079 -1.2482  0.0254
 7530SOL    HW224791   1.821   0.505   3.534  1.3971 -0.6365  0.5288
 7531SOL     OW24792   1.849   5.743   2.234 -0.1716  0.6356 -0.7426
 7531SOL    HW124793   1.816   5.827   2.265 -0.4429  0.7999 -1.4686
 7531SOL    HW224794   1.810   5.679   2.294 -0.6024  0.9585 -0.6736
 7532SOL     OW24795   5.520   6.177   0.582  0.1674 -0.4262  0.1390
 7532SOL    HW124796   5.503   6.208   0.493 -0.3009 -1.4542 -0.1441
 7532SOL    HW224797   5.612   6.152   0.581 -0.0233 -1.1380 -0.2830
 7533SOL     OW24798   8.991   3.678   4.275  0.4728  0.1879 -0.0474
 7533SOL    HW124799   9.069   3.654   4.226 -0.0242 -0.7645 -0.4088
 7533SOL    HW224800   9.017   3.671   4.367  0.0052 -3.3813 -0.0357
 7534SOL     OW24801   6.677   7.126   5.273 -0.0139 -0.3594  0.4970
 7534SOL    HW124802   6.715   7.213   5.289 -0.8884 -0.1560  1.5940
 7534SOL    HW224803   6.752   7.068   5.266  0.5890  0.4876 -0.2755
 7535SOL     OW24804   1.096   6.558   6.393 -0.9819  0.7132 -0.2377
 7535SOL    HW124805   1.010   6.517   6.407 -1.1349  1.0808 -0.0681
 7535SOL    HW224806   1.098   6.581   6.300 -1.5341  1.7147 -0.0233
 7536SOL     OW24807   2.895   4.793   5.775 -0.0933  0.7629  0.0919
 7536SOL    HW124808   2.900   4.859   5.843  0.3543  0.2113  0.6104
 7536SOL    HW224809   2.884   4.710   5.822  1.9068  0.1630 -0.3828
 7537SOL     OW24810   1.492   2.816   5.154  0.9873 -0.1580 -0.0839
 7537SOL    HW124811   1.450   2.810   5.069  0.4524  1.2593  0.0509
 7537SOL    HW224812   1.536   2.901   5.153  0.7050  0.0195  1.1616
 7538SOL     OW24813   3.327   8.405   4.031 -0.3637  0.1292 -0.0497
 7538SOL    HW124814   3.303   8.353   4.108  2.0546 -0.4157  0.4195
 7538SOL    HW224815   3.421   8.420   4.041 -0.3744  1.7944 -1.8885
 7539SOL     OW24816   8.643   4.354   9.482  0.0008 -0.1665  0.2094
 7539SOL    HW124817   8.663   4.346   9.575  4.2709 -2.1248 -0.6325
 7539SOL    HW224818   8.683   4.277   9.442 -1.8632  0.4690 -3.2593
 7540SOL     OW24819   6.113   8.421   0.114  0.1385 -0.4557  0.2425
 7540SOL    HW124820   6.037   8.440   0.169  0.3945  0.7610  0.2017
 7540SOL    HW224821   6.085   8.347   0.059 -0.7984 -0.4095  0.6348
 7541SOL     OW24822   1.744   7.293   2.347  0.0914  0.1213  0.0501
 7541SOL    HW124823   1.836   7.268   2.356 -0.0833 -0.0711  1.4806
 7541SOL    HW224824   1.730   7.358   2.415 -1.0136 -0.3681  0.3088
 7542SOL     OW24825   4.267   3.407   9.363  0.5266  0.0732 -0.4552
 7542SOL    HW124826   4.358   3.435   9.355  0.5786 -0.1639 -0.7634
 7542SOL    HW224827   4.272   3.312   9.373  0.3062  0.0312 -0.7144
 7543SOL     OW24828   3.420   5.478   8.215  0.3036 -0.0586  0.0015
 7543SOL    HW124829   3.482   5.550   8.222  1.7374 -1.1457 -0.9144
 7543SOL    HW224830   3.449   5.429   8.138 -2.4389  0.0644 -1.2492
 7544SOL     OW24831   8.147   0.399   6.251  0.0049 -0.0960  0.3218
 7544SOL    HW124832   8.171   0.474   6.196  1.5431 -1.5458 -1.1090
 7544SOL    HW224833   8.089   0.347   6.196  0.6026 -0.9630  0.4790
 7545SOL     OW24834   1.951   1.807   9.017 -0.3641 -0.3258 -0.2478
 7545SOL    HW124835   1.856   1.795   9.005 -0.4788 -2.5732  2.1113
 7545SOL    HW224836   1.990   1.735   8.968 -0.0726 -1.0658  1.0399
 7546SOL     OW24837   5.716   7.890   7.170  0.6575 -0.1600 -0.4218
 7546SOL    HW124838   5.759   7.871   7.254 -1.1883 -0.9884  0.3906
 7546SOL    HW224839   5.737   7.815   7.115  0.4608 -0.4424 -0.1147
 7547SOL     OW24840   7.394   0.338   0.436 -0.0650  0.3580  0.1113
 7547SOL    HW124841   7.299   0.350   0.439 -0.0566  0.9478 -1.2941
 7547SOL    HW224842   7.425   0.404   0.373  1.1100 -0.7242 -0.4867
 7548SOL     OW24843   1.441   2.728   0.151  0.5498 -0.2368  0.3526
 7548SOL    HW124844   1.495   2.652   0.174 -1.2863 -1.3471  1.2822
 7548SOL    HW224845   1.481   2.801   0.197  2.2388 -0.6621 -0.3818
 7549SOL     OW24846   7.045   1.634   6.032  0.0750 -0.7184  0.0898
 7549SOL    HW124847   7.117   1.694   6.052 -0.1922 -0.4974  0.3842
 7549SOL    HW224848   7.073   1.551   6.072  0.7748 -0.9984 -0.9306
 7550SOL     OW24849   9.450   0.109   9.413 -0.5863 -0.3177 -0.3234
 7550SOL    HW124850   9.389   0.046   9.452  0.3935 -0.7740  0.5353
 7550SOL    HW224851   9.489   0.154   9.488  0.0601  0.0160 -0.8488
 7551SOL     OW24852   0.521   0.566   3.495  0.1422 -0.3289 -0.1718
 7551SOL    HW124853   0.483   0.504   3.558  1.0234  0.4532  1.1878
 7551SOL    HW224854   0.494   0.533   3.410 -2.8008 -0.3134  0.6514
 7552SOL     OW24855   8.879   1.489   4.349  0.6109 -1.3550 -0.4108
 7552SOL    HW124856   8.798   1.440   4.365 -0.2498  0.3684  0.7849
 7552SOL    HW224857   8.908   1.516   4.437  1.4179 -0.2944 -0.9898
 7553SOL     OW24858   1.833   1.377   2.786  0.5092 -0.4063  0.3608
 7553SOL    HW124859   1.888   1.397   2.862  0.0910 -1.6109  1.0094
 7553SOL    HW224860   1.806   1.463   2.753  2.0807  0.1881  0.5313
 7554SOL     OW24861   3.487   0.045   9.523  0.5877  0.4716  0.8618
 7554SOL    HW124862   3.402   0.085   9.509 -0.2404 -1.1765  0.9995
 7554SOL    HW224863   3.480   0.002   9.608  2.2274  1.9168  1.8146
 7555SOL     OW24864   4.299   0.372   1.504  0.6817  0.1258  0.0325
 7555SOL    HW124865   4.250   0.290   1.494  0.4455  0.3918 -1.1415
 7555SOL    HW224866   4.274   0.424   1.428  0.6148  1.4111  0.9109
 7556SOL     OW24867   7.005   1.748   4.314  0.4856  0.1472 -0.0300
 7556SOL    HW124868   7.017   1.826   4.260  2.4576  0.1042  0.2720
 7556SOL    HW224869   7.032   1.675   4.257  0.3121 -0.1416  0.2510
 7557SOL     OW24870   0.843   3.374   3.639 -0.2206  0.3679  0.2361
 7557SOL    HW124871   0.886   3.436   3.580  0.2422 -1.1102 -1.0487
 7557SOL    HW224872   0.911   3.310   3.659 -1.1044 -0.5640  0.2917
 7558SOL     OW24873   1.411   3.917   0.322  0.3243 -0.4520 -0.2170
 7558SOL    HW124874   1.501   3.885   0.332  0.3575 -0.1432  0.5335
 7558SOL    HW224875   1.420   3.997   0.270  0.2934 -1.3529 -1.6515
 7559SOL     OW24876   0.468   5.735   9.291  0.4320 -0.0992 -0.1177
 7559SOL    HW124877   0.406   5.759   9.360 -1.7904 -0.2678 -1.9408
 7559SOL    HW224878   0.515   5.659   9.326 -3.2891 -2.6509 -0.0786
 7560SOL     OW24879   4.547   1.434   3.886  0.5429  0.6185  0.4644
 7560SOL    HW124880   4.491   1.467   3.816  1.7923  0.8463 -0.4653
 7560SOL    HW224881   4.599   1.365   3.844  1.5014  0.9421  1.0800
 7561SOL     OW24882   5.507   7.165   6.294  0.3213 -0.0998 -0.1583
 7561SOL    HW124883   5.442   7.129   6.354 -0.6501  1.0794 -0.4683
 7561SOL    HW224884   5.560   7.090   6.269 -0.1778 -0.8781  1.0178
 7562SOL     OW24885   8.025   0.105   1.516  0.4707  0.6895 -0.0295
 7562SOL    HW124886   7.958   0.110   1.447  1.5158  1.4286 -1.0171
 7562SOL    HW224887   7.983   0.144   1.592  0.5536  3.4537 -1.2994
 7563SOL     OW24888   5.317   4.385   3.845  0.5384 -0.2419 -0.1663
 7563SOL    HW124889   5.232   4.375   3.802  0.0691  2.1085  0.0760
 7563SOL    HW224890   5.352   4.296   3.849 -1.9234 -1.3058 -0.2013
 7564SOL     OW24891   5.088   8.822   0.833 -0.6853  0.0747 -0.5455
 7564SOL    HW124892   5.171   8.817   0.879 -0.8155  0.4747 -0.2596
 7564SOL    HW224893   5.096   8.759   0.762  0.7257  1.6552 -1.8928
 7565SOL     OW24894   8.863   3.616   2.275 -0.0280  1.4109 -0.1796
 7565SOL    HW124895   8.937   3.677   2.270  0.4830  0.7311 -3.4309
 7565SOL    HW224896   8.809   3.638   2.199 -0.9753 -0.7559 -0.2038
 7566SOL     OW24897   1.879   8.811   8.051  0.0766  0.1324  0.6873
 7566SOL    HW124898   1.866   8.890   8.000  0.6129 -0.6711 -0.7433
 7566SOL    HW224899   1.844   8.741   7.996 -0.9117 -0.5948  2.1552
 7567SOL     OW24900   3.190   4.189   5.930  0.1979 -0.4374 -0.1491
 7567SOL    HW124901   3.114   4.137   5.955  0.7758 -2.4685 -2.2560
 7567SOL    HW224902   3.265   4.136   5.954  0.8923  0.4504 -0.2979
 7568SOL     OW24903   3.515   0.211   1.041  0.0094  0.1539 -0.0438
 7568SOL    HW124904   3.462   0.290   1.033  0.2260  0.2762 -0.2782
 7568SOL    HW224905   3.521   0.177   0.952 -1.1762 -0.8491  0.2371
 7569SOL     OW24906   8.712   5.812   4.408 -0.3328  0.3826  0.3276
 7569SOL    HW124907   8.701   5.846   4.319 -0.1245  1.4994  0.7124
 7569SOL    HW224908   8.806   5.816   4.423 -0.3116 -0.3345  0.4065
 7570SOL     OW24909   6.088   8.358   3.410  0.1077 -0.1610 -0.3260
 7570SOL    HW124910   6.090   8.438   3.357 -0.2175  0.0740  0.0144
 7570SOL    HW224911   5.998   8.351   3.441 -0.2017 -1.3458 -1.3759
 7571SOL     OW24912   3.163   8.381   5.630 -0.1408 -0.0628 -0.1099
 7571SOL    HW124913   3.167   8.320   5.557 -1.6493 -1.1110  0.6138
 7571SOL    HW224914   3.221   8.452   5.606  1.4726 -1.6396 -1.1306
 7572SOL     OW24915   2.185   1.303   1.500  0.3017 -0.5623  0.0599
 7572SOL    HW124916   2.106   1.255   1.475  0.2743 -0.8041  0.6085
 7572SOL    HW224917   2.255   1.238   1.494  0.3963 -0.4522 -0.0264
 7573SOL     OW24918   5.580   4.943   9.294 -0.3572  0.4687 -0.5691
 7573SOL    HW124919   5.600   5.037   9.299  0.8459  0.3718 -2.4712
 7573SOL    HW224920   5.658   4.900   9.330  0.6068  0.1915 -2.8134
 7574SOL     OW24921   2.866   4.576   1.230  0.5961  0.5982 -0.0199
 7574SOL    HW124922   2.831   4.607   1.146 -0.9206  1.2641  0.8268
 7574SOL    HW224923   2.901   4.489   1.210 -1.1579  0.0828 -1.0196
 7575SOL     OW24924   3.794   0.593   3.366  0.0740  0.0921  0.2806
 7575SOL    HW124925   3.747   0.585   3.283 -1.4968  0.5477  1.0723
 7575SOL    HW224926   3.767   0.517   3.417  2.2715 -1.0625 -0.1384
 7576SOL     OW24927   2.298   1.163   4.530  0.2585 -0.0916 -0.0353
 7576SOL    HW124928   2.229   1.103   4.501 -0.6336  0.6994  0.4110
 7576SOL    HW224929   2.367   1.152   4.465 -0.8551  0.1234 -1.3118
 7577SOL     OW24930   2.378   3.831   3.584 -0.3903  0.8566 -0.0132
 7577SOL    HW124931   2.459   3.802   3.542 -0.3095  0.3975  0.4423
 7577SOL    HW224932   2.312   3.828   3.515 -0.1957  0.4200 -0.1846
 7578SOL     OW24933   3.107   7.968   4.022  0.4560  0.2216 -0.0322
 7578SOL    HW124934   3.082   7.877   4.010  1.9098 -0.1889 -0.1929
 7578SOL    HW224935   3.033   8.009   4.066 -0.7776 -0.7053 -1.1703
 7579SOL     OW24936   0.213   8.771   2.282  0.0156  0.1879 -0.4751
 7579SOL    HW124937   0.222   8.854   2.234 -0.3914  0.4453 -0.1203
 7579SOL    HW224938   0.148   8.791   2.350  1.9922  0.4050  1.4482
 7580SOL     OW24939   1.949   2.782   5.323 -0.9537 -0.0109 -0.2292
 7580SOL    HW124940   2.043   2.787   5.340 -0.4507 -4.3980 -0.7355
 7580SOL    HW224941   1.942   2.747   5.235 -3.0531 -0.3226  0.0171
 7581SOL     OW24942   3.169   4.525   2.904 -0.1698 -0.3762 -0.1638
 7581SOL    HW124943   3.243   4.562   2.952 -0.2900 -0.8952  0.4317
 7581SOL    HW224944   3.092   4.560   2.948 -0.2823 -0.9693  0.1092
 7582SOL     OW24945   7.176   6.965   8.004 -0.1211 -0.1710 -0.2133
 7582SOL    HW124946   7.168   6.906   8.079  1.6693  0.2851  0.3981
 7582SOL    HW224947   7.187   7.052   8.043 -2.1788  0.5557 -1.0928
 7583SOL     OW24948   3.272   0.319   5.153  0.6495  0.1807 -0.1611
 7583SOL    HW124949   3.296   0.378   5.081 -0.3019 -0.2417 -0.8438
 7583SOL    HW224950   3.177   0.314   5.150  0.2070  2.7294  3.2320
 7584SOL     OW24951   2.861   3.156   9.555 -0.3431 -0.3530 -0.0629
 7584SOL    HW124952   2.882   3.180   9.465  0.8777 -0.8258  0.0645
 7584SOL    HW224953   2.776   3.195   9.572  0.5438  1.9310 -0.5919
 7585SOL     OW24954   0.240   1.691   3.516  0.0495  0.2882  0.7539
 7585SOL    HW124955   0.157   1.660   3.553 -0.1552  0.1912  0.2182
 7585SOL    HW224956   0.214   1.745   3.441  0.5095 -0.7028 -0.1284
 7586SOL     OW24957   0.347   3.696   5.279 -0.1407  0.2556  0.2198
 7586SOL    HW124958   0.274   3.635   5.292  0.2115 -0.2460 -0.1071
 7586SOL    HW224959   0.364   3.733   5.366  0.6673 -1.3077  0.7674
 7587SOL     OW24960   0.561   3.321   4.587  0.2102 -0.0891  0.7430
 7587SOL    HW124961   0.573   3.276   4.503  0.0782 -0.0867  0.7217
 7587SOL    HW224962   0.621   3.396   4.584 -0.1344  0.1791  0.4541
 7588SOL     OW24963   3.191   7.129   5.254 -0.1025  0.2442 -0.5046
 7588SOL    HW124964   3.145   7.111   5.173  0.4096  1.6089 -1.1249
 7588SOL    HW224965   3.224   7.219   5.245 -0.0535  0.4509  1.2146
 7589SOL     OW24966   5.580   1.776   6.143  0.5898  0.4665  0.1477
 7589SOL    HW124967   5.587   1.788   6.049  0.8309 -0.5466  0.0326
 7589SOL    HW224968   5.507   1.832   6.169  0.6960  0.9632 -0.5874
 7590SOL     OW24969   6.476   6.141   3.712  0.6448  0.2973 -0.4935
 7590SOL    HW124970   6.447   6.064   3.664  2.0203  0.7436 -2.1469
 7590SOL    HW224971   6.569   6.148   3.691  0.7037  1.9834  0.2019
 7591SOL     OW24972   4.239   9.087   7.466 -0.2253 -0.6838 -0.3620
 7591SOL    HW124973   4.218   8.997   7.441 -0.0458 -0.4905 -1.2643
 7591SOL    HW224974   4.214   9.139   7.389 -1.6056  0.2200  0.6543
 7592SOL     OW24975   7.806   1.025   3.143  0.1199  0.0520 -0.0634
 7592SOL    HW124976   7.795   0.930   3.145 -1.7307  0.2278  0.3625
 7592SOL    HW224977   7.811   1.050   3.235  0.3275  0.3947 -0.1661
 7593SOL     OW24978   4.492   5.463   6.993 -0.0132  0.6928 -0.2557
 7593SOL    HW124979   4.568   5.412   6.963 -0.9706 -0.2472 -1.1734
 7593SOL    HW224980   4.500   5.546   6.947 -0.8265 -0.3105 -2.3604
 7594SOL     OW24981   8.318   0.782   7.533  0.5747 -0.0280  0.1281
 7594SOL    HW124982   8.386   0.728   7.573  0.7845 -0.6718 -1.0445
 7594SOL    HW224983   8.255   0.719   7.498  0.6043  0.4864 -0.8893
 7595SOL     OW24984   7.516   8.414   4.387  0.1867  0.1403 -0.4025
 7595SOL    HW124985   7.568   8.336   4.405 -0.2189  0.0413  0.3476
 7595SOL    HW224986   7.581   8.484   4.376  0.4597  0.4867  2.7309
 7596SOL     OW24987   8.641   8.557   1.616 -0.1125 -0.5754 -0.9137
 7596SOL    HW124988   8.548   8.554   1.595  0.0100 -0.4202 -1.4976
 7596SOL    HW224989   8.653   8.639   1.663 -0.2996 -0.6871 -0.6667
 7597SOL     OW24990   5.805   2.710   2.185 -0.4345 -0.7876 -0.6497
 7597SOL    HW124991   5.790   2.617   2.205 -1.5731 -0.0698  2.2619
 7597SOL    HW224992   5.764   2.757   2.257 -1.2301  2.0864 -2.8311
 7598SOL     OW24993   1.638   0.251   1.843  0.1562  0.4711 -0.0825
 7598SOL    HW124994   1.668   0.333   1.882  2.5957 -1.2878  2.1016
 7598SOL    HW224995   1.712   0.220   1.791 -0.9827 -0.0526 -1.4481
 7599SOL     OW24996   4.315   6.148   6.621 -0.2652  0.5880  0.2113
 7599SOL    HW124997   4.229   6.161   6.659 -0.3757 -0.2682  0.2815
 7599SOL    HW224998   4.368   6.112   6.693 -0.4364 -0.9018 -0.3811
 7600SOL     OW24999   0.061   6.877   7.495 -1.0877 -0.0601  0.2040
 7600SOL    HW125000   0.047   6.971   7.491 -1.0622  0.0028  1.2232
 7600SOL    HW225001  -0.021   6.839   7.463 -1.8416  0.3169  1.6006
 7601SOL     OW25002   3.009   4.765   6.920  0.6634 -0.6266 -0.6629
 7601SOL    HW125003   2.940   4.735   6.980 -0.4230  1.2117 -0.9192
 7601SOL    HW225004   3.003   4.707   6.845 -0.1127 -0.9604 -0.3550
 7602SOL     OW25005   3.749   9.139   7.594  0.4014 -0.7474  0.6363
 7602SOL    HW125006   3.743   9.133   7.499  0.8526 -1.8411  0.6765
 7602SOL    HW225007   3.676   9.086   7.626  0.4247 -0.6170  0.9113
 7603SOL     OW25008   1.412   1.288   8.296 -0.0422 -0.6412  0.6081
 7603SOL    HW125009   1.427   1.230   8.221  2.0060  0.8246 -0.1997
 7603SOL    HW225010   1.360   1.235   8.356  0.1186 -2.6444 -0.8875
 7604SOL     OW25011   9.487   1.211   8.203  0.0474 -0.3192  0.4104
 7604SOL    HW125012   9.490   1.231   8.296 -0.4999 -1.5875  0.7274
 7604SOL    HW225013   9.535   1.282   8.161  1.3542 -0.3476  1.7645
 7605SOL     OW25014   3.389   5.372   0.622 -0.3624 -0.0715 -0.3167
 7605SOL    HW125015   3.399   5.313   0.696  1.0625  0.8077  0.2282
 7605SOL    HW225016   3.428   5.454   0.651  1.5537 -0.0976 -2.5170
 7606SOL     OW25017   1.142   5.251   6.144  0.2627 -0.0162 -0.1247
 7606SOL    HW125018   1.067   5.307   6.159 -1.3666 -1.5700 -1.9368
 7606SOL    HW225019   1.190   5.293   6.072 -1.4633 -1.2438 -2.1297
 7607SOL     OW25020   0.529   5.641   7.458  0.1223  0.0842 -0.0533
 7607SOL    HW125021   0.438   5.668   7.443 -0.2198 -1.6123 -1.4283
 7607SOL    HW225022   0.580   5.696   7.398  0.0630  1.2697  0.9588
 7608SOL     OW25023   1.746   2.139   7.754  0.1535  0.6448 -0.0948
 7608SOL    HW125024   1.818   2.148   7.816  0.6640  0.2113 -0.6130
 7608SOL    HW225025   1.774   2.070   7.694 -0.1347  1.3483 -1.0719
 7609SOL     OW25026   6.979   9.079   8.502  0.2343  0.2533  0.3247
 7609SOL    HW125027   6.970   9.173   8.518 -0.4482  0.0114  1.5115
 7609SOL    HW225028   6.891   9.044   8.517  1.0476 -0.9462  2.8906
 7610SOL     OW25029   3.726   5.721   5.533 -0.0659 -0.5749  0.5285
 7610SOL    HW125030   3.787   5.794   5.543 -1.7527  0.8538  0.9126
 7610SOL    HW225031   3.775   5.644   5.564  1.1630  0.6839  1.8640
 7611SOL     OW25032   8.530   0.313   4.222 -0.9295 -0.6446 -0.5272
 7611SOL    HW125033   8.442   0.322   4.185  0.0419  0.1665 -2.8801
 7611SOL    HW225034   8.539   0.389   4.280 -2.8326 -2.4455  2.3983
 7612SOL     OW25035   1.866   3.139   8.663  0.1651  0.5804 -0.1273
 7612SOL    HW125036   1.937   3.187   8.622 -0.1005  1.3095  0.2416
 7612SOL    HW225037   1.868   3.167   8.755  0.1436 -0.2852  0.1402
 7613SOL     OW25038   3.091   2.065   1.780  0.1733 -0.4654 -0.8402
 7613SOL    HW125039   3.095   2.136   1.843 -0.2344 -1.5417  0.4481
 7613SOL    HW225040   3.029   2.002   1.818  0.3213 -1.3919 -2.0577
 7614SOL     OW25041   6.056   2.578   3.359 -0.2897 -0.0318 -0.0938
 7614SOL    HW125042   6.016   2.623   3.284  1.2531 -0.4222 -1.1922
 7614SOL    HW225043   6.052   2.642   3.430  1.9612  1.9970 -1.6341
 7615SOL     OW25044   1.245   2.458   0.595  0.0114  0.3943  0.1262
 7615SOL    HW125045   1.152   2.477   0.582 -0.1758 -0.2056  0.5597
 7615SOL    HW225046   1.273   2.519   0.664  0.5605  2.2978 -1.6820
 7616SOL     OW25047   6.776   7.093   5.576  0.1042 -0.1323  0.0761
 7616SOL    HW125048   6.700   7.043   5.605 -0.3743 -0.0979 -1.0606
 7616SOL    HW225049   6.747   7.185   5.580  0.0894 -0.1165 -0.3075
 7617SOL     OW25050   0.775   7.840   3.405  0.3273 -0.1071  0.3079
 7617SOL    HW125051   0.802   7.921   3.448  0.0479 -0.5996  1.4542
 7617SOL    HW225052   0.725   7.869   3.329  0.1682  0.8053  0.7463
 7618SOL     OW25053   5.891   2.329   0.333 -0.1448  0.2126 -0.0065
 7618SOL    HW125054   5.957   2.330   0.402 -0.5149  0.6482  0.3517
 7618SOL    HW225055   5.809   2.309   0.379 -0.3520  0.2509 -0.3570
 7619SOL     OW25056   6.516   4.196   1.804 -0.1911  0.2190  0.6978
 7619SOL    HW125057   6.519   4.197   1.708 -2.6175  1.0072  0.5523
 7619SOL    HW225058   6.442   4.139   1.825  0.5117 -0.2168  2.1465
 7620SOL     OW25059   4.830   3.747   3.046 -0.2420 -0.0499  0.0453
 7620SOL    HW125060   4.812   3.831   3.088 -1.0449 -0.2687  0.1606
 7620SOL    HW225061   4.887   3.768   2.972  0.5057  0.4398  0.7536
 7621SOL     OW25062   0.367   6.694   3.395  0.3612 -0.0466 -0.2061
 7621SOL    HW125063   0.346   6.605   3.424 -0.2580  0.3262  0.5318
 7621SOL    HW225064   0.314   6.706   3.317 -0.9029  0.2669  0.6684
 7622SOL     OW25065   6.544   8.236   8.167 -0.0904  0.1066 -0.4791
 7622SOL    HW125066   6.600   8.310   8.190  1.3437 -1.0415 -0.1014
 7622SOL    HW225067   6.503   8.261   8.085  1.4890  0.7426 -1.1107
 7623SOL     OW25068   4.489   1.936   8.978  0.2710  0.0920  0.0297
 7623SOL    HW125069   4.411   1.922   9.032  0.7293  0.7963  0.9078
 7623SOL    HW225070   4.460   1.996   8.909 -0.0844 -0.0582  0.0456
 7624SOL     OW25071   9.108   3.235   1.725 -0.1715 -0.2411 -0.4346
 7624SOL    HW125072   9.031   3.247   1.781  1.6471 -1.6422  2.5747
 7624SOL    HW225073   9.157   3.317   1.733  1.0518 -1.1185  1.7532
 7625SOL     OW25074   0.237   5.855   5.989 -0.0399  0.1368  0.4664
 7625SOL    HW125075   0.319   5.807   6.002 -0.1734 -0.4489 -0.7724
 7625SOL    HW225076   0.265   5.947   5.978  0.4687 -0.0678 -0.0267
 7626SOL     OW25077   3.079   6.078   5.615  0.1828 -0.0885  0.1625
 7626SOL    HW125078   3.128   6.004   5.579 -0.1813  0.4826 -1.6288
 7626SOL    HW225079   3.120   6.155   5.575  1.4005  0.8489  2.9743
 7627SOL     OW25080   3.806   9.249   9.229 -0.0819  0.0326 -0.1537
 7627SOL    HW125081   3.728   9.304   9.234  0.2612  0.6354 -1.0959
 7627SOL    HW225082   3.778   9.169   9.185 -0.0480  0.4968 -1.0359
 7628SOL     OW25083   9.242   0.208   5.292 -0.3061  0.0603 -0.3242
 7628SOL    HW125084   9.180   0.170   5.354  0.5541  0.1371  0.6194
 7628SOL    HW225085   9.239   0.303   5.310  1.4160 -0.0820  1.0875
 7629SOL     OW25086   4.536   1.082   7.044 -0.1882 -0.2119 -0.0502
 7629SOL    HW125087   4.570   1.013   6.986 -0.0198 -0.9238  0.8708
 7629SOL    HW225088   4.442   1.082   7.029 -0.2678 -1.0801  0.3906
 7630SOL     OW25089   3.735   9.181   0.867  0.3666 -0.0210 -0.1935
 7630SOL    HW125090   3.810   9.174   0.808  0.9966 -0.4507  0.6458
 7630SOL    HW225091   3.664   9.214   0.811  1.3425  1.0496 -0.8427
 7631SOL     OW25092   4.414   6.819   4.731  0.6230 -0.3810 -0.1045
 7631SOL    HW125093   4.373   6.745   4.685  1.9849 -2.4407  1.8177
 7631SOL    HW225094   4.367   6.826   4.813  0.6777  0.7851 -0.1485
 7632SOL     OW25095   7.402   7.650   0.106 -0.8148 -0.0345  0.6450
 7632SOL    HW125096   7.469   7.612   0.049 -0.2484  1.9121 -0.0907
 7632SOL    HW225097   7.321   7.607   0.080 -0.0525 -1.6151  0.7615
 7633SOL     OW25098   1.309   2.284   0.379  0.4495  0.1772  0.0342
 7633SOL    HW125099   1.233   2.294   0.321 -0.4562 -0.7080  1.0488
 7633SOL    HW225100   1.298   2.352   0.445  1.9495  1.7788 -1.2545
 7634SOL     OW25101   5.250   6.111   5.986  0.1532  0.4271 -0.7890
 7634SOL    HW125102   5.223   6.046   5.921 -0.4172  1.2656 -1.4020
 7634SOL    HW225103   5.211   6.080   6.068 -1.1039  0.6053 -1.3055
 7635SOL     OW25104   3.327   3.688   1.615 -0.3266 -0.0844  0.0741
 7635SOL    HW125105   3.242   3.649   1.594 -0.3097 -0.8632  1.3484
 7635SOL    HW225106   3.371   3.621   1.668  0.9465  0.4488 -0.2784
 7636SOL     OW25107   5.469   6.055   5.509 -0.1513  0.3910 -0.2488
 7636SOL    HW125108   5.449   6.092   5.423  0.1941  2.5157  0.5166
 7636SOL    HW225109   5.387   6.014   5.536 -0.6388  0.7656 -1.0866
 7637SOL     OW25110   5.376   5.572   7.175  0.4684  0.1724  0.1994
 7637SOL    HW125111   5.316   5.566   7.250  0.0271 -1.2308 -0.2301
 7637SOL    HW225112   5.451   5.518   7.201  0.1176 -0.6812 -0.5289
 7638SOL     OW25113   7.264   5.509   1.085  0.0239  0.2617  0.4283
 7638SOL    HW125114   7.267   5.429   1.034  0.1909  0.7056 -0.2788
 7638SOL    HW225115   7.252   5.578   1.020 -0.4385  0.7837  1.0473
 7639SOL     OW25116   5.486   1.041   4.967 -0.0148  0.3202  0.3063
 7639SOL    HW125117   5.505   1.135   4.959  0.4388  0.1735 -0.4191
 7639SOL    HW225118   5.424   1.036   5.040  0.0573  1.1692  0.4444
 7640SOL     OW25119   3.906   1.340   1.435 -0.1979  0.6084  0.0256
 7640SOL    HW125120   3.984   1.382   1.399 -0.4178  1.1179  0.1339
 7640SOL    HW225121   3.932   1.311   1.522 -0.0149  0.4163 -0.0906
 7641SOL     OW25122   4.933   2.744   2.682  0.5242  0.0745  0.1249
 7641SOL    HW125123   4.858   2.740   2.742  1.0683  1.8645  0.9972
 7641SOL    HW225124   4.993   2.677   2.714 -0.1636 -0.5293  0.1788
 7642SOL     OW25125   6.848   9.466   7.259  0.2268  0.2783  0.1844
 7642SOL    HW125126   6.830   9.548   7.213  0.7736  0.1466 -0.2607
 7642SOL    HW225127   6.767   9.449   7.309  0.4473  1.5837  1.0478
 7643SOL     OW25128   5.074   2.573   0.192  0.2517 -0.0538 -0.8060
 7643SOL    HW125129   4.987   2.608   0.172 -0.4509 -1.2276  0.0438
 7643SOL    HW225130   5.059   2.480   0.207  1.8926 -0.5483 -1.9823
 7644SOL     OW25131   2.386   0.113   1.011  0.4043  0.0395 -0.1442
 7644SOL    HW125132   2.303   0.133   0.969 -0.6956 -0.7519  1.5627
 7644SOL    HW225133   2.452   0.148   0.951 -1.1755  1.9215 -0.9000
 7645SOL     OW25134   7.651   6.706   0.178 -0.0591 -0.1746 -0.2773
 7645SOL    HW125135   7.560   6.693   0.152 -0.4275 -0.5860  1.1169
 7645SOL    HW225136   7.701   6.664   0.108 -0.9306  0.0793 -1.0792
 7646SOL     OW25137   3.527   2.883   7.915  0.2427  0.1257  0.1338
 7646SOL    HW125138   3.603   2.851   7.867 -0.7232 -0.1973 -1.2270
 7646SOL    HW225139   3.467   2.915   7.847 -1.3519 -0.7255  1.0739
 7647SOL     OW25140   4.628   1.207   8.806  0.8895 -0.6003 -0.7721
 7647SOL    HW125141   4.560   1.179   8.868 -0.1223 -0.9592 -1.9970
 7647SOL    HW225142   4.709   1.168   8.839  0.6001  0.1976  0.9574
 7648SOL     OW25143   4.517   0.664   3.783  0.2940 -0.2353 -0.1320
 7648SOL    HW125144   4.449   0.611   3.824 -0.2444  0.2903 -0.3308
 7648SOL    HW225145   4.542   0.727   3.850  0.9063 -0.7081  0.0911
 7649SOL     OW25146   5.179   4.879   1.801  0.1963 -0.5786  0.3032
 7649SOL    HW125147   5.256   4.932   1.823 -0.1919 -0.2375  0.8579
 7649SOL    HW225148   5.118   4.940   1.760  1.5808 -1.4980 -3.6086
 7650SOL     OW25149   2.677   0.591   2.964  0.4012 -0.2021 -0.0428
 7650SOL    HW125150   2.759   0.629   2.933  0.0702  1.7805  1.3127
 7650SOL    HW225151   2.634   0.559   2.885  1.8905 -0.0920 -0.9331
 7651SOL     OW25152   8.167   7.716   8.421 -0.0248  0.1780  0.0632
 7651SOL    HW125153   8.215   7.790   8.384 -0.7996  1.0177  0.6807
 7651SOL    HW225154   8.234   7.650   8.437  0.5254  0.3122 -1.5164
 7652SOL     OW25155   0.907   4.738   0.213  0.3323  0.2977  0.3637
 7652SOL    HW125156   0.926   4.682   0.137 -2.1356 -0.5637  0.2811
 7652SOL    HW225157   0.978   4.802   0.214  1.1197 -0.4358 -1.9255
 7653SOL     OW25158   9.262   4.774   9.386  0.5127 -0.2366  0.2885
 7653SOL    HW125159   9.263   4.709   9.315  0.5140  0.9218 -0.8137
 7653SOL    HW225160   9.338   4.829   9.368 -0.7343  1.4132 -0.1186
 7654SOL     OW25161   4.735   0.605   6.825 -0.0912  0.3060 -0.2214
 7654SOL    HW125162   4.702   0.521   6.857 -3.0583  1.5330  0.3380
 7654SOL    HW225163   4.757   0.589   6.734  0.3119 -1.2856  0.1304
 7655SOL     OW25164   5.588   4.040   2.570  0.3301  0.5536  0.5296
 7655SOL    HW125165   5.510   4.082   2.607  0.1132  1.8502 -1.2682
 7655SOL    HW225166   5.553   3.973   2.511  0.6419 -0.0685  1.0291
 7656SOL     OW25167   2.076   4.586   2.992 -0.1752 -0.1899 -0.4699
 7656SOL    HW125168   2.118   4.511   3.033 -0.1023  0.5685  0.9069
 7656SOL    HW225169   1.994   4.597   3.041  0.1962  1.1037 -0.1006
 7657SOL     OW25170   4.888   2.304   2.214  0.8277  0.5308  0.5569
 7657SOL    HW125171   4.891   2.236   2.146 -0.8831  0.2278  0.7323
 7657SOL    HW225172   4.842   2.262   2.287  2.4320  0.9333  1.8417
 7658SOL     OW25173   9.158   6.510   8.081  0.5864  0.2288 -0.0697
 7658SOL    HW125174   9.084   6.465   8.120  2.1346 -1.7818  0.7767
 7658SOL    HW225175   9.137   6.603   8.087 -2.0093 -0.2777 -0.2816
 7659SOL     OW25176   2.251   5.991   6.456 -0.2730  0.0582  0.2332
 7659SOL    HW125177   2.293   6.032   6.380 -2.1707  0.6688 -0.5269
 7659SOL    HW225178   2.320   5.935   6.493  0.7909 -0.0450 -1.7532
 7660SOL     OW25179   7.732   5.921   1.967 -0.0856  0.0341  0.9532
 7660SOL    HW125180   7.753   5.943   1.876 -0.4433 -2.2148  0.2766
 7660SOL    HW225181   7.811   5.941   2.015  0.3474  0.6175  0.0294
 7661SOL     OW25182   0.429   8.316   1.304 -0.3618  0.0255 -0.1100
 7661SOL    HW125183   0.377   8.391   1.331 -0.3585 -0.3990  1.1536
 7661SOL    HW225184   0.498   8.353   1.249 -1.1787  0.7563 -0.6658
 7662SOL     OW25185   2.032   3.733   0.673 -0.4588  0.1739  0.1259
 7662SOL    HW125186   1.997   3.651   0.706  1.6286 -2.0427 -2.6506
 7662SOL    HW225187   2.102   3.756   0.735 -0.4322 -0.6760  0.4238
 7663SOL     OW25188   2.497   0.326   0.590  0.3588 -0.2207 -0.5481
 7663SOL    HW125189   2.436   0.398   0.606  1.6766  1.6050 -3.0634
 7663SOL    HW225190   2.443   0.258   0.551 -0.5238  0.2605 -0.2048
 7664SOL     OW25191   7.124   7.781   8.452  0.2618  0.0986  0.6306
 7664SOL    HW125192   7.048   7.836   8.469  1.0299  1.3338  0.1979
 7664SOL    HW225193   7.115   7.708   8.514 -1.2337  0.2339  0.6102
 7665SOL     OW25194   7.028   8.267   7.277  0.2394 -0.0505  0.1577
 7665SOL    HW125195   7.090   8.309   7.218 -0.6355 -0.8836 -1.4010
 7665SOL    HW225196   7.080   8.202   7.324  0.9645  0.7026  0.4297
 7666SOL     OW25197   7.412   4.629   2.264  0.1678  0.1329 -0.6097
 7666SOL    HW125198   7.471   4.657   2.334 -0.4877 -0.3232  0.1450
 7666SOL    HW225199   7.465   4.572   2.209  1.3944  2.3794 -1.9037
 7667SOL     OW25200   3.854   3.109   7.533 -0.5579 -0.9321  0.0749
 7667SOL    HW125201   3.770   3.148   7.556 -0.7510 -0.7266 -0.9419
 7667SOL    HW225202   3.884   3.159   7.457 -1.6952 -3.8183 -2.5360
 7668SOL     OW25203   4.580   2.593   8.203 -0.1348  0.5787  0.2038
 7668SOL    HW125204   4.579   2.501   8.175 -1.1139  0.7519 -0.4166
 7668SOL    HW225205   4.568   2.642   8.121  0.6176  1.2733  0.5003
 7669SOL     OW25206   7.990   6.524   6.108  0.3309 -0.0992  0.3971
 7669SOL    HW125207   8.083   6.531   6.086  0.5306 -2.0700  0.4752
 7669SOL    HW225208   7.985   6.561   6.197  1.2834 -1.1127  0.8998
 7670SOL     OW25209   6.705   7.670   3.777 -0.4182  0.3880 -0.3119
 7670SOL    HW125210   6.623   7.689   3.731  0.4900  1.5660 -1.5506
 7670SOL    HW225211   6.730   7.754   3.815  0.1157 -0.0166  0.2458
 7671SOL     OW25212   1.513   3.565   4.467 -0.0978 -0.5868  0.2001
 7671SOL    HW125213   1.488   3.572   4.559 -1.7344 -0.2118 -0.2442
 7671SOL    HW225214   1.577   3.635   4.454 -0.6007 -0.0041  0.8178
 7672SOL     OW25215   8.355   0.160   2.642 -0.2460 -0.4434 -0.2356
 7672SOL    HW125216   8.365   0.227   2.709  0.8513 -0.1860 -0.6262
 7672SOL    HW225217   8.317   0.085   2.688  0.3113 -0.2057  0.6340
 7673SOL     OW25218   8.813   6.014   1.965  0.2051  0.6502  0.0061
 7673SOL    HW125219   8.899   5.977   1.984  0.0375 -0.0204 -0.5023
 7673SOL    HW225220   8.756   5.938   1.952 -0.2075  1.0848 -0.8003
 7674SOL     OW25221   5.021   3.034   6.930 -0.4625  0.6035 -0.4430
 7674SOL    HW125222   5.098   3.048   6.985 -1.3021  0.5927  0.7763
 7674SOL    HW225223   4.980   2.954   6.966 -2.1928  1.7716  0.3508
 7675SOL     OW25224   4.869   8.006   9.483  0.3068  0.1870  0.5718
 7675SOL    HW125225   4.911   8.066   9.422 -0.3687  0.0855 -0.0049
 7675SOL    HW225226   4.844   8.061   9.557  1.3204  0.2738  0.8759
 7676SOL     OW25227   9.265   8.109   0.516 -0.7138 -0.3081 -0.4507
 7676SOL    HW125228   9.234   8.167   0.586 -1.1142 -0.5371 -0.4361
 7676SOL    HW225229   9.282   8.167   0.442 -0.1705 -0.0440 -0.1329
 7677SOL     OW25230   5.423   0.272   4.672  0.3302 -0.4547  0.5608
 7677SOL    HW125231   5.517   0.287   4.682  0.1773  0.5868  0.5107
 7677SOL    HW225232   5.398   0.229   4.754  0.4093  1.5255  1.6732
 7678SOL     OW25233   3.716   4.139   7.709 -0.3930  0.3422  0.5194
 7678SOL    HW125234   3.808   4.121   7.692 -0.8759 -0.0743 -2.0876
 7678SOL    HW225235   3.671   4.057   7.687 -1.4951  0.9062  0.5705
 7679SOL     OW25236   3.181   1.624   9.270 -0.1538  0.2891 -0.0909
 7679SOL    HW125237   3.199   1.531   9.288 -1.4470 -0.1074 -0.7438
 7679SOL    HW225238   3.263   1.657   9.232  0.3790 -0.5353  0.3084
 7680SOL     OW25239   1.004   2.310   3.984 -0.8735  0.1917  0.0727
 7680SOL    HW125240   1.070   2.283   4.047 -0.3383 -0.1539 -0.6204
 7680SOL    HW225241   1.050   2.312   3.900 -1.8827 -0.6825 -0.5367
 7681SOL     OW25242   0.372   5.948   7.239 -0.0863  0.5271  0.3464
 7681SOL    HW125243   0.394   6.041   7.243  1.1057  0.3636 -1.3085
 7681SOL    HW225244   0.419   5.915   7.162 -1.6412 -1.1381  0.0283
 7682SOL     OW25245   1.427   8.246   3.298 -0.3675  0.5314 -0.1618
 7682SOL    HW125246   1.380   8.286   3.371  0.6136  1.8035 -0.1934
 7682SOL    HW225247   1.400   8.296   3.221 -2.0006 -1.2887 -0.8742
 7683SOL     OW25248   3.833   4.878   3.497  0.3306  0.3449  0.5423
 7683SOL    HW125249   3.898   4.899   3.563  3.1238 -0.1289 -1.8742
 7683SOL    HW225250   3.750   4.907   3.535  1.5414 -0.8906  4.6454
 7684SOL     OW25251   9.035   3.846   7.649  0.6987 -0.3286  0.0587
 7684SOL    HW125252   9.065   3.876   7.735 -0.9742 -0.6203  0.7912
 7684SOL    HW225253   9.093   3.773   7.628  0.2843 -1.1624  1.6157
 7685SOL     OW25254   4.929   4.839   3.134 -0.9114 -0.3250 -0.1096
 7685SOL    HW125255   4.880   4.917   3.110  1.3690  1.5171  0.8945
 7685SOL    HW225256   4.936   4.843   3.230  0.7270 -0.7748 -0.1791
 7686SOL     OW25257   0.987   4.377   7.186 -0.5902 -0.0934 -0.4617
 7686SOL    HW125258   0.933   4.437   7.238  2.2005  0.9804  1.4268
 7686SOL    HW225259   0.929   4.348   7.115 -3.3110  1.6281  0.8874
 7687SOL     OW25260   4.861   7.133   8.454 -0.1977  0.2444  0.2960
 7687SOL    HW125261   4.954   7.117   8.470 -0.4402 -2.2981 -0.3327
 7687SOL    HW225262   4.823   7.137   8.542  0.4606  1.0989  0.5554
 7688SOL     OW25263   2.723   0.858   8.149 -0.0885 -0.5947 -0.4004
 7688SOL    HW125264   2.791   0.790   8.156  0.1283 -0.2033  2.2370
 7688SOL    HW225265   2.641   0.808   8.142  0.2993 -1.0626 -2.3893
 7689SOL     OW25266   6.211   9.024   7.315  0.2400  0.3551 -0.0800
 7689SOL    HW125267   6.306   9.029   7.319  0.2165  2.4089 -0.8476
 7689SOL    HW225268   6.187   9.082   7.243 -1.7098  1.6642  1.5193
 7690SOL     OW25269   3.858   7.593   5.047 -0.1525 -0.2461 -0.4813
 7690SOL    HW125270   3.930   7.551   5.095  1.1387  0.2579 -1.9072
 7690SOL    HW225271   3.781   7.576   5.101  1.1351 -0.1556  1.5034
 7691SOL     OW25272   4.839   7.851   8.749 -0.0131  0.4998  0.5031
 7691SOL    HW125273   4.776   7.905   8.798  0.2452  0.0883  1.2937
 7691SOL    HW225274   4.893   7.810   8.816 -0.0277 -0.5367 -0.1072
 7692SOL     OW25275   1.940   4.079   5.345 -0.6980 -0.1613 -0.2801
 7692SOL    HW125276   2.008   4.084   5.412  2.0241 -1.9273 -2.6735
 7692SOL    HW225277   1.878   4.015   5.380 -0.4447  0.4511  1.3923
 7693SOL     OW25278   0.399   6.234   8.902 -0.1348 -0.4238 -0.4843
 7693SOL    HW125279   0.396   6.288   8.823 -1.3250  0.0489 -0.1339
 7693SOL    HW225280   0.428   6.295   8.970 -2.6019  0.1451  0.1546
 7694SOL     OW25281   5.301   6.149   3.891  0.3200 -0.2278  0.3939
 7694SOL    HW125282   5.336   6.120   3.975 -0.0672  0.6677  0.8782
 7694SOL    HW225283   5.307   6.072   3.834 -0.7781 -1.2983  1.6625
 7695SOL     OW25284   5.445   7.257   1.405 -0.4191 -0.3153 -0.1548
 7695SOL    HW125285   5.531   7.296   1.419  0.1586 -2.0318  1.6497
 7695SOL    HW225286   5.461   7.184   1.345 -1.3134  1.4692 -2.7174
 7696SOL     OW25287   3.766   0.239   4.026  0.0490  0.1066  0.0126
 7696SOL    HW125288   3.775   0.310   4.090  0.6585 -0.4881  0.6133
 7696SOL    HW225289   3.852   0.196   4.026  0.0636  0.1017 -1.2307
 7697SOL     OW25290   8.420   5.401   8.726 -0.0255  0.1050 -0.0246
 7697SOL    HW125291   8.408   5.496   8.730  0.1164  0.1007  0.4324
 7697SOL    HW225292   8.412   5.381   8.632  0.7265  0.6623 -0.2139
 7698SOL     OW25293   3.097   7.265   9.567 -0.1078  0.5009  0.1918
 7698SOL    HW125294   3.015   7.219   9.549 -0.0005 -0.1753  1.2991
 7698SOL    HW225295   3.097   7.277   9.662  0.6900  1.2488  0.1136
 7699SOL     OW25296   5.076   2.148   9.303  0.1257  0.0478  0.1788
 7699SOL    HW125297   5.092   2.206   9.229  0.5101  0.0782  0.2833
 7699SOL    HW225298   5.154   2.092   9.307 -0.7697 -1.3376 -0.7129
 7700SOL     OW25299   8.969   2.984   1.431  0.1622 -0.2725  0.2912
 7700SOL    HW125300   8.874   2.987   1.419 -0.0004 -0.7313  1.3128
 7700SOL    HW225301   8.994   2.895   1.407  0.2873 -0.2531  0.3482
 7701SOL     OW25302   3.803   2.138   9.301  0.1232 -0.4081 -0.0148
 7701SOL    HW125303   3.862   2.068   9.328  0.7710  0.4906  0.9928
 7701SOL    HW225304   3.858   2.216   9.301 -0.3909 -0.0005 -1.8933
 7702SOL     OW25305   3.189   6.196   3.097 -0.5128 -0.0155  0.8713
 7702SOL    HW125306   3.167   6.107   3.068  0.2639 -0.0640  0.4105
 7702SOL    HW225307   3.191   6.248   3.017 -1.8794  0.6342  1.2377
 7703SOL     OW25308   8.761   3.686   7.885 -0.0602  0.4317 -0.0464
 7703SOL    HW125309   8.807   3.769   7.895 -1.5518  1.6063 -2.3309
 7703SOL    HW225310   8.689   3.690   7.947  0.2859  0.4908  0.3609
 7704SOL     OW25311   4.920   8.965   5.711 -0.7448 -0.0761 -0.1553
 7704SOL    HW125312   4.958   9.011   5.787  1.3979  1.1801 -1.8400
 7704SOL    HW225313   4.990   8.968   5.646 -2.3535 -1.5160 -2.0261
 7705SOL     OW25314   6.131   9.440   3.143 -0.0824 -0.0184  0.0393
 7705SOL    HW125315   6.129   9.398   3.229 -1.9783  1.0644  0.6004
 7705SOL    HW225316   6.049   9.490   3.139  1.2789  2.3330 -1.1876
 7706SOL     OW25317   2.080   3.715   6.857  0.4625  0.0931 -0.6822
 7706SOL    HW125318   2.175   3.704   6.860  0.3535 -0.9275 -0.8066
 7706SOL    HW225319   2.067   3.806   6.830  1.4041  0.6730  0.7125
 7707SOL     OW25320   7.473   9.252   1.918  0.1158 -0.0441 -0.1096
 7707SOL    HW125321   7.542   9.194   1.951 -1.1910 -1.6327 -0.0275
 7707SOL    HW225322   7.476   9.241   1.823  1.4658  1.7064 -0.3214
 7708SOL     OW25323   4.777   7.237   4.752  0.2310 -0.6127  0.0211
 7708SOL    HW125324   4.815   7.281   4.676 -1.0783 -0.3769 -0.5272
 7708SOL    HW225325   4.684   7.262   4.750  0.1866 -0.4933  1.7778
 7709SOL     OW25326   8.556   3.387   3.963  0.0348  0.3885  0.0806
 7709SOL    HW125327   8.602   3.435   3.894 -0.1301  0.8045  0.2552
 7709SOL    HW225328   8.626   3.348   4.016  0.2307 -2.8561 -2.2512
 7710SOL     OW25329   8.418   0.168   6.888 -0.0952  0.5252 -0.0117
 7710SOL    HW125330   8.411   0.153   6.793 -1.1539 -1.0416  0.2826
 7710SOL    HW225331   8.388   0.087   6.927 -2.4830  2.1250  1.7366
 7711SOL     OW25332   6.719   2.409   8.045 -0.1582  0.2026  0.7572
 7711SOL    HW125333   6.637   2.451   8.072  0.1789 -0.2132  2.5159
 7711SOL    HW225334   6.693   2.347   7.977 -1.0629  1.1872  0.1703
 7712SOL     OW25335   0.344   5.725   7.712  0.5593  0.5139  0.4133
 7712SOL    HW125336   0.354   5.798   7.652  0.4259  0.6547  0.5621
 7712SOL    HW225337   0.434   5.702   7.737  0.7116 -0.4122 -0.8728
 7713SOL     OW25338   4.270   2.537   7.223 -0.0566 -0.1445 -0.2219
 7713SOL    HW125339   4.245   2.596   7.151 -0.2703  0.0941  0.0413
 7713SOL    HW225340   4.300   2.457   7.179  0.2402  0.1603 -0.5864
 7714SOL     OW25341   3.992   2.315   7.579  0.8224 -0.5979  0.1476
 7714SOL    HW125342   4.062   2.302   7.515  0.8148  0.0979 -0.0022
 7714SOL    HW225343   3.985   2.410   7.589 -0.3473 -0.6350 -0.1286
 7715SOL     OW25344   3.448   2.690   8.563 -0.3104  0.0751  0.1722
 7715SOL    HW125345   3.413   2.607   8.531  0.7830 -1.1629  2.0216
 7715SOL    HW225346   3.466   2.740   8.484 -2.7864 -0.6284 -0.9565
 7716SOL     OW25347   3.170   8.264   4.928 -0.1474 -0.2109 -0.2768
 7716SOL    HW125348   3.147   8.179   4.965  0.2411 -0.9088 -1.5548
 7716SOL    HW225349   3.264   8.258   4.911 -0.0669  0.5750 -0.1357
 7717SOL     OW25350   0.479   3.512   2.099 -0.6758 -0.4449  0.4887
 7717SOL    HW125351   0.517   3.433   2.139 -2.0271 -1.7368 -0.6533
 7717SOL    HW225352   0.490   3.498   2.005 -2.7632 -0.2817  0.1658
 7718SOL     OW25353   8.332   3.622   7.212  0.1463  0.2974 -0.1570
 7718SOL    HW125354   8.276   3.684   7.259 -0.5231 -0.2049 -0.2693
 7718SOL    HW225355   8.421   3.646   7.237 -0.1878 -1.7028  3.6705
 7719SOL     OW25356   1.297   3.872   6.972 -0.4509 -0.3020 -0.4005
 7719SOL    HW125357   1.377   3.822   6.959 -1.1710 -1.6885  0.2411
 7719SOL    HW225358   1.231   3.826   6.920 -1.5534 -1.1981  1.6726
 7720SOL     OW25359   8.117   0.521   0.851 -0.1079 -0.1357 -0.2586
 7720SOL    HW125360   8.064   0.583   0.901  1.1386  0.4316  0.4130
 7720SOL    HW225361   8.097   0.540   0.760  0.8769  1.8751 -0.1046
 7721SOL     OW25362   7.878   7.598   9.220  0.2042 -0.2640  0.2260
 7721SOL    HW125363   7.849   7.556   9.139  1.2620  0.7620 -0.7200
 7721SOL    HW225364   7.862   7.691   9.206  1.4211  0.0454  0.7349
 7722SOL     OW25365   0.177   5.596   1.014 -0.5139  0.1229 -0.0713
 7722SOL    HW125366   0.255   5.633   0.971  0.9283 -0.3901  1.9605
 7722SOL    HW225367   0.109   5.599   0.946  0.9974  1.4619 -1.6374
 7723SOL     OW25368   1.323   5.123   5.954 -0.6048  0.1761 -0.2916
 7723SOL    HW125369   1.310   5.206   5.908 -0.8874  0.4865  0.3253
 7723SOL    HW225370   1.259   5.063   5.915  1.4193 -0.5890 -2.6455
 7724SOL     OW25371   5.022   1.004   3.262 -0.2180  0.5617  0.3343
 7724SOL    HW125372   5.050   1.079   3.314  3.2757  0.7041 -1.4412
 7724SOL    HW225373   5.083   0.934   3.286 -0.0370 -0.0799 -1.8047
 7725SOL     OW25374   6.380   8.665   2.130 -0.3528 -0.4771  0.4094
 7725SOL    HW125375   6.286   8.674   2.147 -0.3768  1.0027 -0.3357
 7725SOL    HW225376   6.417   8.646   2.216 -1.1761  0.4610  1.0051
 7726SOL     OW25377   2.073   5.109   1.606 -0.1450 -0.0640  0.1212
 7726SOL    HW125378   2.103   5.180   1.549 -0.4022  0.6311  0.8435
 7726SOL    HW225379   1.977   5.114   1.601 -0.1786 -0.9222 -0.4983
 7727SOL     OW25380   1.058   1.357   2.191  0.0585 -0.2169 -0.1874
 7727SOL    HW125381   1.146   1.394   2.189  0.0231 -0.0551  0.7544
 7727SOL    HW225382   1.002   1.423   2.150  0.1800  0.2675  0.4137
 7728SOL     OW25383   7.097   4.263   7.575 -0.1005  0.2854 -0.1728
 7728SOL    HW125384   7.148   4.344   7.582  1.0229 -0.4670  0.4538
 7728SOL    HW225385   7.060   4.266   7.487  1.5090  0.5736 -0.8706
 7729SOL     OW25386   9.023   9.226   6.916  0.0881  0.3719  0.7363
 7729SOL    HW125387   8.955   9.166   6.886  0.6399  0.1853 -0.2015
 7729SOL    HW225388   9.031   9.290   6.844  1.9787 -0.5220  0.0827
 7730SOL     OW25389   6.936   0.043   3.959 -0.3877  0.1673  0.4481
 7730SOL    HW125390   6.951   0.135   3.941 -0.8126  0.3156  0.8079
 7730SOL    HW225391   6.951   0.034   4.053 -0.7451 -0.0397  0.4912
 7731SOL     OW25392   2.459   0.732   1.655 -0.1915  0.1589  0.4176
 7731SOL    HW125393   2.531   0.755   1.714  0.7833  1.6830 -1.2534
 7731SOL    HW225394   2.493   0.753   1.568 -1.4971 -2.2049 -0.7386
 7732SOL     OW25395   3.825   1.103   8.466  0.4575  0.6260 -0.5261
 7732SOL    HW125396   3.771   1.041   8.418 -0.2523  0.8643 -0.0594
 7732SOL    HW225397   3.847   1.058   8.547  0.4975  0.7322 -0.4775
 7733SOL     OW25398   7.835   1.930   8.615 -0.2667  0.0220 -0.2197
 7733SOL    HW125399   7.811   1.839   8.597 -1.5807  0.1117  0.8996
 7733SOL    HW225400   7.930   1.932   8.606 -0.4430 -0.7223 -3.3671
 7734SOL     OW25401   9.142   2.530   2.559  0.0232 -0.0310  0.7811
 7734SOL    HW125402   9.197   2.457   2.588 -0.3060 -0.2230  0.9255
 7734SOL    HW225403   9.186   2.563   2.480  0.7456  0.2940  1.3101
 7735SOL     OW25404   2.664   9.153   6.876  0.0481  0.0847 -0.5156
 7735SOL    HW125405   2.626   9.209   6.944  1.7217  0.9847 -0.2705
 7735SOL    HW225406   2.594   9.091   6.854 -1.5374  1.6676 -0.1260
 7736SOL     OW25407   7.843   7.760   7.943  0.3117 -0.1366 -0.2611
 7736SOL    HW125408   7.931   7.797   7.950  0.9661 -1.2273 -1.9037
 7736SOL    HW225409   7.844   7.685   8.003  0.3955  0.0404 -0.0396
 7737SOL     OW25410   4.917   7.991   8.264  0.4452 -0.4273  0.4009
 7737SOL    HW125411   4.988   8.025   8.210 -1.9133  0.2645 -2.5275
 7737SOL    HW225412   4.943   7.901   8.283  1.3750 -0.7699 -2.0909
 7738SOL     OW25413   7.722   2.688   7.845 -0.3702 -0.2098  0.3477
 7738SOL    HW125414   7.801   2.740   7.832  0.2354 -1.5032 -1.5822
 7738SOL    HW225415   7.657   2.728   7.788  0.2137 -1.6840 -1.4634
 7739SOL     OW25416   4.872   7.531   3.391  0.1247  0.1027 -0.5120
 7739SOL    HW125417   4.938   7.575   3.444 -0.1633 -1.1086  0.9355
 7739SOL    HW225418   4.852   7.451   3.440 -2.1146  0.2330 -1.1066
 7740SOL     OW25419   2.884   4.535   8.452 -0.3517 -0.5429  0.0761
 7740SOL    HW125420   2.877   4.439   8.451 -0.7520 -0.5136 -0.2854
 7740SOL    HW225421   2.943   4.555   8.380 -0.5945 -0.4930 -0.1085
 7741SOL     OW25422   8.734   7.640   5.277 -0.4582  0.3398  0.0111
 7741SOL    HW125423   8.675   7.660   5.204  0.0118 -0.2848 -0.5480
 7741SOL    HW225424   8.685   7.578   5.331 -0.9087  0.9992  0.3817
 7742SOL     OW25425   4.606   7.734   2.807 -0.2840 -0.2894  0.3810
 7742SOL    HW125426   4.646   7.680   2.738 -0.5458  0.4301 -0.3559
 7742SOL    HW225427   4.526   7.687   2.830 -0.7561 -0.0017 -0.5968
 7743SOL     OW25428   7.198   3.185   3.776 -0.0074 -0.0871  0.2070
 7743SOL    HW125429   7.263   3.222   3.716 -0.1451 -2.5859 -1.6381
 7743SOL    HW225430   7.117   3.184   3.726 -0.7923  0.1879  1.4227
 7744SOL     OW25431   5.092   6.027   4.696  0.6113 -0.3534  0.0300
 7744SOL    HW125432   5.063   6.114   4.724  0.8582  0.1421 -1.1870
 7744SOL    HW225433   5.054   5.967   4.761 -1.5772  0.4340 -0.4251
 7745SOL     OW25434   2.556   8.600   4.690  0.5465 -0.7132 -0.3398
 7745SOL    HW125435   2.505   8.641   4.621  0.3197 -2.0746 -0.9967
 7745SOL    HW225436   2.631   8.562   4.645  0.7339 -1.0634  0.2567
 7746SOL     OW25437   9.121   7.350   1.033 -0.4414 -0.0273  0.1613
 7746SOL    HW125438   9.096   7.442   1.022  1.1467  0.3596 -0.4376
 7746SOL    HW225439   9.146   7.343   1.125  1.9729  0.8596 -0.3456
 7747SOL     OW25440   8.736   5.637   3.484 -0.0899  0.6188 -0.2889
 7747SOL    HW125441   8.642   5.650   3.495 -0.0597  0.5494  0.0370
 7747SOL    HW225442   8.768   5.613   3.571  0.1115 -0.0816 -0.5477
 7748SOL     OW25443   8.692   6.796   1.163 -0.6233  0.6633  0.7869
 7748SOL    HW125444   8.705   6.713   1.208 -1.3703  1.0715  1.7841
 7748SOL    HW225445   8.625   6.778   1.097 -0.6229  0.4248  0.8511
 7749SOL     OW25446   6.003   4.686   7.731  0.4714 -0.2816  0.1348
 7749SOL    HW125447   5.996   4.746   7.657 -1.5285  1.9390  1.9321
 7749SOL    HW225448   6.091   4.702   7.766  0.4096  0.7426 -0.1338
 7750SOL     OW25449   2.307   7.192   2.376  0.4551 -0.6744  0.0147
 7750SOL    HW125450   2.218   7.198   2.411  0.3490 -0.0038 -0.3691
 7750SOL    HW225451   2.359   7.250   2.431  0.5698 -0.7196 -0.0458
 7751SOL     OW25452   4.387   7.833   8.457  0.4007 -0.7829 -0.0078
 7751SOL    HW125453   4.395   7.864   8.367  1.0987  1.7846  0.8223
 7751SOL    HW225454   4.423   7.745   8.456  2.2883 -0.0697 -1.8707
 7752SOL     OW25455   0.042   1.543   7.186  0.6295 -0.3718 -0.3465
 7752SOL    HW125456  -0.038   1.492   7.178  1.4324 -1.6589 -0.3700
 7752SOL    HW225457   0.012   1.634   7.189 -0.9084 -0.8749  0.8740
 7753SOL     OW25458   6.409   4.457   5.613 -0.5869  0.3404 -0.1065
 7753SOL    HW125459   6.481   4.504   5.656  1.0128 -0.9293 -1.2687
 7753SOL    HW225460   6.449   4.417   5.536 -2.7293  0.1794 -1.2120
 7754SOL     OW25461   6.914   5.906   2.893  0.7941  0.6818  0.0453
 7754SOL    HW125462   6.821   5.928   2.889  0.2062 -1.4341  0.8645
 7754SOL    HW225463   6.942   5.905   2.802  0.6714  3.6673 -0.1152
 7755SOL     OW25464   4.200   6.867   8.321 -0.2663  0.2081 -0.3960
 7755SOL    HW125465   4.265   6.924   8.362 -2.0155  1.7099  0.4409
 7755SOL    HW225466   4.162   6.818   8.395  0.4384 -1.2808 -0.9741
 7756SOL     OW25467   2.954   7.840   0.616  0.0204  0.4766  0.2787
 7756SOL    HW125468   2.896   7.780   0.568  0.0134  0.2829  0.5251
 7756SOL    HW225469   2.959   7.802   0.704 -0.5663  1.2370  0.6516
 7757SOL     OW25470   2.482   2.163   8.212  0.1041 -0.2928 -0.1598
 7757SOL    HW125471   2.457   2.252   8.236 -0.9128 -0.4287 -0.6739
 7757SOL    HW225472   2.414   2.107   8.249  1.6588 -1.0529  1.6812
 7758SOL     OW25473   2.390   7.087   6.729  0.9581  0.1392  0.2125
 7758SOL    HW125474   2.399   7.066   6.823  0.9247 -1.8620 -0.1711
 7758SOL    HW225475   2.336   7.165   6.727  0.1608 -0.3128  1.8628
 7759SOL     OW25476   0.919   1.570   6.897 -0.3735  0.6444 -0.2487
 7759SOL    HW125477   0.928   1.662   6.923  1.6471  0.4679 -0.1546
 7759SOL    HW225478   0.910   1.522   6.980 -0.0321  0.6453 -0.2078
 7760SOL     OW25479   5.466   5.418   3.275 -0.2298  0.2440 -0.2154
 7760SOL    HW125480   5.376   5.385   3.267  0.0001 -0.2567 -0.8178
 7760SOL    HW225481   5.464   5.503   3.231 -0.6624  0.7589  0.7526
 7761SOL     OW25482   4.539   0.409   2.967 -0.5556 -0.1884  0.1082
 7761SOL    HW125483   4.587   0.341   2.921 -1.6175  0.2280 -1.7000
 7761SOL    HW225484   4.447   0.390   2.949 -0.8860  1.4946 -0.1393
 7762SOL     OW25485   3.812   1.108   5.575 -0.2528 -0.3863  0.3225
 7762SOL    HW125486   3.807   1.066   5.490 -3.3607  1.2408 -0.4347
 7762SOL    HW225487   3.853   1.193   5.557  1.4692 -1.0120  0.9969
 7763SOL     OW25488   5.061   4.970   6.461 -0.4720  0.0997 -0.3080
 7763SOL    HW125489   4.997   4.954   6.392 -2.3700  1.1312  1.1249
 7763SOL    HW225490   5.029   4.919   6.536  0.8908 -0.0752  0.1841
 7764SOL     OW25491   4.288   1.913   2.396 -0.7292 -0.2515 -0.3476
 7764SOL    HW125492   4.294   1.899   2.490 -2.1636 -2.6388 -0.5543
 7764SOL    HW225493   4.195   1.925   2.379 -0.5354 -0.3457 -1.5381
 7765SOL     OW25494   1.825   7.501   3.392  0.2489  0.4281  0.6392
 7765SOL    HW125495   1.750   7.473   3.340  1.1386 -0.4779 -0.2173
 7765SOL    HW225496   1.810   7.593   3.410 -0.4187  0.5851 -0.6643
 7766SOL     OW25497   7.353   7.935   3.234 -0.1145 -0.2756 -0.1712
 7766SOL    HW125498   7.357   7.988   3.155  1.9683 -0.3867 -0.1922
 7766SOL    HW225499   7.291   7.981   3.291  1.0784  1.8252 -0.4624
 7767SOL     OW25500   4.999   1.651   3.357 -0.1032  0.2756 -0.0983
 7767SOL    HW125501   5.015   1.612   3.443  1.2585  0.1091 -0.4094
 7767SOL    HW225502   4.939   1.724   3.375 -0.5929 -0.3400  0.8495
 7768SOL     OW25503   0.884   8.216   2.612 -0.4636  0.2792 -0.3112
 7768SOL    HW125504   0.828   8.268   2.669 -1.6456  0.0559 -1.2221
 7768SOL    HW225505   0.848   8.230   2.524 -0.8238 -2.0068 -0.5933
 7769SOL     OW25506   6.582   5.284   8.722  0.9624 -0.5541 -0.4525
 7769SOL    HW125507   6.569   5.327   8.806  1.9242 -0.7581 -0.1840
 7769SOL    HW225508   6.498   5.294   8.676  0.4912 -0.2749  0.4465
 7770SOL     OW25509   4.081   0.168   7.934 -0.9242 -0.3486  0.6969
 7770SOL    HW125510   3.989   0.142   7.937 -1.4415  1.1727 -0.3391
 7770SOL    HW225511   4.110   0.142   7.846 -1.0334  1.1002  0.1989
 7771SOL     OW25512   6.210   0.543   4.861 -0.0067  0.8050 -0.0376
 7771SOL    HW125513   6.228   0.636   4.845  1.0315  1.1615  2.5982
 7771SOL    HW225514   6.295   0.506   4.886 -0.1838 -1.1698 -2.0293
 7772SOL     OW25515   5.289   0.220   5.943  0.5543 -0.0351  0.4207
 7772SOL    HW125516   5.347   0.144   5.935 -0.4338 -0.7678 -0.2102
 7772SOL    HW225517   5.217   0.201   5.882 -0.3239  0.8422  1.1423
 7773SOL     OW25518   0.368   5.792   6.263  0.1906  0.4039 -0.0296
 7773SOL    HW125519   0.455   5.757   6.242  0.0484  0.4346 -0.6935
 7773SOL    HW225520   0.379   5.832   6.349  0.9027  0.6296 -0.2163
 7774SOL     OW25521   6.224   0.585   5.974  0.5003 -0.0767 -0.7860
 7774SOL    HW125522   6.200   0.606   5.884  1.2706  0.7890 -0.8056
 7774SOL    HW225523   6.183   0.653   6.027 -0.0950 -0.6818 -0.4542
 7775SOL     OW25524   0.686   6.038   1.545 -0.3863  0.0670 -0.6051
 7775SOL    HW125525   0.709   6.120   1.503 -0.0878  0.3512  0.1062
 7775SOL    HW225526   0.747   6.029   1.618 -1.3536 -0.0423  0.2276
 7776SOL     OW25527   9.149   1.975   0.827 -0.4286  0.6493  0.1525
 7776SOL    HW125528   9.140   2.070   0.825 -0.3788  0.6685  0.7992
 7776SOL    HW225529   9.072   1.945   0.875 -0.4393  0.3611 -0.0410
 7777SOL     OW25530   4.007   2.520   1.704 -0.3061 -0.7164  0.0884
 7777SOL    HW125531   3.947   2.445   1.702  0.7684 -1.5907 -1.7295
 7777SOL    HW225532   4.001   2.553   1.793 -1.7215 -2.2278  0.5979
 7778SOL     OW25533   0.340   8.231   8.438  0.2376  0.4567 -0.3512
 7778SOL    HW125534   0.273   8.281   8.484  0.7999 -1.0403  2.2799
 7778SOL    HW225535   0.315   8.237   8.346 -1.6704  2.5683  0.2107
 7779SOL     OW25536   6.967   2.979   8.314  0.2475 -0.0369  0.1275
 7779SOL    HW125537   6.980   3.003   8.406  0.3736 -2.4221  0.8137
 7779SOL    HW225538   6.967   3.062   8.267  1.6822  1.1789  2.1006
 7780SOL     OW25539   0.209   5.254   0.929  0.3633 -0.0992  0.4751
 7780SOL    HW125540   0.263   5.257   0.850  1.4776  0.8688  1.2463
 7780SOL    HW225541   0.262   5.208   0.993 -1.4037 -2.9171  0.1005
 7781SOL     OW25542   9.436   1.782   5.377 -0.2406  0.2485  0.7263
 7781SOL    HW125543   9.411   1.871   5.401  0.5267  0.2431  1.6095
 7781SOL    HW225544   9.490   1.752   5.450 -2.0815 -1.6384  1.4080
 7782SOL     OW25545   0.349   3.171   2.282 -0.2489 -0.2089  0.2028
 7782SOL    HW125546   0.340   3.194   2.189  0.9396 -0.5950 -0.0290
 7782SOL    HW225547   0.316   3.247   2.329  1.2372  0.9387 -0.5392
 7783SOL     OW25548   8.974   4.383   5.252  0.6098  0.5659 -0.1390
 7783SOL    HW125549   8.941   4.471   5.272  1.5197  1.0373 -0.6337
 7783SOL    HW225550   9.065   4.398   5.224  0.5129 -0.4495 -1.0365
 7784SOL     OW25551   4.763   5.299   7.801 -0.3457  0.2737 -0.2491
 7784SOL    HW125552   4.810   5.374   7.838 -1.9175  1.3590 -0.3394
 7784SOL    HW225553   4.772   5.310   7.707 -2.1718  1.5071 -0.3388
 7785SOL     OW25554   4.451   6.357   2.876  0.6167  0.0803 -0.3112
 7785SOL    HW125555   4.515   6.286   2.878  0.4687 -0.0514  1.3418
 7785SOL    HW225556   4.381   6.327   2.933 -0.5285  0.6067 -1.3947
 7786SOL     OW25557   5.448   9.219   7.130  0.0979  0.7928  0.6684
 7786SOL    HW125558   5.356   9.194   7.120  0.5929 -0.9621  0.0844
 7786SOL    HW225559   5.454   9.305   7.090 -1.3314  1.0255  0.9129
 7787SOL     OW25560   3.896   3.453   8.787 -0.0530  0.6312  0.1928
 7787SOL    HW125561   3.865   3.530   8.834  0.5786  1.0429 -0.0473
 7787SOL    HW225562   3.911   3.484   8.697  1.8072  0.6802  0.4757
 7788SOL     OW25563   6.053   3.378   4.337 -0.0465  0.3498 -0.6332
 7788SOL    HW125564   6.069   3.302   4.393  0.6113 -0.0796 -1.3684
 7788SOL    HW225565   5.960   3.398   4.348 -0.1228 -0.2824 -0.0847
 7789SOL     OW25566   8.192   8.095   8.969  0.1488  0.3743 -0.3631
 7789SOL    HW125567   8.268   8.139   9.006 -0.3315  0.6510  0.3303
 7789SOL    HW225568   8.148   8.162   8.917  0.3103  0.2531 -0.6537
 7790SOL     OW25569   3.770   2.370   8.148 -0.5414  0.0324 -0.2180
 7790SOL    HW125570   3.854   2.397   8.186 -0.1362 -1.0439 -0.3170
 7790SOL    HW225571   3.734   2.308   8.211 -0.4424 -0.8322 -0.9926
 7791SOL     OW25572   5.555   5.832   1.369 -0.4477 -0.3315  0.0334
 7791SOL    HW125573   5.499   5.895   1.324 -1.4021 -0.9802  0.2744
 7791SOL    HW225574   5.641   5.841   1.328  0.0226  2.5371  1.3788
 7792SOL     OW25575   4.616   0.831   6.911  0.0880  0.2538 -0.3645
 7792SOL    HW125576   4.669   0.757   6.882 -1.5451 -1.2604  0.3521
 7792SOL    HW225577   4.526   0.801   6.903 -0.5706  1.1679  2.4907
 7793SOL     OW25578   1.586   5.029   2.032 -0.1424  0.0723  0.0758
 7793SOL    HW125579   1.534   4.962   2.076  0.0044 -0.1255 -0.0494
 7793SOL    HW225580   1.548   5.035   1.944  1.4731 -1.7368 -0.8223
 7794SOL     OW25581   9.333   3.115   4.291 -0.1120  0.5820 -0.1331
 7794SOL    HW125582   9.290   3.133   4.375  0.1806  0.1500  0.1141
 7794SOL    HW225583   9.364   3.200   4.261  0.3013  0.6552  0.4918
 7795SOL     OW25584   7.007   7.857   2.253  0.1322  0.2269 -0.5946
 7795SOL    HW125585   6.933   7.908   2.219 -1.3589 -0.9312  0.7145
 7795SOL    HW225586   7.020   7.788   2.189  1.5415  1.6546 -1.9050
 7796SOL     OW25587   9.206   6.499   1.887 -0.3401 -0.4430 -0.0551
 7796SOL    HW125588   9.138   6.544   1.937 -0.0336 -1.3817  1.2532
 7796SOL    HW225589   9.222   6.418   1.934  2.2735  0.1030  0.1881
 7797SOL     OW25590   3.008   8.823   6.028  0.4032  0.0887 -0.4664
 7797SOL    HW125591   2.934   8.834   6.088  1.3805  0.0283  0.8032
 7797SOL    HW225592   2.985   8.748   5.974 -0.1453 -0.4293  0.4526
 7798SOL     OW25593   9.375   7.501   8.406  0.6299 -0.3158  0.3672
 7798SOL    HW125594   9.386   7.560   8.480  0.9578  0.0501  0.0279
 7798SOL    HW225595   9.461   7.495   8.366  0.6871 -1.3221  0.6184
 7799SOL     OW25596   5.786   7.735   8.287 -0.6068  0.2446 -0.1394
 7799SOL    HW125597   5.881   7.735   8.276 -0.2114 -2.2784  2.2212
 7799SOL    HW225598   5.758   7.648   8.259 -1.7578 -0.1345  1.9540
 7800SOL     OW25599   3.421   4.551   7.477  0.3990 -0.0965  0.0195
 7800SOL    HW125600   3.449   4.529   7.388  0.2871 -0.8779  0.1638
 7800SOL    HW225601   3.423   4.467   7.523 -0.4991  0.1296  0.4940
 7801SOL     OW25602   6.649   1.388   3.239 -0.2879  0.1615 -0.0230
 7801SOL    HW125603   6.618   1.324   3.304 -3.4598  2.0979  0.5871
 7801SOL    HW225604   6.709   1.444   3.287  0.2839 -0.6105  0.1906
 7802SOL     OW25605   9.238   6.062   7.887 -0.1004 -0.4202 -0.0147
 7802SOL    HW125606   9.287   6.091   7.964 -0.6984  1.3660 -0.2581
 7802SOL    HW225607   9.305   6.027   7.828  0.5906 -0.1203  0.5783
 7803SOL     OW25608   0.586   3.104   7.452 -0.1455  0.7311  0.2682
 7803SOL    HW125609   0.597   3.095   7.358 -1.2947  0.0802  0.1761
 7803SOL    HW225610   0.604   3.018   7.488 -1.6951  0.4400  0.4110
 7804SOL     OW25611   3.619   8.938   1.061  0.2704  0.1792 -0.3324
 7804SOL    HW125612   3.650   9.000   0.995  0.0072  2.1989  1.3623
 7804SOL    HW225613   3.524   8.949   1.060  0.3262  0.9003  0.9799
 7805SOL     OW25614   7.129   5.040   0.603  0.3502 -0.5775 -0.4944
 7805SOL    HW125615   7.098   4.949   0.595 -0.8968 -0.0435 -2.7513
 7805SOL    HW225616   7.051   5.093   0.586  0.7456  0.9821  2.1334
 7806SOL     OW25617   6.535   4.900   2.894 -0.0308  0.7293  0.5741
 7806SOL    HW125618   6.453   4.942   2.920 -1.5602 -2.7404  2.0292
 7806SOL    HW225619   6.600   4.936   2.953 -0.8639  2.1534  0.6818
 7807SOL     OW25620   6.925   3.635   4.884 -0.4543 -0.2750  0.2824
 7807SOL    HW125621   6.842   3.682   4.893 -0.5527 -0.2609 -0.6826
 7807SOL    HW225622   6.956   3.656   4.796 -0.3451 -1.7787 -0.0604
 7808SOL     OW25623   3.841   5.343   2.804  0.4129  0.3166 -0.0585
 7808SOL    HW125624   3.816   5.251   2.812  0.1729  0.1664 -1.9550
 7808SOL    HW225625   3.759   5.391   2.810  0.6009  0.4818  1.5135
 7809SOL     OW25626   8.551   2.061   1.358 -0.1516 -0.4341  0.2448
 7809SOL    HW125627   8.587   2.125   1.420 -0.7446 -0.3583  0.5158
 7809SOL    HW225628   8.464   2.094   1.338  0.1852 -0.2332 -0.9665
 7810SOL     OW25629   7.265   5.957   0.779  0.1049 -0.1443 -0.8718
 7810SOL    HW125630   7.217   5.984   0.701  1.1464  1.0927 -1.1176
 7810SOL    HW225631   7.338   5.905   0.745 -0.4014 -1.0694 -0.5804
 7811SOL     OW25632   8.767   4.353   8.848  0.2488 -0.0934  0.0693
 7811SOL    HW125633   8.806   4.277   8.805 -1.0870 -0.9170  0.2644
 7811SOL    HW225634   8.675   4.350   8.822  0.0388  1.0807  0.6302
 7812SOL     OW25635   4.955   9.544   9.388  0.1405 -0.5471 -0.3135
 7812SOL    HW125636   5.023   9.506   9.333 -0.4922 -2.1518 -0.0423
 7812SOL    HW225637   4.919   9.615   9.336 -0.0518 -1.6504 -1.7647
 7813SOL     OW25638   2.432   5.969   2.168 -0.3280 -0.7290  0.1733
 7813SOL    HW125639   2.408   6.055   2.204  0.1776 -0.6217  0.2734
 7813SOL    HW225640   2.361   5.947   2.109 -0.6456 -0.4085  0.4290
 7814SOL     OW25641   2.278   1.631   2.780  0.6500 -0.1268  0.2396
 7814SOL    HW125642   2.293   1.704   2.840 -3.8773  2.1774 -0.9862
 7814SOL    HW225643   2.255   1.672   2.697 -0.6761 -2.9698 -0.9476
 7815SOL     OW25644   6.611   3.169   5.442 -0.6662 -0.5968  0.0953
 7815SOL    HW125645   6.612   3.080   5.406  0.1139 -0.9763  1.0325
 7815SOL    HW225646   6.575   3.159   5.530 -0.0733 -0.0658  0.4041
 7816SOL     OW25647   8.857   3.397   8.588 -0.5408  0.1252 -0.5212
 7816SOL    HW125648   8.915   3.410   8.663 -0.4771 -1.4796 -0.2473
 7816SOL    HW225649   8.910   3.422   8.512  0.5273 -1.2487 -0.2703
 7817SOL     OW25650   9.105   0.625   7.955  0.0501 -0.5144 -0.0798
 7817SOL    HW125651   9.012   0.610   7.938 -0.1308  0.0092  0.4277
 7817SOL    HW225652   9.148   0.547   7.921 -0.5155 -0.4914 -0.8794
 7818SOL     OW25653   1.967   7.939   1.031  0.5538 -0.2817 -0.0151
 7818SOL    HW125654   1.939   7.988   0.953 -0.2560 -0.2022  0.3121
 7818SOL    HW225655   1.922   7.855   1.023  1.6561 -0.8425 -0.3882
 7819SOL     OW25656   0.287   6.632   7.770 -0.1226 -0.0750  0.1860
 7819SOL    HW125657   0.353   6.701   7.763  0.3683 -0.5846 -0.4375
 7819SOL    HW225658   0.314   6.581   7.847  0.0076 -0.0703  0.1446
 7820SOL     OW25659   4.918   3.863   9.370  0.1898 -0.0068 -0.0012
 7820SOL    HW125660   4.834   3.863   9.325  0.2820 -2.3465 -0.2918
 7820SOL    HW225661   4.903   3.809   9.448  1.2031  0.2767  0.4085
 7821SOL     OW25662   8.032   5.140   4.508 -0.1499  0.3340 -0.3696
 7821SOL    HW125663   8.107   5.103   4.555  0.9231 -0.2845 -2.4191
 7821SOL    HW225664   7.977   5.064   4.487 -1.2118  0.7432  0.8037
 7822SOL     OW25665   0.147   1.249   0.238 -0.6628 -0.4892 -0.0797
 7822SOL    HW125666   0.091   1.321   0.209  0.8867  1.0908  0.6458
 7822SOL    HW225667   0.188   1.282   0.318  0.2721 -2.1159  0.1493
 7823SOL     OW25668   2.325   2.776   5.098 -0.0005 -0.2044  0.3827
 7823SOL    HW125669   2.305   2.862   5.061 -0.6746 -0.8074 -0.6786
 7823SOL    HW225670   2.270   2.771   5.177  1.0864  0.8857  1.2562
 7824SOL     OW25671   0.846   1.203   2.436  0.1845 -0.1992 -0.3451
 7824SOL    HW125672   0.889   1.266   2.494 -0.1683  0.7297 -1.0733
 7824SOL    HW225673   0.918   1.160   2.390  0.3897  2.0176 -2.2657
 7825SOL     OW25674   4.935   6.990   1.329  0.1702 -0.2805 -0.7544
 7825SOL    HW125675   4.939   7.082   1.307  1.5148 -0.2116 -0.3522
 7825SOL    HW225676   4.850   6.960   1.297  0.9069  0.3831 -3.5913
 7826SOL     OW25677   3.237   2.422   6.056  0.7385 -0.5199  0.5357
 7826SOL    HW125678   3.167   2.357   6.048  0.0351  0.2379  0.3705
 7826SOL    HW225679   3.207   2.496   6.002  0.6019  0.7147  2.2103
 7827SOL     OW25680   3.834   3.478   5.012 -0.4337  0.1383  0.3458
 7827SOL    HW125681   3.753   3.521   5.040 -0.0464  0.8084  0.4653
 7827SOL    HW225682   3.806   3.412   4.949 -1.1846 -0.4170  1.2284
 7828SOL     OW25683   0.324   8.336   6.363  0.3236 -0.4438  0.0871
 7828SOL    HW125684   0.318   8.350   6.457  0.7752 -0.4529  0.1194
 7828SOL    HW225685   0.341   8.242   6.353 -1.1491 -0.7090 -0.0664
 7829SOL     OW25686   8.916   0.952   1.411  0.2889 -0.0178 -0.0854
 7829SOL    HW125687   8.862   0.963   1.489 -0.2913  0.1344 -0.4994
 7829SOL    HW225688   9.000   0.992   1.434 -0.5787  2.0559 -0.2858
 7830SOL     OW25689   5.195   4.129   9.107 -0.5799  0.7160 -0.1571
 7830SOL    HW125690   5.234   4.216   9.115 -1.6987  1.2413 -0.1904
 7830SOL    HW225691   5.109   4.146   9.068 -0.2920 -0.5278 -1.3979
 7831SOL     OW25692   6.762   4.128   0.473  0.5030 -0.0916  0.0056
 7831SOL    HW125693   6.781   4.098   0.385  1.0795  0.6375 -0.1298
 7831SOL    HW225694   6.847   4.127   0.518  0.1784 -0.6985  0.6351
 7832SOL     OW25695   6.499   5.821   8.019  0.0911  0.0231  0.4253
 7832SOL    HW125696   6.435   5.828   8.090 -1.1422 -0.7752 -0.5947
 7832SOL    HW225697   6.449   5.832   7.939  1.2676 -0.3405 -0.3910
 7833SOL     OW25698   3.927   6.102   4.134  0.3450 -0.3294  0.2087
 7833SOL    HW125699   3.894   6.181   4.092 -0.4626 -1.2607 -1.0081
 7833SOL    HW225700   3.945   6.042   4.062  4.0325 -0.2106  0.8443
 7834SOL     OW25701   0.434   1.972   1.006 -0.3043 -0.0431  0.0392
 7834SOL    HW125702   0.437   1.940   1.096 -0.6243 -0.8521 -0.2262
 7834SOL    HW225703   0.512   2.027   0.997  0.5832 -1.2260  0.3375
 7835SOL     OW25704   4.635   7.975   3.187  0.2551 -0.3249  0.0984
 7835SOL    HW125705   4.713   7.922   3.166 -0.4634 -0.9313 -1.1165
 7835SOL    HW225706   4.562   7.913   3.182 -0.5530  0.6674 -0.8822
 7836SOL     OW25707   2.102   0.471   4.512  0.3487  0.2627  0.3341
 7836SOL    HW125708   2.143   0.414   4.447 -0.4904 -0.0197  0.0268
 7836SOL    HW225709   2.159   0.467   4.588  0.2552 -1.0653  0.3561
 7837SOL     OW25710   0.447   4.583   7.926  0.0627  0.3113  0.3116
 7837SOL    HW125711   0.526   4.586   7.872  1.0745  2.2004  1.7978
 7837SOL    HW225712   0.395   4.658   7.898 -0.8003 -0.3974 -0.0264
 7838SOL     OW25713   0.084   0.531   8.928  0.4326 -0.3788  0.2903
 7838SOL    HW125714  -0.006   0.559   8.947  0.3658  0.0633 -0.6360
 7838SOL    HW225715   0.138   0.606   8.951  0.5902 -0.7235  1.0557
 7839SOL     OW25716   4.326   5.733   5.662 -0.3690  0.2225 -0.1198
 7839SOL    HW125717   4.245   5.699   5.702  0.0917  0.5000  1.1109
 7839SOL    HW225718   4.306   5.824   5.644 -0.5376  0.1311 -0.3996
 7840SOL     OW25719   5.813   6.006   2.906 -0.2826  0.0807  0.2413
 7840SOL    HW125720   5.728   5.967   2.925  0.5525 -1.3091  1.3297
 7840SOL    HW225721   5.843   5.960   2.827  0.2027 -0.6778  0.8607
 7841SOL     OW25722   3.025   0.681   8.389 -0.4857  0.1646 -0.0866
 7841SOL    HW125723   3.010   0.676   8.484 -2.1555 -0.1011 -0.3240
 7841SOL    HW225724   3.014   0.773   8.368 -0.3994  0.1798 -0.0663
 7842SOL     OW25725   9.269   7.494   4.649 -0.0798 -0.3242 -0.6094
 7842SOL    HW125726   9.210   7.541   4.590  0.3545  0.6973 -0.2617
 7842SOL    HW225727   9.272   7.405   4.615  0.2258  0.2641 -2.1865
 7843SOL     OW25728   1.202   6.662   2.682 -0.1969 -1.2718  0.0997
 7843SOL    HW125729   1.225   6.749   2.715 -0.0690 -0.9581 -0.7997
 7843SOL    HW225730   1.185   6.675   2.589 -0.7362 -2.1139  0.0727
 7844SOL     OW25731   8.784   7.540   3.264  1.0981  0.0768 -0.3809
 7844SOL    HW125732   8.759   7.605   3.198  1.9857  0.4556 -0.3577
 7844SOL    HW225733   8.704   7.524   3.314  0.8570  1.1195 -0.4167
 7845SOL     OW25734   4.980   8.185   3.329  0.1582 -0.1815 -0.2698
 7845SOL    HW125735   4.979   8.256   3.392 -0.7670  0.1035 -0.6012
 7845SOL    HW225736   5.011   8.109   3.379  2.0123  0.6136 -0.1226
 7846SOL     OW25737   8.265   6.112   6.461 -0.3235  0.8866  0.4192
 7846SOL    HW125738   8.268   6.205   6.486 -0.1192  1.1343 -0.4892
 7846SOL    HW225739   8.183   6.103   6.413 -1.6666 -0.0117  2.7238
 7847SOL     OW25740   3.975   5.314   4.587 -0.5037  0.5224 -0.2429
 7847SOL    HW125741   3.977   5.308   4.683 -1.2380 -0.4223 -0.2755
 7847SOL    HW225742   3.885   5.291   4.564 -0.7795  2.2628 -1.0739
 7848SOL     OW25743   0.210   6.635   7.471 -0.2861  0.0465  0.4500
 7848SOL    HW125744   0.176   6.723   7.487 -0.3663 -0.0925  1.0789
 7848SOL    HW225745   0.205   6.592   7.557 -0.9735 -0.8184 -0.0074
 7849SOL     OW25746   2.038   5.349   4.439  0.7548 -0.5565 -0.6375
 7849SOL    HW125747   2.054   5.442   4.419  4.1297 -1.1936 -1.6320
 7849SOL    HW225748   1.955   5.329   4.396 -2.0561  2.7115  2.5852
 7850SOL     OW25749   3.430   7.786   2.998  0.0408 -0.3797 -0.2402
 7850SOL    HW125750   3.361   7.844   2.966 -0.8759 -1.4375 -0.2748
 7850SOL    HW225751   3.401   7.762   3.086  0.5811 -0.5032 -0.0951
 7851SOL     OW25752   8.995   0.840   5.674 -0.4361 -0.0571 -0.2037
 7851SOL    HW125753   8.953   0.764   5.632 -0.8842  0.5763 -0.9292
 7851SOL    HW225754   8.932   0.911   5.662  0.0401  0.4668  0.3564
 7852SOL     OW25755   6.849   0.489   5.531 -0.2205 -0.8695 -0.0551
 7852SOL    HW125756   6.763   0.530   5.520  0.4133  0.1796 -1.2758
 7852SOL    HW225757   6.878   0.519   5.617 -0.6790 -0.4836 -0.0286
 7853SOL     OW25758   8.984   0.973   9.319 -0.0021  0.2815 -0.7028
 7853SOL    HW125759   8.978   1.006   9.229 -2.6767  2.0971 -0.0066
 7853SOL    HW225760   8.969   1.051   9.373 -0.3928 -1.0937  1.2584
 7854SOL     OW25761   1.004   5.974   4.756 -0.2139 -0.0364  0.0764
 7854SOL    HW125762   1.088   5.972   4.710  1.5864 -1.5650  3.1106
 7854SOL    HW225763   0.969   6.061   4.737  3.1521  1.5630  0.3975
 7855SOL     OW25764   2.507   9.176   9.412  0.5377 -0.1175 -0.0835
 7855SOL    HW125765   2.556   9.254   9.440 -0.2865  0.1615  0.6355
 7855SOL    HW225766   2.426   9.180   9.462 -1.4817  0.9431 -3.1797
 7856SOL     OW25767   7.759   1.793   6.783  0.3353 -0.7594 -0.0548
 7856SOL    HW125768   7.729   1.838   6.862  1.0769  1.0543 -0.7499
 7856SOL    HW225769   7.854   1.805   6.783  0.1481  2.0019 -2.6780
 7857SOL     OW25770   0.136   0.228   0.834 -0.4987  0.2905  0.0186
 7857SOL    HW125771   0.210   0.190   0.787  0.1393  1.6458 -0.1095
 7857SOL    HW225772   0.059   0.196   0.787  0.0764  0.4360 -1.0571
 7858SOL     OW25773   8.090   6.741   0.467 -0.3528  0.0298 -0.1633
 7858SOL    HW125774   8.135   6.684   0.404 -1.0853 -1.4530  0.5930
 7858SOL    HW225775   8.160   6.792   0.508  0.3054 -0.1581 -1.0229
 7859SOL     OW25776   7.181   4.078   7.136 -0.5197  0.4907 -0.3799
 7859SOL    HW125777   7.253   4.066   7.074  0.7564 -0.0907  1.1461
 7859SOL    HW225778   7.147   3.990   7.151 -0.8629  0.6361 -0.2870
 7860SOL     OW25779   3.118   8.587   0.777 -0.3256  0.2286  0.1615
 7860SOL    HW125780   3.105   8.639   0.856 -1.7091  0.9439 -0.5141
 7860SOL    HW225781   3.058   8.513   0.787 -0.9036  0.6042 -0.4460
 7861SOL     OW25782   0.182   4.733   4.415  0.1481  0.2347  0.0633
 7861SOL    HW125783   0.241   4.694   4.351 -0.8450 -1.2676  0.0153
 7861SOL    HW225784   0.237   4.790   4.468  2.2959 -3.2670  1.9215
 7862SOL     OW25785   8.974   4.290   2.368 -0.5863 -0.3385  0.2474
 7862SOL    HW125786   8.881   4.266   2.372 -1.0252  0.8940 -1.3146
 7862SOL    HW225787   9.021   4.207   2.368 -1.7944 -1.0572 -0.7206
 7863SOL     OW25788   0.446   7.899   4.483  0.1772  0.4495  0.1313
 7863SOL    HW125789   0.468   7.820   4.533 -1.4540 -0.9500 -1.2612
 7863SOL    HW225790   0.520   7.958   4.499  1.0633 -1.0217  1.8632
 7864SOL     OW25791   7.479   4.806   7.839 -0.0655 -0.1186 -0.6165
 7864SOL    HW125792   7.471   4.893   7.878  0.4830  0.0922 -0.9654
 7864SOL    HW225793   7.446   4.747   7.906  0.0236  0.3183 -0.1827
 7865SOL     OW25794   2.749   5.581   5.217  0.2849 -0.6486  0.5507
 7865SOL    HW125795   2.823   5.565   5.158  2.3649 -1.1281  3.1041
 7865SOL    HW225796   2.785   5.566   5.305 -1.6672  3.1572  2.2579
 7866SOL     OW25797   1.520   4.215   1.447  0.4279 -0.2055  0.1190
 7866SOL    HW125798   1.514   4.133   1.398  1.0628  0.9699 -2.0851
 7866SOL    HW225799   1.440   4.219   1.498 -0.1707 -1.6388 -0.6562
 7867SOL     OW25800   7.503   0.086   6.586  0.7124 -0.3050  0.5216
 7867SOL    HW125801   7.468   0.175   6.580  1.3551 -0.0039  1.0973
 7867SOL    HW225802   7.595   0.095   6.562  0.5993 -0.9527 -0.1904
 7868SOL     OW25803   5.415   2.737   0.946 -0.4941  0.1513 -0.1525
 7868SOL    HW125804   5.395   2.687   1.025  3.1419 -2.7026 -0.7582
 7868SOL    HW225805   5.466   2.812   0.977 -0.3907 -0.1111  0.3175
 7869SOL     OW25806   7.114   6.096   9.557 -0.4270  0.2845 -0.2671
 7869SOL    HW125807   7.106   6.154   9.633  0.8339 -0.3835  0.4070
 7869SOL    HW225808   7.026   6.061   9.544 -0.5037 -0.2047  1.3958
 7870SOL     OW25809   8.212   5.662   0.519 -0.4578  0.2603  0.5265
 7870SOL    HW125810   8.274   5.608   0.469  1.3415  2.1546  0.5481
 7870SOL    HW225811   8.268   5.711   0.579 -2.0736  1.6723  0.9302
 7871SOL     OW25812   7.413   5.297   6.913 -0.0899  0.0285 -0.2977
 7871SOL    HW125813   7.485   5.289   6.851 -1.3260  2.8802 -2.3129
 7871SOL    HW225814   7.334   5.291   6.860 -1.2838  0.3234  1.3485
 7872SOL     OW25815   1.624   7.901   2.686 -0.4848  0.1391  0.4088
 7872SOL    HW125816   1.556   7.949   2.640  0.3845  1.3026  0.2967
 7872SOL    HW225817   1.701   7.908   2.630 -0.0207 -0.3909  0.9574
 7873SOL     OW25818   6.833   1.635   9.238  0.6232  0.2508  0.3028
 7873SOL    HW125819   6.823   1.595   9.151 -0.6072  1.7017 -0.2687
 7873SOL    HW225820   6.809   1.566   9.299 -1.1794 -0.0029 -0.6263
 7874SOL     OW25821   7.297   9.180   7.335 -0.4431 -0.2315 -0.0555
 7874SOL    HW125822   7.237   9.223   7.274 -0.3081  0.2819  0.1658
 7874SOL    HW225823   7.354   9.126   7.280 -0.8038 -0.3541 -0.3089
 7875SOL     OW25824   0.392   2.996   4.878  0.0539 -0.2118  0.1016
 7875SOL    HW125825   0.455   2.975   4.947 -0.8956 -2.2175  0.4370
 7875SOL    HW225826   0.395   3.091   4.870  2.3981 -0.1887  0.7676
 7876SOL     OW25827   4.317   1.896   1.331 -0.6002  0.5952  0.2064
 7876SOL    HW125828   4.241   1.951   1.348 -1.3550 -0.1569 -0.6997
 7876SOL    HW225829   4.376   1.914   1.405 -1.0540  2.1871  0.2224
 7877SOL     OW25830   9.537   3.215   5.790  0.5910  0.1262 -0.9580
 7877SOL    HW125831   9.537   3.196   5.883  1.8641  1.0177 -0.7556
 7877SOL    HW225832   9.451   3.252   5.773  0.3752  0.0230 -0.1219
 7878SOL     OW25833   6.309   5.988   8.509  0.0710  0.5310 -0.0856
 7878SOL    HW125834   6.322   5.893   8.506 -0.5120  0.4717 -0.8388
 7878SOL    HW225835   6.382   6.019   8.563  0.1339 -0.3616  0.3768
 7879SOL     OW25836   5.289   0.238   7.151  0.7589 -0.8115  0.2944
 7879SOL    HW125837   5.317   0.168   7.211  1.4991  0.6671  1.7724
 7879SOL    HW225838   5.356   0.239   7.082  0.0262 -2.3843 -0.4906
 7880SOL     OW25839   6.731   7.611   7.487  0.3861 -0.3288 -0.3564
 7880SOL    HW125840   6.821   7.632   7.510  0.0394 -1.0738  1.9503
 7880SOL    HW225841   6.725   7.516   7.495 -0.9776 -0.1627  1.2521
 7881SOL     OW25842   9.141   7.879   0.476 -0.1998 -0.4268  0.6558
 7881SOL    HW125843   9.082   7.856   0.548 -2.9175  2.1810 -0.5342
 7881SOL    HW225844   9.181   7.961   0.504  0.9527 -0.8575  0.3360
 7882SOL     OW25845   6.742   3.320   8.934 -0.3751  0.1010 -0.1606
 7882SOL    HW125846   6.674   3.255   8.954  0.8344 -0.8480  1.0779
 7882SOL    HW225847   6.716   3.397   8.985 -1.7310  0.6005 -1.5125
 7883SOL     OW25848   9.578   3.491   5.550 -0.4393 -0.0531 -0.1168
 7883SOL    HW125849   9.636   3.447   5.612  0.0508 -1.5380 -1.5727
 7883SOL    HW225850   9.546   3.568   5.598  2.4038  0.6337  0.8703
 7884SOL     OW25851   2.833   7.323   4.706 -0.4180 -0.8985  0.4852
 7884SOL    HW125852   2.867   7.372   4.631  0.8491  1.2539  2.3319
 7884SOL    HW225853   2.750   7.367   4.727 -0.6957 -1.3958  0.4261
 7885SOL     OW25854   0.674   2.582   7.593 -0.6609 -0.2670  0.4551
 7885SOL    HW125855   0.632   2.499   7.572 -1.6793  0.7115 -1.6944
 7885SOL    HW225856   0.697   2.575   7.686 -2.7756 -2.0632  0.9197
 7886SOL     OW25857   4.309   2.225   2.451 -0.0687 -0.5608  0.4439
 7886SOL    HW125858   4.334   2.141   2.412 -0.0382 -0.5076  0.3476
 7886SOL    HW225859   4.223   2.244   2.413 -0.6378 -1.1504  1.4139
 7887SOL     OW25860   8.629   2.846   5.219  0.6432  0.2652  0.5464
 7887SOL    HW125861   8.705   2.823   5.166 -0.9139  0.1452 -1.7645
 7887SOL    HW225862   8.649   2.933   5.253  1.7550  0.2815 -0.0812
 7888SOL     OW25863   1.379   6.702   4.693 -0.6211 -0.4988 -0.1293
 7888SOL    HW125864   1.379   6.673   4.602  2.0882 -1.3517  0.0703
 7888SOL    HW225865   1.360   6.623   4.744 -0.3648 -0.4063  0.1129
 7889SOL     OW25866   7.862   8.215   5.502  0.1839 -0.6898  0.4991
 7889SOL    HW125867   7.899   8.206   5.589 -0.3190 -1.5137  0.6377
 7889SOL    HW225868   7.809   8.295   5.506  0.2645 -0.6590  0.9091
 7890SOL     OW25869   3.448   8.296   5.436 -0.3364 -0.1221 -0.4532
 7890SOL    HW125870   3.403   8.272   5.355  0.4128 -0.6573 -0.7134
 7890SOL    HW225871   3.483   8.214   5.470  1.5585  0.4592 -0.9204
 7891SOL     OW25872   0.736   4.546   8.923 -0.2063 -0.2611  0.6230
 7891SOL    HW125873   0.826   4.515   8.910 -0.4477 -0.8831  0.3807
 7891SOL    HW225874   0.738   4.589   9.008  0.7549  1.3764 -0.1788
 7892SOL     OW25875   9.123   0.370   0.505 -0.2478  0.3229 -0.5110
 7892SOL    HW125876   9.145   0.278   0.501 -0.5611  0.2231 -0.0560
 7892SOL    HW225877   9.049   0.375   0.567  1.1275  1.1155  1.1598
 7893SOL     OW25878   7.169   2.921   6.669  0.9584  0.0149 -0.6232
 7893SOL    HW125879   7.137   2.833   6.649 -2.6753  0.6593  1.5198
 7893SOL    HW225880   7.153   2.972   6.589  1.1794 -0.7805 -1.1857
 7894SOL     OW25881   0.167   3.382   0.404  0.3259  0.5107 -0.2433
 7894SOL    HW125882   0.231   3.440   0.446  0.8162  1.5680 -2.2980
 7894SOL    HW225883   0.220   3.322   0.351 -0.2935 -0.1611 -0.1182
 7895SOL     OW25884   4.159   8.509   0.681 -0.3144  0.2015  0.3667
 7895SOL    HW125885   4.253   8.526   0.682 -0.1586 -0.6382  0.3948
 7895SOL    HW225886   4.125   8.565   0.611  0.1706  0.6358  0.4696
 7896SOL     OW25887   8.174   0.574   7.445 -0.0525 -0.4117 -0.0408
 7896SOL    HW125888   8.106   0.527   7.395  1.2776 -0.8858 -1.4964
 7896SOL    HW225889   8.256   0.531   7.419  0.8363  0.2776  1.5166
 7897SOL     OW25890   6.070   9.328   2.104 -0.8702  0.2612 -0.0065
 7897SOL    HW125891   6.124   9.366   2.034  0.1358 -0.7863  0.1695
 7897SOL    HW225892   6.092   9.235   2.104 -3.2745 -0.3745 -0.4230
 7898SOL     OW25893   2.382   0.916   0.972 -0.1896 -0.3106  0.2215
 7898SOL    HW125894   2.424   0.833   0.948 -2.1608 -1.0508 -0.9139
 7898SOL    HW225895   2.413   0.979   0.907  2.2470  0.2203  1.7836
 7899SOL     OW25896   3.443   4.648   3.659  0.3090  0.5765  0.3400
 7899SOL    HW125897   3.520   4.597   3.633 -1.4832 -3.2129  1.8345
 7899SOL    HW225898   3.431   4.627   3.752 -2.6966  0.7633  0.0756
 7900SOL     OW25899   6.328   4.788   3.243  0.2214 -0.3370  0.4623
 7900SOL    HW125900   6.394   4.723   3.267  0.9893  0.1465 -0.2420
 7900SOL    HW225901   6.346   4.807   3.151  0.4713  1.3631  0.8192
 7901SOL     OW25902   3.166   0.954   9.097 -0.1435 -0.8599 -0.3063
 7901SOL    HW125903   3.125   1.035   9.127 -0.1909 -0.6420 -0.9467
 7901SOL    HW225904   3.211   0.920   9.175 -0.4886 -0.4504  0.0779
 7902SOL     OW25905   6.641   2.371   4.437  0.2663  0.0791  0.5499
 7902SOL    HW125906   6.732   2.381   4.464 -0.1820  1.4724  1.6581
 7902SOL    HW225907   6.634   2.420   4.356  0.6059 -0.4793  0.1729
 7903SOL     OW25908   8.925   7.438   6.199  0.1469 -0.6139  0.2545
 7903SOL    HW125909   8.840   7.418   6.159  1.5988 -0.9322 -2.9715
 7903SOL    HW225910   8.986   7.375   6.160  2.4455  1.6290 -0.0883
 7904SOL     OW25911   0.213   8.581   2.938  0.0161  0.1007  0.2005
 7904SOL    HW125912   0.267   8.512   2.900 -0.5029  0.3373 -1.0298
 7904SOL    HW225913   0.142   8.593   2.875 -1.1737  0.1801  1.5110
 7905SOL     OW25914   1.942   2.806   8.985  0.4439 -0.1199  0.1987
 7905SOL    HW125915   1.857   2.765   9.004  1.0275 -0.6969  1.7196
 7905SOL    HW225916   1.937   2.828   8.892 -2.4034  2.2515  0.7410
 7906SOL     OW25917   5.911   8.111   3.510  0.1528 -0.5109 -0.3209
 7906SOL    HW125918   5.969   8.035   3.508  0.0751 -0.5851  0.2788
 7906SOL    HW225919   5.942   8.164   3.583 -0.3084 -0.3695 -0.2243
 7907SOL     OW25920   7.409   1.671   2.529  0.1817  0.3456  0.2316
 7907SOL    HW125921   7.381   1.581   2.543  0.8639  0.4674  2.9881
 7907SOL    HW225922   7.333   1.724   2.553  0.2034  0.5465 -0.1251
 7908SOL     OW25923   1.764   2.790   1.554  0.3462  0.1261 -0.3417
 7908SOL    HW125924   1.803   2.706   1.528  0.0003  0.1671 -1.0006
 7908SOL    HW225925   1.839   2.845   1.574  0.5695 -0.5431  0.7754
 7909SOL     OW25926   9.186   4.041   9.082  0.6588  0.7490 -0.3721
 7909SOL    HW125927   9.117   4.054   9.017 -0.0882  0.0645  0.2602
 7909SOL    HW225928   9.230   3.960   9.055  0.6394  0.7049 -0.2705
 7910SOL     OW25929   3.616   7.380   8.299 -0.6242 -0.0893 -0.3436
 7910SOL    HW125930   3.669   7.406   8.225  1.0651  1.1098  1.2124
 7910SOL    HW225931   3.631   7.286   8.307 -1.1690 -0.3185 -1.7319
 7911SOL     OW25932   1.587   2.432   9.364 -0.1436 -0.1003  0.5488
 7911SOL    HW125933   1.532   2.432   9.443 -0.9783  2.7700  0.0663
 7911SOL    HW225934   1.673   2.459   9.394 -0.3797  0.6735  0.5426
 7912SOL     OW25935   7.220   8.775   8.910  0.4092  0.4754  0.0222
 7912SOL    HW125936   7.219   8.722   8.990  2.2154  1.0554  0.4644
 7912SOL    HW225937   7.303   8.753   8.867 -0.8824 -0.4478 -2.1757
 7913SOL     OW25938   2.461   1.755   8.517 -0.3711 -0.0926 -0.0933
 7913SOL    HW125939   2.482   1.665   8.491 -0.0612 -0.3554  1.0148
 7913SOL    HW225940   2.524   1.809   8.470  1.4143 -0.7040  1.4401
 7914SOL     OW25941   6.248   5.397   0.790 -0.0983 -1.2351  0.2774
 7914SOL    HW125942   6.310   5.470   0.786 -0.8635 -0.6072 -0.2811
 7914SOL    HW225943   6.240   5.378   0.884  1.3890 -1.7388  0.3358
 7915SOL     OW25944   6.820   6.814   3.220 -0.0809  0.7458 -0.1737
 7915SOL    HW125945   6.853   6.900   3.245  3.0271 -0.5054  0.4910
 7915SOL    HW225946   6.869   6.792   3.141  0.8487 -1.2847  0.8974
 7916SOL     OW25947   4.339   7.093   3.516 -0.1980  0.0598 -0.5892
 7916SOL    HW125948   4.374   7.166   3.464  0.2532  0.4730  0.2791
 7916SOL    HW225949   4.391   7.093   3.596 -0.4710 -0.9615 -0.3899
 7917SOL     OW25950   2.500   2.736   7.458 -0.2400  0.0514 -0.0073
 7917SOL    HW125951   2.529   2.645   7.453 -2.6762 -0.8330  0.6221
 7917SOL    HW225952   2.581   2.788   7.453  1.1075 -2.0644 -1.8069
 7918SOL     OW25953   2.214   2.261   9.072  0.1188  0.1924 -0.7654
 7918SOL    HW125954   2.150   2.193   9.054  0.6494 -0.8073  0.9291
 7918SOL    HW225955   2.163   2.331   9.113  0.0355 -0.5029  0.3644
 7919SOL     OW25956   8.251   9.177   1.021 -0.6376 -0.2130  0.1739
 7919SOL    HW125957   8.195   9.147   1.093 -1.0846 -0.8697 -0.4331
 7919SOL    HW225958   8.201   9.155   0.942 -0.0912  0.3765 -0.3408
 7920SOL     OW25959   9.002   8.220   7.421  0.1686 -0.5390  0.0169
 7920SOL    HW125960   8.922   8.243   7.468  0.8717  1.8197  0.1872
 7920SOL    HW225961   8.973   8.199   7.333 -0.6395  0.4335  0.0356
 7921SOL     OW25962   6.042   0.290   7.914 -0.2488 -0.2699  0.2275
 7921SOL    HW125963   6.080   0.378   7.921 -0.6010 -0.2141  1.7095
 7921SOL    HW225964   6.117   0.231   7.918 -0.1199 -0.0769  0.8043
 7922SOL     OW25965   7.121   4.472   2.899  0.1158  0.0488 -0.2050
 7922SOL    HW125966   7.126   4.554   2.849  0.0333 -0.1773 -0.5880
 7922SOL    HW225967   7.153   4.406   2.838  1.4232 -0.0288  0.5265
 7923SOL     OW25968   2.983   4.598   8.182 -1.1945 -0.2618  0.2982
 7923SOL    HW125969   2.891   4.590   8.159 -0.9849  0.8417 -1.1257
 7923SOL    HW225970   3.022   4.644   8.107  0.9630 -2.7228 -0.2354
 7924SOL     OW25971   5.557   6.347   3.028 -0.2896  0.0282  0.2717
 7924SOL    HW125972   5.646   6.339   2.992 -0.6492 -0.9785 -0.4376
 7924SOL    HW225973   5.512   6.405   2.966  0.0904  1.2289  1.0888
 7925SOL     OW25974   1.424   2.253   0.717  0.0687 -0.2331 -0.2164
 7925SOL    HW125975   1.351   2.303   0.680  0.1985 -0.2976 -0.5642
 7925SOL    HW225976   1.501   2.309   0.702  0.2879 -0.7426 -1.0430
 7926SOL     OW25977   8.231   1.229   1.916 -0.0329 -0.4068 -0.5788
 7926SOL    HW125978   8.250   1.139   1.889  0.1300 -0.3044 -0.8052
 7926SOL    HW225979   8.309   1.256   1.964  0.4242  0.0318 -1.5538
 7927SOL     OW25980   8.183   5.640   9.002  0.6063  0.1787 -0.2590
 7927SOL    HW125981   8.136   5.677   8.927 -0.6174  0.5142  0.6428
 7927SOL    HW225982   8.194   5.714   9.062  4.5127  0.7288 -1.4258
 7928SOL     OW25983   0.147   1.903   2.191  0.0548 -0.3137  0.0828
 7928SOL    HW125984   0.232   1.902   2.234  0.0471  0.3558  0.1221
 7928SOL    HW225985   0.131   1.995   2.172  1.4338 -0.7117 -4.0306
 7929SOL     OW25986   8.718   6.371   4.823 -0.5419  0.0657 -0.4067
 7929SOL    HW125987   8.661   6.433   4.868 -0.2518 -1.0663  1.5965
 7929SOL    HW225988   8.664   6.294   4.808  0.0673 -0.5311  0.3528
 7930SOL     OW25989   3.363   1.890   4.498 -0.4347 -0.2933  0.6709
 7930SOL    HW125990   3.283   1.933   4.529 -0.2549  1.0366 -0.5809
 7930SOL    HW225991   3.434   1.940   4.539 -0.2402 -0.6785  0.8028
 7931SOL     OW25992   9.217   5.621   5.668 -0.0572 -0.0134  0.4197
 7931SOL    HW125993   9.268   5.623   5.749 -0.7387  0.8376  0.8323
 7931SOL    HW225994   9.259   5.552   5.616  1.4065  0.5309  0.8251
 7932SOL     OW25995   6.953   5.156   6.607  0.3197 -0.1071 -1.0063
 7932SOL    HW125996   6.896   5.232   6.611 -1.0149 -0.8830 -3.2953
 7932SOL    HW225997   6.901   5.085   6.645  0.9178 -0.2089 -0.3719
 7933SOL     OW25998   2.165   4.546   6.049 -0.4753  0.1186  0.6469
 7933SOL    HW125999   2.112   4.592   5.984 -0.2327 -1.9613 -1.1152
 7933SOL    HW226000   2.111   4.470   6.074  0.4534 -0.4347  1.0110
 7934SOL     OW26001   9.142   8.709   0.518  0.0888  0.3405 -0.0068
 7934SOL    HW126002   9.172   8.627   0.479 -0.9913 -1.7266  3.1331
 7934SOL    HW226003   9.048   8.698   0.528  0.0748  1.4879  1.4523
 7935SOL     OW26004   6.940   0.057   9.318  0.5915  0.1433  0.3173
 7935SOL    HW126005   6.982   0.001   9.383  1.6095  0.6475  0.1130
 7935SOL    HW226006   6.847   0.031   9.320  0.8377 -0.7292  1.0438
 7936SOL     OW26007   6.692   7.267   4.367  0.1259  0.2396 -0.5876
 7936SOL    HW126008   6.618   7.329   4.368  0.0618  0.1987  1.8087
 7936SOL    HW226009   6.770   7.323   4.365  0.0632  0.4617  1.3377
 7937SOL     OW26010   4.376   8.178   3.524 -0.4266  0.2989  0.5916
 7937SOL    HW126011   4.327   8.259   3.535 -1.3367  0.1381 -1.7969
 7937SOL    HW226012   4.438   8.196   3.453 -0.4719 -0.9990  0.1942
 7938SOL     OW26013   5.384   8.318   0.987 -0.0159  0.5789  0.4980
 7938SOL    HW126014   5.361   8.245   0.930  0.2235  1.6476 -1.0454
 7938SOL    HW226015   5.354   8.292   1.074  1.1208 -1.8296  0.2344
 7939SOL     OW26016   9.099   9.507   3.547  0.4116 -0.5004 -0.1394
 7939SOL    HW126017   9.070   9.466   3.629 -0.8677 -1.9110 -1.2501
 7939SOL    HW226018   9.115   9.598   3.571 -0.3395 -0.7728  1.5976
 7940SOL     OW26019   7.257   3.422   5.980  0.0912 -0.1648 -0.0003
 7940SOL    HW126020   7.287   3.508   6.008  1.9880 -0.4354 -0.9828
 7940SOL    HW226021   7.247   3.429   5.885  1.4190 -1.2743 -0.2722
 7941SOL     OW26022   3.766   1.894   8.761  0.1922  0.6319  0.3875
 7941SOL    HW126023   3.779   1.910   8.668 -0.7190 -0.6969 -0.0069
 7941SOL    HW226024   3.808   1.810   8.777 -1.4119 -0.1682  0.6786
 7942SOL     OW26025   3.395   3.910   3.810 -0.3731 -0.2457  0.6762
 7942SOL    HW126026   3.303   3.885   3.814  0.5044 -4.0982 -0.1510
 7942SOL    HW226027   3.443   3.831   3.831  2.8302  1.6667  1.2556
 7943SOL     OW26028   0.447   7.287   0.345 -0.5137  0.1439  0.1453
 7943SOL    HW126029   0.461   7.382   0.343  0.3621  0.0182 -0.2961
 7943SOL    HW226030   0.418   7.266   0.256 -0.9081  0.0143  0.2989
 7944SOL     OW26031   0.732   1.253   7.169  0.0396 -0.2060 -0.2088
 7944SOL    HW126032   0.675   1.226   7.241  0.8251  0.7077  0.7951
 7944SOL    HW226033   0.744   1.174   7.116 -1.1187 -0.7218  0.2692
 7945SOL     OW26034   3.993   9.326   8.876  0.2397  0.2143  0.0644
 7945SOL    HW126035   3.955   9.262   8.816 -1.7293  1.4285 -0.0659
 7945SOL    HW226036   4.058   9.373   8.823 -0.0163 -0.0801 -0.5169
 7946SOL     OW26037   3.746   7.145   3.921 -0.2594  0.0574 -0.5764
 7946SOL    HW126038   3.662   7.189   3.934 -1.1372 -2.3754  4.0850
 7946SOL    HW226039   3.810   7.216   3.924 -1.9042  1.6084  1.0361
 7947SOL     OW26040   1.689   4.190   4.848 -0.5628  0.7945 -0.2750
 7947SOL    HW126041   1.705   4.108   4.802 -1.1590  0.7565 -0.4272
 7947SOL    HW226042   1.687   4.256   4.779  0.5391  1.0342 -0.0884
 7948SOL     OW26043   2.782   8.433   8.987 -0.4656  0.5226 -0.0854
 7948SOL    HW126044   2.789   8.477   9.071  1.7341  0.5452 -0.2398
 7948SOL    HW226045   2.812   8.498   8.923  0.2877 -0.3143 -0.5999
 7949SOL     OW26046   1.331   7.397   8.645  0.5459  0.5847 -0.7258
 7949SOL    HW126047   1.394   7.431   8.582 -0.0123 -1.6214 -2.6291
 7949SOL    HW226048   1.250   7.444   8.625  0.6410  0.6725 -0.9072
 7950SOL     OW26049   9.117   0.565   2.930 -0.1785 -0.1344 -0.1061
 7950SOL    HW126050   9.120   0.473   2.955  1.4192  0.0838  0.6851
 7950SOL    HW226051   9.169   0.570   2.849  1.1747  0.2710  0.7430
 7951SOL     OW26052   6.976   0.692   4.251  0.0406  0.3768 -0.1306
 7951SOL    HW126053   7.014   0.683   4.338  1.5110  0.7448 -0.7156
 7951SOL    HW226054   6.884   0.713   4.268  0.0538 -0.6068  1.3120
 7952SOL     OW26055   4.194   3.790   0.415 -0.7499 -0.0793  0.3952
 7952SOL    HW126056   4.259   3.720   0.417  0.0042  0.6067  0.1587
 7952SOL    HW226057   4.227   3.856   0.475 -0.3924  0.9943 -0.9527
 7953SOL     OW26058   0.703   3.127   0.496  0.9241  0.1486 -0.0001
 7953SOL    HW126059   0.745   3.086   0.572  1.7371  1.3559  0.2456
 7953SOL    HW226060   0.610   3.126   0.516  0.9149 -1.5794 -0.0327
 7954SOL     OW26061   9.164   2.396   5.697  0.1476  0.0853 -0.7400
 7954SOL    HW126062   9.155   2.401   5.602  0.5326 -1.0985 -0.8477
 7954SOL    HW226063   9.144   2.485   5.727 -1.2143  0.1896 -1.8182
 7955SOL     OW26064   2.032   5.090   5.993 -0.1773  0.3647 -0.3342
 7955SOL    HW126065   2.056   5.140   6.071  1.4359  0.2916 -0.7321
 7955SOL    HW226066   2.056   5.000   6.015  0.1754  0.3275 -0.8536
 7956SOL     OW26067   7.087   7.054   0.483 -0.6573  0.3580 -0.1215
 7956SOL    HW126068   7.059   7.003   0.407  3.3197  1.4286 -2.6018
 7956SOL    HW226069   7.052   7.142   0.468 -0.8198  0.2942 -0.1157
 7957SOL     OW26070   0.230   2.145   8.957 -0.0596  0.2793  0.1032
 7957SOL    HW126071   0.200   2.085   8.889  0.3448  0.7578 -0.5062
 7957SOL    HW226072   0.167   2.134   9.028  0.7323 -1.8370  0.5636
 7958SOL     OW26073   4.467   4.277   8.361 -0.4121 -0.0916  0.4057
 7958SOL    HW126074   4.533   4.324   8.411  1.3871  2.2874 -3.7266
 7958SOL    HW226075   4.509   4.194   8.338 -0.2185 -0.0482  0.6010
 7959SOL     OW26076   1.091   0.845   8.846  0.1058  0.0166  0.1956
 7959SOL    HW126077   1.172   0.821   8.891  2.0749  2.1043 -1.9379
 7959SOL    HW226078   1.117   0.857   8.754 -2.4446  1.6422 -0.4256
 7960SOL     OW26079   0.635   5.702   3.099 -0.2169  0.3807  0.0557
 7960SOL    HW126080   0.705   5.741   3.152  0.4178  2.9926 -2.4375
 7960SOL    HW226081   0.565   5.768   3.100 -0.2672  0.4235 -2.0894
 7961SOL     OW26082   8.911   1.825   0.908  0.4893 -0.0116 -0.6450
 7961SOL    HW126083   8.832   1.802   0.860  0.5701  0.1014 -0.8310
 7961SOL    HW226084   8.960   1.743   0.915 -1.0381 -0.8080  2.1197
 7962SOL     OW26085   6.846   4.583   8.309 -0.6279 -0.1374  0.3875
 7962SOL    HW126086   6.910   4.554   8.374 -0.7788 -0.3077  0.4629
 7962SOL    HW226087   6.810   4.664   8.345 -1.2122 -0.5935  0.8592
 7963SOL     OW26088   0.534   1.624   4.156  0.5188  0.8147  0.0297
 7963SOL    HW126089   0.444   1.642   4.129  0.4965 -0.4388 -0.7905
 7963SOL    HW226090   0.588   1.658   4.085  0.5325 -0.9938 -0.8870
 7964SOL     OW26091   4.739   1.704   7.913  0.0828 -0.3360  0.0501
 7964SOL    HW126092   4.762   1.790   7.949 -1.6704  0.4809 -0.6764
 7964SOL    HW226093   4.814   1.681   7.858 -0.8130  2.4510 -2.6234
 7965SOL     OW26094   4.269   3.161   5.893  0.5071  0.5036  0.0396
 7965SOL    HW126095   4.264   3.202   5.806  0.4622 -0.7942 -0.5929
 7965SOL    HW226096   4.360   3.171   5.919  0.5985  0.6056 -0.3099
 7966SOL     OW26097   2.508   6.202   1.423 -0.0437  0.1859 -0.3270
 7966SOL    HW126098   2.446   6.255   1.372 -0.2501 -0.6685 -0.9825
 7966SOL    HW226099   2.464   6.188   1.507 -0.6934 -0.2966 -0.7376
 7967SOL     OW26100   2.460   2.432   4.686 -0.3025 -0.0618 -0.2141
 7967SOL    HW126101   2.478   2.338   4.689 -0.4374 -0.0659  0.5177
 7967SOL    HW226102   2.399   2.443   4.613  0.7307 -0.3641 -1.1626
 7968SOL     OW26103   1.500   7.705   0.268 -0.0457  0.4573 -0.5610
 7968SOL    HW126104   1.579   7.701   0.214  0.5783  0.6490  0.3169
 7968SOL    HW226105   1.436   7.750   0.214  0.5487  0.5939 -1.1585
 7969SOL     OW26106   3.882   7.965   2.936 -0.2345  0.3732  0.1007
 7969SOL    HW126107   3.815   8.033   2.943  0.7308  1.3959 -0.2979
 7969SOL    HW226108   3.846   7.902   2.874 -2.1573 -0.7469  2.1933
 7970SOL     OW26109   2.671   9.026   0.053  0.3159 -0.1569  0.2345
 7970SOL    HW126110   2.580   9.054   0.062 -0.3209 -2.3481  1.3897
 7970SOL    HW226111   2.681   9.007  -0.040 -0.4252  0.0827  0.0983
 7971SOL     OW26112   4.849   4.307   1.686 -0.4142  0.0852 -0.3978
 7971SOL    HW126113   4.772   4.301   1.744 -0.7994  0.6732 -0.8356
 7971SOL    HW226114   4.921   4.271   1.739 -0.3818  2.2353  1.1576
 7972SOL     OW26115   0.377   3.252   4.803  0.3099  0.4858 -0.3106
 7972SOL    HW126116   0.305   3.303   4.839 -0.8178 -0.5544 -1.0011
 7972SOL    HW226117   0.409   3.302   4.729 -1.9449 -0.5442 -2.0816
 7973SOL     OW26118   6.372   4.521   2.249 -0.0278  0.4039  0.1930
 7973SOL    HW126119   6.427   4.553   2.177 -0.0712 -0.3831 -0.2026
 7973SOL    HW226120   6.356   4.598   2.303 -0.9550  1.2820 -1.2632
 7974SOL     OW26121   6.384   3.585   9.091 -0.1057 -0.3774 -0.0748
 7974SOL    HW126122   6.418   3.664   9.048  0.5935  0.0588  1.2211
 7974SOL    HW226123   6.297   3.574   9.054  0.9499 -0.8454 -2.6265
 7975SOL     OW26124   5.078   5.975   8.525 -0.1306 -0.3176 -0.3988
 7975SOL    HW126125   5.009   6.018   8.575  0.8942  1.6198 -0.5483
 7975SOL    HW226126   5.066   6.007   8.436  2.0918  1.6974 -0.0757
 7976SOL     OW26127   6.823   8.017   6.665  0.7296 -0.3566 -0.3900
 7976SOL    HW126128   6.790   8.056   6.584  1.2890 -0.9665 -0.9246
 7976SOL    HW226129   6.747   8.013   6.722 -0.2057 -1.8140 -1.6299
 7977SOL     OW26130   7.966   3.630   8.630  0.3565 -0.4568 -0.1938
 7977SOL    HW126131   8.041   3.571   8.619  1.9272  1.4219 -0.1002
 7977SOL    HW226132   7.944   3.657   8.541  0.6053 -0.0726 -0.1437
 7978SOL     OW26133   6.758   1.649   6.168 -0.4623 -0.7484 -0.2541
 7978SOL    HW126134   6.689   1.617   6.110  0.3233  1.8355 -2.8531
 7978SOL    HW226135   6.840   1.619   6.128  0.0654  0.2621  0.0177
 7979SOL     OW26136   4.240   0.662   3.401 -0.2404 -0.0752  0.4934
 7979SOL    HW126137   4.155   0.708   3.404 -0.4361 -0.0928 -2.2521
 7979SOL    HW226138   4.302   0.726   3.436 -1.1484  0.5440  1.0452
 7980SOL     OW26139   4.360   1.964   7.351 -0.3894  0.2569  0.3940
 7980SOL    HW126140   4.356   2.017   7.272 -1.5618 -1.0320 -0.4398
 7980SOL    HW226141   4.453   1.949   7.365 -0.1597  0.6182 -0.6596
 7981SOL     OW26142   6.244   7.868   8.975  0.0768 -0.2689  0.3379
 7981SOL    HW126143   6.281   7.952   8.949  0.5634 -0.4748  0.3393
 7981SOL    HW226144   6.218   7.827   8.892  0.6720 -0.4892  0.2516
 7982SOL     OW26145   9.220   2.634   4.948 -0.0644  0.2815 -0.1137
 7982SOL    HW126146   9.126   2.652   4.938 -0.5551 -1.7124  0.3744
 7982SOL    HW226147   9.236   2.638   5.042  0.6267  1.7102 -0.2639
 7983SOL     OW26148   2.009   9.195   5.673 -0.0527  0.6938  0.2302
 7983SOL    HW126149   1.957   9.122   5.708  0.5115  0.5006  0.6800
 7983SOL    HW226150   2.100   9.172   5.693  0.2247  0.9547 -0.6882
 7984SOL     OW26151   2.085   4.733   0.956  0.1473 -0.2797  0.2847
 7984SOL    HW126152   2.133   4.724   0.874 -1.9181  0.5591 -1.1075
 7984SOL    HW226153   2.042   4.648   0.969 -0.6739  0.0263 -0.3189
 7985SOL     OW26154   4.886   2.554   6.269  0.7468  0.4669 -0.7632
 7985SOL    HW126155   4.974   2.551   6.234  0.0074  0.0950 -2.7344
 7985SOL    HW226156   4.872   2.646   6.292  1.2392  0.7556 -1.5733
 7986SOL     OW26157   1.785   5.354   5.416  1.1528 -0.0828 -0.4221
 7986SOL    HW126158   1.869   5.370   5.460  1.2109 -2.6353  0.5407
 7986SOL    HW226159   1.801   5.278   5.360  0.0979  0.9338 -2.2020
 7987SOL     OW26160   7.131   0.578   8.430 -0.2318 -0.4885 -0.5499
 7987SOL    HW126161   7.121   0.671   8.411 -2.0690 -1.2659 -4.2048
 7987SOL    HW226162   7.202   0.549   8.373 -1.7468 -1.8116 -1.8693
 7988SOL     OW26163   6.937   4.905   4.220  0.1540  0.8099  0.1174
 7988SOL    HW126164   6.892   4.870   4.297  1.0887  1.7559  1.1140
 7988SOL    HW226165   6.983   4.830   4.182 -0.2512  0.3579  0.5111
 7989SOL     OW26166   7.195   1.761   2.717  0.5990  0.2436  0.0476
 7989SOL    HW126167   7.185   1.854   2.737 -0.6949  0.5385 -1.6879
 7989SOL    HW226168   7.246   1.726   2.789  0.6945  2.2038  0.9948
 7990SOL     OW26169   9.077   5.716   3.150  0.7418  0.1246  0.1461
 7990SOL    HW126170   9.107   5.764   3.073 -0.7797  0.8364 -0.0423
 7990SOL    HW226171   9.061   5.783   3.216 -0.2475 -0.2170  0.2775
 7991SOL     OW26172   3.137   7.282   7.815 -0.2480 -0.4335 -0.0784
 7991SOL    HW126173   3.103   7.225   7.746 -0.7390 -0.0392 -0.1705
 7991SOL    HW226174   3.061   7.300   7.870 -0.6409  1.8618 -1.2596
 7992SOL     OW26175   3.919   3.625   2.519 -0.1873 -0.4929 -0.2759
 7992SOL    HW126176   3.936   3.618   2.425  0.9450 -1.6754 -0.0171
 7992SOL    HW226177   3.962   3.707   2.544  1.3618 -1.1977 -0.4602
 7993SOL     OW26178   8.164   9.231   7.147 -0.1133 -0.9285 -0.6292
 7993SOL    HW126179   8.222   9.194   7.214  2.0577  1.6919 -0.8870
 7993SOL    HW226180   8.218   9.234   7.068 -1.1031  0.1736 -1.2962
 7994SOL     OW26181   6.004   1.185   3.848 -0.1009 -0.2308 -0.5217
 7994SOL    HW126182   6.034   1.276   3.836  0.2611 -0.5761 -2.7091
 7994SOL    HW226183   6.053   1.136   3.782  0.3434 -2.1953  1.1790
 7995SOL     OW26184   0.386   6.528   1.409 -0.0604 -0.3383  0.1046
 7995SOL    HW126185   0.398   6.546   1.503 -1.1292 -1.7324  0.5465
 7995SOL    HW226186   0.315   6.464   1.406 -0.7943  0.4922 -1.7466
 7996SOL     OW26187   7.872   2.064   6.891  0.1790 -0.4229 -0.3566
 7996SOL    HW126188   7.912   2.064   6.977  0.7465 -0.2494 -0.6164
 7996SOL    HW226189   7.920   1.997   6.842  1.8436  1.4338 -1.4192
 7997SOL     OW26190   4.573   5.622   6.547 -0.5591 -0.6845 -0.2032
 7997SOL    HW126191   4.485   5.608   6.583 -1.6407 -0.5117 -2.5542
 7997SOL    HW226192   4.595   5.712   6.570 -0.6223 -0.9856  1.0945
 7998SOL     OW26193   8.227   5.168   1.745 -0.5474  0.2466  0.1233
 7998SOL    HW126194   8.231   5.176   1.841  1.3390  0.1506  0.0919
 7998SOL    HW226195   8.270   5.247   1.713 -1.6165  0.5197 -0.6842
 7999SOL     OW26196   0.755   2.184   6.321  0.3354  0.2965 -0.1420
 7999SOL    HW126197   0.782   2.129   6.395 -1.4800 -0.9209 -0.3299
 7999SOL    HW226198   0.813   2.157   6.250  0.3008 -0.4601  0.1112
 8000SOL     OW26199   6.828   4.891   8.705  0.0445  0.4229 -0.2778
 8000SOL    HW126200   6.883   4.969   8.708  1.3097 -0.3267 -2.1741
 8000SOL    HW226201   6.865   4.832   8.771  1.6281 -0.0945 -1.5667
 8001SOL     OW26202   3.811   6.645   4.095 -0.2930 -0.5575 -0.4409
 8001SOL    HW126203   3.818   6.665   4.001  0.1045 -1.8893 -0.7093
 8001SOL    HW226204   3.890   6.595   4.115 -0.2870 -0.1312  0.6560
 8002SOL     OW26205   0.433   3.542   9.218  0.2433  0.3935 -0.1181
 8002SOL    HW126206   0.505   3.602   9.238 -0.9605  1.1429  2.4324
 8002SOL    HW226207   0.444   3.471   9.282 -0.9963  0.2810 -0.0194
 8003SOL     OW26208   3.857   0.711   7.803  0.1997 -0.1562 -0.0256
 8003SOL    HW126209   3.894   0.683   7.719 -1.6791  0.8647 -1.2535
 8003SOL    HW226210   3.800   0.639   7.830 -1.5664  0.7330 -1.2106
 8004SOL     OW26211   1.954   1.639   2.122 -0.1713 -0.4766  0.1368
 8004SOL    HW126212   1.899   1.563   2.140 -0.2987 -0.9812 -2.0739
 8004SOL    HW226213   2.037   1.602   2.091 -0.8169  0.1567 -2.6643
 8005SOL     OW26214   2.262   2.028   8.320  0.6778 -0.6403 -0.2287
 8005SOL    HW126215   2.269   1.969   8.244 -0.5171  0.1198 -0.9575
 8005SOL    HW226216   2.223   1.974   8.389  0.3026 -0.9134 -0.6499
 8006SOL     OW26217   3.711   3.788   2.849  0.0519 -0.4442 -0.6000
 8006SOL    HW126218   3.683   3.873   2.883 -1.8584 -1.9658  1.9283
 8006SOL    HW226219   3.697   3.795   2.754 -0.7018  1.7974 -0.3859
 8007SOL     OW26220   7.051   4.738   0.894  0.7920 -0.5437  0.2549
 8007SOL    HW126221   7.024   4.648   0.911 -0.2375 -0.3832 -0.4303
 8007SOL    HW226222   7.114   4.758   0.964 -1.6148 -0.6227  2.6058
 8008SOL     OW26223   5.266   6.376   7.059  0.5577 -0.5784 -0.2483
 8008SOL    HW126224   5.216   6.406   7.135 -0.9694  0.4036 -1.5636
 8008SOL    HW226225   5.352   6.354   7.094  0.2999  1.0139  1.5808
 8009SOL     OW26226   4.428   9.325   2.330  0.0603  0.1088 -0.2840
 8009SOL    HW126227   4.435   9.284   2.416  4.3408 -2.8871 -1.6871
 8009SOL    HW226228   4.377   9.263   2.278 -1.6396  1.4070 -0.2309
 8010SOL     OW26229   6.889   7.422   7.890 -0.3846  0.1103 -0.0857
 8010SOL    HW126230   6.876   7.375   7.973 -3.1232  1.5099  0.3926
 8010SOL    HW226231   6.811   7.401   7.838  0.8006  0.0853 -1.9294
 8011SOL     OW26232   9.297   5.911   6.297 -0.1695  0.3422 -0.0070
 8011SOL    HW126233   9.389   5.905   6.322 -0.4867 -0.3194  1.0347
 8011SOL    HW226234   9.281   5.832   6.246  0.3224  1.4038 -1.9040
 8012SOL     OW26235   9.088   3.454   8.390  0.0061  0.2860  0.0110
 8012SOL    HW126236   9.183   3.464   8.397 -0.1313  2.4590 -0.5590
 8012SOL    HW226237   9.064   3.497   8.308 -1.5944  0.9426  0.7571
 8013SOL     OW26238   4.471   2.979   5.339 -0.6010  0.3567 -0.2690
 8013SOL    HW126239   4.466   2.885   5.327 -0.7615  0.2227  0.7445
 8013SOL    HW226240   4.414   2.997   5.414  0.3273  1.0964  0.2838
 8014SOL     OW26241   2.210   0.017   3.331 -0.6339  0.1721 -0.6806
 8014SOL    HW126242   2.212   0.109   3.356 -0.3564 -0.4651  1.9372
 8014SOL    HW226243   2.286   0.007   3.273  1.4070  0.9902  1.6447
 8015SOL     OW26244   4.088   0.160   2.859 -0.0793 -0.3070  0.2892
 8015SOL    HW126245   3.996   0.183   2.875  0.0045  0.1188  0.1478
 8015SOL    HW226246   4.094   0.151   2.764  0.4029  1.2627  0.1534
 8016SOL     OW26247   7.299   8.991   4.671  0.5225 -0.4483  0.1353
 8016SOL    HW126248   7.226   9.052   4.661  1.1479  0.6336  1.8816
 8016SOL    HW226249   7.354   9.006   4.594 -0.5228 -0.4959 -0.6330
 8017SOL     OW26250   6.032   0.071   9.181  0.5547  0.6521  0.5173
 8017SOL    HW126251   6.005   0.149   9.230  2.6987  1.9430 -0.1819
 8017SOL    HW226252   6.041   0.102   9.091  0.2317 -0.7491 -0.0248
 8018SOL     OW26253   2.327   6.939   9.107  0.2763 -0.1307  0.1459
 8018SOL    HW126254   2.267   6.899   9.044 -0.6301 -1.8319  2.0045
 8018SOL    HW226255   2.277   7.012   9.144 -0.0939 -0.6165  0.6102
 8019SOL     OW26256   3.900   6.613   4.617  0.5976 -0.4067  0.3872
 8019SOL    HW126257   3.854   6.692   4.645 -0.4250 -0.0108 -2.1266
 8019SOL    HW226258   3.855   6.542   4.662 -0.9749  0.1671 -0.2142
 8020SOL     OW26259   8.040   7.302   1.479  0.2987  0.1959  0.8207
 8020SOL    HW126260   8.124   7.319   1.521  0.9029  1.4933 -0.7719
 8020SOL    HW226261   8.036   7.366   1.408 -1.2387 -1.0035 -0.2505
 8021SOL     OW26262   4.766   3.026   3.969 -0.1402  0.2646  0.3907
 8021SOL    HW126263   4.786   3.070   3.887 -1.6602  0.1338 -0.0875
 8021SOL    HW226264   4.745   2.936   3.944  1.9859 -0.5300  1.2492
 8022SOL     OW26265   3.826   5.911   7.570 -0.7049 -0.7800  0.0992
 8022SOL    HW126266   3.800   5.990   7.617 -0.0936 -0.1011 -0.6776
 8022SOL    HW226267   3.803   5.839   7.629 -3.4950 -0.2053 -0.1738
 8023SOL     OW26268   4.256   9.069   4.845 -0.3400 -0.3510 -0.2333
 8023SOL    HW126269   4.265   9.119   4.764 -1.9253 -0.3765 -0.4587
 8023SOL    HW226270   4.296   9.124   4.912  1.6976 -0.6612 -1.1139
 8024SOL     OW26271   0.617   8.683   5.631  0.1292  0.0953 -0.3136
 8024SOL    HW126272   0.574   8.611   5.586 -1.1775  0.3015  0.5538
 8024SOL    HW226273   0.652   8.645   5.711 -0.7116  0.4420  0.2291
 8025SOL     OW26274   3.387   7.836   9.438 -0.1780 -0.0345  0.0510
 8025SOL    HW126275   3.389   7.751   9.481 -0.2867 -0.4442 -0.7189
 8025SOL    HW226276   3.347   7.818   9.352  2.5316  0.1921 -1.3840
 8026SOL     OW26277   0.246   0.080   7.791  0.0426  0.3640  0.2134
 8026SOL    HW126278   0.204   0.064   7.875  0.3235  1.2051  0.5262
 8026SOL    HW226279   0.318   0.017   7.788  0.6667  1.0114  1.0754
 8027SOL     OW26280   3.063   8.082   3.016 -0.1109 -0.0822 -0.1551
 8027SOL    HW126281   3.011   8.121   3.087 -0.1162 -0.3752  0.0032
 8027SOL    HW226282   3.006   8.086   2.940  0.4043  1.5667 -0.5154
 8028SOL     OW26283   8.904   0.612   7.177  0.1208 -0.3230  0.2000
 8028SOL    HW126284   8.873   0.668   7.248 -0.7783 -0.1688 -0.2965
 8028SOL    HW226285   8.999   0.624   7.176 -0.1688  3.0419 -1.3574
 8029SOL     OW26286   7.051   0.871   9.559 -0.3448  0.1529 -0.4572
 8029SOL    HW126287   7.057   0.912   9.473  0.4647  1.2188  0.0745
 8029SOL    HW226288   7.138   0.834   9.574 -1.0492 -1.8558 -0.9233
 8030SOL     OW26289   9.226   1.847   4.267 -0.4735 -0.7284 -0.2126
 8030SOL    HW126290   9.216   1.937   4.297  1.7576  0.2947 -2.2569
 8030SOL    HW226291   9.160   1.837   4.199  0.3924 -0.0288 -1.1778
 8031SOL     OW26292   7.966   6.051   5.763  0.6531 -0.0658  0.3758
 8031SOL    HW126293   7.926   5.996   5.695  0.5715  0.5538 -0.0890
 8031SOL    HW226294   7.912   6.130   5.765  0.6766 -0.0595  1.1481
 8032SOL     OW26295   2.705   0.968   1.046  0.0716  0.0290  0.9004
 8032SOL    HW126296   2.797   0.961   1.072 -0.1673  0.8425  2.0243
 8032SOL    HW226297   2.692   1.061   1.028 -0.1847 -0.2850 -0.6619
 8033SOL     OW26298   6.754   5.833   8.979 -0.2865  0.3952 -0.0304
 8033SOL    HW126299   6.836   5.882   8.984  0.1104 -0.3927  2.1270
 8033SOL    HW226300   6.686   5.900   8.974  0.4237  1.0620 -1.2416
 8034SOL     OW26301   1.964   6.720   6.757 -1.0785 -0.0455 -0.3207
 8034SOL    HW126302   2.051   6.686   6.737 -0.2581  2.3173 -1.0211
 8034SOL    HW226303   1.976   6.772   6.837 -2.4327 -1.7824  1.1081
 8035SOL     OW26304   4.120   6.423   0.680  0.5584 -0.3217  0.5450
 8035SOL    HW126305   4.098   6.449   0.769 -1.1377  0.9843 -0.2075
 8035SOL    HW226306   4.189   6.358   0.691 -0.8072 -1.5056  2.8788
 8036SOL     OW26307   3.615   8.913   3.234  0.0266 -0.3619  0.1092
 8036SOL    HW126308   3.672   8.841   3.208 -1.3733 -1.8516  0.9772
 8036SOL    HW226309   3.598   8.961   3.153  0.7894 -1.1467 -0.5371
 8037SOL     OW26310   9.122   5.861   2.907 -0.2746  0.1578 -0.3553
 8037SOL    HW126311   9.044   5.915   2.892 -0.1365  0.0730 -1.5009
 8037SOL    HW226312   9.128   5.807   2.828  0.7959 -0.0386 -0.1465
 8038SOL     OW26313   1.583   5.370   5.850  0.0263  0.7696  0.1264
 8038SOL    HW126314   1.589   5.434   5.921  0.8350  0.4675  0.3440
 8038SOL    HW226315   1.674   5.350   5.828 -0.1989  1.3839 -1.4811
 8039SOL     OW26316   1.184   0.260   0.046 -0.4679  0.0588  0.1032
 8039SOL    HW126317   1.205   0.175   0.085 -0.7416  0.3253  0.8627
 8039SOL    HW226318   1.263   0.313   0.060 -0.5411  0.1337  0.2365
 8040SOL     OW26319   3.032   4.591   2.462 -0.4643 -0.1239  0.0013
 8040SOL    HW126320   2.972   4.662   2.484  0.4323  0.1357  1.7583
 8040SOL    HW226321   2.976   4.514   2.452 -1.5658  0.9167 -2.8323
 8041SOL     OW26322   9.410   8.441   0.934  0.1576 -0.1589  0.8120
 8041SOL    HW126323   9.453   8.508   0.881 -0.8408  0.3755  0.6630
 8041SOL    HW226324   9.482   8.386   0.966  0.8752  0.2129 -0.1201
 8042SOL     OW26325   0.527   0.224   3.280 -0.3821 -0.5827  0.2280
 8042SOL    HW126326   0.590   0.197   3.214 -1.9148 -0.8952 -1.1768
 8042SOL    HW226327   0.547   0.171   3.357  2.4710  0.9131  0.6487
 8043SOL     OW26328   9.251   9.503   9.461  0.1786 -0.0262 -0.2664
 8043SOL    HW126329   9.185   9.501   9.392 -1.5148 -1.8214  1.2966
 8043SOL    HW226330   9.207   9.544   9.536  0.5387 -1.8005  0.9979
 8044SOL     OW26331   4.055   5.411   6.691 -0.3966  0.6286  0.3460
 8044SOL    HW126332   4.016   5.400   6.604 -1.3327  0.7491  0.7311
 8044SOL    HW226333   4.134   5.462   6.676 -0.5678  0.6830 -0.4322
 8045SOL     OW26334   8.680   0.180   3.627 -0.6145 -0.1793  0.5513
 8045SOL    HW126335   8.768   0.146   3.611 -0.7126  0.0891 -0.6764
 8045SOL    HW226336   8.689   0.275   3.619 -0.9966 -0.1458  0.4695
 8046SOL     OW26337   2.479   4.361   5.774  0.0737 -0.3900  0.3661
 8046SOL    HW126338   2.493   4.437   5.718 -1.4290  0.7072  1.3921
 8046SOL    HW226339   2.503   4.286   5.720  1.3931  0.7769 -0.7491
 8047SOL     OW26340   3.697   5.895   0.322 -0.3068 -0.4605 -0.1111
 8047SOL    HW126341   3.719   5.969   0.266  0.8839 -0.6023  0.1570
 8047SOL    HW226342   3.769   5.833   0.312  0.0153 -0.4355  1.6737
 8048SOL     OW26343   3.124   6.801   1.332  0.3557  0.0968 -0.0544
 8048SOL    HW126344   3.068   6.825   1.258 -0.6452  0.1868  0.7089
 8048SOL    HW226345   3.175   6.880   1.351 -0.5591  0.5940  0.3732
 8049SOL     OW26346   4.538   3.620   4.182 -0.0956 -0.0501  0.1865
 8049SOL    HW126347   4.477   3.602   4.111 -0.0472 -0.4221  0.2381
 8049SOL    HW226348   4.564   3.534   4.214  1.5738  0.0428 -0.7851
 8050SOL     OW26349   7.808   2.656   1.708 -0.4011  0.6985  0.0988
 8050SOL    HW126350   7.779   2.670   1.618 -2.2274  0.4356  0.6151
 8050SOL    HW226351   7.775   2.569   1.731  1.5293  0.0264  0.4811
 8051SOL     OW26352   7.868   4.821   3.816 -0.4669  0.3419  0.5297
 8051SOL    HW126353   7.849   4.760   3.745 -0.4715 -0.0423  0.8579
 8051SOL    HW226354   7.925   4.773   3.875  0.7143  1.1458  0.0730
 8052SOL     OW26355   9.307   4.102   7.703 -0.5371  0.0930  0.3662
 8052SOL    HW126356   9.268   4.158   7.770  0.0641  0.2996  0.5559
 8052SOL    HW226357   9.381   4.059   7.748  1.3668  2.0110 -0.7330
 8053SOL     OW26358   4.821   5.024   0.425 -0.1034  0.2318  0.3463
 8053SOL    HW126359   4.865   5.092   0.477  0.6728  0.2756 -0.3460
 8053SOL    HW226360   4.810   4.951   0.486  1.3319  0.0631  0.4333
 8054SOL     OW26361   3.213   8.720   1.021  0.0909  0.4500  0.7543
 8054SOL    HW126362   3.174   8.727   1.109 -2.3162  0.0381 -0.2042
 8054SOL    HW226363   3.262   8.638   1.023 -0.2272  0.2654  1.6245
 8055SOL     OW26364   5.583   1.765   8.405  0.4928 -0.6044 -0.2003
 8055SOL    HW126365   5.601   1.815   8.485  0.3072 -1.2378  0.2477
 8055SOL    HW226366   5.592   1.673   8.432 -0.7387 -0.8638 -0.6085
 8056SOL     OW26367   1.941   0.330   9.248  0.1812 -0.2277 -0.4744
 8056SOL    HW126368   1.965   0.407   9.196  1.3737  0.0681  0.4762
 8056SOL    HW226369   1.990   0.340   9.330  0.5695 -2.1410 -0.4354
 8057SOL     OW26370   6.231   9.094   1.036 -0.1296  0.1698  0.2361
 8057SOL    HW126371   6.253   9.185   1.056  2.0746  0.2320 -1.9047
 8057SOL    HW226372   6.299   9.066   0.975 -2.3807 -2.0125 -1.4973
 8058SOL     OW26373   7.790   1.887   3.993  0.3307 -0.4831  0.5599
 8058SOL    HW126374   7.813   1.907   4.083 -1.3025 -2.0645  1.3877
 8058SOL    HW226375   7.873   1.880   3.947  1.1472  1.5891  1.6313
 8059SOL     OW26376   7.159   4.132   4.636 -0.1834 -0.1053  0.0065
 8059SOL    HW126377   7.241   4.083   4.627 -0.5633 -0.9481  0.9887
 8059SOL    HW226378   7.182   4.221   4.608  1.3696 -0.0536  1.2831
 8060SOL     OW26379   4.814   3.956   8.615 -0.7748  0.1992  0.2290
 8060SOL    HW126380   4.892   3.914   8.579 -0.8724 -0.2642  0.5390
 8060SOL    HW226381   4.845   3.997   8.696 -1.2746 -1.9130  1.5702
 8061SOL     OW26382   7.944   0.707   0.898 -0.7712 -0.3062 -0.7346
 8061SOL    HW126383   7.922   0.787   0.851 -0.3766  0.3973  0.2418
 8061SOL    HW226384   7.867   0.691   0.953 -1.2328 -1.1266 -1.5942
 8062SOL     OW26385   4.078   9.109   3.772  0.1597 -0.5666  0.0938
 8062SOL    HW126386   4.042   9.035   3.822 -0.5023 -0.2083  0.1494
 8062SOL    HW226387   4.005   9.141   3.719  0.7345 -0.6556 -0.7841
 8063SOL     OW26388   3.164   0.735   0.337 -0.4540 -0.9691 -0.1272
 8063SOL    HW126389   3.107   0.762   0.264 -0.7042 -0.8470  0.1135
 8063SOL    HW226390   3.234   0.800   0.338 -0.4172 -1.0057 -0.2975
 8064SOL     OW26391   8.222   6.678   2.108 -0.0628  0.6693 -0.3203
 8064SOL    HW126392   8.285   6.710   2.043 -0.4749  0.9211 -0.6023
 8064SOL    HW226393   8.243   6.727   2.188 -0.8729  1.8879 -0.8249
 8065SOL     OW26394   1.385   0.976   3.019 -0.0286  0.0736  0.4620
 8065SOL    HW126395   1.434   0.950   2.941 -0.3240 -1.4340  0.7431
 8065SOL    HW226396   1.444   1.032   3.067  0.4415  0.4087 -0.4795
 8066SOL     OW26397   1.969   0.114   4.247 -0.0272  0.0287 -0.4430
 8066SOL    HW126398   1.910   0.040   4.257 -1.5907  1.3427  0.6347
 8066SOL    HW226399   2.036   0.102   4.315 -1.1933  0.3799  0.8159
 8067SOL     OW26400   4.902   3.981   4.234 -0.1742 -0.0289 -0.0894
 8067SOL    HW126401   4.853   4.045   4.181 -0.5546  0.0165  0.3089
 8067SOL    HW226402   4.847   3.903   4.233  0.4156 -0.4416 -0.7921
 8068SOL     OW26403   1.709   3.633   8.529  0.2353  0.1864 -0.4794
 8068SOL    HW126404   1.738   3.566   8.468  0.2373  0.0263 -0.3031
 8068SOL    HW226405   1.789   3.667   8.567  0.1528 -1.6640  1.5239
 8069SOL     OW26406   5.548   5.547   1.738  0.1984 -0.2894  0.0486
 8069SOL    HW126407   5.644   5.551   1.743  0.2144  1.3387 -0.6846
 8069SOL    HW226408   5.523   5.479   1.800  1.8159 -0.5286  0.4833
 8070SOL     OW26409   1.249   4.137   0.696 -0.4201  0.3593  0.7687
 8070SOL    HW126410   1.228   4.225   0.662 -0.9973 -0.0077  0.1350
 8070SOL    HW226411   1.236   4.080   0.620 -0.9449 -0.3883  1.4098
 8071SOL     OW26412   2.576   4.725   9.526  0.0571 -0.2395 -0.6280
 8071SOL    HW126413   2.605   4.676   9.449 -1.7134  0.5982 -1.8946
 8071SOL    HW226414   2.480   4.729   9.518 -0.1754  0.0634  1.5197
 8072SOL     OW26415   1.467   7.372   4.599  0.4147 -0.3162  0.3095
 8072SOL    HW126416   1.509   7.286   4.608 -0.2021 -0.9000 -1.7813
 8072SOL    HW226417   1.435   7.373   4.509 -1.9060  1.0805  1.0851
 8073SOL     OW26418   6.736   9.495   2.423 -0.0192  0.0325  0.7376
 8073SOL    HW126419   6.653   9.503   2.469  0.1003  0.1928  0.9300
 8073SOL    HW226420   6.739   9.403   2.394 -0.3842  0.1005  0.4880
 8074SOL     OW26421   7.450   3.662   3.352 -0.0221 -0.3994  0.0130
 8074SOL    HW126422   7.456   3.758   3.347  1.8368 -0.4722  0.0262
 8074SOL    HW226423   7.374   3.646   3.407 -0.4824  1.0624 -0.1373
 8075SOL     OW26424   5.013   1.158   4.404 -0.1054 -0.1268  0.6061
 8075SOL    HW126425   5.022   1.190   4.493 -2.1974  0.2244  0.7519
 8075SOL    HW226426   4.985   1.067   4.413 -0.7649  0.0402  0.3421
 8076SOL     OW26427   1.332   4.487   9.430 -0.4535  0.6125  0.2625
 8076SOL    HW126428   1.364   4.472   9.341  0.0780  0.9761  0.3848
 8076SOL    HW226429   1.307   4.400   9.461 -0.8905  0.5191 -0.3311
 8077SOL     OW26430   6.500   8.543   7.515  0.1271  0.1750  0.4773
 8077SOL    HW126431   6.553   8.598   7.458  0.7800 -0.1048  0.8046
 8077SOL    HW226432   6.473   8.470   7.460  0.3438  0.1558  0.3969
 8078SOL     OW26433   0.659   3.146   3.827  0.2187 -0.1666  0.1512
 8078SOL    HW126434   0.660   3.240   3.843  0.5904 -0.3285  1.1305
 8078SOL    HW226435   0.575   3.130   3.784  0.4603  0.7046 -0.6737
 8079SOL     OW26436   8.773   4.018   1.565 -0.4223 -0.5930  0.0532
 8079SOL    HW126437   8.836   4.079   1.527  0.4583 -1.8317 -0.5661
 8079SOL    HW226438   8.688   4.061   1.554  0.3446  1.5316  1.7209
 8080SOL     OW26439   1.439   4.374   5.672 -0.0897 -0.1292  0.0111
 8080SOL    HW126440   1.381   4.450   5.669 -1.5741 -1.2075  0.3906
 8080SOL    HW226441   1.419   4.326   5.591  2.2415  0.8148 -1.2277
 8081SOL     OW26442   4.069   0.777   4.522  0.1626  0.0521  0.2593
 8081SOL    HW126443   3.984   0.740   4.500 -1.1599  1.3895  2.7033
 8081SOL    HW226444   4.095   0.734   4.604  3.2150 -2.2357 -1.6549
 8082SOL     OW26445   7.264   1.551   6.774 -0.4061  0.2056  0.2567
 8082SOL    HW126446   7.351   1.548   6.734 -1.2728 -2.3663 -1.7695
 8082SOL    HW226447   7.269   1.620   6.839  3.0803  0.2737  0.0798
 8083SOL     OW26448   5.654   0.342   7.883 -0.3405 -0.3215 -0.2449
 8083SOL    HW126449   5.682   0.361   7.973 -1.2767  0.0265 -0.0084
 8083SOL    HW226450   5.679   0.420   7.833 -0.1345 -0.3642 -0.2073
 8084SOL     OW26451   8.103   5.374   0.967  0.0602 -0.0424 -0.3579
 8084SOL    HW126452   8.077   5.393   0.877  2.1427 -0.0591 -1.0274
 8084SOL    HW226453   8.126   5.281   0.966  0.0607 -0.0507  0.1954
 8085SOL     OW26454   9.185   8.886   8.146  0.0824 -0.0264 -0.0253
 8085SOL    HW126455   9.150   8.959   8.095 -3.1004 -1.1976  0.2079
 8085SOL    HW226456   9.225   8.828   8.081  0.1517  0.6242 -0.5713
 8086SOL     OW26457   2.894   1.666   4.927 -0.0596 -0.2404  0.4935
 8086SOL    HW126458   2.987   1.678   4.907  0.1691 -2.2187  0.1683
 8086SOL    HW226459   2.876   1.729   4.996  1.0215  1.5378 -0.7526
 8087SOL     OW26460   2.995   5.735   7.499  0.2475 -0.2441 -0.5438
 8087SOL    HW126461   2.912   5.729   7.453 -2.6585  3.0359  3.5220
 8087SOL    HW226462   2.987   5.674   7.572  0.8497  0.8787  0.5116
 8088SOL     OW26463   6.558   3.632   5.936 -0.6894  0.0883  0.3192
 8088SOL    HW126464   6.623   3.676   5.882 -1.4148 -0.4662 -1.0846
 8088SOL    HW226465   6.535   3.695   6.004 -0.7072  1.3502 -0.8189
 8089SOL     OW26466   5.746   4.772   4.105  0.4218  0.0216  0.3395
 8089SOL    HW126467   5.777   4.818   4.027 -1.8786 -0.3245 -0.8557
 8089SOL    HW226468   5.729   4.683   4.074 -0.6498 -0.0814  1.1919
 8090SOL     OW26469   8.121   6.818   6.373  0.9988 -0.3914  0.4078
 8090SOL    HW126470   8.042   6.766   6.357 -1.1484  2.0740  2.1205
 8090SOL    HW226471   8.122   6.831   6.467  1.8918  1.8434  0.1562
 8091SOL     OW26472   0.848   2.891   2.982  0.0192 -0.2431 -0.9502
 8091SOL    HW126473   0.768   2.900   3.035 -0.1844 -0.1829 -1.2629
 8091SOL    HW226474   0.871   2.981   2.959  1.3266 -0.0939  0.8153
 8092SOL     OW26475   9.037   4.002   8.838 -0.2388  0.6089 -0.0889
 8092SOL    HW126476   9.045   4.065   8.766 -0.8846  0.1003 -0.6188
 8092SOL    HW226477   9.098   3.932   8.815  0.3614  0.9556  0.4205
 8093SOL     OW26478   1.394   5.324   9.247 -0.0809 -0.0068 -0.3760
 8093SOL    HW126479   1.437   5.260   9.304 -2.1871 -1.5135 -0.3837
 8093SOL    HW226480   1.325   5.361   9.301  0.6966  1.8688 -0.5875
 8094SOL     OW26481   5.590   4.739   3.093 -0.2983 -0.2597  0.1569
 8094SOL    HW126482   5.547   4.766   3.012 -0.8590 -0.1871  0.4751
 8094SOL    HW226483   5.519   4.733   3.157  0.1117 -0.5104  0.5937
 8095SOL     OW26484   9.174   6.814   6.010 -0.3862 -0.5682 -0.3276
 8095SOL    HW126485   9.140   6.849   5.928 -1.0445 -1.0777 -0.2843
 8095SOL    HW226486   9.226   6.886   6.047 -0.7467 -0.0573 -0.7914
 8096SOL     OW26487   0.370   8.939   5.019  0.1806 -0.1768  0.5723
 8096SOL    HW126488   0.310   8.993   5.070 -0.2555  1.2190 -1.2964
 8096SOL    HW226489   0.369   8.853   5.062 -2.0050  0.2467  1.4620
 8097SOL     OW26490   4.764   0.440   7.125  0.0328  0.0984 -0.0585
 8097SOL    HW126491   4.757   0.527   7.165 -2.5630  0.0309 -0.1548
 8097SOL    HW226492   4.687   0.393   7.157  0.0169 -1.3112 -1.9830
 8098SOL     OW26493   9.016   7.618   1.018 -0.4719 -0.0008 -0.1789
 8098SOL    HW126494   9.025   7.706   0.983 -0.4264  0.3566  0.7099
 8098SOL    HW226495   8.979   7.630   1.105 -0.7746 -0.8807 -0.1745
 8099SOL     OW26496   6.254   7.678   5.173 -0.0979  0.3228  0.5744
 8099SOL    HW126497   6.255   7.659   5.079 -1.6655 -1.2935  0.8125
 8099SOL    HW226498   6.295   7.601   5.213 -1.3565 -0.0140  1.2875
 8100SOL     OW26499   2.295   5.067   2.198  0.7609  0.1984 -0.0777
 8100SOL    HW126500   2.328   5.061   2.108 -0.9317 -1.1053 -0.6748
 8100SOL    HW226501   2.362   5.024   2.251  0.3277 -2.0385 -1.1924
 8101SOL     OW26502   8.129   2.534   7.855  0.0332  0.3409 -0.4833
 8101SOL    HW126503   8.123   2.466   7.787  1.2374 -1.4336  1.0906
 8101SOL    HW226504   8.179   2.605   7.814  0.5134 -0.5679 -1.5192
 8102SOL     OW26505   5.137   8.920   0.485  0.1624 -0.2805  0.2322
 8102SOL    HW126506   5.104   8.836   0.453  0.1054 -0.2264  0.1466
 8102SOL    HW226507   5.230   8.920   0.463 -0.1232  0.2789 -1.0627
 8103SOL     OW26508   9.470   4.731   6.641  0.4212  0.1121  0.1329
 8103SOL    HW126509   9.497   4.801   6.581  1.2676 -0.6184 -0.3629
 8103SOL    HW226510   9.394   4.691   6.599  2.1355 -1.6505 -1.5051
 8104SOL     OW26511   8.766   9.304   4.026 -0.3731  0.4394 -0.8039
 8104SOL    HW126512   8.719   9.296   4.109 -0.1332 -1.9636 -0.8513
 8104SOL    HW226513   8.778   9.399   4.015 -2.3062  0.9386  0.8027
 8105SOL     OW26514   4.600   1.250   5.360  0.6208  0.6093  0.1547
 8105SOL    HW126515   4.642   1.288   5.438 -0.9132  4.2087 -0.5556
 8105SOL    HW226516   4.507   1.271   5.371  0.3766  1.2760 -2.5958
 8106SOL     OW26517   3.515   3.247   4.672  0.1625 -1.0410 -0.2238
 8106SOL    HW126518   3.508   3.213   4.761  0.9105 -0.6285  0.0043
 8106SOL    HW226519   3.434   3.295   4.657  0.0066 -1.1674  0.2037
 8107SOL     OW26520   5.024   4.150   2.982  0.1944  0.0078 -0.1703
 8107SOL    HW126521   5.002   4.203   2.906 -0.4499 -0.9267 -0.6601
 8107SOL    HW226522   4.942   4.105   3.005 -0.4200  2.3153  2.7905
 8108SOL     OW26523   5.351   3.796   3.937  0.0557 -1.2375 -0.4001
 8108SOL    HW126524   5.400   3.769   4.015  2.6025  2.4648 -0.4895
 8108SOL    HW226525   5.270   3.834   3.972  1.3096  0.6853  0.5838
 8109SOL     OW26526   3.253   4.856   8.045  0.3783  0.2537 -0.2429
 8109SOL    HW126527   3.329   4.848   8.103  1.2027  0.4379 -1.2784
 8109SOL    HW226528   3.288   4.843   7.957 -0.1298  3.6975 -1.0861
 8110SOL     OW26529   5.298   4.275   0.188  0.2350 -0.2664 -0.4676
 8110SOL    HW126530   5.214   4.282   0.233  0.7402  0.0926  0.4416
 8110SOL    HW226531   5.301   4.185   0.157 -0.8043 -0.0783 -1.1728
 8111SOL     OW26532   8.123   4.675   0.540 -0.4102 -0.0190  0.2339
 8111SOL    HW126533   8.057   4.742   0.553 -0.7157 -0.1901 -0.3706
 8111SOL    HW226534   8.181   4.683   0.615 -0.9413  0.3400  0.6122
 8112SOL     OW26535   0.867   8.253   2.050 -0.0397 -0.0230  0.3867
 8112SOL    HW126536   0.789   8.207   2.020 -0.4629  1.3214 -0.6885
 8112SOL    HW226537   0.920   8.265   1.970  1.3732 -1.0793  1.1270
 8113SOL     OW26538   0.448   5.167   1.030 -0.2918 -0.3589  0.4073
 8113SOL    HW126539   0.471   5.239   1.089  0.7401 -0.2745 -0.0730
 8113SOL    HW226540   0.481   5.195   0.945 -4.8323  1.2041 -1.1726
 8114SOL     OW26541   4.617   8.110   1.044 -0.1188 -0.1116 -0.3562
 8114SOL    HW126542   4.665   8.128   1.125  0.3147  1.0282 -0.8303
 8114SOL    HW226543   4.628   8.016   1.029  0.0521 -0.2710  0.7420
 8115SOL     OW26544   0.597   9.421   5.190 -0.6226  0.1110 -0.5407
 8115SOL    HW126545   0.539   9.345   5.186  1.1470 -1.4528  1.4077
 8115SOL    HW226546   0.597   9.446   5.282 -1.1209  2.5468 -1.1169
 8116SOL     OW26547   0.733   6.484   8.686 -0.7094 -0.2379 -0.5620
 8116SOL    HW126548   0.779   6.462   8.767 -1.6663 -1.3984 -0.3012
 8116SOL    HW226549   0.796   6.468   8.616 -0.8900 -2.4950 -0.2678
 8117SOL     OW26550   4.587   9.277   4.174 -0.6874 -0.4527  0.5360
 8117SOL    HW126551   4.608   9.321   4.091  1.7555  1.1875  1.9295
 8117SOL    HW226552   4.522   9.334   4.215 -0.4327 -0.2182  0.6155
 8118SOL     OW26553   7.327   5.960   5.809 -0.3425  0.2794 -0.7859
 8118SOL    HW126554   7.281   6.044   5.807 -2.1552 -0.6756 -2.0403
 8118SOL    HW226555   7.369   5.958   5.894  1.2885  3.2150 -1.3867
 8119SOL     OW26556   8.837   9.056   3.483 -0.3626 -0.5143 -0.2405
 8119SOL    HW126557   8.836   9.149   3.508  0.1025 -1.1766  2.5790
 8119SOL    HW226558   8.895   9.053   3.406  0.6923  1.3630  0.4034
 8120SOL     OW26559   0.742   3.109   3.275 -0.0204 -0.4288  0.1585
 8120SOL    HW126560   0.706   3.197   3.260  0.6767 -0.0030  0.9282
 8120SOL    HW226561   0.718   3.089   3.365  0.8223 -0.5374  0.3673
 8121SOL     OW26562   3.105   9.135   1.073 -0.4133  0.1731 -0.5491
 8121SOL    HW126563   3.110   9.155   0.980  1.4934  1.4206 -0.2385
 8121SOL    HW226564   3.014   9.152   1.097 -0.7761  0.4377 -2.0563
 8122SOL     OW26565   0.414   7.072   5.572  0.0379 -0.2792 -0.3928
 8122SOL    HW126566   0.391   7.165   5.569  1.9542  0.1953 -1.8659
 8122SOL    HW226567   0.347   7.034   5.630 -2.0858  1.6112 -1.4113
 8123SOL     OW26568   9.407   5.180   4.023 -0.5784  0.1035  0.2231
 8123SOL    HW126569   9.485   5.149   3.977  0.1526  0.8399  0.9461
 8123SOL    HW226570   9.381   5.106   4.079  0.1771  0.2015  0.7100
 8124SOL     OW26571   7.330   5.903   3.193 -0.1702  0.1806  0.1652
 8124SOL    HW126572   7.272   5.899   3.117  0.4674  1.8970 -0.4574
 8124SOL    HW226573   7.400   5.840   3.174 -1.2450 -1.1550  0.4622
 8125SOL     OW26574   4.942   8.510   2.002  0.5112  0.0780  0.1958
 8125SOL    HW126575   4.981   8.509   2.089 -0.1459 -1.4237  0.5003
 8125SOL    HW226576   5.010   8.473   1.945 -0.0893 -1.6902  0.5775
 8126SOL     OW26577   3.325   5.407   7.373  0.5824  0.2621 -0.0006
 8126SOL    HW126578   3.382   5.339   7.338  0.3720  0.7513 -1.3500
 8126SOL    HW226579   3.373   5.442   7.448  0.5758 -1.5253  0.8968
 8127SOL     OW26580   9.167   6.683   3.535  0.5820  0.3795 -0.1414
 8127SOL    HW126581   9.107   6.643   3.598  0.7343 -0.7848 -0.7132
 8127SOL    HW226582   9.113   6.748   3.490  0.0707  0.1906  0.1817
 8128SOL     OW26583   4.832   2.451   0.866  0.5542  0.2410  0.0591
 8128SOL    HW126584   4.804   2.380   0.924  1.6809 -1.4871 -1.4144
 8128SOL    HW226585   4.927   2.456   0.878  0.6579  0.6007 -0.8522
 8129SOL     OW26586   6.792   3.811   8.104  0.0917 -0.1309  0.0240
 8129SOL    HW126587   6.793   3.903   8.129  0.2849 -0.6299  2.0032
 8129SOL    HW226588   6.873   3.776   8.142 -0.1247 -1.1780 -0.4617
 8130SOL     OW26589   5.207   4.412   1.868  0.0282  0.2884 -0.1355
 8130SOL    HW126590   5.269   4.460   1.922 -1.1090  1.3518  0.2797
 8130SOL    HW226591   5.140   4.381   1.929  0.2845 -1.0981 -0.5311
 8131SOL     OW26592   2.543   1.246   3.758 -0.2091 -0.2973  0.5564
 8131SOL    HW126593   2.519   1.305   3.830 -0.8835 -0.5073  0.5069
 8131SOL    HW226594   2.632   1.219   3.779  0.7379  1.9390 -0.2073
 8132SOL     OW26595   9.498   5.524   3.223 -0.3784 -0.3868  0.1051
 8132SOL    HW126596   9.496   5.619   3.236 -0.8215 -0.4199  0.3078
 8132SOL    HW226597   9.532   5.489   3.305  3.5620 -0.2009 -1.2547
 8133SOL     OW26598   1.343   8.431   7.624  0.0346  0.2183 -0.6672
 8133SOL    HW126599   1.300   8.416   7.708  1.8915 -0.6954  0.1646
 8133SOL    HW226600   1.271   8.456   7.565 -1.3701  0.4006  1.0430
 8134SOL     OW26601   1.966   4.351   7.663  0.1292  0.3867 -0.1825
 8134SOL    HW126602   1.930   4.267   7.689 -1.1993  1.1437  0.5091
 8134SOL    HW226603   1.966   4.404   7.742  1.9654  0.7421 -0.3529
 8135SOL     OW26604   1.192   5.849   4.934 -0.6168  0.3706 -0.3591
 8135SOL    HW126605   1.197   5.856   4.838  0.9036  2.4392 -0.1837
 8135SOL    HW226606   1.261   5.788   4.957  0.5567  1.6246 -0.4592
 8136SOL     OW26607   0.995   3.374   0.110 -0.0573 -0.6132  0.6938
 8136SOL    HW126608   1.073   3.346   0.158 -0.3956  0.5101  1.9631
 8136SOL    HW226609   0.922   3.343   0.163 -0.5395 -2.3185 -0.8647
 8137SOL     OW26610   2.201   8.721   6.525  0.3241 -0.1090  0.0581
 8137SOL    HW126611   2.193   8.814   6.544  1.9578  0.2175 -0.6438
 8137SOL    HW226612   2.202   8.716   6.429  0.2095 -0.8531  0.0870
 8138SOL     OW26613   1.817   1.474   8.800 -0.9193  0.3396 -0.5680
 8138SOL    HW126614   1.838   1.452   8.709 -2.1955  0.5931 -0.9323
 8138SOL    HW226615   1.871   1.414   8.851 -0.6655 -0.2542 -1.4946
 8139SOL     OW26616   1.458   6.981   1.300 -0.2578  0.4292 -0.0037
 8139SOL    HW126617   1.514   6.987   1.223  1.2827  0.0216  1.0273
 8139SOL    HW226618   1.417   6.895   1.294  0.2582  0.1897 -0.1028
 8140SOL     OW26619   2.900   8.938   8.528 -0.2974 -0.0790  0.1256
 8140SOL    HW126620   2.817   8.902   8.558 -1.0638  1.0779 -0.5385
 8140SOL    HW226621   2.962   8.918   8.599 -0.9428 -1.6160  0.2967
 8141SOL     OW26622   6.046   2.347   5.431 -0.8477 -0.6020  0.0823
 8141SOL    HW126623   6.045   2.251   5.424  1.2100 -0.6396 -0.2767
 8141SOL    HW226624   6.104   2.365   5.505 -1.9490  0.3854  0.7487
 8142SOL     OW26625   5.458   5.342   8.026 -0.0917  0.0293  0.0697
 8142SOL    HW126626   5.375   5.366   7.985  0.6522  0.4280 -1.2707
 8142SOL    HW226627   5.433   5.295   8.106 -1.6539 -1.6068 -1.2804
 8143SOL     OW26628   5.872   0.048   4.040  0.1151 -0.8830  0.2175
 8143SOL    HW126629   5.897  -0.010   4.111  1.3223 -2.0337 -1.0781
 8143SOL    HW226630   5.954   0.082   4.005 -0.4859  0.2436 -0.1754
 8144SOL     OW26631   2.923   0.581   6.788  0.1877 -0.1839  0.3513
 8144SOL    HW126632   2.905   0.673   6.768 -0.2572  0.0159  1.6021
 8144SOL    HW226633   2.897   0.570   6.879 -1.5270 -1.9939 -0.2651
 8145SOL     OW26634   7.551   7.610   9.152  0.0981 -0.4900  0.3793
 8145SOL    HW126635   7.562   7.662   9.073  1.7535 -1.8363 -0.3465
 8145SOL    HW226636   7.513   7.670   9.216  0.5528  1.1670 -0.8506
 8146SOL     OW26637   2.829   0.210   2.759  0.1889  0.0829 -0.3886
 8146SOL    HW126638   2.920   0.241   2.763 -0.1803  1.1981 -0.2355
 8146SOL    HW226639   2.837   0.116   2.742  1.3747  0.0738  0.0783
 8147SOL     OW26640   0.808   6.303   1.925 -0.2653  0.1883  0.1895
 8147SOL    HW126641   0.889   6.292   1.975 -0.1803  0.4403  0.1081
 8147SOL    HW226642   0.818   6.387   1.881 -0.2722 -0.1071 -0.3824
 8148SOL     OW26643   7.880   7.399   1.701 -0.0340  0.1952 -0.5738
 8148SOL    HW126644   7.900   7.490   1.678  0.4477  0.6361  1.4634
 8148SOL    HW226645   7.924   7.347   1.633 -1.2238  1.4516 -2.4155
 8149SOL     OW26646   3.302   0.836   5.500  0.2710  0.0447 -0.0637
 8149SOL    HW126647   3.333   0.838   5.590 -1.1424  0.5370  0.4428
 8149SOL    HW226648   3.261   0.750   5.490  1.9250 -0.6955 -0.7993
 8150SOL     OW26649   3.689   0.883   4.401  1.0704  0.4348  0.3608
 8150SOL    HW126650   3.696   0.857   4.493 -2.9385 -1.1399  0.4268
 8150SOL    HW226651   3.631   0.959   4.402 -1.3668 -1.2866 -0.9188
 8151SOL     OW26652   1.637   7.875   1.006 -0.1825 -0.4433  0.6792
 8151SOL    HW126653   1.573   7.810   0.976 -0.5538 -0.1816  0.9025
 8151SOL    HW226654   1.630   7.946   0.943 -0.2822 -0.3082  0.8444
 8152SOL     OW26655   3.200   2.807   8.337 -0.1673  0.2866  0.8695
 8152SOL    HW126656   3.149   2.886   8.321 -0.2891 -0.0566 -0.6299
 8152SOL    HW226657   3.137   2.742   8.368 -0.4872  0.1428 -0.0541
 8153SOL     OW26658   2.373   0.842   6.558  0.5686 -0.0925 -0.2052
 8153SOL    HW126659   2.280   0.835   6.539  0.5270 -1.8153  0.4542
 8153SOL    HW226660   2.386   0.932   6.587 -0.8844  0.1677 -0.3389
 8154SOL     OW26661   6.815   2.738   8.984 -0.3368 -0.6088 -0.1849
 8154SOL    HW126662   6.765   2.658   8.969 -0.1294 -0.5187 -1.4899
 8154SOL    HW226663   6.774   2.778   9.061 -0.9677 -1.5455 -0.0221
 8155SOL     OW26664   1.755   3.699   1.344  0.3899  0.1844  0.1525
 8155SOL    HW126665   1.844   3.734   1.340  0.8583 -0.9426  0.2443
 8155SOL    HW226666   1.700   3.770   1.312  1.1732  1.3830  1.3708
 8156SOL     OW26667   6.832   0.872   9.321 -0.2385 -0.0363  0.2375
 8156SOL    HW126668   6.927   0.880   9.312 -0.3717  0.2674 -1.0909
 8156SOL    HW226669   6.804   0.828   9.241 -0.9683 -2.4120  1.6553
 8157SOL     OW26670   0.214   5.515   4.289  0.1434 -0.2793 -1.1314
 8157SOL    HW126671   0.161   5.437   4.305 -1.1197  0.6401 -0.6709
 8157SOL    HW226672   0.162   5.587   4.325  1.6014  0.6946 -0.8918
 8158SOL     OW26673   9.519   7.714   7.591  0.2113 -0.2670 -0.3621
 8158SOL    HW126674   9.440   7.761   7.568  1.3721  0.6697 -2.7376
 8158SOL    HW226675   9.491   7.622   7.597 -1.0131  0.0148 -1.3426
 8159SOL     OW26676   8.621   4.922   4.512 -0.2734  0.0180 -0.2866
 8159SOL    HW126677   8.600   4.887   4.425  0.3010  0.9497 -0.8123
 8159SOL    HW226678   8.644   5.013   4.496 -1.0067  0.4356  0.9644
 8160SOL     OW26679   6.645   2.431   4.985 -0.0459  0.3425 -0.5867
 8160SOL    HW126680   6.701   2.490   4.934 -0.9166  1.1158 -0.6815
 8160SOL    HW226681   6.654   2.463   5.076  0.0510  0.1558 -0.5307
 8161SOL     OW26682   6.613   7.788   7.033 -0.6665  0.0162  0.4769
 8161SOL    HW126683   6.665   7.724   6.984  0.2825  1.6039 -0.6705
 8161SOL    HW226684   6.594   7.744   7.117 -1.0978 -2.2091 -0.7028
 8162SOL     OW26685   2.706   3.954   5.773 -0.4738  0.0169 -0.1115
 8162SOL    HW126686   2.661   3.991   5.848  0.5685  0.7308  0.1799
 8162SOL    HW226687   2.699   4.021   5.705 -1.4183 -0.6272 -0.6731
 8163SOL     OW26688   8.194   4.480   0.920  0.1104 -0.7972 -0.5161
 8163SOL    HW126689   8.136   4.553   0.939  2.4496  0.7457  1.2326
 8163SOL    HW226690   8.210   4.438   1.005  1.5567 -1.1429 -0.9172
 8164SOL     OW26691   5.050   2.166   8.485  0.1718 -0.0680  0.0778
 8164SOL    HW126692   5.061   2.157   8.580 -0.4332  1.6822  0.3515
 8164SOL    HW226693   5.137   2.190   8.453 -0.0379  1.3490  0.5019
 8165SOL     OW26694   6.022   4.788   9.201 -0.2108  0.9361  0.0653
 8165SOL    HW126695   6.083   4.862   9.192  2.2153 -0.9160  0.0121
 8165SOL    HW226696   6.017   4.751   9.112  2.2462 -1.4924  0.7751
 8166SOL     OW26697   7.661   9.037   1.915 -0.5744 -0.6671 -0.4069
 8166SOL    HW126698   7.653   8.944   1.936 -1.9600 -0.9380 -1.9128
 8166SOL    HW226699   7.742   9.065   1.958 -1.3164 -1.9867  2.0379
 8167SOL     OW26700   1.142   6.079   3.644 -0.2038 -0.4694  0.2438
 8167SOL    HW126701   1.173   6.151   3.589  2.8021 -1.8674 -0.0711
 8167SOL    HW226702   1.193   6.086   3.724 -0.9067 -1.4341  0.7922
 8168SOL     OW26703   5.209   0.305   0.254  0.1176 -0.3125 -0.0580
 8168SOL    HW126704   5.280   0.243   0.272  0.8908  0.6128  0.1290
 8168SOL    HW226705   5.238   0.355   0.178 -0.3837  0.0007 -0.0542
 8169SOL     OW26706   2.626   4.181   1.497 -0.1809  0.0415 -0.0012
 8169SOL    HW126707   2.599   4.223   1.579 -0.7849 -0.5482  0.1088
 8169SOL    HW226708   2.595   4.091   1.505  0.9386 -0.3820 -0.3190
 8170SOL     OW26709   9.223   1.352   9.466 -0.4213  0.1306 -0.5580
 8170SOL    HW126710   9.250   1.353   9.374  3.0901 -0.3224  0.3546
 8170SOL    HW226711   9.259   1.432   9.503 -3.1228  1.1167  0.2259
 8171SOL     OW26712   8.156   7.754   3.098 -0.2743 -0.1848 -0.0486
 8171SOL    HW126713   8.133   7.696   3.025 -0.4847 -1.6732  1.1388
 8171SOL    HW226714   8.073   7.796   3.122 -0.2995 -0.0633 -0.3394
 8172SOL     OW26715   6.406   1.679   3.512 -0.1908 -0.7462 -0.5678
 8172SOL    HW126716   6.431   1.591   3.541  0.1879 -1.2006 -2.1642
 8172SOL    HW226717   6.373   1.722   3.591  1.9420 -1.4467  0.7865
 8173SOL     OW26718   6.979   8.314   2.857  0.1683 -0.9577  0.1030
 8173SOL    HW126719   7.021   8.393   2.892  0.3412 -0.8095 -0.4376
 8173SOL    HW226720   6.914   8.291   2.923  0.9480 -1.0653  0.8535
 8174SOL     OW26721   6.448   6.417   5.756 -0.1481  0.0836  0.4051
 8174SOL    HW126722   6.530   6.418   5.706 -0.5133  1.0237 -0.2059
 8174SOL    HW226723   6.404   6.337   5.727  0.9295 -0.8921  1.3917
 8175SOL     OW26724   7.517   3.793   2.530  0.0134 -0.2813 -0.1607
 8175SOL    HW126725   7.588   3.800   2.595 -1.5185 -0.4222  1.6150
 8175SOL    HW226726   7.440   3.771   2.582 -1.0919 -1.4302 -2.1920
 8176SOL     OW26727   0.657   6.521   4.597 -0.2059  0.1181 -0.0861
 8176SOL    HW126728   0.711   6.588   4.639  2.3675 -0.9463 -1.4902
 8176SOL    HW226729   0.717   6.476   4.537 -2.6024 -1.4025 -1.4868
 8177SOL     OW26730   4.540   4.902   1.272 -0.0648 -0.4718  0.3868
 8177SOL    HW126731   4.624   4.940   1.246  0.4743 -0.2002  2.4092
 8177SOL    HW226732   4.554   4.808   1.268  0.2384 -0.4301  0.4178
 8178SOL     OW26733   9.566   5.685   5.592  0.0822  0.6224 -0.0916
 8178SOL    HW126734   9.535   5.758   5.539 -0.3388  0.4178 -0.1316
 8178SOL    HW226735   9.527   5.608   5.552 -0.0264  0.4411  0.3581
 8179SOL     OW26736   4.200   7.553   0.175  0.1916  0.0402 -0.1973
 8179SOL    HW126737   4.157   7.545   0.261  1.3393 -3.6058  0.2173
 8179SOL    HW226738   4.134   7.524   0.112  0.0921  0.4876 -0.3044
 8180SOL     OW26739   2.058   6.285   8.412  0.1276  0.1229 -0.2235
 8180SOL    HW126740   1.965   6.309   8.410 -0.4309 -1.7906  0.3992
 8180SOL    HW226741   2.064   6.208   8.355  1.1184 -0.4301  0.6016
 8181SOL     OW26742   4.000   3.871   8.826 -0.0152 -0.5817  0.2490
 8181SOL    HW126743   3.908   3.880   8.849  0.2974 -2.0146  2.2610
 8181SOL    HW226744   4.017   3.944   8.766 -2.3295 -0.0555  0.1631
 8182SOL     OW26745   5.529   5.370   4.147 -0.1788  0.5639 -0.0379
 8182SOL    HW126746   5.439   5.351   4.172 -0.6356 -0.2585 -2.0980
 8182SOL    HW226747   5.547   5.309   4.074  1.5681  1.6382 -0.5630
 8183SOL     OW26748   1.821   0.748   2.726 -0.3382  0.0588  0.3939
 8183SOL    HW126749   1.797   0.766   2.817 -0.8376  2.1802 -0.0960
 8183SOL    HW226750   1.904   0.795   2.714  0.8369 -1.9149  0.2675
 8184SOL     OW26751   7.887   5.994   6.532  0.0554 -0.0118  0.0724
 8184SOL    HW126752   7.911   6.084   6.554  0.7222  0.2592 -1.6135
 8184SOL    HW226753   7.926   5.941   6.601 -0.1503  0.9611  0.9584
 8185SOL     OW26754   3.632   2.208   2.731 -0.2828 -0.1117 -0.5006
 8185SOL    HW126755   3.718   2.173   2.754 -0.1176  0.2584 -0.5381
 8185SOL    HW226756   3.570   2.159   2.784  0.2095  1.9554  2.1760
 8186SOL     OW26757   0.060   2.884   1.180 -0.6779  0.0235 -0.7537
 8186SOL    HW126758   0.015   2.963   1.209  0.0654  0.0501  0.3740
 8186SOL    HW226759   0.134   2.916   1.127  0.7143  0.2178  1.2021
 8187SOL     OW26760   1.791   8.838   5.186  0.2539 -0.2935 -0.0822
 8187SOL    HW126761   1.749   8.915   5.149 -0.2011 -1.0654 -1.2232
 8187SOL    HW226762   1.848   8.805   5.117  0.4101 -1.0096  0.3732
 8188SOL     OW26763   8.599   7.930   6.269  0.1903  0.7488  0.3276
 8188SOL    HW126764   8.639   7.846   6.293 -0.9080  0.1223  0.0536
 8188SOL    HW226765   8.511   7.906   6.241  0.4213  1.8011 -1.3985
 8189SOL     OW26766   8.514   8.420   3.593  0.2422 -0.1910 -0.5636
 8189SOL    HW126767   8.446   8.389   3.533  0.9972 -1.2785 -0.8818
 8189SOL    HW226768   8.596   8.397   3.551  0.9417  2.9989 -1.2265
 8190SOL     OW26769   5.489   6.724   6.331 -0.4592  1.0280 -0.3970
 8190SOL    HW126770   5.482   6.634   6.362  0.3285  1.0748 -0.0625
 8190SOL    HW226771   5.406   6.741   6.286 -0.7555  0.2603 -0.1437
 8191SOL     OW26772   7.546   2.973   1.636  0.1597  0.0234  0.1653
 8191SOL    HW126773   7.548   2.878   1.641 -0.7277 -0.0007  0.2551
 8191SOL    HW226774   7.455   2.994   1.615 -0.2958  0.9392  2.6782
 8192SOL     OW26775   1.752   1.675   3.785 -0.1364  0.0596  0.1622
 8192SOL    HW126776   1.794   1.702   3.867 -0.2047  1.4841 -0.2373
 8192SOL    HW226777   1.825   1.655   3.726 -0.0452  0.7183  0.0452
 8193SOL     OW26778   6.925   2.602   2.686  0.5727 -0.4205 -0.1134
 8193SOL    HW126779   6.864   2.576   2.617  1.6115 -1.9234 -0.5027
 8193SOL    HW226780   6.976   2.524   2.704  3.6053  1.1890 -1.0205
 8194SOL     OW26781   8.016   1.645   2.281  0.6907 -0.0786  0.4816
 8194SOL    HW126782   8.017   1.631   2.187 -0.8583  1.2646  0.2319
 8194SOL    HW226783   7.949   1.712   2.295 -1.4310 -2.4740  2.8419
 8195SOL     OW26784   8.515   4.770   0.418 -0.3689  0.1954  0.1938
 8195SOL    HW126785   8.472   4.776   0.333 -0.8707  1.8781  0.5255
 8195SOL    HW226786   8.553   4.682   0.420  0.7499  0.5411 -2.2845
 8196SOL     OW26787   1.931   6.861   0.022  0.1189 -0.4203 -0.3741
 8196SOL    HW126788   1.872   6.827  -0.045 -0.1964 -1.8493  0.5832
 8196SOL    HW226789   2.015   6.870  -0.022 -0.1763 -0.9841 -1.0682
 8197SOL     OW26790   2.105   5.227   6.232 -0.2242 -0.0467 -0.1845
 8197SOL    HW126791   2.189   5.183   6.247 -0.3842 -0.3894 -0.2880
 8197SOL    HW226792   2.124   5.320   6.246  0.1502 -0.1317 -0.1127
 8198SOL     OW26793   7.894   3.443   5.164  0.0929 -0.5022 -0.0537
 8198SOL    HW126794   7.988   3.448   5.178  0.1651  1.3883 -0.8582
 8198SOL    HW226795   7.868   3.360   5.203  1.6023  0.3174  3.0565
 8199SOL     OW26796   0.675   1.351   1.790 -0.0031 -0.3497 -0.1097
 8199SOL    HW126797   0.640   1.420   1.846 -0.2942  2.0130 -2.9322
 8199SOL    HW226798   0.600   1.324   1.737  0.8444 -0.3457 -1.3535
 8200SOL     OW26799   5.726   3.843   2.240  0.2187 -0.0743 -0.3587
 8200SOL    HW126800   5.647   3.817   2.287  1.6829 -0.3027  2.1693
 8200SOL    HW226801   5.697   3.911   2.180 -1.7303  0.5660  1.1939
 8201SOL     OW26802   4.375   5.321   9.233 -0.0517 -0.1542 -0.4090
 8201SOL    HW126803   4.294   5.356   9.196 -1.5761 -1.9326  1.0415
 8201SOL    HW226804   4.412   5.394   9.283 -1.8329  0.1777  0.5204
 8202SOL     OW26805   4.271   5.033   4.157 -0.1416 -0.9175  0.0114
 8202SOL    HW126806   4.310   4.960   4.108  1.3975 -0.4290  0.4423
 8202SOL    HW226807   4.309   5.111   4.115  0.0878 -0.4562  1.0641
 8203SOL     OW26808   2.998   1.759   6.640  0.0193  0.7323 -0.3134
 8203SOL    HW126809   3.087   1.788   6.663 -0.1800  0.0046  1.5301
 8203SOL    HW226810   2.963   1.831   6.587  1.0710  1.8668  0.4542
 8204SOL     OW26811   6.759   2.367   9.362  0.6078  0.1075 -0.1815
 8204SOL    HW126812   6.835   2.360   9.304 -0.9260 -0.1897 -2.2896
 8204SOL    HW226813   6.751   2.281   9.403  1.2942  0.0891 -0.0845
 8205SOL     OW26814   4.969   1.912   7.817  0.2994 -0.1019  0.3171
 8205SOL    HW126815   4.949   1.932   7.908 -0.1766 -0.9478  0.3999
 8205SOL    HW226816   4.994   1.997   7.779 -2.7247  0.9209  0.3783
 8206SOL     OW26817   8.490   0.640   5.537  0.3077 -0.4819 -0.2001
 8206SOL    HW126818   8.553   0.680   5.477 -0.6490  0.6060 -0.5160
 8206SOL    HW226819   8.420   0.704   5.545 -0.1686 -1.1234  1.1433
 8207SOL     OW26820   4.735   2.117   4.011 -0.4284 -0.3944  0.2460
 8207SOL    HW126821   4.667   2.053   4.036 -0.5740  0.0009  0.8879
 8207SOL    HW226822   4.709   2.198   4.055  0.3471 -0.1832  0.3250
 8208SOL     OW26823   1.105   6.262   9.052 -0.6703 -0.0301  0.4543
 8208SOL    HW126824   1.044   6.194   9.024 -0.8043  0.1627  0.2842
 8208SOL    HW226825   1.074   6.286   9.140 -0.9285  0.1733  0.3083
 8209SOL     OW26826   6.748   9.349   3.228  0.2605  0.8734  0.4705
 8209SOL    HW126827   6.725   9.389   3.312  2.6178 -0.9777  2.1121
 8209SOL    HW226828   6.821   9.402   3.195  0.8774  0.2079  0.7601
 8210SOL     OW26829   4.379   9.235   4.646 -0.2072  0.0689 -0.1125
 8210SOL    HW126830   4.353   9.197   4.562  0.1003 -1.6324  0.5249
 8210SOL    HW226831   4.442   9.303   4.624 -0.1496 -0.3425 -1.2502
 8211SOL     OW26832   0.467   8.652   4.919 -0.5288 -0.2012 -0.0468
 8211SOL    HW126833   0.516   8.573   4.896  0.1833  0.5929 -1.3081
 8211SOL    HW226834   0.533   8.721   4.927 -1.0953  0.2119  1.4619
 8212SOL     OW26835   3.176   8.086   3.776 -0.2053  0.0508 -0.1872
 8212SOL    HW126836   3.157   8.002   3.818 -0.2447  0.2912  0.2935
 8212SOL    HW226837   3.152   8.151   3.842  0.5392  0.4180 -0.2662
 8213SOL     OW26838   2.364   8.798   2.319 -0.0839  0.4010 -0.4713
 8213SOL    HW126839   2.342   8.863   2.252  1.0021  0.9086 -0.3546
 8213SOL    HW226840   2.322   8.830   2.399  1.1630  1.4751 -0.2015
 8214SOL     OW26841   9.460   2.815   7.139  0.1589 -0.0840 -0.0390
 8214SOL    HW126842   9.498   2.899   7.113 -0.8258  0.2350 -0.5290
 8214SOL    HW226843   9.415   2.784   7.060 -0.1056 -0.7144  0.3532
 8215SOL     OW26844   2.685   4.102   9.024 -0.7569  0.1903  0.1644
 8215SOL    HW126845   2.663   4.094   9.117 -0.6362  0.2447  0.1975
 8215SOL    HW226846   2.682   4.196   9.007  1.5505  0.3950  0.6714
 8216SOL     OW26847   0.816   5.523   0.914 -0.2915 -0.2707  0.3392
 8216SOL    HW126848   0.867   5.587   0.964  0.1859  1.1003 -1.7897
 8216SOL    HW226849   0.852   5.438   0.940  1.6364  0.5473  0.4517
 8217SOL     OW26850   6.994   7.435   1.866  0.3046  0.2303 -0.1287
 8217SOL    HW126851   6.955   7.506   1.916  0.5272 -0.3242  0.8622
 8217SOL    HW226852   6.951   7.439   1.780  0.6046  1.7945 -0.2298
 8218SOL     OW26853   5.232   8.921   1.542 -0.3593  0.3186 -0.2053
 8218SOL    HW126854   5.202   8.835   1.511  0.0028  0.7616 -1.8869
 8218SOL    HW226855   5.292   8.901   1.614  0.0596 -0.8723 -0.8594
 8219SOL     OW26856   1.674   7.265   6.887  0.3523 -0.0867 -0.4156
 8219SOL    HW126857   1.678   7.189   6.944  2.0181  1.1652  1.2730
 8219SOL    HW226858   1.581   7.277   6.870 -0.0969 -1.2743  1.0035
 8220SOL     OW26859   1.560   0.006   2.602  0.1164 -0.3171  0.3314
 8220SOL    HW126860   1.471   0.037   2.614 -0.1068 -0.9860  0.4330
 8220SOL    HW226861   1.563  -0.078   2.648  0.6359 -0.5642 -0.1408
 8221SOL     OW26862   7.303   6.358   6.483 -0.4576  0.5053  0.2114
 8221SOL    HW126863   7.232   6.416   6.511 -0.1003  0.2915  1.6414
 8221SOL    HW226864   7.262   6.300   6.419 -1.4506  0.7054  0.6398
 8222SOL     OW26865   5.063   8.962   4.079 -0.1509 -0.4360 -0.0221
 8222SOL    HW126866   5.111   8.895   4.128  0.8332  0.5052  0.3294
 8222SOL    HW226867   5.125   8.993   4.013 -0.0934  1.1365  0.7441
 8223SOL     OW26868   3.625   4.009   3.956  0.0482 -0.3656 -0.1141
 8223SOL    HW126869   3.539   3.990   3.917 -0.3619  0.9458  0.1062
 8223SOL    HW226870   3.630   3.950   4.031 -0.5929 -0.5647 -0.2145
 8224SOL     OW26871   3.718   2.219   7.330  0.0561  0.1119 -0.3194
 8224SOL    HW126872   3.681   2.186   7.411  2.2805  1.2012  1.2520
 8224SOL    HW226873   3.643   2.248   7.278 -1.3917  0.0644  1.6673
 8225SOL     OW26874   1.993   7.535   7.676 -0.5085 -0.0559 -0.3052
 8225SOL    HW126875   1.904   7.564   7.659 -1.6193 -2.6145  0.7299
 8225SOL    HW226876   2.025   7.593   7.746 -2.4549 -0.8542  1.3452
 8226SOL     OW26877   0.949   1.444   1.318  0.3897  0.0423 -0.2460
 8226SOL    HW126878   0.914   1.524   1.281  0.6121 -0.8915 -2.6093
 8226SOL    HW226879   1.044   1.456   1.315  0.4185  0.3124  0.9575
 8227SOL     OW26880   6.851   4.480   7.108  0.0814 -0.5771 -0.2250
 8227SOL    HW126881   6.909   4.435   7.169 -1.0364 -0.1367  1.2294
 8227SOL    HW226882   6.909   4.533   7.053  1.0469  0.0486  1.3414
 8228SOL     OW26883   7.873   2.244   8.011  0.3501 -0.0883  0.4326
 8228SOL    HW126884   7.810   2.303   7.968  0.2002 -0.6981 -0.2092
 8228SOL    HW226885   7.822   2.199   8.078 -0.1470 -1.2369 -0.6776
 8229SOL     OW26886   6.872   6.347   4.240 -0.7160  0.2279 -0.6735
 8229SOL    HW126887   6.837   6.330   4.152 -1.0324  1.2417 -0.7564
 8229SOL    HW226888   6.800   6.389   4.287  0.1725  1.8431 -0.6732
 8230SOL     OW26889   6.569   3.177   8.739  0.0038 -0.4111 -0.4182
 8230SOL    HW126890   6.634   3.107   8.738  0.7856  0.2986 -0.9995
 8230SOL    HW226891   6.487   3.134   8.766  0.1068 -1.8638 -2.2242
 8231SOL     OW26892   3.484   8.305   1.245 -0.0057  0.3549 -0.0711
 8231SOL    HW126893   3.489   8.331   1.337  0.9657  0.7592 -0.2278
 8231SOL    HW226894   3.567   8.261   1.227 -0.8673 -1.2774 -0.3115
 8232SOL     OW26895   9.216   3.384   7.031  0.8210 -0.3961 -0.2055
 8232SOL    HW126896   9.177   3.460   7.073 -0.4969 -0.7545 -0.7429
 8232SOL    HW226897   9.229   3.321   7.101  0.1246 -0.3962 -0.0768
 8233SOL     OW26898   7.788   8.955   8.687  0.0895  0.1876 -0.9625
 8233SOL    HW126899   7.867   8.947   8.635  0.3958 -1.5628 -0.2952
 8233SOL    HW226900   7.724   8.994   8.627  1.5231  2.0572 -1.3792
 8234SOL     OW26901   0.847   7.022   8.624 -0.1177  0.1918 -0.3918
 8234SOL    HW126902   0.754   7.027   8.603 -0.3886  0.6322  0.8091
 8234SOL    HW226903   0.857   6.939   8.670  0.0550  0.2322 -0.3548
 8235SOL     OW26904   8.904   2.666   4.087 -0.5279 -0.1586  0.6261
 8235SOL    HW126905   8.961   2.742   4.090 -1.9677  0.9565  0.9679
 8235SOL    HW226906   8.865   2.662   4.174 -1.1364 -0.7539  0.3385
 8236SOL     OW26907   3.731   8.680   4.119 -0.1086 -0.1845  0.0746
 8236SOL    HW126908   3.781   8.672   4.200 -0.2271  0.0427  0.1696
 8236SOL    HW226909   3.778   8.744   4.066  0.5167 -1.0505 -0.4509
 8237SOL     OW26910   1.642   4.669   2.287  0.4520 -0.5283 -0.3073
 8237SOL    HW126911   1.731   4.705   2.293  1.1738 -2.1001 -0.9630
 8237SOL    HW226912   1.611   4.666   2.377  0.2351  1.9119 -0.2253
 8238SOL     OW26913   8.261   0.708   8.211 -0.0471 -0.4523 -0.1960
 8238SOL    HW126914   8.292   0.635   8.264  0.0818 -0.0586  0.2743
 8238SOL    HW226915   8.268   0.677   8.121  1.1763 -0.5743 -0.0769
 8239SOL     OW26916   6.366   6.463   1.304 -0.7358  0.2442  0.4186
 8239SOL    HW126917   6.354   6.549   1.344 -0.1150  1.0464 -1.0645
 8239SOL    HW226918   6.439   6.474   1.244  0.5266 -1.7941  1.4592
 8240SOL     OW26919   1.686   2.884   0.488  0.3297 -0.4626 -0.2258
 8240SOL    HW126920   1.736   2.850   0.414  3.1708 -1.4869  1.9664
 8240SOL    HW226921   1.607   2.829   0.491  0.6235 -1.0294 -1.8683
 8241SOL     OW26922   7.050   2.731   3.350  1.0290 -0.0183 -0.6846
 8241SOL    HW126923   6.989   2.657   3.340  1.9289 -1.0544  1.0397
 8241SOL    HW226924   6.994   2.803   3.381  0.2965 -0.2518 -1.4242
 8242SOL     OW26925   7.313   5.106   9.498  0.0687 -0.8471 -0.0249
 8242SOL    HW126926   7.222   5.136   9.506  0.6385  1.0055 -0.2548
 8242SOL    HW226927   7.366   5.183   9.514  1.6238 -1.8146 -0.3036
 8243SOL     OW26928   6.948   1.393   5.095  0.2077 -0.3268 -0.0969
 8243SOL    HW126929   7.010   1.320   5.103  0.6370  0.2379  2.4558
 8243SOL    HW226930   6.991   1.465   5.140 -0.5464  1.3388 -1.9160
 8244SOL     OW26931   3.251   7.832   2.015  0.3106 -0.0859  0.2522
 8244SOL    HW126932   3.335   7.824   2.060  0.3571 -0.8831  0.0281
 8244SOL    HW226933   3.238   7.747   1.973 -0.2360  0.3009 -0.3684
 8245SOL     OW26934   8.827   0.400   2.874 -0.3723 -0.2598  0.3722
 8245SOL    HW126935   8.849   0.443   2.792  0.2321  1.3802  1.3471
 8245SOL    HW226936   8.733   0.411   2.883 -0.7294 -1.8784 -0.8355
 8246SOL     OW26937   0.822   9.394   6.733 -0.0560  0.2617  0.0912
 8246SOL    HW126938   0.808   9.401   6.638  0.6237  2.4866  0.0858
 8246SOL    HW226939   0.905   9.347   6.741  0.1618  0.5345 -0.4560
 8247SOL     OW26940   7.196   5.863   6.979  0.3972  0.3216 -0.0057
 8247SOL    HW126941   7.104   5.846   6.999 -0.3557  1.0628 -2.4876
 8247SOL    HW226942   7.222   5.931   7.042  0.1133 -1.7070  2.4569
 8248SOL     OW26943   1.314   0.545   5.065  0.2183  0.0338  0.6067
 8248SOL    HW126944   1.388   0.544   5.127  0.4805 -2.6800  0.3902
 8248SOL    HW226945   1.242   0.506   5.114  0.0640 -0.9436 -0.3690
 8249SOL     OW26946   7.792   8.793   5.252  0.0307 -0.4565  0.0497
 8249SOL    HW126947   7.700   8.798   5.277 -0.0933 -1.4839 -0.1170
 8249SOL    HW226948   7.793   8.729   5.180  0.7284  0.3998 -0.7235
 8250SOL     OW26949   3.942   0.378   4.495 -0.0078  0.1075  0.7480
 8250SOL    HW126950   3.909   0.466   4.474  0.7137  1.0612  3.3024
 8250SOL    HW226951   3.863   0.326   4.511 -0.4698  0.0428 -1.4343
 8251SOL     OW26952   8.968   8.529   6.390  0.2287  0.5507 -0.5035
 8251SOL    HW126953   8.948   8.523   6.483  0.9127  0.4999 -0.3524
 8251SOL    HW226954   9.006   8.616   6.379  0.1598  0.5522 -0.7340
 8252SOL     OW26955   8.574   8.021   8.789 -0.6017  0.1822  0.1735
 8252SOL    HW126956   8.549   7.952   8.851 -1.9726 -0.0109 -0.5572
 8252SOL    HW226957   8.568   7.980   8.703  2.3889  0.1178 -0.0986
 8253SOL     OW26958   0.253   1.675   4.116 -0.0682  0.2935 -0.2508
 8253SOL    HW126959   0.240   1.641   4.205  1.5512 -0.6172 -0.3352
 8253SOL    HW226960   0.214   1.763   4.119  0.4003  0.4870  1.5087
 8254SOL     OW26961   2.364   5.980   2.884 -0.6809 -0.0966  0.0175
 8254SOL    HW126962   2.370   6.054   2.944 -3.8322  0.0218  0.3494
 8254SOL    HW226963   2.422   5.914   2.921 -2.5449 -0.0701  3.3330
 8255SOL     OW26964   8.771   7.683   8.616  0.3827 -0.1597  0.2563
 8255SOL    HW126965   8.787   7.775   8.638 -1.1600 -0.0647  1.1120
 8255SOL    HW226966   8.858   7.644   8.611  1.0255  1.1916  0.5947
 8256SOL     OW26967   4.665   6.983   3.607  0.7839 -0.9984 -0.6260
 8256SOL    HW126968   4.706   6.940   3.681  2.7039 -0.0968 -1.0995
 8256SOL    HW226969   4.607   7.048   3.646  0.1489 -1.9509  0.0607
 8257SOL     OW26970   3.005   6.809   0.107 -0.3746  0.1066 -0.1158
 8257SOL    HW126971   3.031   6.720   0.133 -1.0377 -0.2551 -0.6538
 8257SOL    HW226972   3.054   6.866   0.166  1.9602 -0.5064 -1.3258
 8258SOL     OW26973   2.798   0.506   9.315 -0.5060  0.0163  0.0024
 8258SOL    HW126974   2.733   0.515   9.245  0.0155  0.0788 -0.4791
 8258SOL    HW226975   2.817   0.412   9.318 -1.3764 -0.1513  0.8503
 8259SOL     OW26976   1.003   8.901   4.540 -0.2983 -0.4720 -0.1896
 8259SOL    HW126977   0.909   8.883   4.550 -0.4734 -0.1085 -1.0972
 8259SOL    HW226978   1.041   8.878   4.625 -0.7566 -3.4713 -0.6841
 8260SOL     OW26979   3.013   4.732   7.869 -0.0943 -0.4721 -0.1561
 8260SOL    HW126980   3.003   4.784   7.949  0.8524  0.0673 -0.3784
 8260SOL    HW226981   3.047   4.648   7.899  0.3811 -0.2256 -0.0047
 8261SOL     OW26982   5.243   9.406   0.192 -0.1824  0.0448  0.0316
 8261SOL    HW126983   5.171   9.344   0.203 -0.9562  0.9743  0.2887
 8261SOL    HW226984   5.235   9.466   0.266  0.2910  0.7148 -0.4452
 8262SOL     OW26985   4.061   8.655   5.222  0.1432 -0.7162  0.7730
 8262SOL    HW126986   4.120   8.599   5.272  0.2387 -0.7299  0.6469
 8262SOL    HW226987   4.082   8.636   5.131 -0.7512 -1.4626  0.7111
 8263SOL     OW26988   3.171   6.196   0.591 -0.4786 -0.3726 -0.0493
 8263SOL    HW126989   3.202   6.281   0.560 -0.1377 -0.3292  0.3940
 8263SOL    HW226990   3.091   6.215   0.639 -0.7830 -0.3912 -0.5373
 8264SOL     OW26991   2.418   0.491   1.768 -0.4485  0.0284  0.6090
 8264SOL    HW126992   2.423   0.573   1.718 -0.7173  1.3357  2.5911
 8264SOL    HW226993   2.509   0.461   1.772 -0.3051  0.3650  0.0851
 8265SOL     OW26994   1.030   8.713   3.750  0.1251  0.2968 -0.4130
 8265SOL    HW126995   0.987   8.640   3.705 -0.9574  0.9059 -0.4109
 8265SOL    HW226996   1.074   8.762   3.680  0.7194 -0.2574 -0.4336
 8266SOL     OW26997   9.240   6.546   8.373 -0.2689 -0.8945 -0.0951
 8266SOL    HW126998   9.153   6.520   8.342 -0.2633 -0.2805 -0.6523
 8266SOL    HW226999   9.276   6.598   8.301 -0.2801  0.6351  0.9538
 8267SOL     OW27000   1.736   3.110   8.180 -0.2029 -0.3057  0.0943
 8267SOL    HW127001   1.814   3.110   8.237  0.8813 -0.2259 -1.3305
 8267SOL    HW227002   1.733   3.199   8.145  0.2629 -0.8556 -1.4094
 8268SOL     OW27003   9.318   0.861   5.112  0.5572  0.2097  0.1474
 8268SOL    HW127004   9.381   0.918   5.066 -0.2867  0.3436 -0.8802
 8268SOL    HW227005   9.305   0.904   5.196  0.6037  1.0695 -0.2729
 8269SOL     OW27006   5.710   2.577   1.013 -0.6164 -0.1582  0.2691
 8269SOL    HW127007   5.790   2.527   1.029 -0.4787  0.2219  0.8053
 8269SOL    HW227008   5.740   2.656   0.968 -0.4438  0.7979  1.9625
 8270SOL     OW27009   5.061   4.070   1.180  0.2127 -0.3498  0.4957
 8270SOL    HW127010   4.992   4.136   1.166 -0.7726 -1.4145  0.1952
 8270SOL    HW227011   5.092   4.087   1.269  0.0000  0.5399  0.4167
 8271SOL     OW27012   7.496   5.871   9.554  0.8365  0.3209 -0.3539
 8271SOL    HW127013   7.564   5.851   9.489  0.5913  1.5130 -0.9949
 8271SOL    HW227014   7.464   5.957   9.529  0.4725  0.6319  1.1467
 8272SOL     OW27015   1.379   1.596   3.489  0.2816  0.0296 -0.5354
 8272SOL    HW127016   1.291   1.623   3.463  1.3072  2.3140 -1.9830
 8272SOL    HW227017   1.388   1.507   3.453 -1.1534  0.0508 -1.0317
 8273SOL     OW27018   0.916   4.867   3.632  0.3836  0.2487  0.4264
 8273SOL    HW127019   0.974   4.926   3.584  1.1210  0.9724  2.1127
 8273SOL    HW227020   0.966   4.786   3.641  0.0193 -0.0867 -0.4843
 8274SOL     OW27021   8.743   7.250   9.564  0.4254 -0.3658  0.1587
 8274SOL    HW127022   8.707   7.167   9.534 -1.7556  0.3717  0.5191
 8274SOL    HW227023   8.667   7.299   9.595  1.2611  2.6470 -2.0638
 8275SOL     OW27024   4.225   6.942   2.800 -0.1088  0.0346 -0.1230
 8275SOL    HW127025   4.273   6.882   2.857 -0.8394 -0.7885 -0.3531
 8275SOL    HW227026   4.263   7.028   2.818  0.1779 -0.3221  1.0524
 8276SOL     OW27027   5.233   1.399   7.436  0.2934 -0.0002  0.1464
 8276SOL    HW127028   5.232   1.412   7.341  0.6865  0.9222  0.2658
 8276SOL    HW227029   5.231   1.303   7.447 -0.3744 -0.1017 -0.7745
 8277SOL     OW27030   0.915   3.650   2.209 -0.6725 -0.2362 -0.2531
 8277SOL    HW127031   0.923   3.673   2.117 -0.7961  1.0519  0.0312
 8277SOL    HW227032   0.959   3.566   2.217  0.5260  0.2731 -1.2393
 8278SOL     OW27033   2.715   4.641   9.318 -0.4763 -0.3933 -0.3275
 8278SOL    HW127034   2.749   4.728   9.301 -0.7368 -0.0959  0.6273
 8278SOL    HW227035   2.735   4.591   9.239  0.0451  0.4159 -0.7105
 8279SOL     OW27036   3.203   0.920   3.159  0.3476 -0.0885  0.3043
 8279SOL    HW127037   3.264   0.986   3.193  1.3661 -0.2721 -1.1212
 8279SOL    HW227038   3.122   0.936   3.208  0.2437  2.8690 -0.6362
 8280SOL     OW27039   0.307   7.842   4.061  0.7020 -0.2667 -0.5258
 8280SOL    HW127040   0.239   7.908   4.075  0.6497 -0.7470  1.9553
 8280SOL    HW227041   0.352   7.871   3.982 -1.8404  0.5076 -1.8172
 8281SOL     OW27042   4.679   6.836   6.290  0.0015 -0.0470 -0.5414
 8281SOL    HW127043   4.697   6.930   6.283 -0.1611  0.2179  1.9366
 8281SOL    HW227044   4.757   6.799   6.331 -0.3471 -0.8245 -0.5690
 8282SOL     OW27045   1.827   1.037   8.833 -0.2307  0.7525 -0.5407
 8282SOL    HW127046   1.902   1.079   8.790 -0.4996  0.4440 -1.3285
 8282SOL    HW227047   1.865   0.962   8.879  0.2029  1.6377  0.5859
 8283SOL     OW27048   3.773   7.674   4.192 -0.2165 -0.3859  0.7685
 8283SOL    HW127049   3.688   7.715   4.176 -0.1806 -0.7882 -0.5726
 8283SOL    HW227050   3.832   7.713   4.127  0.1427 -1.5263  0.3692
 8284SOL     OW27051   0.829   1.534   8.117 -0.2386 -0.3932  0.3173
 8284SOL    HW127052   0.737   1.549   8.139 -0.5887  0.7494 -1.5846
 8284SOL    HW227053   0.876   1.602   8.164 -1.0527  2.5558 -2.7208
 8285SOL     OW27054   0.834   4.640   7.238  0.5147 -0.3273 -0.6313
 8285SOL    HW127055   0.801   4.664   7.152 -0.1738 -0.0612 -0.2974
 8285SOL    HW227056   0.755   4.623   7.290  0.9161 -3.0080 -0.7514
 8286SOL     OW27057   2.237   4.987   7.743  0.6015 -0.1826 -0.3790
 8286SOL    HW127058   2.170   4.956   7.682  1.9952 -0.8868 -1.6199
 8286SOL    HW227059   2.306   4.921   7.738  1.7953  0.9852  0.1441
 8287SOL     OW27060   1.939   6.941   5.652 -0.6481  0.0585  0.2041
 8287SOL    HW127061   1.936   6.943   5.556  1.0750  0.4601  0.1153
 8287SOL    HW227062   1.959   6.850   5.673  0.2877  0.2245  0.0905
 8288SOL     OW27063   8.665   6.940   8.364  0.5351 -0.5839  0.4256
 8288SOL    HW127064   8.646   6.846   8.371  1.4605 -0.7611  0.7135
 8288SOL    HW227065   8.746   6.952   8.414  0.9652  0.1856 -0.4129
 8289SOL     OW27066   2.745   6.336   1.865 -0.3593 -0.0808 -0.2028
 8289SOL    HW127067   2.765   6.383   1.946 -1.3566  1.6407 -0.8877
 8289SOL    HW227068   2.829   6.300   1.837  0.0059 -0.6723  1.5469
 8290SOL     OW27069   8.156   1.068   6.692  0.3049  0.3817  0.5767
 8290SOL    HW127070   8.241   1.035   6.719  0.9409  0.7977 -0.8298
 8290SOL    HW227071   8.158   1.161   6.713  1.4007  1.0542 -2.1070
 8291SOL     OW27072   8.049   7.374   4.714  0.2321 -0.5396  0.1448
 8291SOL    HW127073   7.995   7.448   4.739  1.6947  0.6607 -0.1362
 8291SOL    HW227074   8.040   7.312   4.786 -0.5336  0.1612  0.6588
 8292SOL     OW27075   5.419   4.788   1.522  0.1352  0.0666 -0.2420
 8292SOL    HW127076   5.370   4.706   1.521 -1.6316  1.0176  1.6623
 8292SOL    HW227077   5.353   4.856   1.503  0.9775  1.2644  0.9557
 8293SOL     OW27078   0.874   4.184   0.830  0.0809  0.2317  0.1638
 8293SOL    HW127079   0.867   4.278   0.851  1.8125  0.0786  1.6130
 8293SOL    HW227080   0.914   4.182   0.743  0.5050  0.8303  0.3399
 8294SOL     OW27081   2.202   7.394   5.336  0.4461 -0.2819 -0.2225
 8294SOL    HW127082   2.241   7.310   5.360  2.1536  0.2852 -0.8435
 8294SOL    HW227083   2.126   7.403   5.394  0.7982 -1.7934  0.5241
 8295SOL     OW27084   5.208   7.475   4.226  0.3964 -0.1530  0.0645
 8295SOL    HW127085   5.217   7.452   4.134  1.7442 -1.7956  0.5421
 8295SOL    HW227086   5.259   7.555   4.236  2.3995 -1.3265 -0.1917
 8296SOL     OW27087   8.583   7.690   9.480  0.1752 -0.0125  0.0707
 8296SOL    HW127088   8.585   7.658   9.570  1.5926 -0.3876 -0.0755
 8296SOL    HW227089   8.559   7.783   9.489  0.8188  0.0905  0.8873
 8297SOL     OW27090   8.708   7.448   7.191 -0.1966 -0.0332  0.0424
 8297SOL    HW127091   8.735   7.532   7.227  1.3856 -1.1198  1.5298
 8297SOL    HW227092   8.766   7.434   7.116  0.9328 -0.6492  0.9877
 8298SOL     OW27093   6.700   7.667   1.789  0.5894 -0.0363  0.0218
 8298SOL    HW127094   6.625   7.701   1.837  0.7592  1.0869 -0.4856
 8298SOL    HW227095   6.677   7.678   1.697  0.9572 -0.6484 -0.1552
 8299SOL     OW27096   4.820   1.128   8.983  0.0512 -0.0535 -0.0564
 8299SOL    HW127097   4.865   1.092   9.059  0.2644  1.5893  0.6385
 8299SOL    HW227098   4.859   1.215   8.971 -2.7088  1.3750  0.4568
 8300SOL     OW27099   1.923   3.338   7.103 -0.4684  0.1395  0.2102
 8300SOL    HW127100   1.963   3.266   7.153  0.4214 -0.5440 -1.4065
 8300SOL    HW227101   1.990   3.406   7.101 -0.1160 -0.2144 -0.8114
 8301SOL     OW27102   5.710   6.903   6.297 -0.4063  0.3575  0.2662
 8301SOL    HW127103   5.629   6.853   6.302  0.2122 -0.6616  0.4060
 8301SOL    HW227104   5.715   6.930   6.205 -0.3192 -0.6060 -0.0291
 8302SOL     OW27105   9.451   1.592   6.170  0.3840 -0.0700  0.3717
 8302SOL    HW127106   9.510   1.664   6.148 -1.0981  1.1071  0.0848
 8302SOL    HW227107   9.490   1.551   6.247  1.1458  1.1913  0.6863
 8303SOL     OW27108   9.040   3.376   1.106 -0.4595  0.4634 -0.0781
 8303SOL    HW127109   8.983   3.369   1.029 -2.9062  0.4491  1.6034
 8303SOL    HW227110   8.990   3.334   1.176  1.6060  0.6180  1.5704
 8304SOL     OW27111   0.295   3.049   9.235  0.1414  0.4941  0.0066
 8304SOL    HW127112   0.259   3.056   9.146 -1.5900 -2.2083  0.3837
 8304SOL    HW227113   0.239   3.107   9.287 -1.0245 -0.4603 -0.1381
 8305SOL     OW27114   5.920   2.885   3.878 -0.0065 -0.5735 -0.0537
 8305SOL    HW127115   5.948   2.940   3.805 -1.2230  0.1431 -0.0042
 8305SOL    HW227116   5.975   2.914   3.952  0.0704 -0.1492 -0.2778
 8306SOL     OW27117   1.700   6.171   9.464 -0.1289 -0.1069  0.3711
 8306SOL    HW127118   1.632   6.234   9.488  0.5703  0.4435  0.9770
 8306SOL    HW227119   1.767   6.223   9.418  0.0020 -0.5877  0.0063
 8307SOL     OW27120   3.059   3.895   6.320  0.4024 -0.2256  0.0157
 8307SOL    HW127121   2.965   3.902   6.303  0.3435 -1.9459 -0.4710
 8307SOL    HW227122   3.093   3.983   6.302 -0.6591 -0.2844 -2.8095
 8308SOL     OW27123   2.634   2.184   2.630 -0.2186 -0.5979  0.4793
 8308SOL    HW127124   2.541   2.194   2.651  0.0402 -0.8515  1.8326
 8308SOL    HW227125   2.635   2.160   2.537 -1.4617  0.0008  0.2850
 8309SOL     OW27126   1.518   4.172   0.641 -0.1689 -0.1211 -0.5113
 8309SOL    HW127127   1.443   4.153   0.697  1.0869 -1.3588  0.8325
 8309SOL    HW227128   1.499   4.257   0.602 -0.8892  1.0138  2.1522
 8310SOL     OW27129   2.804   6.124   5.496  0.6294  0.6677 -0.2793
 8310SOL    HW127130   2.886   6.121   5.545  0.0761 -0.7900  0.6148
 8310SOL    HW227131   2.800   6.039   5.452 -0.3168  0.8041 -0.4646
 8311SOL     OW27132   5.335   9.033   0.881 -0.0455 -0.0277  0.0999
 8311SOL    HW127133   5.349   9.025   0.975 -2.4535 -1.2861  0.4199
 8311SOL    HW227134   5.377   8.956   0.843 -0.3781 -0.3183  0.3202
 8312SOL     OW27135   2.045   1.693   5.390  0.2647  0.0878 -0.5106
 8312SOL    HW127136   2.000   1.775   5.368  1.4666  0.6470 -0.9711
 8312SOL    HW227137   2.085   1.666   5.308  1.4321  0.0390  0.0665
 8313SOL     OW27138   4.119   8.336   5.586  0.1189 -0.3770  0.3016
 8313SOL    HW127139   4.123   8.248   5.548  0.8571  0.4613 -1.7111
 8313SOL    HW227140   4.083   8.323   5.674 -0.9755 -2.5299 -0.3982
 8314SOL     OW27141   8.443   2.919   1.274  0.3409 -0.2619 -0.6402
 8314SOL    HW127142   8.360   2.905   1.228 -1.7680 -2.3044  3.2084
 8314SOL    HW227143   8.433   3.004   1.316 -0.3550 -0.9443  0.6428
 8315SOL     OW27144   8.303   6.402   9.448  0.0966  0.2351 -0.2603
 8315SOL    HW127145   8.364   6.333   9.474  0.1848  0.5201  0.3162
 8315SOL    HW227146   8.345   6.483   9.476 -1.1734  0.3446  1.4984
 8316SOL     OW27147   2.752   2.650   6.449 -0.5420 -0.2321  0.2369
 8316SOL    HW127148   2.754   2.684   6.538 -1.1806  1.6556 -0.4199
 8316SOL    HW227149   2.815   2.705   6.401  0.8940 -2.1587 -0.2112
 8317SOL     OW27150   0.916   0.382   9.241 -0.0596 -0.6320  0.5781
 8317SOL    HW127151   0.848   0.355   9.303 -1.1024 -0.8483 -0.6159
 8317SOL    HW227152   0.934   0.303   9.189  1.8854 -0.8781  1.5372
 8318SOL     OW27153   8.330   4.241   2.985  0.8034 -0.4172 -0.3287
 8318SOL    HW127154   8.412   4.192   2.976  2.5211  1.6175  2.5042
 8318SOL    HW227155   8.289   4.206   3.064 -0.5262 -0.5844 -1.0518
 8319SOL     OW27156   0.280   5.129   7.227 -0.3185  0.2058  0.4640
 8319SOL    HW127157   0.370   5.122   7.258  0.4489  1.4472 -1.3009
 8319SOL    HW227158   0.288   5.143   7.132 -2.2155  3.1582  0.5986
 8320SOL     OW27159   5.553   2.813   4.683  0.5129 -0.5215  0.0986
 8320SOL    HW127160   5.638   2.842   4.649  0.2254 -0.8004 -0.8957
 8320SOL    HW227161   5.545   2.723   4.652 -0.2553 -0.4111 -0.0382
 8321SOL     OW27162   8.170   2.334   2.992  0.1636  0.0744 -0.7706
 8321SOL    HW127163   8.230   2.403   3.021 -0.3693  0.8748 -1.5095
 8321SOL    HW227164   8.224   2.277   2.938  0.7255 -0.3806  0.2394
 8322SOL     OW27165   2.268   7.900   5.546 -0.5127 -0.2646 -0.0724
 8322SOL    HW127166   2.195   7.961   5.535 -0.3370 -0.0070  0.1905
 8322SOL    HW227167   2.254   7.860   5.632 -0.5375 -0.4766 -0.1742
 8323SOL     OW27168   6.603   9.376   8.535  0.0840  0.7490  0.5336
 8323SOL    HW127169   6.610   9.470   8.549  0.4176  0.5754  1.6177
 8323SOL    HW227170   6.692   9.344   8.548 -0.2754  0.1194  1.4773
 8324SOL     OW27171   2.735   6.660   5.645 -0.3801 -0.0069 -0.3733
 8324SOL    HW127172   2.749   6.588   5.583  1.4536  1.1887 -1.4388
 8324SOL    HW227173   2.651   6.699   5.618 -0.1938 -0.2589 -1.3477
 8325SOL     OW27174   6.075   8.224   7.573  0.1459  0.3331 -0.0836
 8325SOL    HW127175   5.988   8.201   7.541  0.1532  0.3549 -0.1187
 8325SOL    HW227176   6.135   8.174   7.517  0.1242 -0.4483  0.5548
 8326SOL     OW27177   1.556   2.187   0.069  0.3788  0.9385 -0.3873
 8326SOL    HW127178   1.642   2.205   0.029  1.1240  1.5544  1.3969
 8326SOL    HW227179   1.576   2.142   0.151 -1.1053 -0.2293 -0.6208
 8327SOL     OW27180   5.767   8.237   9.078  0.0749 -0.2854 -0.3657
 8327SOL    HW127181   5.855   8.199   9.082  0.5677  0.7276 -1.1400
 8327SOL    HW227182   5.724   8.192   9.005  0.5908  0.4928 -1.1592
 8328SOL     OW27183   5.787   2.273   5.540  0.2682  0.1274  0.1154
 8328SOL    HW127184   5.786   2.234   5.453 -0.8901  0.2650  0.0528
 8328SOL    HW227185   5.875   2.308   5.550  0.6832 -0.6871 -0.6410
 8329SOL     OW27186   1.817   2.350   4.794  0.1245  0.5860  0.4327
 8329SOL    HW127187   1.841   2.280   4.733 -0.3088  1.1211 -0.3644
 8329SOL    HW227188   1.859   2.325   4.876 -1.0003 -1.2321  0.5045
 8330SOL     OW27189   0.564   2.042   2.111 -0.0544  0.0013  0.2171
 8330SOL    HW127190   0.506   2.101   2.061  0.0041 -1.4561 -1.6875
 8330SOL    HW227191   0.622   2.004   2.044  0.5494 -1.4721  1.5312
 8331SOL     OW27192   3.931   7.603   2.688  0.1581 -0.3599 -0.0022
 8331SOL    HW127193   3.983   7.582   2.610  1.0432 -2.8685  1.1704
 8331SOL    HW227194   3.989   7.585   2.762 -0.0828  3.4793  1.3775
 8332SOL     OW27195   9.256   2.942   8.801 -0.0672 -0.0849  0.7217
 8332SOL    HW127196   9.249   3.037   8.804  0.5287 -0.0438  0.8230
 8332SOL    HW227197   9.318   2.924   8.732 -1.0836 -0.4565 -0.1228
 8333SOL     OW27198   0.455   0.567   5.005 -0.0319  0.2993 -0.0287
 8333SOL    HW127199   0.361   0.566   4.986 -0.5145  0.2612  2.0400
 8333SOL    HW227200   0.492   0.499   4.950 -1.7476 -1.8968  1.3614
 8334SOL     OW27201   6.306   3.621   1.772  0.2640 -0.0461 -0.2555
 8334SOL    HW127202   6.360   3.664   1.838  1.7445 -1.3532 -0.5771
 8334SOL    HW227203   6.357   3.625   1.691 -0.2930 -0.9343 -0.6732
 8335SOL     OW27204   8.675   6.255   9.318 -0.0782  0.1942  0.8159
 8335SOL    HW127205   8.609   6.263   9.249 -0.0648  1.3365  0.9177
 8335SOL    HW227206   8.627   6.218   9.392  0.2453 -2.5972 -0.2356
 8336SOL     OW27207   6.529   4.614   7.454  0.3205  0.4669 -0.1876
 8336SOL    HW127208   6.562   4.583   7.369  0.9448  0.6779 -0.0256
 8336SOL    HW227209   6.482   4.539   7.490  3.0055 -0.8425  0.8385
 8337SOL     OW27210   7.192   5.096   6.451  0.3780  0.5797 -0.3694
 8337SOL    HW127211   7.169   5.005   6.437  1.8675 -0.0785  1.0301
 8337SOL    HW227212   7.118   5.133   6.500 -0.6981  0.4520 -1.8395
 8338SOL     OW27213   6.279   2.724   8.958 -0.5184 -0.5218 -0.1326
 8338SOL    HW127214   6.218   2.755   9.025 -1.3352  1.2774 -1.6279
 8338SOL    HW227215   6.230   2.658   8.909 -0.0746 -1.5116  0.7288
 8339SOL     OW27216   1.160   6.803   6.658 -0.8063 -0.4421  0.3474
 8339SOL    HW127217   1.086   6.851   6.621  0.3541 -0.0736 -1.6296
 8339SOL    HW227218   1.185   6.852   6.735 -1.7728  0.1869  0.2724
 8340SOL     OW27219   7.077   5.586   5.713 -0.0326  0.2718 -0.0962
 8340SOL    HW127220   7.102   5.614   5.624  0.1736 -0.9543 -0.4397
 8340SOL    HW227221   7.124   5.504   5.726 -1.9885 -0.8508  0.2019
 8341SOL     OW27222   6.182   2.274   4.932 -0.1970  0.0973 -0.2706
 8341SOL    HW127223   6.213   2.333   4.864  2.6689 -1.2921 -0.3237
 8341SOL    HW227224   6.262   2.243   4.976 -1.8263 -0.0576  2.9175
 8342SOL     OW27225   5.837   4.180   7.960  0.0082  0.1034  0.1248
 8342SOL    HW127226   5.818   4.267   7.993 -1.3324  0.0675 -0.4616
 8342SOL    HW227227   5.832   4.188   7.865  0.3649 -0.5087  0.0436
 8343SOL     OW27228   4.988   4.630   7.530 -0.4019  0.6552 -0.2443
 8343SOL    HW127229   4.952   4.545   7.506 -0.6218  1.0692 -1.4580
 8343SOL    HW227230   5.024   4.617   7.617 -1.6464 -0.3185  0.1580
 8344SOL     OW27231   2.215   3.924   5.627  0.3490  0.4857 -0.4065
 8344SOL    HW127232   2.181   3.866   5.695 -1.2557  1.1015 -0.6331
 8344SOL    HW227233   2.145   3.987   5.613  0.5433  0.2547 -2.7729
 8345SOL     OW27234   8.847   9.159   5.067  0.5870 -0.1043 -0.3145
 8345SOL    HW127235   8.834   9.119   5.153 -0.2524 -0.0421 -0.4043
 8345SOL    HW227236   8.877   9.087   5.012 -0.9885 -0.6528 -0.4923
 8346SOL     OW27237   2.837   2.375   6.135  0.4851  0.0495 -0.2667
 8346SOL    HW127238   2.759   2.386   6.190 -0.6026 -2.8391 -1.0655
 8346SOL    HW227239   2.835   2.450   6.075 -2.1246 -0.3082 -0.7246
 8347SOL     OW27240   2.508   4.564   3.085  0.8872 -0.4091 -0.5138
 8347SOL    HW127241   2.545   4.531   3.167 -0.6512 -0.9022  0.0239
 8347SOL    HW227242   2.522   4.493   3.022  0.2580 -0.8833 -0.1331
 8348SOL     OW27243   1.942   6.249   9.340  0.0208 -0.5655 -0.1590
 8348SOL    HW127244   2.022   6.209   9.304 -0.2152 -1.3800  0.1949
 8348SOL    HW227245   1.945   6.340   9.309  2.6922  0.3807  2.3618
 8349SOL     OW27246   0.056   2.450   0.063  0.3622 -1.1658  0.2026
 8349SOL    HW127247   0.144   2.462   0.028 -0.4682  0.1196 -1.5906
 8349SOL    HW227248   0.066   2.460   0.157  1.8103  1.4269 -0.1269
 8350SOL     OW27249   2.718   4.974   8.584  0.5197 -0.3031  0.3650
 8350SOL    HW127250   2.777   4.902   8.564 -0.5412 -0.8655 -0.8446
 8350SOL    HW227251   2.772   5.053   8.574  0.4430 -0.5778 -3.7627
 8351SOL     OW27252   4.293   4.147   4.939  0.0634  0.0296  0.3036
 8351SOL    HW127253   4.261   4.151   5.029 -0.0601  0.8320  0.2321
 8351SOL    HW227254   4.217   4.118   4.888  0.5620 -2.0166  0.6454
 8352SOL     OW27255   5.107   3.787   4.060 -0.0494  0.0522 -0.2940
 8352SOL    HW127256   5.036   3.737   4.021  0.1011 -0.0381 -0.4521
 8352SOL    HW227257   5.070   3.874   4.074 -0.9167 -0.5660  1.6807
 8353SOL     OW27258   1.389   0.208   7.226  0.5705 -0.2590 -0.9239
 8353SOL    HW127259   1.381   0.264   7.149  0.0603 -1.3400 -1.6869
 8353SOL    HW227260   1.469   0.157   7.209  1.3752  0.6294  0.0483
 8354SOL     OW27261   3.192   9.271   9.417 -0.1157 -0.5442 -0.1176
 8354SOL    HW127262   3.218   9.362   9.431 -0.4472 -0.6573  1.4026
 8354SOL    HW227263   3.124   9.275   9.350  0.8888  0.1670 -1.1064
 8355SOL     OW27264   6.058   5.726   3.791  0.0845 -0.0020 -0.0693
 8355SOL    HW127265   6.091   5.645   3.752 -1.6997 -0.3571 -0.9749
 8355SOL    HW227266   6.082   5.794   3.728 -1.5296 -0.3756 -1.1579
 8356SOL     OW27267   3.336   4.473   4.528 -0.3035 -0.3092 -0.0146
 8356SOL    HW127268   3.339   4.388   4.572  0.9108  0.0058  0.5683
 8356SOL    HW227269   3.304   4.454   4.440  2.5164 -1.8261 -0.8246
 8357SOL     OW27270   9.531   4.009   7.841 -0.1088 -0.2575  0.3383
 8357SOL    HW127271   9.565   4.099   7.844 -2.7695  0.9854 -2.3312
 8357SOL    HW227272   9.572   3.971   7.763 -0.5166 -0.6496  0.3117
 8358SOL     OW27273   6.670   8.249   5.519 -0.1854  0.0865 -0.4052
 8358SOL    HW127274   6.679   8.336   5.481  1.9492  0.6624  1.2241
 8358SOL    HW227275   6.756   8.230   5.557 -1.4556 -1.4258  1.9573
 8359SOL     OW27276   2.075   2.830   8.339 -0.2549  0.5210 -0.3141
 8359SOL    HW127277   2.027   2.912   8.344 -0.0816  0.6129 -0.1206
 8359SOL    HW227278   2.116   2.821   8.425  1.0604  1.0588 -0.8517
 8360SOL     OW27279   6.668   6.162   8.156  0.1238 -0.1440  0.1666
 8360SOL    HW127280   6.663   6.068   8.174  1.9608  0.1061  2.3467
 8360SOL    HW227281   6.725   6.197   8.224  1.1083  2.2701 -1.7547
 8361SOL     OW27282   9.173   7.668   5.443 -0.0126  0.5793  0.2032
 8361SOL    HW127283   9.204   7.644   5.356  0.4855  1.4038  0.1420
 8361SOL    HW227284   9.147   7.585   5.483  1.6969 -0.0837  0.0194
 8362SOL     OW27285   4.792   5.183   9.567  0.2018 -0.3444  0.1141
 8362SOL    HW127286   4.864   5.203   9.626 -1.2913  2.9493  1.1111
 8362SOL    HW227287   4.725   5.143   9.622  0.3548 -1.2056 -0.3053
 8363SOL     OW27288   8.687   8.577   2.311 -0.4470 -0.2516  0.8387
 8363SOL    HW127289   8.687   8.486   2.284 -0.1050  0.1515 -0.6093
 8363SOL    HW227290   8.776   8.594   2.341 -0.1198 -0.0569 -0.1897
 8364SOL     OW27291   3.055   7.631   8.711  0.2302 -0.6267  0.5794
 8364SOL    HW127292   3.005   7.595   8.784  0.9257 -2.2512  0.2883
 8364SOL    HW227293   2.988   7.659   8.648 -0.3425 -1.0267  0.9989
 8365SOL     OW27294   6.458   7.322   1.059 -0.0584 -0.3086  0.2216
 8365SOL    HW127295   6.391   7.384   1.087  0.7811  0.9596 -0.4924
 8365SOL    HW227296   6.427   7.290   0.974  0.7272  1.1432 -0.6645
 8366SOL     OW27297   6.170   4.166   9.368 -0.1726  0.2779 -0.2126
 8366SOL    HW127298   6.235   4.106   9.405 -0.8029 -1.3126 -1.5731
 8366SOL    HW227299   6.209   4.193   9.284 -1.1856 -0.6468 -1.0162
 8367SOL     OW27300   5.622   7.135   5.481 -0.0061  0.0787  0.4240
 8367SOL    HW127301   5.688   7.192   5.443 -0.3656 -0.0021 -0.3605
 8367SOL    HW227302   5.596   7.077   5.409  0.2614 -0.9995  1.1626
 8368SOL     OW27303   9.505   9.085   0.936 -0.0138  0.0731 -0.9792
 8368SOL    HW127304   9.572   9.152   0.946 -0.3174  0.1012  1.7197
 8368SOL    HW227305   9.474   9.095   0.846  0.8859  2.6229 -1.0881
 8369SOL     OW27306   4.099   9.224   0.324 -0.4290  0.1318 -0.2448
 8369SOL    HW127307   4.064   9.282   0.257 -0.1448  2.4855  1.5293
 8369SOL    HW227308   4.023   9.174   0.354 -0.5202 -1.1379 -2.3684
 8370SOL     OW27309   1.351   7.541   3.408 -0.0585  0.1605  0.1488
 8370SOL    HW127310   1.334   7.593   3.330 -0.0718  0.6406  0.4631
 8370SOL    HW227311   1.380   7.456   3.376  0.2703  0.4671 -0.3754
 8371SOL     OW27312   2.777   2.418   1.855 -0.1933  0.2124  0.1184
 8371SOL    HW127313   2.701   2.476   1.861 -1.2308 -1.1748  1.0545
 8371SOL    HW227314   2.783   2.377   1.942  1.0230 -0.4407 -0.2486
 8372SOL     OW27315   5.853   7.395   8.875  0.5623  0.5100  0.2031
 8372SOL    HW127316   5.777   7.451   8.893 -0.0585 -0.7547  1.8183
 8372SOL    HW227317   5.833   7.355   8.791 -0.9662 -0.3556  0.9285
 8373SOL     OW27318   5.964   4.786   5.614 -0.4293 -0.3155 -0.2713
 8373SOL    HW127319   6.046   4.743   5.640 -0.5529 -0.1677  0.3701
 8373SOL    HW227320   5.902   4.714   5.603 -1.0388 -0.2782  2.2102
 8374SOL     OW27321   5.916   0.812   1.984  0.1748 -0.5188 -0.6482
 8374SOL    HW127322   5.976   0.747   2.020  0.3427 -0.1491 -0.2520
 8374SOL    HW227323   5.963   0.852   1.911 -0.1606 -1.2625 -1.2863
 8375SOL     OW27324   2.860   3.420   8.873  0.2404 -0.5982 -0.3839
 8375SOL    HW127325   2.849   3.401   8.780 -1.0698 -1.4525 -0.0781
 8375SOL    HW227326   2.846   3.514   8.880  0.6240 -0.4803 -1.0804
 8376SOL     OW27327   5.579   5.517   8.282  0.4421 -0.1680  0.7898
 8376SOL    HW127328   5.662   5.538   8.240 -0.6832  2.6620 -0.2820
 8376SOL    HW227329   5.523   5.488   8.209 -0.2316  0.4227  1.0643
 8377SOL     OW27330   4.547   7.906   1.796  0.1140 -0.6052 -0.6638
 8377SOL    HW127331   4.521   7.958   1.720  2.0994 -0.2376 -1.1548
 8377SOL    HW227332   4.527   7.961   1.871 -1.4059 -0.7681 -0.9165
 8378SOL     OW27333   7.051   8.232   6.520 -0.5847 -0.3945 -0.7054
 8378SOL    HW127334   6.997   8.237   6.442 -1.6722  3.5651  0.0658
 8378SOL    HW227335   6.997   8.269   6.590  2.0118  0.9961  0.7583
 8379SOL     OW27336   4.182   6.847   4.161 -0.1000 -0.5103 -0.1750
 8379SOL    HW127337   4.216   6.768   4.119  1.5978 -0.1189  0.3969
 8379SOL    HW227338   4.154   6.902   4.088  1.1377 -0.5768 -0.7223
 8380SOL     OW27339   9.375   0.611   8.997 -0.0199 -0.4040  0.1919
 8380SOL    HW127340   9.343   0.667   9.069 -1.5662 -1.0264  0.0227
 8380SOL    HW227341   9.351   0.522   9.024  3.3305 -1.2241  0.9647
 8381SOL     OW27342   3.009   0.036   4.170  0.3060 -0.1680  0.0392
 8381SOL    HW127343   2.969  -0.045   4.139  0.7801 -0.0196 -0.9806
 8381SOL    HW227344   2.946   0.071   4.234 -0.6678 -0.4942 -0.7211
 8382SOL     OW27345   5.209   6.687   8.066  0.2973 -0.5905  0.7250
 8382SOL    HW127346   5.282   6.745   8.087  1.5074 -1.7758 -0.0572
 8382SOL    HW227347   5.231   6.604   8.108 -1.2956 -0.5853  1.6299
 8383SOL     OW27348   2.895   6.844   3.954  0.0012 -0.1850  0.1048
 8383SOL    HW127349   2.813   6.871   3.996 -0.3282 -1.4086  0.2904
 8383SOL    HW227350   2.892   6.883   3.867 -0.6117  0.0689  0.2343
 8384SOL     OW27351   2.029   2.410   6.439 -0.2780  0.2965 -0.2452
 8384SOL    HW127352   1.995   2.342   6.497  0.4789  0.9012  0.9488
 8384SOL    HW227353   1.984   2.395   6.356 -0.9673 -0.9499  0.3206
 8385SOL     OW27354   9.139   2.536   4.464 -0.2309  0.6200 -0.3655
 8385SOL    HW127355   9.181   2.450   4.469 -0.5004  0.3912 -1.6214
 8385SOL    HW227356   9.195   2.586   4.405 -1.1176  0.6503 -1.2155
 8386SOL     OW27357   4.276   5.526   9.405 -0.0633 -0.0381 -0.0130
 8386SOL    HW127358   4.220   5.603   9.391 -0.4286 -0.3776 -0.4691
 8386SOL    HW227359   4.215   5.457   9.431  0.3249 -0.0425  0.9212
 8387SOL     OW27360   6.823   8.951   3.807  0.3641  0.0477 -0.3124
 8387SOL    HW127361   6.783   8.864   3.815  0.6501 -0.0440  0.1807
 8387SOL    HW227362   6.753   9.012   3.831  0.2661 -0.0645 -0.3109
 8388SOL     OW27363   3.458   7.859   2.696  0.5426  0.0648 -0.3068
 8388SOL    HW127364   3.371   7.858   2.655 -0.7938  0.1563  2.2769
 8388SOL    HW227365   3.487   7.950   2.687 -0.6036  0.5511  0.5663
 8389SOL     OW27366   4.928   1.547   3.104  0.2039 -0.1061 -0.3319
 8389SOL    HW127367   4.963   1.564   3.191  1.4559 -2.4358 -0.3141
 8389SOL    HW227368   4.990   1.590   3.045  0.3397 -0.0366 -0.1400
 8390SOL     OW27369   3.837   3.064   9.097  0.6941 -0.3610  0.4728
 8390SOL    HW127370   3.760   3.007   9.104  0.7801 -0.5046  0.2612
 8390SOL    HW227371   3.815   3.125   9.026  2.0513 -2.4509 -1.9447
 8391SOL     OW27372   3.086   1.657   0.659 -0.3498 -0.2443 -0.0179
 8391SOL    HW127373   3.002   1.698   0.681 -0.3857  0.4547 -1.3233
 8391SOL    HW227374   3.088   1.576   0.709 -2.0685 -0.5507 -0.4035
 8392SOL     OW27375   6.428   1.729   9.321  0.2435 -0.0641  0.3889
 8392SOL    HW127376   6.466   1.757   9.404 -1.7602  1.8286  0.7704
 8392SOL    HW227377   6.381   1.649   9.342 -0.0671  0.2832  1.0609
 8393SOL     OW27378   8.945   2.021   2.031  0.2875  0.6096  0.0964
 8393SOL    HW127379   8.913   1.989   1.947  1.5194  0.0572 -0.1839
 8393SOL    HW227380   9.015   1.961   2.055  1.7000  2.2532  0.2653
 8394SOL     OW27381   4.312   6.971   5.456 -0.1706  0.4967 -0.5439
 8394SOL    HW127382   4.354   7.003   5.376 -1.7767  0.7767 -1.3148
 8394SOL    HW227383   4.239   7.031   5.470 -0.4651 -0.1004  0.6316
 8395SOL     OW27384   5.777   7.625   4.753 -0.0689 -0.2246  0.3228
 8395SOL    HW127385   5.837   7.696   4.772  1.2261 -1.3559  0.6372
 8395SOL    HW227386   5.704   7.638   4.814 -1.5045  2.6448 -1.7736
 8396SOL     OW27387   5.335   1.254   3.723 -0.8676  0.0942  0.0069
 8396SOL    HW127388   5.316   1.340   3.760  1.6079  1.3460 -1.3284
 8396SOL    HW227389   5.305   1.192   3.789 -0.4317  2.0534  2.1839
 8397SOL     OW27390   4.564   4.450   2.961 -0.3417 -0.1023  0.6815
 8397SOL    HW127391   4.497   4.490   3.016 -1.5958  0.5230 -1.2121
 8397SOL    HW227392   4.521   4.433   2.878  1.3446 -1.4924  0.0241
 8398SOL     OW27393   0.154   1.274   7.196 -0.1536 -0.1759 -0.1401
 8398SOL    HW127394   0.093   1.245   7.127 -0.2774  0.4352 -0.2879
 8398SOL    HW227395   0.150   1.369   7.193 -0.4151 -0.1474  0.9478
 8399SOL     OW27396   6.879   4.140   3.724  0.2037 -0.4760  0.4044
 8399SOL    HW127397   6.880   4.217   3.667  1.2937  0.3472  1.4673
 8399SOL    HW227398   6.792   4.141   3.764 -0.2466 -0.5508 -0.5486
 8400SOL     OW27399   0.816   3.851   6.040 -0.1348 -0.1057 -0.3916
 8400SOL    HW127400   0.757   3.830   6.112 -0.8758  2.0442 -0.3093
 8400SOL    HW227401   0.760   3.854   5.962  0.5844 -1.9487 -1.0461
 8401SOL     OW27402   3.125   1.938   8.945 -0.7779  0.0185 -0.1311
 8401SOL    HW127403   3.163   1.987   8.872  1.0894 -0.4651  0.4628
 8401SOL    HW227404   3.073   2.004   8.992 -4.1124 -0.1540 -3.1242
 8402SOL     OW27405   4.693   7.522   7.344  0.0276  0.7042 -0.1620
 8402SOL    HW127406   4.661   7.434   7.361  1.4806 -0.0257 -1.0542
 8402SOL    HW227407   4.615   7.571   7.318 -0.7742 -0.3322  0.2352
 8403SOL     OW27408   8.987   2.863   5.640  0.1572 -0.1002 -0.1584
 8403SOL    HW127409   8.969   2.957   5.634 -0.2580 -0.1604  0.0664
 8403SOL    HW227410   8.955   2.827   5.557 -1.1797 -0.2622  0.3928
 8404SOL     OW27411   3.829   0.616   9.161  0.1308 -0.4121  0.4979
 8404SOL    HW127412   3.837   0.521   9.171 -0.7094 -0.3928  1.6084
 8404SOL    HW227413   3.802   0.629   9.071  0.1097 -1.2381  0.3800
 8405SOL     OW27414   4.311   5.798   6.876  0.0256 -0.2255 -0.1569
 8405SOL    HW127415   4.313   5.893   6.887  0.7850 -0.3479  0.9627
 8405SOL    HW227416   4.399   5.769   6.900  0.0706 -1.1410 -1.3245
 8406SOL     OW27417   2.563   1.578   1.874  0.2975  0.3005 -0.7649
 8406SOL    HW127418   2.484   1.523   1.877  0.3149  0.2883 -0.5079
 8406SOL    HW227419   2.597   1.575   1.963 -0.6225  2.0799 -0.2938
 8407SOL     OW27420   0.564   8.862   1.355 -0.0236 -0.0452  0.7663
 8407SOL    HW127421   0.656   8.884   1.372 -0.7806  2.2298  2.2906
 8407SOL    HW227422   0.535   8.926   1.290 -0.5656 -0.7396  0.3092
 8408SOL     OW27423   2.595   1.138   7.257  0.0509 -0.0367  0.7407
 8408SOL    HW127424   2.670   1.192   7.283 -0.2979  0.3424  0.9671
 8408SOL    HW227425   2.531   1.201   7.223 -0.5053 -0.2677  1.3576
 8409SOL     OW27426   4.529   5.708   0.199 -0.1663  0.1869  0.2340
 8409SOL    HW127427   4.555   5.793   0.164 -1.0150 -0.2167 -1.4669
 8409SOL    HW227428   4.435   5.705   0.187 -0.0035 -1.4688 -0.8840
 8410SOL     OW27429   6.142   7.507   4.027 -0.2638  0.2740  0.0879
 8410SOL    HW127430   6.223   7.458   4.041  0.7535  2.1976  1.3201
 8410SOL    HW227431   6.146   7.537   3.936 -0.2257 -0.6872 -0.2375
 8411SOL     OW27432   6.964   4.107   7.341 -0.2086 -0.0861 -0.2300
 8411SOL    HW127433   7.042   4.133   7.293 -0.0860  1.8787  0.9128
 8411SOL    HW227434   6.916   4.050   7.281  0.7330  0.9413 -2.0349
 8412SOL     OW27435   1.102   3.317   7.152  0.2547  0.0087  0.7945
 8412SOL    HW127436   1.103   3.334   7.246 -1.7846 -1.1731  1.0929
 8412SOL    HW227437   1.019   3.354   7.122 -0.2174 -1.6670 -0.0855
 8413SOL     OW27438   2.515   2.693   4.434  0.0143 -0.1444  0.6089
 8413SOL    HW127439   2.458   2.697   4.358  0.9502 -0.7685 -0.1542
 8413SOL    HW227440   2.471   2.632   4.494 -1.1585  1.0209  0.9695
 8414SOL     OW27441   0.330   5.574   7.998  0.0762  0.4964  0.4104
 8414SOL    HW127442   0.358   5.633   7.927  1.5669  1.7312  1.9475
 8414SOL    HW227443   0.238   5.596   8.011 -0.2180  0.2876 -1.0764
 8415SOL     OW27444   8.917   0.216   8.171 -0.5549  0.5605  0.9492
 8415SOL    HW127445   8.962   0.260   8.099 -1.0310 -0.4715  0.0073
 8415SOL    HW227446   8.827   0.248   8.167 -0.8038 -0.1761  0.5125
 8416SOL     OW27447   8.922   0.501   4.024  0.0532  0.1405  0.2018
 8416SOL    HW127448   8.870   0.434   4.069  0.1741 -0.1770 -0.1212
 8416SOL    HW227449   8.976   0.451   3.963 -0.7465  0.6366 -0.9406
 8417SOL     OW27450   5.774   3.143   3.804 -0.6730  0.0951  0.4933
 8417SOL    HW127451   5.771   3.115   3.713 -0.2676  1.0930  0.1655
 8417SOL    HW227452   5.733   3.071   3.852  0.8705 -1.3518 -0.2494
 8418SOL     OW27453   4.156   3.240   3.066  0.0972 -0.0569 -0.1892
 8418SOL    HW127454   4.166   3.322   3.019  1.4638 -1.5616 -2.7388
 8418SOL    HW227455   4.062   3.223   3.064 -0.0900  0.9534 -0.5347
 8419SOL     OW27456   4.146   3.902   4.563 -0.3470  0.0622 -0.5484
 8419SOL    HW127457   4.079   3.953   4.609 -0.4386  0.5336 -1.1813
 8419SOL    HW227458   4.204   3.869   4.632 -1.6931 -1.0602  0.0874
 8420SOL     OW27459   3.859   3.797   3.181  0.0854 -0.5733  0.2605
 8420SOL    HW127460   3.940   3.841   3.153  0.7642 -1.2461  1.1001
 8420SOL    HW227461   3.792   3.829   3.121  0.7765  0.7626  0.1617
 8421SOL     OW27462   8.347   0.601   0.981 -0.1398  0.4119 -0.3771
 8421SOL    HW127463   8.369   0.512   1.008  1.0799  0.9986  0.6866
 8421SOL    HW227464   8.278   0.590   0.915  1.0930 -1.3756 -1.4386
 8422SOL     OW27465   0.250   1.573   9.404 -0.5524 -0.3210 -0.2270
 8422SOL    HW127466   0.297   1.551   9.484 -0.1968 -0.2533 -0.4135
 8422SOL    HW227467   0.295   1.651   9.370 -2.1322  1.0770  0.7238
 8423SOL     OW27468   5.318   4.013   1.661 -0.0041  0.2782  0.6497
 8423SOL    HW127469   5.411   4.029   1.644  0.0175 -1.0722 -0.7435
 8423SOL    HW227470   5.315   3.923   1.694 -0.7773  0.5285  1.3019
 8424SOL     OW27471   8.926   6.345   5.445  0.2846  0.1073 -0.6801
 8424SOL    HW127472   8.903   6.355   5.537  1.5353 -1.9656 -0.0758
 8424SOL    HW227473   8.922   6.434   5.409  0.5810  1.0786  1.5534
 8425SOL     OW27474   5.673   9.511   0.985  0.3178  0.4297 -0.2816
 8425SOL    HW127475   5.590   9.481   1.021 -0.2410  2.6510  0.4295
 8425SOL    HW227476   5.735   9.442   1.007 -1.0754 -0.7277  0.2019
 8426SOL     OW27477   8.509   7.874   8.566 -0.5465  0.3586  0.0114
 8426SOL    HW127478   8.421   7.858   8.600 -2.0893  1.0568 -3.2508
 8426SOL    HW227479   8.541   7.787   8.542 -2.3848  0.3543 -3.0067
 8427SOL     OW27480   3.904   0.851   4.247  0.4995 -0.3091  0.1156
 8427SOL    HW127481   3.832   0.859   4.309 -1.5617 -4.0510 -1.4703
 8427SOL    HW227482   3.909   0.937   4.204 -0.3046  1.2618  2.9251
 8428SOL     OW27483   2.695   1.577   9.478  0.1380  0.3040  0.2544
 8428SOL    HW127484   2.745   1.621   9.547 -0.7302 -0.2708  1.2986
 8428SOL    HW227485   2.631   1.643   9.450 -0.8830 -0.0940  1.5162
 8429SOL     OW27486   0.639   8.040   2.471 -0.9046 -0.4645  0.3650
 8429SOL    HW127487   0.598   8.125   2.455 -0.2451  0.1725  1.8776
 8429SOL    HW227488   0.656   8.005   2.384 -0.7329  1.1696 -0.2980
 8430SOL     OW27489   0.531   5.446   3.478 -0.1007  0.1487 -0.2291
 8430SOL    HW127490   0.451   5.470   3.525 -0.1197 -0.0670 -0.1498
 8430SOL    HW227491   0.595   5.512   3.505  0.1011 -0.3974  0.6859
 8431SOL     OW27492   0.821   1.763   2.158  0.7078  0.0892  0.4219
 8431SOL    HW127493   0.726   1.752   2.147  0.5781 -0.1188  1.5677
 8431SOL    HW227494   0.829   1.846   2.204  1.0533 -0.1237  0.7446
 8432SOL     OW27495   9.378   7.155   2.949 -0.0162 -0.7943 -0.3107
 8432SOL    HW127496   9.442   7.211   2.992 -0.1652 -1.8964  1.4470
 8432SOL    HW227497   9.423   7.122   2.872  0.9965 -0.3673  0.0760
 8433SOL     OW27498   6.642   5.451   4.372  0.2255 -0.2059 -0.1623
 8433SOL    HW127499   6.701   5.393   4.324  2.7702  1.3587  0.8738
 8433SOL    HW227500   6.652   5.536   4.330  1.3371  0.8534  2.0765
 8434SOL     OW27501   1.299   3.827   0.812  0.2143 -0.3864 -0.3663
 8434SOL    HW127502   1.229   3.886   0.787  0.4263  0.7115  1.4648
 8434SOL    HW227503   1.256   3.743   0.829 -0.2989 -0.3645 -1.5076
 8435SOL     OW27504   4.593   7.220   3.329 -0.1200  0.1388  0.8188
 8435SOL    HW127505   4.625   7.147   3.381  3.2068  0.7172 -0.1648
 8435SOL    HW227506   4.607   7.192   3.238  2.0456  2.1737  0.4183
 8436SOL     OW27507   5.714   3.682   8.777  0.9238 -0.1398  0.4840
 8436SOL    HW127508   5.716   3.606   8.835  1.6019  0.2883  1.0403
 8436SOL    HW227509   5.762   3.655   8.699 -1.2835 -1.2387 -0.5869
 8437SOL     OW27510   7.815   0.701   0.489 -0.0190  0.6512  0.4122
 8437SOL    HW127511   7.723   0.679   0.505 -0.6618  1.3183 -1.8918
 8437SOL    HW227512   7.812   0.771   0.423  2.1436 -0.0259 -0.5237
 8438SOL     OW27513   7.695   0.434   4.070  0.0281 -0.7199  0.5256
 8438SOL    HW127514   7.626   0.369   4.063 -1.7787  1.0786  0.6160
 8438SOL    HW227515   7.770   0.395   4.026 -1.6931 -1.9031 -1.5497
 8439SOL     OW27516   5.803   3.159   6.448 -0.5013 -0.9083  0.2077
 8439SOL    HW127517   5.875   3.205   6.405 -1.0914 -1.0805 -1.0192
 8439SOL    HW227518   5.724   3.206   6.420 -0.9613 -1.5066  0.4784
 8440SOL     OW27519   9.129   5.648   7.397 -0.1100 -0.0759  0.4866
 8440SOL    HW127520   9.109   5.705   7.323  3.0149 -0.5062 -0.8485
 8440SOL    HW227521   9.095   5.694   7.474 -1.0569  1.7001 -0.9320
 8441SOL     OW27522   0.189   9.497   3.571  0.7775 -0.4140 -0.2346
 8441SOL    HW127523   0.148   9.415   3.600 -0.0496 -0.2774 -0.9398
 8441SOL    HW227524   0.211   9.543   3.651  1.4505 -1.4111  0.1809
 8442SOL     OW27525   0.621   6.156   7.139  0.0879 -0.2754 -0.5560
 8442SOL    HW127526   0.590   6.091   7.077 -1.6265  0.9692 -1.0746
 8442SOL    HW227527   0.543   6.207   7.162  0.6042 -0.7461  2.7282
 8443SOL     OW27528   5.015   5.868   8.972 -0.2686  0.6358 -0.2544
 8443SOL    HW127529   4.999   5.931   8.901 -0.1738 -2.3935 -3.1840
 8443SOL    HW227530   4.929   5.832   8.992  0.1955 -2.5472 -3.0629
 8444SOL     OW27531   2.660   7.405   6.188  0.1485 -0.0506  0.7115
 8444SOL    HW127532   2.664   7.453   6.271 -0.8632  1.0682  0.1557
 8444SOL    HW227533   2.611   7.325   6.208  1.6571 -0.7742  1.6073
 8445SOL     OW27534   5.065   4.353   7.836 -0.1167 -0.3346  0.1828
 8445SOL    HW127535   5.043   4.287   7.771 -1.4533  0.7694 -0.5370
 8445SOL    HW227536   4.981   4.392   7.861  0.6833  1.8617 -0.2847
 8446SOL     OW27537   4.297   8.428   9.063 -0.2071 -0.0461 -0.3997
 8446SOL    HW127538   4.368   8.387   9.112 -0.0431  0.7234  0.0213
 8446SOL    HW227539   4.341   8.495   9.009 -0.3664 -0.9464 -1.6968
 8447SOL     OW27540   6.182   7.057   5.367 -0.3696  0.0440  0.5054
 8447SOL    HW127541   6.266   7.095   5.339 -0.7124  0.4152 -0.0382
 8447SOL    HW227542   6.206   6.998   5.438  0.3614  0.1211  0.3402
 8448SOL     OW27543   8.531   2.913   7.306  0.1845  0.3227  0.4725
 8448SOL    HW127544   8.620   2.899   7.340 -0.1169  0.0423  1.1713
 8448SOL    HW227545   8.537   2.995   7.257  0.4707  1.1645  1.8660
 8449SOL     OW27546   9.237   8.003   9.066  0.0521  0.0084  0.5925
 8449SOL    HW127547   9.324   7.966   9.082 -0.2782 -0.6075  0.9657
 8449SOL    HW227548   9.248   8.097   9.083  1.0626  0.2301 -1.0647
 8450SOL     OW27549   1.808   9.505   2.457 -0.4700 -0.2900 -0.0760
 8450SOL    HW127550   1.718   9.537   2.460 -0.6741 -0.8138 -0.5108
 8450SOL    HW227551   1.800   9.411   2.471 -0.0571 -0.4474 -0.8710
 8451SOL     OW27552   5.725   6.631   4.475  0.0933 -0.5749  0.0399
 8451SOL    HW127553   5.718   6.724   4.496  0.4227 -0.8842  1.6590
 8451SOL    HW227554   5.775   6.628   4.394 -0.3102  0.6723 -0.2754
 8452SOL     OW27555   1.183   2.253   8.550 -0.1648  0.2310 -0.0463
 8452SOL    HW127556   1.199   2.235   8.457  1.9926  0.7144  0.1766
 8452SOL    HW227557   1.198   2.347   8.559  1.0828 -0.0380  1.0232
 8453SOL     OW27558   4.844   6.106   7.677  0.3708  0.3221  0.3803
 8453SOL    HW127559   4.827   6.148   7.592 -0.9352  0.4808  0.7050
 8453SOL    HW227560   4.919   6.154   7.712  1.1872 -0.0094 -0.8568
 8454SOL     OW27561   4.501   0.792   3.401  0.1097 -0.2723  0.1244
 8454SOL    HW127562   4.490   0.816   3.309 -1.7216  0.0806  0.3920
 8454SOL    HW227563   4.577   0.844   3.430 -0.4991  1.1453 -0.6934
 8455SOL     OW27564   4.862   5.716   4.314 -0.3228 -0.5756  0.2455
 8455SOL    HW127565   4.878   5.810   4.313 -2.1705 -0.2332  0.6829
 8455SOL    HW227566   4.874   5.690   4.405  0.5851 -0.8682  0.0589
 8456SOL     OW27567   2.052   7.424   4.770 -0.0279  0.1209  0.1582
 8456SOL    HW127568   2.059   7.438   4.865 -0.9830 -1.1834  0.4499
 8456SOL    HW227569   1.970   7.467   4.746  0.3125  0.6187 -0.1203
 8457SOL     OW27570   4.407   5.970   9.568 -0.0478  0.0023 -0.3608
 8457SOL    HW127571   4.482   5.954   9.625 -0.2483 -1.4094 -0.4672
 8457SOL    HW227572   4.432   5.934   9.483  0.0138  1.5580 -1.0423
 8458SOL     OW27573   8.066   0.083   6.599 -0.1981  0.1038 -0.0994
 8458SOL    HW127574   8.120   0.122   6.529 -0.2058 -2.6340 -1.7869
 8458SOL    HW227575   7.977   0.109   6.577 -0.1254 -0.1603 -0.7395
 8459SOL     OW27576   3.539   4.144   8.159 -0.2907 -0.3928  0.1867
 8459SOL    HW127577   3.614   4.188   8.200 -0.7264  0.7866 -0.2217
 8459SOL    HW227578   3.489   4.109   8.232 -0.6014  0.9309  0.6475
 8460SOL     OW27579   2.953   0.335   3.400 -0.0127 -0.7019  0.0827
 8460SOL    HW127580   3.048   0.339   3.387  0.1500  0.4735  1.2853
 8460SOL    HW227581   2.916   0.353   3.314  0.8802  0.5813 -0.0609
 8461SOL     OW27582   2.904   5.290   0.150  0.3438  0.0061 -0.0392
 8461SOL    HW127583   2.882   5.381   0.168  0.4445  0.2743 -1.1745
 8461SOL    HW227584   2.992   5.279   0.185  0.0015  0.0895  0.8717
 8462SOL     OW27585   1.732   8.359   9.423  0.1834  0.0567 -0.9535
 8462SOL    HW127586   1.648   8.396   9.395  1.0328  1.5357 -1.6143
 8462SOL    HW227587   1.717   8.334   9.515 -1.4129 -1.1204 -1.4755
 8463SOL     OW27588   6.743   6.914   2.276 -0.4390  0.2763  0.4194
 8463SOL    HW127589   6.658   6.874   2.297  0.2835 -0.8768  1.2927
 8463SOL    HW227590   6.759   6.974   2.349  0.2687 -0.8040  1.1838
 8464SOL     OW27591   9.257   4.320   5.965  0.4416  0.5830  0.2759
 8464SOL    HW127592   9.280   4.406   5.928  0.8157 -0.5463 -2.3567
 8464SOL    HW227593   9.338   4.270   5.960 -0.3102 -0.6044 -0.4239
 8465SOL     OW27594   1.086   2.328   0.811  0.1095 -0.0381  0.3285
 8465SOL    HW127595   1.112   2.254   0.867  1.3441  0.0313 -0.1237
 8465SOL    HW227596   1.077   2.289   0.724 -0.3961  0.1319  0.3023
 8466SOL     OW27597   5.679   9.363   1.535 -0.0039 -0.0792  0.4633
 8466SOL    HW127598   5.696   9.377   1.442  0.4465  0.5821  0.6409
 8466SOL    HW227599   5.758   9.321   1.569 -0.3782 -0.8181  0.4456
 8467SOL     OW27600   5.959   4.091   5.846 -0.4486 -0.2472 -0.2997
 8467SOL    HW127601   5.876   4.098   5.799 -0.9754 -2.6725  0.1722
 8467SOL    HW227602   5.945   4.142   5.926 -1.7172 -1.0692  0.0402
 8468SOL     OW27603   8.186   2.836   9.229 -0.4020 -0.4104  0.3047
 8468SOL    HW127604   8.247   2.908   9.238 -1.4659  0.5389  0.1383
 8468SOL    HW227605   8.133   2.858   9.152 -1.3333 -0.9059  0.7818
 8469SOL     OW27606   9.513   1.416   4.183  0.4035  0.5051 -0.1129
 8469SOL    HW127607   9.528   1.333   4.229 -0.2200 -0.3234 -1.3432
 8469SOL    HW227608   9.465   1.470   4.246 -0.0402 -0.4239  0.3605
 8470SOL     OW27609   5.715   8.393   5.293  0.1127 -0.1311 -0.2736
 8470SOL    HW127610   5.648   8.456   5.319  1.3801  0.7055  1.1301
 8470SOL    HW227611   5.668   8.328   5.241 -2.0327 -0.2953  1.7075
 8471SOL     OW27612   1.214   2.529   5.332 -0.1682  0.3134  0.2910
 8471SOL    HW127613   1.174   2.443   5.324  1.5744 -0.7814  2.4457
 8471SOL    HW227614   1.289   2.527   5.273 -0.6261  0.7134 -0.3220
 8472SOL     OW27615   2.078   1.340   1.778 -0.0809 -0.3229 -0.2637
 8472SOL    HW127616   2.156   1.335   1.723  0.2375  1.6764 -0.0830
 8472SOL    HW227617   2.029   1.415   1.743 -0.1112  0.7138  1.8315
 8473SOL     OW27618   8.316   6.496   5.057  0.1665 -0.2739 -0.4076
 8473SOL    HW127619   8.253   6.547   5.108  0.0776  0.3853 -1.1531
 8473SOL    HW227620   8.262   6.439   5.001  0.2506 -2.3935  1.5205
 8474SOL     OW27621   7.774   5.891   9.470  0.3082 -0.1670  0.0240
 8474SOL    HW127622   7.763   5.908   9.564  0.3402 -1.1745  0.2294
 8474SOL    HW227623   7.857   5.844   9.465  1.0123  1.0964 -0.6806
 8475SOL     OW27624   3.027   2.025   6.553 -0.0700  0.4555  0.2107
 8475SOL    HW127625   3.122   2.021   6.539  0.2365  0.7769  1.9640
 8475SOL    HW227626   3.007   2.118   6.555 -0.5066  0.3906 -0.4721
 8476SOL     OW27627   8.020   3.048   4.501  0.3145 -0.4930 -0.3573
 8476SOL    HW127628   7.981   3.094   4.426 -0.5922  0.5806  0.7182
 8476SOL    HW227629   8.111   3.077   4.503  0.2371 -0.2115 -0.8133
 8477SOL     OW27630   8.832   1.723   6.041 -0.6952 -0.0081  0.1407
 8477SOL    HW127631   8.785   1.696   5.962 -1.0441  0.9339  0.0077
 8477SOL    HW227632   8.870   1.808   6.019  2.0083 -1.1769 -0.1192
 8478SOL     OW27633   4.350   9.364   1.965 -0.2476 -0.5280  0.6549
 8478SOL    HW127634   4.437   9.375   2.003 -0.0886 -1.0352  0.4397
 8478SOL    HW227635   4.354   9.280   1.918 -1.0273 -0.8509  1.1427
 8479SOL     OW27636   6.013   5.177   6.967 -0.6203 -0.4233  0.5596
 8479SOL    HW127637   6.074   5.141   7.032 -1.9642  0.5408  2.4470
 8479SOL    HW227638   6.062   5.246   6.924  0.0680 -0.5706  1.0834
 8480SOL     OW27639   9.401   1.112   5.652 -0.1113  0.3913 -0.2372
 8480SOL    HW127640   9.309   1.124   5.675 -0.0139  1.0178 -0.1672
 8480SOL    HW227641   9.430   1.040   5.708  0.0522  1.7143  1.4445
 8481SOL     OW27642   5.899   0.853   6.574  0.0253  0.1519 -0.1838
 8481SOL    HW127643   5.805   0.835   6.572  0.0919 -0.2424  0.2326
 8481SOL    HW227644   5.940   0.767   6.574  0.3911  0.3237 -0.4167
 8482SOL     OW27645   2.835   2.972   0.200  0.1024 -0.1506 -0.6580
 8482SOL    HW127646   2.788   2.890   0.189 -2.1849  0.9897  0.0468
 8482SOL    HW227647   2.832   3.014   0.113  0.7257 -0.4993 -0.8582
 8483SOL     OW27648   5.529   7.346   8.026  0.1600 -0.3223  0.4062
 8483SOL    HW127649   5.499   7.342   7.935 -2.3033  1.8488  0.9938
 8483SOL    HW227650   5.612   7.298   8.026 -1.3244 -3.3111 -2.2711
 8484SOL     OW27651   8.799   6.871   9.368 -0.4469 -0.8154 -0.2076
 8484SOL    HW127652   8.779   6.779   9.350  2.4451 -1.4640 -0.7641
 8484SOL    HW227653   8.891   6.870   9.396 -0.4868  1.8698  0.2824
 8485SOL     OW27654   0.358   7.732   8.152 -0.1661  0.1289  0.0454
 8485SOL    HW127655   0.358   7.637   8.136  1.1617  0.2783 -1.0972
 8485SOL    HW227656   0.385   7.741   8.243  0.7128 -0.5972 -0.1225
 8486SOL     OW27657   2.265   8.089   7.703  0.8081 -0.5890 -0.2922
 8486SOL    HW127658   2.314   8.084   7.785 -1.9152 -0.1041  1.4911
 8486SOL    HW227659   2.256   8.183   7.686  1.8364 -0.6824 -1.5242
 8487SOL     OW27660   2.808   1.854   4.231 -0.3037  0.0456 -0.3697
 8487SOL    HW127661   2.744   1.907   4.185 -0.8601 -0.0208  0.3067
 8487SOL    HW227662   2.822   1.778   4.174 -2.2281 -0.8705  0.2838
 8488SOL     OW27663   2.055   3.488   1.530 -0.3405 -0.3244  0.3325
 8488SOL    HW127664   1.975   3.510   1.578 -0.1338  3.2516 -0.6605
 8488SOL    HW227665   2.024   3.464   1.442 -0.3907  1.2588 -0.1132
 8489SOL     OW27666   5.587   4.779   5.042 -0.0089 -0.3511  0.1678
 8489SOL    HW127667   5.640   4.855   5.022  0.9656 -1.2510 -0.7980
 8489SOL    HW227668   5.531   4.807   5.115 -0.1401  1.4700 -0.5861
 8490SOL     OW27669   3.513   2.537   8.137  0.0965 -0.0751 -0.4322
 8490SOL    HW127670   3.585   2.479   8.162  1.1567  1.3782  0.0063
 8490SOL    HW227671   3.526   2.553   8.044 -0.6258 -1.0864 -0.7243
 8491SOL     OW27672   7.458   7.320   8.021  0.0658  0.2630 -0.2149
 8491SOL    HW127673   7.363   7.313   8.034 -0.1219  2.6805  0.2223
 8491SOL    HW227674   7.494   7.326   8.110  0.5844 -0.2081 -0.3900
 8492SOL     OW27675   6.471   7.401   8.213 -0.1192 -0.3048 -0.4099
 8492SOL    HW127676   6.517   7.484   8.222 -2.8723  1.4170 -1.1022
 8492SOL    HW227677   6.538   7.335   8.228  2.5862  1.9747 -1.5258
 8493SOL     OW27678   0.962   1.987   9.332 -0.2379  0.1412 -0.1299
 8493SOL    HW127679   0.925   1.936   9.404  0.6958 -0.4929 -0.0757
 8493SOL    HW227680   0.896   2.052   9.311 -0.1846  0.8619  1.8327
 8494SOL     OW27681   8.398   1.294   5.794  0.0843  0.3202 -0.5971
 8494SOL    HW127682   8.302   1.295   5.793  0.0884  0.5716 -0.6761
 8494SOL    HW227683   8.423   1.383   5.772  0.3357  0.5870  0.6808
 8495SOL     OW27684   3.772   5.088   2.891 -0.1990  0.5566  0.2271
 8495SOL    HW127685   3.681   5.117   2.891 -0.4126 -0.0598 -1.0199
 8495SOL    HW227686   3.767   4.993   2.892  0.4650  0.5175  1.5523
 8496SOL     OW27687   8.664   1.669   9.575  0.1693  0.6999  0.1279
 8496SOL    HW127688   8.702   1.743   9.528  0.5712  0.7846  0.5797
 8496SOL    HW227689   8.685   1.685   9.667  2.0521 -0.9586  0.0747
 8497SOL     OW27690   4.299   9.388   7.659  0.2135 -0.0771 -0.2359
 8497SOL    HW127691   4.251   9.405   7.578 -0.8535  0.0416  0.3858
 8497SOL    HW227692   4.239   9.417   7.728  0.1518 -2.2268  0.7038
 8498SOL     OW27693   0.559   6.892   2.813 -0.4199  0.1246  0.4653
 8498SOL    HW127694   0.613   6.970   2.798 -2.2486  1.1387 -1.2323
 8498SOL    HW227695   0.566   6.841   2.732  0.1099 -1.1206  1.2532
 8499SOL     OW27696   8.993   1.087   5.951 -0.3097  0.0646 -0.0535
 8499SOL    HW127697   9.036   1.059   5.870  1.0073 -1.9284  1.2582
 8499SOL    HW227698   8.902   1.102   5.925 -0.0131 -0.8994 -1.8388
 8500SOL     OW27699   1.130   8.373   4.876 -0.0575 -0.5209 -0.1180
 8500SOL    HW127700   1.061   8.365   4.810  0.3469 -1.4130 -0.4464
 8500SOL    HW227701   1.083   8.371   4.959 -0.8210  2.8911 -0.3156
 8501SOL     OW27702   3.467   5.694   5.289  0.1825  0.4477 -0.3403
 8501SOL    HW127703   3.535   5.627   5.279 -0.1651  0.0484 -0.0733
 8501SOL    HW227704   3.508   5.762   5.343  0.7644  0.7781 -1.1760
 8502SOL     OW27705   0.490   8.037   9.392 -0.2656 -0.2202 -0.0027
 8502SOL    HW127706   0.543   8.114   9.371 -0.7454  0.5914  1.6012
 8502SOL    HW227707   0.533   7.998   9.469 -0.3632 -1.2270 -0.4413
 8503SOL     OW27708   3.951   1.778   5.004  0.4280 -0.3372 -0.1502
 8503SOL    HW127709   3.893   1.758   4.931  0.4621 -0.1930 -0.2164
 8503SOL    HW227710   4.036   1.797   4.964 -0.3637  3.3694 -0.4411
 8504SOL     OW27711   2.601   9.398   0.314 -0.8782  0.5741  0.0699
 8504SOL    HW127712   2.584   9.431   0.402  2.0753 -0.3393  1.1213
 8504SOL    HW227713   2.521   9.353   0.289 -1.6631  0.4972  2.4849
 8505SOL     OW27714   8.085   9.325   8.231 -0.4903  0.2862 -0.0001
 8505SOL    HW127715   8.048   9.405   8.267  0.4176 -0.0049  1.6865
 8505SOL    HW227716   8.010   9.271   8.209 -1.0959  0.8222  0.7117
 8506SOL     OW27717   4.051   5.028   4.869 -1.0643 -0.0448 -0.0764
 8506SOL    HW127718   4.070   5.094   4.935 -1.6280  0.1231 -0.0779
 8506SOL    HW227719   4.098   5.057   4.791 -2.9467  1.5096 -0.7266
 8507SOL     OW27720   5.921   3.404   3.623  0.1612 -0.0391  0.3627
 8507SOL    HW127721   5.921   3.358   3.539 -0.6244  0.8982 -0.1779
 8507SOL    HW227722   5.922   3.496   3.599 -0.1270  0.2365  1.3869
 8508SOL     OW27723   4.005   5.656   3.208 -0.4498 -0.2669  0.6030
 8508SOL    HW127724   3.932   5.715   3.190 -0.1819  0.3399  1.4507
 8508SOL    HW227725   4.014   5.604   3.128  0.1550  1.7347 -0.6988
 8509SOL     OW27726   2.955   4.534   3.825 -0.7667  0.7464 -0.1674
 8509SOL    HW127727   2.989   4.570   3.743  1.4582 -1.0143 -0.0994
 8509SOL    HW227728   3.025   4.547   3.888 -1.6195  0.1580  0.9231
 8510SOL     OW27729   6.537   4.986   7.287 -0.5572  0.2419 -0.5699
 8510SOL    HW127730   6.606   5.040   7.327  0.3382 -1.7215  0.6994
 8510SOL    HW227731   6.493   5.045   7.225  2.6721  1.4231 -1.9589
 8511SOL     OW27732   8.738   6.804   7.130  0.1110 -0.3744  0.5584
 8511SOL    HW127733   8.830   6.780   7.121  0.2840  0.5723 -0.3492
 8511SOL    HW227734   8.738   6.876   7.193 -0.0649 -0.6719  0.9029
 8512SOL     OW27735   4.903   0.549   8.574 -0.1936  0.1119 -0.0248
 8512SOL    HW127736   4.958   0.617   8.535 -0.6568  0.0380 -0.8023
 8512SOL    HW227737   4.877   0.493   8.501 -0.1654 -0.6648  0.5428
 8513SOL     OW27738   7.824   2.562   4.019 -0.4528 -0.1697 -0.2518
 8513SOL    HW127739   7.763   2.630   4.049  0.8159  0.6456  0.5859
 8513SOL    HW227740   7.811   2.559   3.924 -1.8790 -0.1264 -0.0808
 8514SOL     OW27741   5.702   3.267   2.334 -0.3322 -0.4125 -0.5698
 8514SOL    HW127742   5.691   3.359   2.356 -0.1574 -0.0769 -1.8325
 8514SOL    HW227743   5.615   3.238   2.307 -0.4835 -0.7483  0.2430
 8515SOL     OW27744   5.191   8.850   5.308  0.1092  0.3624  0.1466
 8515SOL    HW127745   5.116   8.792   5.297 -0.5139  1.0786  0.5232
 8515SOL    HW227746   5.259   8.812   5.252 -0.7345  0.0632 -0.7064
 8516SOL     OW27747   2.284   5.411   7.533 -0.1908  0.1158  0.2919
 8516SOL    HW127748   2.227   5.339   7.504 -1.0258  1.3776 -1.3759
 8516SOL    HW227749   2.238   5.490   7.506  1.8028  1.2225 -0.0179
 8517SOL     OW27750   1.429   3.648   5.942 -0.2725  0.1279  0.2261
 8517SOL    HW127751   1.441   3.581   6.010  3.4424  0.1505 -0.2211
 8517SOL    HW227752   1.517   3.667   5.911 -1.6441  1.5814 -3.2714
 8518SOL     OW27753   6.532   6.348   6.497 -0.2921  0.0384  0.1613
 8518SOL    HW127754   6.457   6.334   6.554  0.3098  1.1721  1.2864
 8518SOL    HW227755   6.497   6.395   6.422 -0.7005  0.6208  0.7116
 8519SOL     OW27756   1.083   7.918   1.826  0.0242  0.4067  0.4819
 8519SOL    HW127757   1.033   7.938   1.747 -0.0233 -1.7494 -0.1055
 8519SOL    HW227758   1.017   7.915   1.896 -0.6696 -1.7335 -0.1690
 8520SOL     OW27759   9.254   3.478   7.309  0.3477  0.5845  0.3705
 8520SOL    HW127760   9.237   3.485   7.403 -1.3559  1.0387  0.0499
 8520SOL    HW227761   9.219   3.558   7.272 -1.4236 -0.7279 -0.9635
 8521SOL     OW27762   0.269   2.539   1.353 -0.0909  0.0362  0.1596
 8521SOL    HW127763   0.198   2.595   1.383  1.1564  0.4854  2.5485
 8521SOL    HW227764   0.315   2.592   1.287 -2.5888 -0.7523 -2.3985
 8522SOL     OW27765   3.285   1.704   3.231 -0.2666  0.5564  0.0873
 8522SOL    HW127766   3.250   1.635   3.287 -1.4934  0.3399 -0.9181
 8522SOL    HW227767   3.230   1.780   3.249  0.4198  0.9883  0.4159
 8523SOL     OW27768   3.857   4.627   4.666  0.1892  0.2594  0.2231
 8523SOL    HW127769   3.770   4.588   4.679 -0.3714  1.2551 -0.4417
 8523SOL    HW227770   3.918   4.555   4.686 -0.7858 -0.6419  0.0842
 8524SOL     OW27771   5.501   5.156   6.232 -0.0681  0.2307  0.6730
 8524SOL    HW127772   5.520   5.072   6.272  1.3926  0.7998  1.2657
 8524SOL    HW227773   5.569   5.166   6.164 -0.3015  0.8695  0.5229
 8525SOL     OW27774   8.720   2.351   4.527 -0.4642  0.3918  0.7417
 8525SOL    HW127775   8.774   2.428   4.546  1.2889 -0.9080  1.3379
 8525SOL    HW227776   8.631   2.385   4.523  0.3244  2.5987  0.0268
 8526SOL     OW27777   1.427   3.364   1.699 -0.6672  0.0988 -0.4168
 8526SOL    HW127778   1.345   3.389   1.656  0.9672 -0.6598 -4.3453
 8526SOL    HW227779   1.450   3.280   1.660  1.6580 -0.0501  1.0928
 8527SOL     OW27780   5.324   1.770   3.906  0.0630  0.2289  0.1159
 8527SOL    HW127781   5.376   1.833   3.956  1.5335  0.8790 -2.0664
 8527SOL    HW227782   5.235   1.807   3.906  0.0871  0.3862  1.8461
 8528SOL     OW27783   5.919   5.203   3.376 -0.5141 -0.1159  0.1686
 8528SOL    HW127784   5.831   5.183   3.345 -0.0375 -2.4563  0.0932
 8528SOL    HW227785   5.956   5.260   3.308 -2.5617  2.6017  1.1850
 8529SOL     OW27786   4.159   6.380   4.733  0.1624  0.1894 -0.0855
 8529SOL    HW127787   4.160   6.294   4.692 -0.8824 -0.7282  1.6785
 8529SOL    HW227788   4.139   6.362   4.825 -0.8074  2.3630  0.1891
 8530SOL     OW27789   6.698   0.374   7.686 -0.1766  0.5386  0.6886
 8530SOL    HW127790   6.758   0.333   7.749  2.5686  2.5390 -0.4128
 8530SOL    HW227791   6.636   0.304   7.664  0.8378 -1.2527  2.9947
 8531SOL     OW27792   7.570   9.031   6.078  0.2438  0.1933  0.3025
 8531SOL    HW127793   7.522   9.105   6.039  0.7275  0.4374  0.1684
 8531SOL    HW227794   7.618   9.069   6.151 -0.3735 -0.1987  0.9338
 8532SOL     OW27795   8.918   6.315   9.132  0.4610 -0.6259 -0.1512
 8532SOL    HW127796   8.857   6.284   9.199 -1.2212  1.2729 -0.7093
 8532SOL    HW227797   8.999   6.332   9.180 -0.4396 -0.1093  1.2538
 8533SOL     OW27798   1.921   2.572   2.107 -0.0410  0.1680  0.3152
 8533SOL    HW127799   1.922   2.519   2.027  1.2560 -0.9149  1.0080
 8533SOL    HW227800   1.885   2.514   2.174 -0.3036  0.7824  0.7198
 8534SOL     OW27801   9.011   3.969   1.362 -0.3369 -0.1249 -0.2296
 8534SOL    HW127802   8.986   3.877   1.362 -1.9536  0.2770  0.2747
 8534SOL    HW227803   8.940   4.013   1.316  0.4680  0.8768 -0.5626
 8535SOL     OW27804   4.412   5.646   6.194 -0.0479  0.1756 -0.1844
 8535SOL    HW127805   4.392   5.566   6.147  1.5579 -0.6543  0.4790
 8535SOL    HW227806   4.492   5.627   6.242  0.3889  2.1794 -0.0138
 8536SOL     OW27807   2.706   2.863   7.353  0.2489  0.6850 -0.1424
 8536SOL    HW127808   2.777   2.803   7.376  0.1618  0.8066  0.4444
 8536SOL    HW227809   2.750   2.947   7.341  0.4565  0.4152 -1.5176
 8537SOL     OW27810   0.420   8.059   3.862 -0.0904  0.0041 -0.4683
 8537SOL    HW127811   0.449   8.035   3.774 -0.7056  1.0445 -0.9834
 8537SOL    HW227812   0.364   8.136   3.848 -0.9539 -0.3689  0.7402
 8538SOL     OW27813   7.198   6.546   3.591 -0.1773  0.1046  0.0224
 8538SOL    HW127814   7.211   6.571   3.499  0.2061 -1.1103 -0.2671
 8538SOL    HW227815   7.249   6.611   3.640  1.3925 -0.4940 -0.7498
 8539SOL     OW27816   3.678   2.012   1.548 -0.3926 -0.3896  0.3887
 8539SOL    HW127817   3.610   1.947   1.528 -0.5127 -0.6640  1.5822
 8539SOL    HW227818   3.661   2.036   1.639  2.2369 -1.8974  1.3616
 8540SOL     OW27819   0.266   8.237   1.635  0.1496 -0.6022  0.2716
 8540SOL    HW127820   0.186   8.206   1.593 -0.7556 -2.6287  3.1030
 8540SOL    HW227821   0.236   8.275   1.718  1.7993  3.1514 -0.6450
 8541SOL     OW27822   6.362   1.710   5.393  0.0399 -0.3026  0.6736
 8541SOL    HW127823   6.309   1.757   5.328  0.5705 -2.7670 -1.7855
 8541SOL    HW227824   6.371   1.770   5.466 -2.3818  1.8932 -0.6739
 8542SOL     OW27825   3.257   0.696   3.559 -0.3294 -0.2888  0.1240
 8542SOL    HW127826   3.184   0.678   3.500  0.2571  0.7057 -0.9554
 8542SOL    HW227827   3.314   0.754   3.508  2.1813 -2.5091  0.2189
 8543SOL     OW27828   5.560   9.280   5.821 -0.1268  0.6742 -0.2094
 8543SOL    HW127829   5.555   9.191   5.787 -0.1993  0.3108  0.7172
 8543SOL    HW227830   5.644   9.283   5.869  0.0569  1.2180 -0.5519
 8544SOL     OW27831   8.162   4.979   0.147 -0.5133  0.5547  0.5131
 8544SOL    HW127832   8.192   4.891   0.126  1.1096  1.0989  0.3764
 8544SOL    HW227833   8.096   4.967   0.215 -0.6668 -0.7869  0.1460
 8545SOL     OW27834   4.110   8.040   5.620  0.2138  0.3782 -0.3066
 8545SOL    HW127835   4.139   8.054   5.710  1.0292  0.5259 -0.5861
 8545SOL    HW227836   4.163   7.967   5.589 -0.8509 -0.4267 -0.3183
 8546SOL     OW27837   2.707   9.174   7.442  0.3732  1.0655 -0.2581
 8546SOL    HW127838   2.773   9.242   7.431  0.2655  1.7977  2.8246
 8546SOL    HW227839   2.698   9.164   7.537 -1.4594 -1.4773 -0.5990
 8547SOL     OW27840   5.809   1.259   2.667  0.4440 -0.4798 -0.3342
 8547SOL    HW127841   5.891   1.303   2.644 -0.2426 -0.0073 -2.0934
 8547SOL    HW227842   5.746   1.330   2.677 -0.0815 -0.9048 -0.5555
 8548SOL     OW27843   8.102   4.294   9.145  0.2899  0.0826  0.4281
 8548SOL    HW127844   8.074   4.377   9.108 -0.5579  1.1093  3.0902
 8548SOL    HW227845   8.195   4.307   9.165  0.6740 -0.3730 -1.0060
 8549SOL     OW27846   9.491   3.224   3.536  0.3733 -0.2294  0.1629
 8549SOL    HW127847   9.517   3.304   3.581  0.6445 -0.2480  0.0467
 8549SOL    HW227848   9.396   3.223   3.540  0.2094  1.3305 -1.9330
 8550SOL     OW27849   1.286   5.365   3.896  0.4274  0.1477 -0.6809
 8550SOL    HW127850   1.364   5.346   3.845  0.3302  1.1216 -1.2304
 8550SOL    HW227851   1.215   5.318   3.852  0.8881 -1.8790  0.6207
 8551SOL     OW27852   3.115   7.107   8.941  0.2374 -0.4527  0.2634
 8551SOL    HW127853   3.175   7.033   8.950 -1.1793 -1.6044  0.7415
 8551SOL    HW227854   3.040   7.070   8.894  0.5097  1.3277 -1.6879
 8552SOL     OW27855   6.943   3.110   6.980  0.0721  0.2517  0.1457
 8552SOL    HW127856   6.852   3.104   7.009 -0.4791 -2.2756 -1.7034
 8552SOL    HW227857   6.969   3.200   6.997 -3.0736  1.2950 -0.0818
 8553SOL     OW27858   8.377   7.685   1.435  0.0950  0.0799  0.4774
 8553SOL    HW127859   8.449   7.626   1.455  0.5772  0.1142 -1.0392
 8553SOL    HW227860   8.340   7.652   1.353  0.2126  1.7166 -0.2844
 8554SOL     OW27861   8.748   3.687   2.053  0.4209  0.3400  0.0695
 8554SOL    HW127862   8.745   3.783   2.044  0.0758  0.2866 -0.3883
 8554SOL    HW227863   8.659   3.659   2.035  0.3745 -0.0184  0.8347
 8555SOL     OW27864   8.255   4.220   4.866  0.5599  0.2368  0.4161
 8555SOL    HW127865   8.298   4.146   4.823  0.1499 -0.7890  1.7042
 8555SOL    HW227866   8.224   4.275   4.794  0.0122 -1.3360 -0.6105
 8556SOL     OW27867   3.133   3.923   9.482 -0.6246  0.3701 -0.2280
 8556SOL    HW127868   3.154   3.979   9.556 -2.6401  0.8690  0.0213
 8556SOL    HW227869   3.158   3.835   9.511  0.1960  0.7854  0.3604
 8557SOL     OW27870   3.934   5.286   4.853  0.4205  0.2667 -0.3215
 8557SOL    HW127871   3.988   5.269   4.930 -3.0015  0.8280  2.4598
 8557SOL    HW227872   3.874   5.212   4.848 -1.7760  1.9208 -0.1445
 8558SOL     OW27873   5.405   3.276   0.798  0.4756 -0.6372 -0.6648
 8558SOL    HW127874   5.342   3.245   0.732  0.6358  0.5002 -1.3701
 8558SOL    HW227875   5.421   3.367   0.775  0.4010 -0.1549  1.0774
 8559SOL     OW27876   4.463   0.728   5.887  0.3971  0.1885  0.3672
 8559SOL    HW127877   4.532   0.663   5.902 -0.4599 -1.4617 -2.3362
 8559SOL    HW227878   4.391   0.701   5.944  1.9679  2.2723  3.6892
 8560SOL     OW27879   3.136   4.483   3.245  0.0240  0.4232  0.1943
 8560SOL    HW127880   3.138   4.511   3.337  1.5157  1.3214 -0.0863
 8560SOL    HW227881   3.199   4.411   3.240  0.7228  1.0640 -0.3275
 8561SOL     OW27882   0.842   6.794   7.692 -0.0428 -0.2786  0.5503
 8561SOL    HW127883   0.821   6.887   7.682 -0.8850 -0.5029  0.1431
 8561SOL    HW227884   0.826   6.775   7.784 -0.5577 -0.1780  0.4854
 8562SOL     OW27885   3.215   1.368   9.308 -0.6173 -0.0515  0.0675
 8562SOL    HW127886   3.271   1.317   9.250 -0.3837 -2.1694  1.9908
 8562SOL    HW227887   3.127   1.335   9.292 -0.8285  0.7519 -0.4508
 8563SOL     OW27888   3.693   9.341   3.447 -0.3681 -0.3497 -0.5709
 8563SOL    HW127889   3.701   9.322   3.354 -0.8889  0.9181 -0.8927
 8563SOL    HW227890   3.618   9.401   3.454  1.4065  1.9517  0.2577
 8564SOL     OW27891   4.016   5.939   2.101 -0.0105 -0.1350 -0.6866
 8564SOL    HW127892   4.091   5.955   2.043  1.6472 -1.3284  0.9703
 8564SOL    HW227893   3.941   5.935   2.042  1.1132  1.6568 -2.3798
 8565SOL     OW27894   7.739   1.332   1.987 -0.0443 -0.0629  0.4443
 8565SOL    HW127895   7.829   1.334   2.019  1.7839  0.0922 -4.0259
 8565SOL    HW227896   7.718   1.238   1.982  0.5021 -0.1696  0.0502
 8566SOL     OW27897   1.501   6.970   1.777  0.0055 -0.6820 -0.0993
 8566SOL    HW127898   1.577   6.948   1.830 -0.0552 -0.0877  0.2389
 8566SOL    HW227899   1.537   6.997   1.692  0.3495  1.7091  0.7213
 8567SOL     OW27900   8.341   5.297   2.819  0.8759  0.2897 -0.2314
 8567SOL    HW127901   8.327   5.333   2.907  0.2257  0.4385 -0.3878
 8567SOL    HW227902   8.389   5.215   2.834  0.1766 -0.0340  0.3178
 8568SOL     OW27903   2.089   2.733   1.104  0.3512  0.0971  0.2183
 8568SOL    HW127904   2.101   2.668   1.173  0.5254 -0.7390 -0.5739
 8568SOL    HW227905   1.995   2.748   1.100  0.2416 -0.6182 -0.0340
 8569SOL     OW27906   2.303   8.760   0.375  0.0959 -0.5893 -0.1496
 8569SOL    HW127907   2.362   8.689   0.349  2.0064 -0.0114  2.1974
 8569SOL    HW227908   2.266   8.731   0.458  0.7099  0.9831  0.7257
 8570SOL     OW27909   1.494   3.599   3.155 -0.3319  0.0317  0.1929
 8570SOL    HW127910   1.458   3.687   3.147  0.9897  0.5005 -0.9796
 8570SOL    HW227911   1.550   3.603   3.233 -0.5226  0.1282  0.3268
 8571SOL     OW27912   5.605   7.625   4.997  0.0586 -0.3245  0.3194
 8571SOL    HW127913   5.638   7.695   5.053 -1.2545  0.5083  0.1110
 8571SOL    HW227914   5.510   7.628   5.009 -0.2046 -0.5732 -1.4256
 8572SOL     OW27915   4.034   7.966   1.673  0.5601 -0.3458  0.5744
 8572SOL    HW127916   3.955   7.959   1.620 -1.2894  1.4701  2.8786
 8572SOL    HW227917   4.038   7.882   1.720  0.6023 -0.8409 -0.2948
 8573SOL     OW27918   4.140   8.873   0.593  0.0231  0.2387  0.5217
 8573SOL    HW127919   4.122   8.797   0.538  0.3430  0.6662 -0.1905
 8573SOL    HW227920   4.114   8.846   0.681  1.7573 -1.3306  0.6175
 8574SOL     OW27921   5.988   3.792   9.350  0.1419 -0.1537  0.4805
 8574SOL    HW127922   6.051   3.789   9.278 -1.1699  1.4875 -0.8249
 8574SOL    HW227923   6.018   3.864   9.405  0.5142 -0.6798  0.9742
 8575SOL     OW27924   3.957   7.958   8.642 -0.8581 -0.4104  0.4657
 8575SOL    HW127925   3.883   8.007   8.605 -0.6732 -0.4106  0.0841
 8575SOL    HW227926   4.001   7.920   8.565  0.4443  0.8509  0.5383
 8576SOL     OW27927   7.727   5.200   1.458  1.1639  0.5884 -0.4547
 8576SOL    HW127928   7.717   5.251   1.538 -0.0816 -0.7163  0.2679
 8576SOL    HW227929   7.638   5.192   1.423  1.5063  0.0170 -1.2408
 8577SOL     OW27930   3.892   2.043   3.045 -0.2122  0.6160  0.1865
 8577SOL    HW127931   3.898   1.957   3.004 -0.4902  1.0189 -0.7449
 8577SOL    HW227932   3.927   2.031   3.133  2.2233  0.1200 -0.7798
 8578SOL     OW27933   5.441   3.538   0.542 -0.1194 -0.5047  0.3786
 8578SOL    HW127934   5.441   3.500   0.454 -0.6317  1.9772 -0.7791
 8578SOL    HW227935   5.523   3.587   0.547 -1.6192  2.2345 -0.1337
 8579SOL     OW27936   0.331   1.854   3.173 -0.1346  0.3890  0.0933
 8579SOL    HW127937   0.305   1.762   3.173 -0.4402  0.4729  0.7057
 8579SOL    HW227938   0.389   1.863   3.249 -1.2547  1.0116  0.8955
 8580SOL     OW27939   8.868   0.801   1.183  0.2742 -0.0386  0.0322
 8580SOL    HW127940   8.949   0.756   1.206  0.5540 -0.1312 -1.0946
 8580SOL    HW227941   8.857   0.866   1.252  1.3616  0.0432  0.1498
 8581SOL     OW27942   4.557   6.995   7.675 -0.1431  0.2788  0.2193
 8581SOL    HW127943   4.642   6.952   7.681 -0.2631 -0.0060 -0.1175
 8581SOL    HW227944   4.494   6.924   7.669 -0.4574  0.4784  1.0275
 8582SOL     OW27945   3.472   1.357   5.281  0.3168 -0.5806 -0.4754
 8582SOL    HW127946   3.448   1.264   5.289  0.8013 -0.8228 -1.6556
 8582SOL    HW227947   3.410   1.392   5.217 -0.3642  0.1211  0.5303
 8583SOL     OW27948   1.305   3.031   2.969 -0.3966 -0.2230  0.0640
 8583SOL    HW127949   1.278   2.985   3.048 -0.3749  0.9896  0.8111
 8583SOL    HW227950   1.272   3.120   2.980 -1.8840 -0.4300 -2.0937
 8584SOL     OW27951   5.185   5.265   0.907  0.0539  0.1186  0.0420
 8584SOL    HW127952   5.251   5.197   0.904  0.2615  0.3404 -1.3697
 8584SOL    HW227953   5.230   5.344   0.877 -0.5487  0.5349  0.2046
 8585SOL     OW27954   9.290   0.101   3.372 -0.0205 -0.1593  0.7287
 8585SOL    HW127955   9.288   0.190   3.407  3.8748 -0.5900  2.6781
 8585SOL    HW227956   9.300   0.113   3.278  2.3143  1.6633  1.0996
 8586SOL     OW27957   5.748   3.673   6.833  0.0608  0.9229 -0.0044
 8586SOL    HW127958   5.689   3.641   6.901 -2.1336  0.5574 -1.9531
 8586SOL    HW227959   5.777   3.594   6.787  1.5912  1.1589  0.4989
 8587SOL     OW27960   2.441   9.362   4.094  0.4740 -0.5787 -0.2752
 8587SOL    HW127961   2.513   9.418   4.123  0.5288 -0.3009 -0.9188
 8587SOL    HW227962   2.436   9.293   4.160  1.5813 -0.8132 -0.4169
 8588SOL     OW27963   0.939   5.704   7.931  0.2327 -0.3010  0.3041
 8588SOL    HW127964   0.906   5.656   8.007  0.5694 -1.1278 -0.0543
 8588SOL    HW227965   0.902   5.657   7.856  0.8593 -0.2209 -0.0592
 8589SOL     OW27966   3.098   9.576   7.654 -0.3921  0.0771 -0.0589
 8589SOL    HW127967   3.056   9.559   7.739  1.3744  1.0131  1.0691
 8589SOL    HW227968   3.181   9.529   7.658  0.6640  1.8239 -0.3745
 8590SOL     OW27969   4.757   5.014   6.499  0.3357 -0.4586 -0.2746
 8590SOL    HW127970   4.683   4.977   6.547  0.8365 -0.1987  0.7489
 8590SOL    HW227971   4.795   4.941   6.451 -0.8900 -0.4856 -1.2335
 8591SOL     OW27972   9.527   5.091   3.376 -0.4823 -0.0303 -0.3293
 8591SOL    HW127973   9.619   5.100   3.400  0.2663  0.4394 -3.0249
 8591SOL    HW227974   9.479   5.106   3.458  1.7748  0.4642  0.9930
 8592SOL     OW27975   9.207   9.461   4.049  0.7497  0.1672 -0.1064
 8592SOL    HW127976   9.284   9.507   4.014  1.8318 -1.1213  0.4802
 8592SOL    HW227977   9.191   9.502   4.134  3.1822 -1.9239  1.5219
 8593SOL     OW27978   9.123   5.376   4.386  0.2345  0.1206  0.3009
 8593SOL    HW127979   9.104   5.470   4.393  1.7807  0.4462  0.6821
 8593SOL    HW227980   9.185   5.370   4.314  0.0683 -0.6298  0.2146
 8594SOL     OW27981   4.886   3.435   4.995 -0.1035  0.5231  0.1152
 8594SOL    HW127982   4.870   3.529   4.987  0.1934  0.4957 -0.9868
 8594SOL    HW227983   4.800   3.395   4.981 -0.3285  0.6364  1.0923
 8595SOL     OW27984   2.800   8.446   3.588 -0.1373 -0.0079 -0.0587
 8595SOL    HW127985   2.826   8.405   3.670 -2.0496  2.0433  1.7040
 8595SOL    HW227986   2.869   8.511   3.570 -0.2999  0.3463  0.5838
 8596SOL     OW27987   4.523   8.809   9.164  0.3140  0.1254  0.1589
 8596SOL    HW127988   4.437   8.849   9.179  0.1498 -0.5025  0.9496
 8596SOL    HW227989   4.584   8.883   9.170 -0.0727  0.4165  0.6144
 8597SOL     OW27990   7.523   8.829   5.219 -0.4120 -0.0107  0.0192
 8597SOL    HW127991   7.455   8.761   5.226 -0.2667 -0.2174 -0.5397
 8597SOL    HW227992   7.476   8.910   5.236 -0.4756 -0.2930  1.2775
 8598SOL     OW27993   3.894   2.166   2.764  0.0414  0.7369  0.0689
 8598SOL    HW127994   3.965   2.154   2.701 -0.0438  1.0428 -0.0944
 8598SOL    HW227995   3.931   2.142   2.848  0.2131  0.4953 -0.0763
 8599SOL     OW27996   7.505   3.789   5.278 -0.0640  0.8836 -0.5386
 8599SOL    HW127997   7.415   3.812   5.257 -0.4354 -0.4226 -0.4435
 8599SOL    HW227998   7.544   3.871   5.310 -1.1525  1.5022 -0.7597
 8600SOL     OW27999   7.937   1.781   5.623  0.3226  0.2860 -0.1414
 8600SOL    HW128000   7.850   1.756   5.657 -0.3042  1.5601 -0.7578
 8600SOL    HW228001   7.967   1.703   5.577 -1.4579  0.4802 -1.7666
 8601SOL     OW28002   5.640   6.442   6.098  0.4944  0.0045 -0.2451
 8601SOL    HW128003   5.637   6.427   6.192  1.5869 -0.6254 -0.2954
 8601SOL    HW228004   5.582   6.376   6.060  2.8072 -2.1672 -0.2357
 8602SOL     OW28005   9.241   1.091   9.500  0.0315 -0.0531 -0.2968
 8602SOL    HW128006   9.146   1.084   9.487 -0.3977 -0.0089  2.2347
 8602SOL    HW228007   9.259   1.185   9.497 -0.6925  0.2956  2.5587
 8603SOL     OW28008   5.642   9.257   4.521 -0.9511 -0.4235  0.1084
 8603SOL    HW128009   5.595   9.235   4.440  0.6625 -1.8151 -0.5169
 8603SOL    HW228010   5.627   9.351   4.533 -1.0297 -0.1172 -1.9708
 8604SOL     OW28011   6.757   5.719   7.720 -0.0898 -0.5269  0.5508
 8604SOL    HW128012   6.780   5.726   7.812  1.5102 -0.5193  0.1849
 8604SOL    HW228013   6.703   5.796   7.703  1.9862  1.1023  0.8580
 8605SOL     OW28014   9.220   4.560   6.284 -0.0259  0.0235 -0.0963
 8605SOL    HW128015   9.302   4.582   6.241  0.1929  0.0773  0.3449
 8605SOL    HW228016   9.202   4.634   6.342 -0.0645 -0.2654  0.2687
 8606SOL     OW28017   7.138   1.229   2.594 -0.1284 -0.5210 -0.5689
 8606SOL    HW128018   7.214   1.285   2.575  0.3607 -0.6069  1.0011
 8606SOL    HW228019   7.069   1.291   2.618  0.1129 -0.5365  0.1795
 8607SOL     OW28020   3.430   4.304   2.625 -0.0576 -0.4120  0.0226
 8607SOL    HW128021   3.399   4.250   2.698 -1.0630 -0.5274 -0.4786
 8607SOL    HW228022   3.353   4.351   2.596  0.0845 -1.1803 -1.6856
 8608SOL     OW28023   2.735   2.434   4.804  0.4233  0.0775 -0.8455
 8608SOL    HW128024   2.664   2.496   4.792 -0.0721 -0.0363  1.1349
 8608SOL    HW228025   2.713   2.386   4.884  1.4834 -1.7058 -1.5388
 8609SOL     OW28026   8.889   2.464   0.179 -0.1809  0.3351  0.0691
 8609SOL    HW128027   8.827   2.535   0.193  0.4818  0.8768  0.3235
 8609SOL    HW228028   8.944   2.463   0.257  1.1193  0.8993 -0.7937
 8610SOL     OW28029   2.668   4.886   1.252 -0.3436 -0.2783 -0.1203
 8610SOL    HW128030   2.644   4.964   1.303 -0.5447 -0.8881  0.7402
 8610SOL    HW228031   2.698   4.823   1.317 -0.7678 -1.1436 -0.7403
 8611SOL     OW28032   7.193   8.278   3.409 -0.0787  0.5875  0.4606
 8611SOL    HW128033   7.234   8.304   3.327  0.9603  1.7602  1.2956
 8611SOL    HW228034   7.249   8.208   3.443 -1.8753 -1.6373 -0.9373
 8612SOL     OW28035   3.075   6.961   3.259 -0.2194 -0.5921 -0.0025
 8612SOL    HW128036   3.007   6.980   3.324  0.7955  2.1606  0.3885
 8612SOL    HW228037   3.157   6.978   3.304  0.5813 -0.3756 -1.4824
 8613SOL     OW28038   0.924   2.028   5.042  0.0014  0.0997 -0.3382
 8613SOL    HW128039   0.887   2.099   4.989  0.8467 -0.1636 -1.3122
 8613SOL    HW228040   0.850   1.996   5.094 -0.2884  2.0578  0.5687
 8614SOL     OW28041   1.631   7.380   0.284  0.1971 -0.3209 -0.2820
 8614SOL    HW128042   1.538   7.403   0.281  0.1478 -0.5706 -0.8934
 8614SOL    HW228043   1.639   7.304   0.226  0.5118 -1.2957  0.9971
 8615SOL     OW28044   4.370   2.883   8.926 -0.0518 -0.1314 -0.1441
 8615SOL    HW128045   4.331   2.801   8.896 -0.5098 -0.7282  1.9691
 8615SOL    HW228046   4.295   2.940   8.943  0.2055  0.1981 -0.1109
 8616SOL     OW28047   5.076   3.586   3.659 -0.3662  0.0670  0.3144
 8616SOL    HW128048   5.052   3.632   3.740  0.6384  1.5951 -0.2091
 8616SOL    HW228049   5.016   3.511   3.655 -0.1836 -0.2900  2.6652
 8617SOL     OW28050   3.267   1.338   0.373  0.2907 -0.1261 -0.0005
 8617SOL    HW128051   3.210   1.262   0.384  0.7442 -0.6902 -1.3215
 8617SOL    HW228052   3.215   1.412   0.403  0.0118 -0.9997  1.7878
 8618SOL     OW28053   0.903   8.087   6.020 -0.0355 -0.0945 -0.0900
 8618SOL    HW128054   0.809   8.095   6.003 -0.1875  0.0679  0.7626
 8618SOL    HW228055   0.931   8.177   6.041  0.2304 -0.2115  0.0609
 8619SOL     OW28056   3.924   9.528   2.697 -0.1111  0.6009  0.0021
 8619SOL    HW128057   3.877   9.540   2.779 -0.6757  0.1128 -0.2389
 8619SOL    HW228058   3.859   9.548   2.629  0.3967  1.1804 -0.3242
 8620SOL     OW28059   3.557   3.525   5.850 -0.5367 -0.2043 -0.1465
 8620SOL    HW128060   3.495   3.581   5.803 -0.2853 -0.5673 -0.9335
 8620SOL    HW228061   3.643   3.564   5.833 -0.6318  1.5499  2.6718
 8621SOL     OW28062   0.362   0.721   3.984  0.4828  0.3893  0.8003
 8621SOL    HW128063   0.312   0.699   3.906 -0.0289  1.4877  0.8042
 8621SOL    HW228064   0.451   0.692   3.964  0.8347  2.4943 -1.0560
 8622SOL     OW28065   4.267   7.505   5.718  0.3965 -0.2765  0.4429
 8622SOL    HW128066   4.249   7.529   5.808 -0.2320  0.8353  0.0302
 8622SOL    HW228067   4.363   7.496   5.714  0.3426 -1.5307  1.4925
 8623SOL     OW28068   3.999   4.216   5.994  0.5130 -0.1583  0.1133
 8623SOL    HW128069   3.955   4.267   6.062 -1.8061 -0.6608 -0.9052
 8623SOL    HW228070   3.997   4.126   6.026 -0.9174 -0.4507 -0.7306
 8624SOL     OW28071   7.429   8.031   4.760 -0.1799 -0.3011  0.0262
 8624SOL    HW128072   7.393   8.006   4.845  1.7555 -0.6599  0.8110
 8624SOL    HW228073   7.439   8.126   4.765 -0.2492 -0.3000  0.1373
 8625SOL     OW28074   0.274   2.340   3.868 -0.0293  0.2603  0.1586
 8625SOL    HW128075   0.263   2.321   3.775 -1.1280 -1.8651  0.6408
 8625SOL    HW228076   0.335   2.413   3.871  0.6402 -0.1150 -2.2054
 8626SOL     OW28077   1.041   3.852   8.519 -0.1081  1.0833  0.4687
 8626SOL    HW128078   1.100   3.778   8.507 -0.3149  0.6036  2.2319
 8626SOL    HW228079   0.954   3.815   8.513 -0.2421  1.5158 -0.4706
 8627SOL     OW28080   1.694   8.597   3.617 -0.7817  0.4719  0.1400
 8627SOL    HW128081   1.668   8.513   3.656  0.6402  0.8290  1.9541
 8627SOL    HW228082   1.703   8.577   3.523  0.8865 -1.8111  0.6876
 8628SOL     OW28083   1.929   0.779   0.382 -0.1544 -0.0988 -0.2491
 8628SOL    HW128084   1.958   0.693   0.414 -0.9554 -0.8408 -1.4348
 8628SOL    HW228085   1.845   0.761   0.340 -1.1009  1.5625  0.8438
 8629SOL     OW28086   5.305   2.905   9.038  0.0713 -0.5534 -0.4889
 8629SOL    HW128087   5.391   2.866   9.021  0.1744 -0.7761  0.4877
 8629SOL    HW228088   5.247   2.830   9.049 -0.1827 -0.4060 -0.8056
 8630SOL     OW28089   3.744   0.480   0.969  0.4639 -0.1995  0.3660
 8630SOL    HW128090   3.749   0.575   0.968 -0.0085 -0.1662 -0.6344
 8630SOL    HW228091   3.706   0.457   0.884  0.9946 -1.3075  0.4081
 8631SOL     OW28092   3.468   2.985   2.071  0.0295 -0.7361  0.3679
 8631SOL    HW128093   3.560   2.971   2.093 -0.0449  0.9227  1.9400
 8631SOL    HW228094   3.423   2.990   2.155 -1.2585 -0.0279 -0.3260
 8632SOL     OW28095   8.261   6.100   3.761  0.4395  0.1785  0.7471
 8632SOL    HW128096   8.275   6.029   3.698  0.0446  0.0375  0.8128
 8632SOL    HW228097   8.283   6.060   3.846 -0.2601 -0.0178  0.8405
 8633SOL     OW28098   1.384   7.511   6.440  0.4838 -0.2288  0.4310
 8633SOL    HW128099   1.332   7.579   6.482  2.5229  1.0624  1.0127
 8633SOL    HW228100   1.334   7.487   6.362 -0.9099  1.0092  0.8931
 8634SOL     OW28101   4.080   8.086   3.356 -0.1535 -0.6948 -0.6879
 8634SOL    HW128102   4.133   8.164   3.340  1.0155 -1.4873 -0.7338
 8634SOL    HW228103   4.006   8.119   3.408  0.5971  0.3602 -0.2325
 8635SOL     OW28104   6.326   8.169   8.325  0.1078  0.2507 -0.1440
 8635SOL    HW128105   6.374   8.252   8.333 -1.4346  1.1043  0.7426
 8635SOL    HW228106   6.234   8.196   8.319 -0.3411 -1.3668 -0.9871
 8636SOL     OW28107   8.335   4.864   9.404 -0.1894  0.9757  0.1825
 8636SOL    HW128108   8.368   4.797   9.463  1.8063 -0.8539 -2.7283
 8636SOL    HW228109   8.268   4.820   9.352  0.8361  1.2520 -1.4811
 8637SOL     OW28110   4.427   3.830   1.356  0.2489 -0.4424 -0.3479
 8637SOL    HW128111   4.444   3.923   1.375  3.1725  0.0281 -4.0947
 8637SOL    HW228112   4.333   3.827   1.339  0.0842  1.8724 -0.2581
 8638SOL     OW28113   7.115   6.900   8.416  0.1993 -0.6759  0.4477
 8638SOL    HW128114   7.045   6.840   8.390  0.0881 -0.5232  0.3933
 8638SOL    HW228115   7.098   6.919   8.508 -0.6905  0.5122  0.0657
 8639SOL     OW28116   1.731   1.328   4.272  0.2848 -0.2678  0.4664
 8639SOL    HW128117   1.806   1.331   4.213 -0.7081 -0.6280 -0.8860
 8639SOL    HW228118   1.756   1.382   4.347  2.6000 -1.9204  0.9558
 8640SOL     OW28119   7.234   4.986   8.897 -0.9083  0.1084 -0.0985
 8640SOL    HW128120   7.179   5.063   8.909 -0.3988  0.3083  1.1309
 8640SOL    HW228121   7.267   4.993   8.808  0.2802  2.1073  0.4297
 8641SOL     OW28122   5.563   6.126   9.492 -0.0774 -0.7327 -0.0589
 8641SOL    HW128123   5.571   6.177   9.412 -0.3363  0.6233  0.7436
 8641SOL    HW228124   5.554   6.036   9.462  0.6039 -0.3509 -1.5202
 8642SOL     OW28125   9.490   7.868   4.932  0.4155  0.5134  0.2025
 8642SOL    HW128126   9.513   7.826   4.849 -0.1585  0.4553  0.0690
 8642SOL    HW228127   9.395   7.882   4.927  0.7440  2.9397 -0.2779
 8643SOL     OW28128   2.500   4.647   5.616 -0.4612  0.2272  0.3757
 8643SOL    HW128129   2.503   4.693   5.699  0.9043 -1.3094  1.2399
 8643SOL    HW228130   2.590   4.646   5.585 -0.8826  0.3967 -0.9255
 8644SOL     OW28131   9.158   3.051   6.460  0.1096 -0.3739  0.1051
 8644SOL    HW128132   9.225   3.119   6.464  0.2287 -0.4403 -0.6368
 8644SOL    HW228133   9.190   2.989   6.395 -1.4439  0.4616 -1.5643
 8645SOL     OW28134   3.432   8.329   6.039  0.3369 -0.0735  0.4712
 8645SOL    HW128135   3.437   8.392   5.968  3.2544  1.1558  1.6182
 8645SOL    HW228136   3.399   8.379   6.114  0.4371 -0.5056  0.8129
 8646SOL     OW28137   5.071   6.229   7.753  0.5054 -0.1183  0.2511
 8646SOL    HW128138   5.133   6.300   7.737  0.5314  0.1038  1.2493
 8646SOL    HW228139   5.089   6.202   7.843 -1.3568  0.4664  0.8250
 8647SOL     OW28140   2.345   4.929   1.540 -0.5212  0.6438  0.0202
 8647SOL    HW128141   2.416   4.871   1.566  0.8531  2.0952 -0.3737
 8647SOL    HW228142   2.373   5.016   1.568 -2.2013  1.2350 -0.0375
 8648SOL     OW28143   6.275   6.537   7.617 -0.0029 -0.3450 -0.3975
 8648SOL    HW128144   6.201   6.591   7.588 -0.9803 -1.4570 -0.0839
 8648SOL    HW228145   6.305   6.493   7.538 -0.0807 -0.3603 -0.4183
 8649SOL     OW28146   0.897   2.960   3.720  0.1684 -0.0367 -0.3577
 8649SOL    HW128147   0.875   2.876   3.680 -1.4578  0.2239 -0.0675
 8649SOL    HW228148   0.873   3.025   3.654 -1.1368  0.3195  0.4335
 8650SOL     OW28149   2.879   4.251   4.326  0.2038 -0.1556 -0.1814
 8650SOL    HW128150   2.870   4.181   4.261  3.3204  1.1921 -2.2985
 8650SOL    HW228151   2.930   4.210   4.397 -0.4124 -0.7550 -0.0707
 8651SOL     OW28152   3.704   4.550   3.620  0.0829 -0.1310  0.0754
 8651SOL    HW128153   3.727   4.457   3.618  0.0945 -0.1511 -2.7439
 8651SOL    HW228154   3.774   4.591   3.672  1.9637 -1.3084 -1.3798
 8652SOL     OW28155   4.398   3.576   1.872 -0.3283 -0.1602 -0.0756
 8652SOL    HW128156   4.304   3.571   1.892 -0.4935  0.6146 -0.6157
 8652SOL    HW228157   4.439   3.520   1.937 -1.2020 -0.8096 -0.0549
 8653SOL     OW28158   8.294   4.518   8.937  0.3058  0.0386  0.4669
 8653SOL    HW128159   8.375   4.492   8.983  1.4728 -0.6886 -1.8564
 8653SOL    HW228160   8.277   4.446   8.876 -1.5466  0.6743  0.1645
 8654SOL     OW28161   3.652   6.787   6.076 -0.1828  0.5667 -0.0836
 8654SOL    HW128162   3.558   6.804   6.085  0.1612  3.0960 -0.5402
 8654SOL    HW228163   3.660   6.734   5.997 -1.1264  1.5418 -0.8458
 8655SOL     OW28164   3.249   8.436   7.041  0.1062  0.1620 -0.0448
 8655SOL    HW128165   3.198   8.502   7.088  2.4493  1.0980  1.3795
 8655SOL    HW228166   3.183   8.376   7.005 -2.0324  2.2924  0.0490
 8656SOL     OW28167   7.949   5.353   1.565  0.1005  0.0592  0.4849
 8656SOL    HW128168   8.012   5.424   1.573 -1.4213  1.3156  2.3413
 8656SOL    HW228169   7.900   5.373   1.485  0.8997  0.0157 -0.0293
 8657SOL     OW28170   9.088   8.936   8.969 -0.6734 -0.4904 -0.1450
 8657SOL    HW128171   9.160   8.936   9.033 -1.2916  2.2362  0.6849
 8657SOL    HW228172   9.127   8.902   8.889  1.1975 -0.3306  0.6450
 8658SOL     OW28173   8.088   2.367   5.272 -0.1168  0.1856  0.1508
 8658SOL    HW128174   8.080   2.459   5.297  0.1455  0.4160 -0.5858
 8658SOL    HW228175   8.003   2.346   5.232  0.1702  0.4017 -0.5901
 8659SOL     OW28176   0.004   5.671   6.438  0.3351 -1.0783 -0.1841
 8659SOL    HW128177   0.068   5.655   6.368  0.9530  0.6663 -0.0779
 8659SOL    HW228178   0.002   5.767   6.446 -1.6442 -1.1386  0.4390
 8660SOL     OW28179   9.373   0.883   1.307  0.5211 -0.0961  0.4927
 8660SOL    HW128180   9.288   0.890   1.264  1.1016 -1.1742 -0.9005
 8660SOL    HW228181   9.399   0.792   1.293  0.9942 -0.3702  2.7006
 8661SOL     OW28182   3.894   5.995   5.529  0.1058 -0.0351 -0.2504
 8661SOL    HW128183   3.987   5.983   5.546  0.3166  1.3220 -0.3123
 8661SOL    HW228184   3.889   6.023   5.438 -0.3922 -0.3683 -0.3328
 8662SOL     OW28185   1.422   3.700   0.569 -0.1526  0.1108 -0.2138
 8662SOL    HW128186   1.486   3.740   0.511  0.9002  1.0080  1.4832
 8662SOL    HW228187   1.362   3.772   0.591 -1.4454 -0.5880 -1.3484
 8663SOL     OW28188   4.409   0.987   6.766  0.4517  0.2602  0.2834
 8663SOL    HW128189   4.380   0.909   6.813 -3.2038  1.7345  0.8695
 8663SOL    HW228190   4.432   0.956   6.679 -0.0484 -1.5753  0.7610
 8664SOL     OW28191   5.835   3.378   4.032  0.2044 -0.5253  0.0902
 8664SOL    HW128192   5.857   3.318   4.104 -0.9988 -1.1401 -0.0225
 8664SOL    HW228193   5.776   3.442   4.072 -0.0904 -0.5901 -0.2348
 8665SOL     OW28194   5.654   0.365   8.168 -0.7090 -0.4850  0.4457
 8665SOL    HW128195   5.635   0.459   8.162 -0.0180 -0.3050  1.0122
 8665SOL    HW228196   5.689   0.353   8.257  0.3364 -1.0778 -0.0381
 8666SOL     OW28197   4.263   0.116   6.729 -0.5903  0.1092  0.4930
 8666SOL    HW128198   4.252   0.042   6.670  0.4132 -1.0392  1.6712
 8666SOL    HW228199   4.356   0.139   6.720 -0.6332  0.4777  0.9781
 8667SOL     OW28200   1.471   5.172   5.677 -0.2991 -0.0152 -0.4975
 8667SOL    HW128201   1.490   5.237   5.745  2.7869  0.9890 -2.1175
 8667SOL    HW228202   1.376   5.177   5.664 -0.5444  2.0266  1.4569
 8668SOL     OW28203   8.774   2.084   3.366  0.0956  0.2176 -0.1764
 8668SOL    HW128204   8.684   2.059   3.345  0.4316 -1.1267 -0.0989
 8668SOL    HW228205   8.815   2.098   3.281  0.6855 -2.4309 -0.3918
 8669SOL     OW28206   5.381   6.926   2.208  0.1860 -0.6301  0.0571
 8669SOL    HW128207   5.469   6.888   2.200 -0.4940 -1.9862 -1.5449
 8669SOL    HW228208   5.341   6.914   2.122 -2.1190 -1.4916  1.1481
 8670SOL     OW28209   3.717   8.439   6.101 -0.4855 -0.2478  0.4507
 8670SOL    HW128210   3.656   8.488   6.156  1.1180  2.8721 -0.3243
 8670SOL    HW228211   3.700   8.472   6.012  1.4145 -0.2734  0.0410
 8671SOL     OW28212   7.744   3.441   6.280 -0.1766 -0.0146 -0.1452
 8671SOL    HW128213   7.758   3.347   6.277  1.2486  0.0344  2.1091
 8671SOL    HW228214   7.830   3.479   6.262 -0.5660  0.8367 -0.2918
 8672SOL     OW28215   5.427   1.409   5.200 -0.0271 -0.7843  0.1791
 8672SOL    HW128216   5.417   1.501   5.225  0.2786 -0.8198  0.4463
 8672SOL    HW228217   5.402   1.360   5.278 -0.1625 -0.9261  0.0453
 8673SOL     OW28218   8.662   5.284   9.304  0.8290 -0.3805 -0.1360
 8673SOL    HW128219   8.704   5.304   9.221 -0.4939  0.0756 -0.7227
 8673SOL    HW228220   8.589   5.228   9.282  0.4451 -0.2383  0.7162
 8674SOL     OW28221   5.919   2.542   5.644 -0.3288 -0.4071 -0.4835
 8674SOL    HW128222   5.832   2.507   5.660 -0.5437  0.7025  0.9523
 8674SOL    HW228223   5.945   2.581   5.727  1.3666 -0.3326 -1.0135
 8675SOL     OW28224   7.934   2.110   7.378  0.0860 -0.7427  0.0678
 8675SOL    HW128225   7.852   2.156   7.361  0.7095  0.2313 -0.3589
 8675SOL    HW228226   7.999   2.179   7.390  1.0510 -1.5046 -0.5830
 8676SOL     OW28227   4.021   4.904   9.225  0.2727  0.7669  0.2222
 8676SOL    HW128228   4.055   4.876   9.140  2.1783  1.3709  0.7344
 8676SOL    HW228229   4.000   4.823   9.271  0.8017  0.3750 -0.2153
 8677SOL     OW28230   8.984   8.546   7.525  0.5074 -0.0675 -0.6367
 8677SOL    HW128231   8.947   8.516   7.442  0.6180  3.4017 -2.1340
 8677SOL    HW228232   8.908   8.579   7.574  0.8674  2.6727 -1.7068
 8678SOL     OW28233   3.513   6.749   4.418 -0.2871  0.2036  0.3049
 8678SOL    HW128234   3.532   6.794   4.500  2.6931  3.0175 -1.6444
 8678SOL    HW228235   3.446   6.803   4.376 -0.4478 -0.1675  0.0761
 8679SOL     OW28236   1.676   5.652   6.133  0.6785  0.2212  0.1541
 8679SOL    HW128237   1.621   5.709   6.079 -0.8418 -0.9822  0.3636
 8679SOL    HW228238   1.702   5.706   6.207 -0.0903  0.8675 -0.0385
 8680SOL     OW28239   9.221   4.345   0.488 -0.2604  0.8169 -0.4068
 8680SOL    HW128240   9.304   4.361   0.444 -0.2605 -0.7459 -1.0411
 8680SOL    HW228241   9.210   4.250   0.484 -0.1755  0.5159  3.1503
 8681SOL     OW28242   8.970   8.144   1.067 -0.3864 -0.2771 -0.0005
 8681SOL    HW128243   8.910   8.110   1.133 -1.6004 -1.3454 -1.5716
 8681SOL    HW228244   9.047   8.088   1.074 -1.3423 -1.7565 -0.8311
 8682SOL     OW28245   7.704   4.785   7.447 -0.5041  0.2556 -0.1826
 8682SOL    HW128246   7.618   4.827   7.451 -0.9607 -0.7718  1.7373
 8682SOL    HW228247   7.685   4.692   7.437  0.1817 -0.4061  3.3235
 8683SOL     OW28248   5.551   5.530   4.501 -0.3364  0.9186  0.0518
 8683SOL    HW128249   5.607   5.584   4.444  0.6619  0.4914  0.6031
 8683SOL    HW228250   5.598   5.526   4.584  0.5434 -2.2606 -0.4794
 8684SOL     OW28251   1.982   7.306   8.648 -0.1143 -0.0284  0.2721
 8684SOL    HW128252   1.940   7.343   8.726 -0.6284 -2.0397  0.9995
 8684SOL    HW228253   1.917   7.245   8.613  0.6406 -0.1426 -0.9765
 8685SOL     OW28254   2.285   2.909   3.434  0.3151 -0.0424  0.6156
 8685SOL    HW128255   2.254   2.866   3.513 -0.3463  1.0006  0.9424
 8685SOL    HW228256   2.381   2.908   3.442  0.2468  1.2075  2.0940
 8686SOL     OW28257   3.418   7.673   2.175  0.4174  0.3368 -0.6130
 8686SOL    HW128258   3.379   7.655   2.260 -1.6441 -0.9413 -1.7572
 8686SOL    HW228259   3.448   7.588   2.143  1.0323  0.7749 -1.2438
 8687SOL     OW28260   2.177   1.648   5.167  0.1033 -0.1442  0.6337
 8687SOL    HW128261   2.217   1.733   5.149 -0.9821  0.0694 -1.0652
 8687SOL    HW228262   2.241   1.584   5.138 -0.9721  0.1944 -3.0255
 8688SOL     OW28263   4.826   7.857   3.962  0.3720  0.1194  0.3444
 8688SOL    HW128264   4.754   7.795   3.954  0.2870  0.3878 -1.5422
 8688SOL    HW228265   4.839   7.867   4.056 -4.2883  2.5992  1.0458
 8689SOL     OW28266   0.227   1.330   0.505  0.1049  0.2767 -0.2379
 8689SOL    HW128267   0.161   1.288   0.559  0.4261  1.1346  0.8671
 8689SOL    HW228268   0.310   1.311   0.548  0.3807  0.8794 -0.4802
 8690SOL     OW28269   5.464   1.586   4.095  0.2323  1.1774  0.0019
 8690SOL    HW128270   5.488   1.666   4.142  0.8856  1.1016 -0.1857
 8690SOL    HW228271   5.418   1.617   4.016  0.5365  1.3724 -0.0991
 8691SOL     OW28272   2.313   3.635   0.775  0.3357 -0.3159  0.2672
 8691SOL    HW128273   2.250   3.640   0.847 -1.4088  0.5232 -1.2266
 8691SOL    HW228274   2.313   3.543   0.750  0.1052 -0.4192  0.6294
 8692SOL     OW28275   1.424   3.915   8.136 -0.1265  0.0046  0.2792
 8692SOL    HW128276   1.482   3.990   8.150  1.2115 -1.0433  0.5576
 8692SOL    HW228277   1.350   3.932   8.194  0.8174  0.4337  1.3992
 8693SOL     OW28278   2.759   3.353   7.853 -0.3997  0.2005  0.2893
 8693SOL    HW128279   2.795   3.272   7.815  0.4335  0.2685  0.8966
 8693SOL    HW228280   2.716   3.397   7.779 -1.7799 -1.2789  0.1645
 8694SOL     OW28281   6.168   0.977   4.429 -0.0112  0.0342  0.0343
 8694SOL    HW128282   6.257   0.960   4.399  0.4393  1.8535  0.1840
 8694SOL    HW228283   6.113   0.966   4.352  0.2597 -1.4932  0.0314
 8695SOL     OW28284   5.025   4.821   6.675  0.4051 -0.2571 -0.2756
 8695SOL    HW128285   5.108   4.772   6.677  0.1597 -0.7315 -1.0674
 8695SOL    HW228286   4.959   4.754   6.658 -0.2229  0.0364  0.9213
 8696SOL     OW28287   8.868   7.962   0.360  0.1691  0.0877  0.1294
 8696SOL    HW128288   8.935   7.912   0.406  1.5642  0.6316 -1.2623
 8696SOL    HW228289   8.832   7.901   0.296  0.4825  0.2727 -0.2250
 8697SOL     OW28290   4.716   3.722   4.562 -0.7887  0.0751 -0.4420
 8697SOL    HW128291   4.651   3.750   4.498  0.9547  0.9821 -1.8961
 8697SOL    HW228292   4.785   3.681   4.510  1.6116  2.5595  0.5225
 8698SOL     OW28293   8.282   3.605   8.513  0.3637 -0.3243 -0.3053
 8698SOL    HW128294   8.261   3.534   8.454  1.8978  1.8594 -3.8042
 8698SOL    HW228295   8.376   3.619   8.502  1.1464 -0.7177  3.9468
 8699SOL     OW28296   9.497   6.238   2.788  0.3591 -0.4772  0.6692
 8699SOL    HW128297   9.493   6.232   2.692 -1.8484 -1.1251  0.7562
 8699SOL    HW228298   9.555   6.167   2.814  1.3666 -0.0021 -0.1776
 8700SOL     OW28299   0.934   2.383   8.350 -0.6866  0.8417  0.3150
 8700SOL    HW128300   1.016   2.433   8.346 -0.9089  1.1775 -0.2770
 8700SOL    HW228301   0.931   2.336   8.266 -1.0205  0.7061  0.4022
 8701SOL     OW28302   7.010   4.849   7.458  0.0656 -0.0537  0.2471
 8701SOL    HW128303   7.076   4.836   7.390  0.2442  0.1023  0.3875
 8701SOL    HW228304   6.937   4.792   7.433  0.4698 -0.6371  0.3781
 8702SOL     OW28305   0.536   4.270   7.426  0.5698  0.0771  0.0019
 8702SOL    HW128306   0.465   4.226   7.473  1.1097 -1.5951 -0.6927
 8702SOL    HW228307   0.519   4.253   7.334 -0.8310  3.8617 -0.6372
 8703SOL     OW28308   8.641   8.325   2.230 -0.3789  0.2475 -0.2210
 8703SOL    HW128309   8.714   8.273   2.196 -1.4988  0.2931 -2.9161
 8703SOL    HW228310   8.572   8.261   2.248  0.0345  0.2765  1.7177
 8704SOL     OW28311   6.823   4.402   3.913  0.5597  0.2807  0.1147
 8704SOL    HW128312   6.758   4.346   3.955 -0.6901  2.6893  1.6567
 8704SOL    HW228313   6.782   4.430   3.831  0.6677 -0.1076 -0.0708
 8705SOL     OW28314   1.130   4.332   9.093  0.4334 -0.3595 -0.2712
 8705SOL    HW128315   1.087   4.340   9.178 -0.0251 -1.3326 -0.3961
 8705SOL    HW228316   1.058   4.336   9.030  0.6272 -0.9530 -0.5345
 8706SOL     OW28317   7.945   7.396   2.162  0.6238  0.4339 -0.1701
 8706SOL    HW128318   7.960   7.326   2.098  3.6836 -0.8901  1.7791
 8706SOL    HW228319   7.911   7.351   2.239 -0.7619  1.6620 -0.0267
 8707SOL     OW28320   7.559   7.881   2.397 -0.4125 -0.2795  0.3348
 8707SOL    HW128321   7.506   7.958   2.376  0.2795  0.6593  1.8575
 8707SOL    HW228322   7.509   7.836   2.466  0.8642  0.8074  2.0426
 8708SOL     OW28323   8.191   1.450   6.266 -0.4560 -0.4346 -0.3010
 8708SOL    HW128324   8.196   1.380   6.331  0.8518  0.7642  0.9490
 8708SOL    HW228325   8.106   1.437   6.223 -0.8865 -1.8784  0.9195
 8709SOL     OW28326   5.924   0.512   3.018 -0.6239  0.4336  0.5211
 8709SOL    HW128327   5.864   0.501   3.091 -0.9927 -0.4248  0.1020
 8709SOL    HW228328   6.003   0.465   3.045 -2.2415 -3.9747 -1.3212
 8710SOL     OW28329   7.100   1.028   3.619 -0.4066 -0.4451 -0.4712
 8710SOL    HW128330   7.102   1.084   3.696  0.0009 -0.5330 -0.4155
 8710SOL    HW228331   7.096   0.939   3.654  3.5269 -0.7493 -0.4170
 8711SOL     OW28332   9.534   1.140   8.896 -0.4657  0.2238  0.7890
 8711SOL    HW128333   9.565   1.050   8.893  1.5088  0.8170  1.8422
 8711SOL    HW228334   9.449   1.135   8.940 -0.4364 -1.1194  0.7190
 8712SOL     OW28335   8.745   5.405   2.283 -0.1461 -0.2157 -0.3051
 8712SOL    HW128336   8.701   5.417   2.198 -1.2470 -1.6847 -0.0032
 8712SOL    HW228337   8.784   5.318   2.277  1.2126  0.3458  0.1119
 8713SOL     OW28338   8.194   8.059   1.671 -0.6006  0.6670 -0.4266
 8713SOL    HW128339   8.116   8.060   1.726 -0.4607  1.6048 -0.2313
 8713SOL    HW228340   8.196   8.145   1.631 -0.4111  0.1701 -1.5076
 8714SOL     OW28341   5.001   2.766   0.726  0.2359 -0.3771  0.0342
 8714SOL    HW128342   5.048   2.687   0.702  1.1041  0.3552 -0.7395
 8714SOL    HW228343   5.069   2.826   0.758 -0.5775 -0.4388  2.0131
 8715SOL     OW28344   6.673   5.348   0.148  0.3677 -0.1658 -0.3871
 8715SOL    HW128345   6.647   5.440   0.143  1.4271  0.2237  0.8461
 8715SOL    HW228346   6.605   5.306   0.201 -0.0614 -0.0866 -0.8666
 8716SOL     OW28347   8.791   4.544   1.199 -0.5611 -0.4755 -0.1629
 8716SOL    HW128348   8.814   4.616   1.139 -0.7361 -0.3273 -0.0558
 8716SOL    HW228349   8.874   4.501   1.218  0.0232  1.4375  2.0394
 8717SOL     OW28350   4.295   9.542   9.224 -0.3441  0.0761  0.1727
 8717SOL    HW128351   4.207   9.515   9.252 -0.3179  1.2243  1.5195
 8717SOL    HW228352   4.326   9.597   9.296  0.1803  2.3731 -1.7124
 8718SOL     OW28353   6.268   7.065   5.712  0.5391 -0.1132  0.2544
 8718SOL    HW128354   6.217   6.988   5.684  0.9414  0.0694 -1.0582
 8718SOL    HW228355   6.231   7.088   5.797 -2.7980  1.0317 -1.2949
 8719SOL     OW28356   6.931   4.925   6.162  0.1312 -0.3045 -0.3262
 8719SOL    HW128357   6.944   5.020   6.165  1.5387 -0.4651 -0.4182
 8719SOL    HW228358   6.988   4.891   6.232  2.4853 -1.2939 -2.5356
 8720SOL     OW28359   1.273   3.887   2.855  0.5549  0.1306 -0.5498
 8720SOL    HW128360   1.218   3.938   2.915 -0.3696 -1.9950  0.5005
 8720SOL    HW228361   1.362   3.904   2.886  0.4552  2.3348 -1.2588
 8721SOL     OW28362   5.033   2.321   1.875 -0.1518  0.1159  0.5528
 8721SOL    HW128363   5.003   2.267   1.948  0.2158  1.7238  1.9726
 8721SOL    HW228364   5.073   2.397   1.917 -0.1687  1.2320 -1.3466
 8722SOL     OW28365   0.527   5.042   7.097  0.1428  0.4273 -0.3144
 8722SOL    HW128366   0.510   4.952   7.068 -2.0969 -0.5821  3.5036
 8722SOL    HW228367   0.529   5.037   7.192  3.4863  3.9681  0.0431
 8723SOL     OW28368   3.017   4.364   9.206 -0.0837  0.1910 -0.0637
 8723SOL    HW128369   3.049   4.281   9.241 -0.4524  0.6305  1.3806
 8723SOL    HW228370   3.010   4.349   9.112  1.3467 -0.9042 -0.0261
 8724SOL     OW28371   0.961   6.244   5.158  0.2906 -0.0682 -0.4356
 8724SOL    HW128372   0.891   6.216   5.216  0.4140  1.8933  0.7557
 8724SOL    HW228373   1.032   6.182   5.175 -0.3109 -0.6060  0.1585
 8725SOL     OW28374   6.018   5.748   7.533  0.5779 -0.6766 -0.5254
 8725SOL    HW128375   6.092   5.791   7.490  0.8815 -0.0102  0.6008
 8725SOL    HW228376   5.976   5.819   7.583 -0.9961 -0.9784 -1.3518
 8726SOL     OW28377   5.525   1.304   4.148  0.3572 -0.0030  0.2017
 8726SOL    HW128378   5.489   1.309   4.237  1.9081  2.9669  0.7943
 8726SOL    HW228379   5.512   1.392   4.113  0.4603 -0.9202 -2.2791
 8727SOL     OW28380   3.738   8.674   1.001  0.7649  0.5756 -0.0430
 8727SOL    HW128381   3.746   8.699   1.093 -1.7663 -1.3697  0.8166
 8727SOL    HW228382   3.794   8.596   0.993 -1.4829 -1.2617  0.8413
 8728SOL     OW28383   4.084   5.894   2.847 -0.2342  0.3485  0.0337
 8728SOL    HW128384   4.062   5.982   2.817 -1.6372 -0.4238 -1.3201
 8728SOL    HW228385   4.000   5.851   2.858  0.3377 -0.2876  2.5336
 8729SOL     OW28386   5.938   3.648   7.034 -0.2993  0.7615 -0.6366
 8729SOL    HW128387   5.881   3.605   6.970 -0.4202 -1.0112  0.6021
 8729SOL    HW228388   5.880   3.668   7.107  0.7602 -2.1406  1.1590
 8730SOL     OW28389   5.792   3.120   0.909 -0.2846  0.5397 -0.3306
 8730SOL    HW128390   5.770   3.208   0.939  0.3640  0.5146  0.2512
 8730SOL    HW228391   5.817   3.132   0.817 -0.8345  0.8576 -0.4405
 8731SOL     OW28392   5.907   9.267   3.964 -0.3169 -0.0030 -0.1787
 8731SOL    HW128393   5.876   9.227   4.045 -2.1302  0.9922 -0.3367
 8731SOL    HW228394   5.832   9.265   3.906  0.9665 -0.7561 -1.9139
 8732SOL     OW28395   6.209   2.495   0.977 -0.2287  0.2940 -1.1055
 8732SOL    HW128396   6.257   2.578   0.971 -0.7849  0.9882  2.2337
 8732SOL    HW228397   6.276   2.428   0.960  1.1201  1.3427 -0.1549
 8733SOL     OW28398   6.052   6.463   4.321 -0.2552  0.8145 -0.2996
 8733SOL    HW128399   5.962   6.488   4.297 -0.5154  0.1659 -0.0112
 8733SOL    HW228400   6.064   6.499   4.409 -0.5808  0.0762  0.0573
 8734SOL     OW28401   0.672   8.817   0.602 -0.4034 -0.5130  0.5246
 8734SOL    HW128402   0.731   8.831   0.528 -0.0352  0.8741  1.0398
 8734SOL    HW228403   0.730   8.799   0.676 -0.6163  0.5918  0.9796
 8735SOL     OW28404   8.560   3.692   2.982 -0.4172  0.7695  0.5601
 8735SOL    HW128405   8.579   3.737   2.899 -1.4758  0.3322  0.0676
 8735SOL    HW228406   8.637   3.637   2.997  1.0157  2.8331  1.2801
 8736SOL     OW28407   3.441   1.384   6.499  0.0387  0.2312 -0.2461
 8736SOL    HW128408   3.467   1.297   6.530 -0.1838  0.1699 -0.2356
 8736SOL    HW228409   3.464   1.385   6.406 -3.5486 -1.2626 -1.2969
 8737SOL     OW28410   8.977   1.414   2.451  0.2743 -0.4672  0.0348
 8737SOL    HW128411   8.931   1.457   2.523  0.6694 -0.4018  0.2520
 8737SOL    HW228412   9.021   1.486   2.405  1.9411 -0.7276  1.1160
 8738SOL     OW28413   8.426   6.482   6.078 -0.3226 -0.0732  0.2625
 8738SOL    HW128414   8.362   6.434   6.025  0.9212 -0.2399 -1.1234
 8738SOL    HW228415   8.390   6.476   6.167 -1.1713 -1.9867 -0.1338
 8739SOL     OW28416   0.497   5.108   2.187  0.1816 -0.0209  0.2571
 8739SOL    HW128417   0.415   5.060   2.175  0.0611  0.3274 -0.3553
 8739SOL    HW228418   0.489   5.183   2.128  0.7432  0.2676  0.5478
 8740SOL     OW28419   0.117   7.791   5.449 -0.1750  0.4071  0.0762
 8740SOL    HW128420   0.024   7.812   5.439 -0.1798  0.6472  0.6289
 8740SOL    HW228421   0.162   7.874   5.432 -0.0344  0.1974 -0.6045
 8741SOL     OW28422   4.908   5.242   8.855 -0.3239 -0.0099 -0.6024
 8741SOL    HW128423   4.847   5.183   8.898 -0.3360  0.2605 -0.2421
 8741SOL    HW228424   4.856   5.287   8.788  0.0430 -1.5754 -2.0206
 8742SOL     OW28425   3.136   3.424   9.358  0.1786 -0.0633 -0.0270
 8742SOL    HW128426   3.223   3.429   9.398  0.0709  0.9762  0.1091
 8742SOL    HW228427   3.120   3.331   9.349  1.5359 -0.2796 -0.5589
 8743SOL     OW28428   8.669   5.182   4.446  0.3412  0.1789 -0.3566
 8743SOL    HW128429   8.761   5.207   4.436  0.6372 -0.7687 -0.1385
 8743SOL    HW228430   8.625   5.263   4.474  1.2160  0.5043  0.1319
 8744SOL     OW28431   0.661   4.529   5.801  0.2535  0.0208 -0.2574
 8744SOL    HW128432   0.614   4.602   5.841  1.8030  0.9335 -0.0180
 8744SOL    HW228433   0.638   4.453   5.855 -0.2357  0.6066  0.3771
 8745SOL     OW28434   3.959   3.927   7.331 -0.0164 -0.2738  0.5272
 8745SOL    HW128435   3.906   3.926   7.251  0.6891 -0.0816  0.0404
 8745SOL    HW228436   3.904   3.885   7.397 -1.0671  0.6068  0.2420
 8746SOL     OW28437   1.586   5.044   1.521 -0.0112  0.1288 -0.0817
 8746SOL    HW128438   1.544   5.024   1.606  0.7989 -0.6047  0.1627
 8746SOL    HW228439   1.525   5.009   1.456 -0.5497  0.5247  0.1981
 8747SOL     OW28440   0.297   1.696   0.242 -0.2322  0.0589 -0.0590
 8747SOL    HW128441   0.295   1.696   0.337  0.8671 -0.6508 -0.0211
 8747SOL    HW228442   0.207   1.675   0.217  0.1233 -3.3192  0.9206
 8748SOL     OW28443   0.918   0.649   6.764 -0.3039  0.1371 -0.0139
 8748SOL    HW128444   0.880   0.660   6.677  1.6873 -1.0473 -1.1363
 8748SOL    HW228445   0.858   0.589   6.809 -0.8215 -0.0924 -0.9765
 8749SOL     OW28446   0.322   5.165   0.681  0.1215  0.3227 -0.7890
 8749SOL    HW128447   0.317   5.071   0.696  1.7985  0.2868 -0.2222
 8749SOL    HW228448   0.302   5.176   0.589 -0.9619 -0.4862 -0.6691
 8750SOL     OW28449   2.818   4.422   7.556 -0.3631 -0.2996  0.3156
 8750SOL    HW128450   2.846   4.402   7.467 -0.3602  0.6639  0.0866
 8750SOL    HW228451   2.885   4.383   7.612  1.9537  2.5534 -0.2384
 8751SOL     OW28452   0.043   3.116   1.337  0.2260  0.2876  0.4469
 8751SOL    HW128453   0.056   3.114   1.432  0.1316  0.7405  0.4741
 8751SOL    HW228454  -0.052   3.127   1.327  0.2011 -0.0761  0.2963
 8752SOL     OW28455   7.709   4.962   4.785  0.0018  0.3989 -0.2254
 8752SOL    HW128456   7.750   4.989   4.703 -0.4573  1.8960  0.0119
 8752SOL    HW228457   7.632   4.911   4.758  1.1748 -1.1972 -0.6766
 8753SOL     OW28458   2.377   3.558   8.027 -0.2787  0.1938  0.1868
 8753SOL    HW128459   2.324   3.495   8.076 -0.7176 -0.3616 -0.9507
 8753SOL    HW228460   2.462   3.558   8.070  0.2228 -2.3251 -0.6755
 8754SOL     OW28461   1.727   4.043   4.105  0.3047 -0.2197 -0.2503
 8754SOL    HW128462   1.790   3.987   4.060  0.0571 -1.3651  0.7903
 8754SOL    HW228463   1.642   4.017   4.070  0.2328 -0.0410 -0.2120
 8755SOL     OW28464   2.796   8.862   6.169 -0.6489 -0.1410 -0.0772
 8755SOL    HW128465   2.835   8.922   6.233 -0.1283  1.3745 -1.7393
 8755SOL    HW228466   2.704   8.857   6.195 -0.4309  0.3522  0.8519
 8756SOL     OW28467   5.412   5.328   6.926  0.4085  0.2814 -0.4553
 8756SOL    HW128468   5.430   5.261   6.860  0.9145 -0.8169  0.7603
 8756SOL    HW228469   5.329   5.302   6.965  0.9608 -0.0769  0.5227
 8757SOL     OW28470   3.441   6.387   3.795 -1.1677 -0.0508 -0.1347
 8757SOL    HW128471   3.497   6.453   3.755 -3.1007  1.2733 -0.8061
 8757SOL    HW228472   3.370   6.438   3.835 -0.4830 -1.4378  3.2150
 8758SOL     OW28473   7.586   7.055   8.176  0.1125 -0.2519  0.5189
 8758SOL    HW128474   7.570   7.129   8.235 -1.5590  0.4918 -0.7744
 8758SOL    HW228475   7.517   6.993   8.196  0.6568 -0.8294  0.6201
 8759SOL     OW28476   2.323   7.521   5.135  0.3113  0.2249 -0.4035
 8759SOL    HW128477   2.281   7.466   5.201  1.4834  0.8257  0.9066
 8759SOL    HW228478   2.394   7.468   5.101  0.8811  0.5743  0.2104
 8760SOL     OW28479   9.240   2.653   1.232  0.4731  0.3598 -0.7292
 8760SOL    HW128480   9.272   2.743   1.221  0.5828  0.2084 -1.7304
 8760SOL    HW228481   9.317   2.598   1.216  0.0611  0.0416 -1.6810
 8761SOL     OW28482   2.876   1.986   9.310  0.2677  0.2752 -0.3474
 8761SOL    HW128483   2.942   1.997   9.242  0.9495  0.3016  0.3065
 8761SOL    HW228484   2.906   1.909   9.360 -0.3384  0.1242 -0.2078
 8762SOL     OW28485   4.838   6.347   5.651 -0.0429  0.1419 -0.5544
 8762SOL    HW128486   4.817   6.424   5.599  2.0753  1.0736 -0.0939
 8762SOL    HW228487   4.879   6.381   5.730 -0.1408 -1.4198  0.2057
 8763SOL     OW28488   7.775   4.735   9.124 -0.5819 -0.2444  0.1303
 8763SOL    HW128489   7.774   4.733   9.028 -0.2473 -1.2456  0.1391
 8763SOL    HW228490   7.851   4.789   9.146 -1.0364  0.5304 -0.1619
 8764SOL     OW28491   6.435   0.737   4.163 -0.4349  0.4548  0.3448
 8764SOL    HW128492   6.357   0.790   4.181 -1.1355 -0.4486  0.0804
 8764SOL    HW228493   6.400   0.655   4.126  0.6350 -0.0264  0.3620
 8765SOL     OW28494   4.579   8.654   6.934  0.5842  0.3772 -0.0257
 8765SOL    HW128495   4.613   8.727   6.987  0.7917  0.3904 -0.1755
 8765SOL    HW228496   4.641   8.647   6.861  0.9049 -0.3448  0.3060
 8766SOL     OW28497   8.794   4.049   5.284  0.0228  0.3142 -0.0108
 8766SOL    HW128498   8.876   4.080   5.322  1.4048  0.1640 -2.5695
 8766SOL    HW228499   8.821   3.976   5.227 -1.6785  1.0549 -1.8858
 8767SOL     OW28500   8.534   4.658   5.949 -0.3324  0.3901  0.2729
 8767SOL    HW128501   8.450   4.617   5.970  0.1151 -1.0423 -0.6321
 8767SOL    HW228502   8.527   4.682   5.856  0.8012 -1.1814 -0.2529
 8768SOL     OW28503   9.052   3.217   4.768 -0.3099 -0.1357  0.1998
 8768SOL    HW128504   8.979   3.194   4.825  0.3763 -1.0896  0.7315
 8768SOL    HW228505   9.078   3.134   4.727 -0.2462  0.3873 -0.8525
 8769SOL     OW28506   3.640   5.525   4.388  0.0694  0.3014 -0.0632
 8769SOL    HW128507   3.613   5.526   4.297 -0.5895  1.4562  0.1243
 8769SOL    HW228508   3.734   5.543   4.385  0.0513  0.3292 -0.5183
 8770SOL     OW28509   7.562   5.812   3.394  0.2328  0.5592 -0.9814
 8770SOL    HW128510   7.472   5.821   3.424  0.4553  1.2717 -0.5087
 8770SOL    HW228511   7.614   5.808   3.474  0.3978 -2.9584 -1.1276
 8771SOL     OW28512   3.214   0.723   1.532  0.2536 -0.6274  0.2082
 8771SOL    HW128513   3.282   0.720   1.599 -0.4355 -0.6084  0.9257
 8771SOL    HW228514   3.166   0.641   1.542  0.3191 -0.7545 -0.4611
 8772SOL     OW28515   8.351   2.445   9.229  0.1278  0.2765 -0.1939
 8772SOL    HW128516   8.438   2.413   9.255  0.2195 -0.8799 -1.7797
 8772SOL    HW228517   8.300   2.366   9.214 -1.2432  0.9376  0.6918
 8773SOL     OW28518   6.595   8.180   3.913 -0.2632 -0.7161  0.3199
 8773SOL    HW128519   6.525   8.243   3.895  0.2611 -0.1787  0.1019
 8773SOL    HW228520   6.572   8.141   3.997 -0.6920 -0.3687  0.3675
 8774SOL     OW28521   1.305   8.756   0.198  0.1227  0.3316  0.3048
 8774SOL    HW128522   1.261   8.720   0.122  0.1478  0.4948  0.2112
 8774SOL    HW228523   1.357   8.684   0.233  0.2356  0.2995  0.0733
 8775SOL     OW28524   9.531   9.356   3.014  0.0113 -0.0946  0.6059
 8775SOL    HW128525   9.531   9.268   3.052  1.3514 -0.2121  0.3912
 8775SOL    HW228526   9.593   9.405   3.068  0.0947  0.4136  0.0573
 8776SOL     OW28527   6.550   2.129   0.581 -0.3308  0.1070  0.5061
 8776SOL    HW128528   6.482   2.078   0.624 -0.4975  2.6251  3.5545
 8776SOL    HW228529   6.632   2.098   0.619 -0.1499 -0.0114  0.0296
 8777SOL     OW28530   8.825   3.235   4.923 -0.4199  0.3847  0.5322
 8777SOL    HW128531   8.837   3.306   4.985 -0.4280  0.5257  0.3714
 8777SOL    HW228532   8.742   3.254   4.880 -0.2519  0.4644  0.2415
 8778SOL     OW28533   4.901   5.813   3.648  0.0766 -0.2699 -0.4547
 8778SOL    HW128534   4.944   5.739   3.692 -1.8734 -1.3505 -0.2671
 8778SOL    HW228535   4.843   5.850   3.715  1.0316  1.5060 -0.5365
 8779SOL     OW28536   2.601   3.232   6.383  0.2442  0.0108 -0.3258
 8779SOL    HW128537   2.599   3.319   6.424 -0.1377  0.3203 -0.9872
 8779SOL    HW228538   2.643   3.176   6.448  0.8172  0.7653 -0.0320
 8780SOL     OW28539   5.294   1.442   8.864 -0.3478  0.2891  0.1556
 8780SOL    HW128540   5.363   1.386   8.830  1.2982  2.1108  0.2891
 8780SOL    HW228541   5.214   1.390   8.856  1.0041 -1.8569 -0.1039
 8781SOL     OW28542   4.385   0.649   6.471  0.6444 -0.7258  0.6116
 8781SOL    HW128543   4.399   0.592   6.546  0.6945 -0.7198  0.6071
 8781SOL    HW228544   4.323   0.602   6.416  0.0248 -0.4002  1.0128
 8782SOL     OW28545   4.100   4.082   3.978  0.1860  0.1307  0.1526
 8782SOL    HW128546   4.172   4.106   3.920 -0.2219 -0.5315 -0.6457
 8782SOL    HW228547   4.076   4.165   4.020  3.1334 -0.0614  2.5109
 8783SOL     OW28548   5.176   5.487   8.220  0.2831 -0.0772 -0.5637
 8783SOL    HW128549   5.201   5.485   8.128  0.1720  1.0995 -0.6478
 8783SOL    HW228550   5.188   5.579   8.246 -0.1905 -0.2789  0.4455
 8784SOL     OW28551   6.183   0.813   6.841 -0.3173 -0.1291 -0.4056
 8784SOL    HW128552   6.267   0.768   6.835 -0.3127 -0.2155  0.2766
 8784SOL    HW228553   6.122   0.745   6.870 -0.5611  0.0124 -0.5839
 8785SOL     OW28554   2.103   6.374   6.079  0.7595  0.3140 -0.0641
 8785SOL    HW128555   2.086   6.468   6.077 -0.9408  0.0140 -1.4461
 8785SOL    HW228556   2.051   6.342   6.153 -0.8225  0.1154 -1.2234
 8786SOL     OW28557   1.167   6.049   6.561 -0.5798 -0.2180 -0.0318
 8786SOL    HW128558   1.156   6.144   6.556 -0.0511 -0.0576  1.3124
 8786SOL    HW228559   1.185   6.032   6.654  2.3120 -1.2941 -0.6735
 8787SOL     OW28560   0.439   5.335   5.669  0.7813  0.3011 -0.1364
 8787SOL    HW128561   0.410   5.245   5.684 -0.0105 -0.4593 -4.8013
 8787SOL    HW228562   0.527   5.326   5.633  0.8432  1.4400 -0.3023
 8788SOL     OW28563   7.493   4.740   0.201  0.2868  0.5090 -0.2561
 8788SOL    HW128564   7.453   4.807   0.257 -2.8655  0.4937 -2.2330
 8788SOL    HW228565   7.492   4.661   0.255  0.6525  1.2299  0.8449
 8789SOL     OW28566   1.579   6.425   3.540 -0.6412 -0.1926  0.2574
 8789SOL    HW128567   1.623   6.370   3.475 -1.7880 -1.0608  0.1864
 8789SOL    HW228568   1.614   6.393   3.624 -0.8236 -0.5973  0.1816
 8790SOL     OW28569   3.246   8.212   8.300  0.2326  0.0886  0.2700
 8790SOL    HW128570   3.200   8.296   8.308 -0.4739 -0.4126  1.8589
 8790SOL    HW228571   3.330   8.226   8.343 -0.4811 -0.4021  1.9076
 8791SOL     OW28572   2.844   0.444   0.469  0.4854 -0.2205  0.4673
 8791SOL    HW128573   2.817   0.374   0.409  2.2724 -1.9762  1.6032
 8791SOL    HW228574   2.936   0.459   0.448  1.0223 -0.5565  2.3956
 8792SOL     OW28575   7.146   5.013   4.370  0.1721 -0.2768  0.5400
 8792SOL    HW128576   7.054   4.986   4.371  0.2858 -0.7217 -0.0017
 8792SOL    HW228577   7.187   4.961   4.439 -0.3765  1.4909  2.2766
 8793SOL     OW28578   2.508   7.303   8.051 -0.1838 -0.2887 -0.7117
 8793SOL    HW128579   2.597   7.327   8.073  0.2689 -0.7430 -1.9602
 8793SOL    HW228580   2.454   7.372   8.089  0.5092 -0.9520  1.6470
 8794SOL     OW28581   5.810   5.984   1.297 -0.1214 -0.2856  0.1379
 8794SOL    HW128582   5.841   6.018   1.213  0.0970  1.4945  0.8870
 8794SOL    HW228583   5.822   6.057   1.358 -0.4188 -1.4784  1.6901
 8795SOL     OW28584   0.069   2.565   3.961 -0.2474 -0.1855  0.1590
 8795SOL    HW128585   0.084   2.560   3.867  0.0592  1.5157  0.0991
 8795SOL    HW228586   0.131   2.503   3.999 -0.1397 -0.6325 -0.7277
 8796SOL     OW28587   1.836   8.935   6.244 -0.6020  0.6612  0.1254
 8796SOL    HW128588   1.824   8.974   6.331  0.5113 -1.4814  1.3416
 8796SOL    HW228589   1.815   9.005   6.183 -1.4086  2.2650  2.1195
 8797SOL     OW28590   6.085   2.309   7.338  0.5202 -0.4525  0.0527
 8797SOL    HW128591   6.046   2.285   7.423 -0.6681 -0.7847 -0.5660
 8797SOL    HW228592   6.125   2.394   7.353 -0.3134 -0.1723  0.7734
 8798SOL     OW28593   0.295   8.986   4.737  0.2362 -0.1777 -0.0079
 8798SOL    HW128594   0.200   8.990   4.728  0.3788  2.5082 -1.4625
 8798SOL    HW228595   0.311   9.001   4.830 -0.7879  1.8317 -0.0866
 8799SOL     OW28596   2.979   6.464   9.195 -0.3819 -0.4485  0.0076
 8799SOL    HW128597   2.908   6.403   9.176 -1.3215  0.8303 -0.7430
 8799SOL    HW228598   2.936   6.538   9.239  0.6675 -0.1722  0.5926
 8800SOL     OW28599   0.992   5.304   4.822  0.2404 -0.4561 -0.5799
 8800SOL    HW128600   0.900   5.304   4.794 -0.0322 -0.1183  0.2704
 8800SOL    HW228601   1.022   5.393   4.805 -0.4583  0.3145  1.7560
 8801SOL     OW28602   0.887   7.390   5.316 -0.0236  0.3997 -0.0421
 8801SOL    HW128603   0.808   7.413   5.363  0.7378  0.3731  1.2891
 8801SOL    HW228604   0.947   7.464   5.331  0.5335  0.0037 -0.2650
 8802SOL     OW28605   0.289   8.890   6.898 -0.0713  0.3914  0.2724
 8802SOL    HW128606   0.229   8.896   6.824 -1.3017  0.4287  1.2294
 8802SOL    HW228607   0.355   8.957   6.882  0.5570 -0.5943 -1.5209
 8803SOL     OW28608   5.599   0.831   5.868 -0.4322 -0.4960 -0.5265
 8803SOL    HW128609   5.600   0.918   5.829  0.1911 -0.2867 -0.0493
 8803SOL    HW228610   5.579   0.846   5.960 -1.4383 -0.9540 -0.6537
 8804SOL     OW28611   7.525   8.236   9.329  0.2868  0.1585 -0.3877
 8804SOL    HW128612   7.456   8.262   9.268 -0.6802  0.6108  0.8436
 8804SOL    HW228613   7.606   8.262   9.286 -0.4541  2.0782 -0.7568
 8805SOL     OW28614   4.126   1.157   1.287  0.2527 -0.0254 -0.3321
 8805SOL    HW128615   4.040   1.175   1.250  0.5165  0.1596 -0.8642
 8805SOL    HW228616   4.164   1.243   1.303  0.3189 -0.1062 -0.0346
 8806SOL     OW28617   3.735   4.841   2.245 -0.8126  0.6362 -0.2276
 8806SOL    HW128618   3.770   4.847   2.156 -0.5369 -0.4833 -0.2143
 8806SOL    HW228619   3.666   4.774   2.239  1.5535 -2.1419  1.0474
 8807SOL     OW28620   2.279   4.870   8.936 -0.3237 -0.7462  0.2612
 8807SOL    HW128621   2.357   4.837   8.892 -1.8647 -1.2566 -2.3232
 8807SOL    HW228622   2.260   4.953   8.891 -1.5510 -0.8948  0.4783
 8808SOL     OW28623   3.580   3.893   5.895  0.0104  0.4620 -0.1760
 8808SOL    HW128624   3.634   3.819   5.867  0.4035  0.8511 -0.4553
 8808SOL    HW228625   3.522   3.910   5.821 -1.3644 -0.7353  0.5690
 8809SOL     OW28626   3.721   0.968   3.248  0.6534 -0.3635  0.2573
 8809SOL    HW128627   3.681   1.037   3.195  0.2017 -0.0167  1.0334
 8809SOL    HW228628   3.664   0.892   3.236  0.0495 -0.0266  0.9397
 8810SOL     OW28629   4.674   0.437   1.049 -0.1282 -0.2681 -0.0255
 8810SOL    HW128630   4.620   0.515   1.044 -1.1608 -1.0231 -1.2208
 8810SOL    HW228631   4.762   0.470   1.068 -0.4278  1.2399 -1.0779
 8811SOL     OW28632   2.201   6.278   5.139  0.6215  0.1268  0.0650
 8811SOL    HW128633   2.296   6.273   5.151  0.7342 -0.9667 -1.1351
 8811SOL    HW228634   2.166   6.210   5.195  0.5331  0.5602  0.5425
 8812SOL     OW28635   0.753   2.132   9.199 -0.8986  0.5050  0.2211
 8812SOL    HW128636   0.683   2.138   9.134 -0.1230  0.9036 -0.5913
 8812SOL    HW228637   0.786   2.221   9.208 -0.5965  0.3490  0.7261
 8813SOL     OW28638   9.040   7.151   2.909  0.1786  0.2859 -0.3652
 8813SOL    HW128639   9.066   7.150   3.001  3.1209 -0.0745 -1.0873
 8813SOL    HW228640   8.947   7.171   2.910  0.2650  0.9620  2.6424
 8814SOL     OW28641   0.695   3.937   9.307  0.1124 -0.0625  0.0848
 8814SOL    HW128642   0.778   3.982   9.316 -0.3058  0.9441 -0.8028
 8814SOL    HW228643   0.700   3.894   9.221 -0.0139 -0.5957  0.3374
 8815SOL     OW28644   8.520   3.827   7.230  0.1046 -0.0748  0.1368
 8815SOL    HW128645   8.610   3.803   7.211 -0.1441 -3.0171  2.0714
 8815SOL    HW228646   8.518   3.843   7.324 -0.9605  2.5079 -0.2283
 8816SOL     OW28647   6.847   8.022   7.554  1.1004  0.1139  0.2245
 8816SOL    HW128648   6.914   7.978   7.607  1.5810 -0.1981 -0.6243
 8816SOL    HW228649   6.891   8.099   7.518  1.0452 -0.1505 -0.4243
 8817SOL     OW28650   7.262   6.261   4.293 -0.1073  0.4072  0.5651
 8817SOL    HW128651   7.223   6.232   4.211 -1.9540  0.6618  1.3100
 8817SOL    HW228652   7.352   6.285   4.270 -0.6042  0.5458 -1.3854
 8818SOL     OW28653   9.134   3.673   0.601  0.5218 -0.2056 -0.0720
 8818SOL    HW128654   9.078   3.727   0.547  0.8448  1.3249  1.0469
 8818SOL    HW228655   9.090   3.669   0.686  0.7653 -1.2831  0.0227
 8819SOL     OW28656   0.838   6.918   9.442  0.1593 -0.2315  0.3067
 8819SOL    HW128657   0.809   6.955   9.359 -0.0213  0.2427  0.5780
 8819SOL    HW228658   0.839   6.992   9.503  1.2388 -0.3788  0.4895
 8820SOL     OW28659   3.064   9.565   2.066 -0.0549  0.6698 -0.4749
 8820SOL    HW128660   3.066   9.470   2.069 -1.1359  0.4923 -2.9086
 8820SOL    HW228661   3.155   9.591   2.056  0.0902 -0.2713 -1.8843
 8821SOL     OW28662   6.352   5.413   4.370 -0.3109  0.2071 -0.3875
 8821SOL    HW128663   6.387   5.381   4.286  0.1020 -1.4205  0.3610
 8821SOL    HW228664   6.420   5.471   4.403 -0.0807  0.1640 -0.7741
 8822SOL     OW28665   6.452   6.268   0.237  0.2579  0.2677  0.0791
 8822SOL    HW128666   6.385   6.231   0.294 -0.5738  1.9081  0.2247
 8822SOL    HW228667   6.403   6.312   0.168  1.2379 -0.2915 -1.0097
 8823SOL     OW28668   2.923   0.004   6.933  0.4301  0.3838  0.0889
 8823SOL    HW128669   2.996  -0.058   6.935  1.2247  1.1929 -1.7365
 8823SOL    HW228670   2.853  -0.039   6.982  1.9063 -0.6857  1.3502
 8824SOL     OW28671   3.085   1.876   1.496  0.1961  0.0557  0.7229
 8824SOL    HW128672   3.160   1.830   1.533 -1.7760 -2.9123  1.4526
 8824SOL    HW228673   3.009   1.831   1.533 -1.9751 -0.0547 -3.2736
 8825SOL     OW28674   3.188   2.365   7.054  0.2589 -0.2225  0.5446
 8825SOL    HW128675   3.184   2.286   7.001 -0.1963 -0.1025  0.3924
 8825SOL    HW228676   3.254   2.419   7.011  1.5522 -1.0554  1.4126
 8826SOL     OW28677   7.999   6.273   2.191 -0.2172 -0.6012  0.1722
 8826SOL    HW128678   7.987   6.320   2.108  2.9517  1.6997  0.8307
 8826SOL    HW228679   7.953   6.325   2.256  0.7766  0.0015  0.4275
 8827SOL     OW28680   4.401   5.196   8.972  0.4770 -0.0857 -0.0545
 8827SOL    HW128681   4.320   5.215   8.925  0.7997  2.4297  0.2703
 8827SOL    HW228682   4.385   5.229   9.061  1.2700 -1.1135  0.4860
 8828SOL     OW28683   5.460   1.782   7.960 -0.5802  0.1819  0.4701
 8828SOL    HW128684   5.376   1.779   8.006 -1.0407  0.4503 -0.3309
 8828SOL    HW228685   5.438   1.763   7.869  0.3398 -0.4834  0.3732
 8829SOL     OW28686   6.709   1.592   2.543 -0.0925 -0.2036  0.0531
 8829SOL    HW128687   6.717   1.505   2.583  0.5502 -0.0944  0.1797
 8829SOL    HW228688   6.727   1.653   2.615 -1.3099  0.0648  0.1452
 8830SOL     OW28689   3.028   5.710   4.191 -0.0346  0.3772  0.1743
 8830SOL    HW128690   3.029   5.650   4.266  1.3955  0.8520  0.5723
 8830SOL    HW228691   3.041   5.653   4.115 -2.2102 -0.1902  0.1779
 8831SOL     OW28692   2.259   3.378   7.364  0.2508  0.4213 -0.5081
 8831SOL    HW128693   2.324   3.447   7.360 -0.1015  0.7089 -1.5100
 8831SOL    HW228694   2.251   3.346   7.274 -0.4217 -0.1392 -0.2646
 8832SOL     OW28695   3.231   7.215   0.248 -0.8837 -0.4425 -0.2029
 8832SOL    HW128696   3.221   7.308   0.264  0.3438 -0.7632  3.0644
 8832SOL    HW228697   3.321   7.204   0.219 -0.4947 -0.7500  1.0717
 8833SOL     OW28698   6.794   4.097   9.133  0.2776 -0.0542 -0.1951
 8833SOL    HW128699   6.738   4.171   9.111 -1.7593 -1.1376  1.0255
 8833SOL    HW228700   6.803   4.048   9.052  1.0457  1.1149 -0.8415
 8834SOL     OW28701   3.343   5.116   5.195  0.1369  0.3812  0.1036
 8834SOL    HW128702   3.395   5.047   5.153 -0.7679  0.8710 -1.9696
 8834SOL    HW228703   3.386   5.131   5.279  0.7895 -2.1693  0.3017
 8835SOL     OW28704   5.093   2.626   6.939  0.7712 -0.3565  0.5995
 8835SOL    HW128705   5.005   2.637   6.976  0.3162 -1.8061  0.0282
 8835SOL    HW228706   5.116   2.535   6.958  1.8717 -0.1978  0.1360
 8836SOL     OW28707   2.313   5.421   9.370  0.2352 -0.2507  0.5824
 8836SOL    HW128708   2.264   5.484   9.423  0.0990  0.5623 -0.4584
 8836SOL    HW228709   2.272   5.427   9.283  0.6287 -1.3317  0.3056
 8837SOL     OW28710   6.367   7.450   6.814 -0.0262  0.0940 -0.5153
 8837SOL    HW128711   6.386   7.544   6.805 -1.7823  0.5715  0.3904
 8837SOL    HW228712   6.283   7.439   6.769 -0.1406 -0.9320 -0.0610
 8838SOL     OW28713   7.981   0.611   9.411 -0.2492 -0.0258  0.3615
 8838SOL    HW128714   7.991   0.517   9.393 -0.3420 -0.1545  0.9450
 8838SOL    HW228715   7.961   0.650   9.326 -0.1828 -0.5296  0.1089
 8839SOL     OW28716   0.373   3.123   2.969 -0.2174  0.5160 -0.1580
 8839SOL    HW128717   0.392   3.066   3.043 -1.6882 -0.4239 -0.4680
 8839SOL    HW228718   0.278   3.126   2.964 -0.1757  0.1591 -2.2892
 8840SOL     OW28719   7.415   4.167   6.685  1.3229  0.0524  0.4057
 8840SOL    HW128720   7.383   4.239   6.739  0.3585 -0.2170  0.1956
 8840SOL    HW228721   7.505   4.193   6.663  1.8745  0.0085  2.4064
 8841SOL     OW28722   4.970   7.267   1.347  0.4531 -0.2839  0.4739
 8841SOL    HW128723   5.044   7.239   1.400 -0.6593 -0.2325  2.1188
 8841SOL    HW228724   4.980   7.362   1.340  1.7812 -0.4969 -1.3286
 8842SOL     OW28725   9.328   1.761   1.290 -0.0707  0.2391  0.0014
 8842SOL    HW128726   9.379   1.809   1.225  0.3777 -2.2131 -1.5718
 8842SOL    HW228727   9.364   1.791   1.374  1.4625  1.2457 -0.9546
 8843SOL     OW28728   8.681   3.784   0.335  0.3410 -0.3110 -0.0429
 8843SOL    HW128729   8.596   3.770   0.294  0.5845  0.6793 -0.9139
 8843SOL    HW228730   8.727   3.701   0.324 -0.2444 -0.6163 -0.2116
 8844SOL     OW28731   9.413   5.905   0.472 -0.3771  0.2744 -0.2939
 8844SOL    HW128732   9.411   5.980   0.531 -1.3763  2.5019 -2.9112
 8844SOL    HW228733   9.326   5.867   0.477 -0.0691 -0.3259  0.5673
 8845SOL     OW28734   0.600   7.582   2.520 -0.1598 -0.4368 -0.3089
 8845SOL    HW128735   0.607   7.570   2.425  0.7172 -0.6284 -0.2317
 8845SOL    HW228736   0.579   7.675   2.531  0.9080 -0.1404 -0.6580
 8846SOL     OW28737   3.265   4.607   5.028 -0.2434 -0.2819  0.1558
 8846SOL    HW128738   3.300   4.682   4.980 -0.5308 -0.5220 -0.4311
 8846SOL    HW228739   3.331   4.589   5.096  0.0682  0.1801 -0.0206
 8847SOL     OW28740   1.514   7.047   3.138  0.0409 -0.2389 -0.1629
 8847SOL    HW128741   1.539   7.031   3.047 -0.4540  0.0759 -0.3585
 8847SOL    HW228742   1.544   6.969   3.185 -0.2161 -0.6686 -0.6959
 8848SOL     OW28743   1.260   1.538   4.093 -0.6159  0.4696 -0.0361
 8848SOL    HW128744   1.241   1.461   4.147 -0.2250  2.4392  3.1792
 8848SOL    HW228745   1.354   1.534   4.079 -0.5807  0.4129  0.2057
 8849SOL     OW28746   9.123   7.585   4.437  0.2604 -0.5587  0.1891
 8849SOL    HW128747   9.184   7.646   4.395 -0.1420 -0.5178 -0.3562
 8849SOL    HW228748   9.061   7.562   4.367  1.4785 -3.0954 -0.1787
 8850SOL     OW28749   1.606   1.347   3.761  0.3068 -0.6854  0.2284
 8850SOL    HW128750   1.684   1.342   3.816 -0.0755 -0.9234  0.7625
 8850SOL    HW228751   1.585   1.440   3.757  0.3585 -0.6639  0.4529
 8851SOL     OW28752   1.994   4.529   5.791  0.9794  0.9034 -0.1379
 8851SOL    HW128753   1.969   4.465   5.724 -1.3746  2.2792 -0.6900
 8851SOL    HW228754   2.057   4.586   5.747  1.1669  0.4576 -0.4518
 8852SOL     OW28755   4.370   4.251   6.103  0.6086  0.3361  0.2258
 8852SOL    HW128756   4.348   4.333   6.147 -3.2554 -0.6489  0.4870
 8852SOL    HW228757   4.350   4.267   6.011 -1.0816 -0.5092  0.4127
 8853SOL     OW28758   0.069   5.967   1.878  0.2369  0.3118  0.0417
 8853SOL    HW128759   0.038   5.964   1.787 -0.6157 -1.0044  0.3618
 8853SOL    HW228760   0.164   5.979   1.869  0.4179 -1.5461 -1.0917
 8854SOL     OW28761   2.704   3.097   0.656 -0.5502 -0.0650  0.0090
 8854SOL    HW128762   2.750   3.098   0.741 -1.9156 -0.5316  0.7832
 8854SOL    HW228763   2.718   3.008   0.623 -0.5301 -0.0714  0.0342
 8855SOL     OW28764   8.683   1.935   0.598 -0.5641 -0.1289 -0.1454
 8855SOL    HW128765   8.712   1.974   0.516 -2.0566  2.2571  0.3568
 8855SOL    HW228766   8.711   1.997   0.665  1.1852 -2.3319  1.3083
 8856SOL     OW28767   0.809   2.112   7.123 -0.4416  0.7083 -0.4714
 8856SOL    HW128768   0.746   2.178   7.154 -1.2816 -0.6064  0.7399
 8856SOL    HW228769   0.756   2.034   7.110  0.8773 -0.3357  0.2118
 8857SOL     OW28770   8.781   1.954   9.011  0.2967  0.0359  0.4953
 8857SOL    HW128771   8.693   1.989   9.025 -0.3290 -0.5997 -1.4414
 8857SOL    HW228772   8.790   1.884   9.075 -0.5837  0.1596  0.7681
 8858SOL     OW28773   0.707   9.392   2.067  0.3461 -0.0284  0.4416
 8858SOL    HW128774   0.726   9.433   2.151 -1.9466  0.6931  0.6726
 8858SOL    HW228775   0.622   9.350   2.079 -0.0355  0.0773 -1.5042
 8859SOL     OW28776   0.988   5.091   5.048  0.1220  0.0046  0.2228
 8859SOL    HW128777   0.900   5.124   5.067 -0.3243 -0.6476 -0.6292
 8859SOL    HW228778   1.014   5.138   4.968  1.0950  1.1513  1.1853
 8860SOL     OW28779   9.173   6.390   6.405  0.4897 -0.3965 -0.2901
 8860SOL    HW128780   9.092   6.439   6.391  0.6110 -0.3325 -0.7573
 8860SOL    HW228781   9.146   6.298   6.400 -0.7561 -0.7230  5.4070
 8861SOL     OW28782   0.350   3.203   4.279 -0.0012  0.2163 -0.0827
 8861SOL    HW128783   0.363   3.109   4.287 -1.5057 -0.0861 -0.8475
 8861SOL    HW228784   0.255   3.215   4.286  0.0446  1.5356 -1.2846
 8862SOL     OW28785   3.445   9.547   3.812  0.1623  0.8594 -0.0950
 8862SOL    HW128786   3.473   9.546   3.720  4.2750  0.3613  0.9457
 8862SOL    HW228787   3.526   9.534   3.861 -1.9952  0.1040  3.6281
 8863SOL     OW28788   0.230   6.515   7.231  0.2701 -0.1541  0.1126
 8863SOL    HW128789   0.203   6.549   7.317  1.0210 -0.7158  0.5796
 8863SOL    HW228790   0.211   6.587   7.170 -0.5698  0.1267  0.6971
 8864SOL     OW28791   4.051   7.817   5.255  0.1129 -0.5546  0.1931
 8864SOL    HW128792   4.072   7.794   5.164 -0.7000  0.2895 -0.2220
 8864SOL    HW228793   3.982   7.755   5.279 -0.6010  0.0691 -0.2185
 8865SOL     OW28794   9.389   8.438   2.012  0.2955 -0.3522  0.1630
 8865SOL    HW128795   9.295   8.456   2.001  0.0182 -1.2315  0.9753
 8865SOL    HW228796   9.429   8.474   1.933 -0.9142 -1.3278 -0.9463
 8866SOL     OW28797   1.780   6.893   0.913 -0.0552 -0.2212  0.5246
 8866SOL    HW128798   1.811   6.906   0.823  0.4050 -0.2715  0.6700
 8866SOL    HW228799   1.859   6.904   0.967 -0.3670  0.0271  0.9408
 8867SOL     OW28800   6.153   9.157   8.119 -0.5196  0.0407  0.5184
 8867SOL    HW128801   6.078   9.165   8.060  0.4380 -1.6147 -1.0209
 8867SOL    HW228802   6.206   9.087   8.081  1.3542  0.5424  2.0604
 8868SOL     OW28803   8.460   0.655   6.329  0.0637 -0.3961 -0.4976
 8868SOL    HW128804   8.511   0.625   6.404 -0.3694 -1.2179 -0.5210
 8868SOL    HW228805   8.487   0.598   6.257 -0.0596 -0.0959 -0.7850
 8869SOL     OW28806   4.478   5.819   7.531 -0.3480  0.0973  0.9258
 8869SOL    HW128807   4.554   5.761   7.532 -0.7494 -0.5541 -1.3553
 8869SOL    HW228808   4.404   5.761   7.547 -0.5920  0.2942  0.5130
 8870SOL     OW28809   3.873   2.151   2.049  0.2026  0.0871 -0.0909
 8870SOL    HW128810   3.889   2.165   1.956  1.6568  1.7099  0.3551
 8870SOL    HW228811   3.888   2.057   2.062  0.6975 -0.0320 -1.3676
 8871SOL     OW28812   8.348   7.125   7.105 -0.1422 -0.0096 -0.0807
 8871SOL    HW128813   8.287   7.088   7.041 -0.1330 -0.8449  0.3839
 8871SOL    HW228814   8.374   7.209   7.067 -1.1821  0.1324 -0.5306
 8872SOL     OW28815   5.658   6.231   2.440 -0.4117  0.7138 -0.0216
 8872SOL    HW128816   5.732   6.183   2.402  0.6982 -0.0207  2.8174
 8872SOL    HW228817   5.677   6.323   2.421 -1.1215  0.3245 -3.1034
 8873SOL     OW28818   7.696   6.489   9.026 -0.1268  0.0624 -0.0008
 8873SOL    HW128819   7.774   6.497   9.081  0.1735 -0.0164 -0.4083
 8873SOL    HW228820   7.627   6.533   9.075 -0.8792 -3.3162  2.3833
 8874SOL     OW28821   5.174   4.245   5.117 -0.0863  0.2907  0.4075
 8874SOL    HW128822   5.221   4.281   5.193  1.4065 -1.1303  0.2265
 8874SOL    HW228823   5.154   4.321   5.063  1.8512  1.0320  0.6231
 8875SOL     OW28824   6.862   8.976   0.540  0.5231 -0.1480 -0.5202
 8875SOL    HW128825   6.925   8.987   0.611  0.3915 -2.1687 -0.0059
 8875SOL    HW228826   6.806   8.903   0.569 -0.7363  0.2227 -1.8705
 8876SOL     OW28827   2.236   3.161   9.282 -0.1594 -0.0102 -0.5627
 8876SOL    HW128828   2.167   3.097   9.301  0.7070 -0.6287  0.6256
 8876SOL    HW228829   2.298   3.151   9.354 -0.0676  2.3025 -0.2592
 8877SOL     OW28830   7.904   6.502   9.184  0.8892 -0.5423 -0.0517
 8877SOL    HW128831   7.959   6.535   9.255  0.4928 -0.7786  0.3664
 8877SOL    HW228832   7.862   6.424   9.220  1.8659 -1.5702 -1.0546
 8878SOL     OW28833   3.747   8.726   5.638 -0.0581  0.3215 -0.2200
 8878SOL    HW128834   3.711   8.648   5.680  0.3146 -0.6269 -1.6087
 8878SOL    HW228835   3.841   8.714   5.643 -0.0074  0.3104 -1.0995
 8879SOL     OW28836   0.062   7.974   2.196  0.4593  0.1756 -0.0228
 8879SOL    HW128837   0.008   7.986   2.274  1.8324 -1.4837  1.2572
 8879SOL    HW228838   0.080   8.063   2.167  0.7099  0.9067  2.1392
 8880SOL     OW28839   0.772   8.206   7.151  0.1772  0.2874 -0.0034
 8880SOL    HW128840   0.729   8.291   7.161 -0.5124 -0.2691  2.7054
 8880SOL    HW228841   0.865   8.227   7.146  0.0028  1.2205  0.4557
 8881SOL     OW28842   3.539   7.447   6.710 -0.0777  0.2616  0.3326
 8881SOL    HW128843   3.513   7.537   6.691  1.7484  1.2611  2.1476
 8881SOL    HW228844   3.618   7.434   6.657 -0.3958 -0.3559 -0.0098
 8882SOL     OW28845   7.277   7.523   4.044 -0.3588 -0.0550  0.1070
 8882SOL    HW128846   7.222   7.547   3.970 -1.0323 -1.5225  0.0961
 8882SOL    HW228847   7.215   7.503   4.115  0.0635 -2.1563 -0.0299
 8883SOL     OW28848   6.484   7.750   1.925  0.1909 -0.3007  0.0483
 8883SOL    HW128849   6.392   7.728   1.911 -0.0780  0.9335 -0.2340
 8883SOL    HW228850   6.497   7.738   2.019 -0.3376 -0.2006  0.1381
 8884SOL     OW28851   6.877   2.441   4.026 -0.0986 -0.3552 -0.1988
 8884SOL    HW128852   6.830   2.454   3.944 -1.3993  1.5224  0.7612
 8884SOL    HW228853   6.958   2.397   4.001 -1.2077 -1.3534 -2.2463
 8885SOL     OW28854   1.248   2.630   7.306  0.3426 -0.6052 -0.3647
 8885SOL    HW128855   1.310   2.617   7.378  0.0721  1.1691  0.2382
 8885SOL    HW228856   1.162   2.629   7.348  0.1126 -0.6418 -0.8290
 8886SOL     OW28857   1.230   0.525   7.565 -0.5467 -0.3111 -0.2933
 8886SOL    HW128858   1.152   0.557   7.519 -1.1162 -1.3078 -0.0435
 8886SOL    HW228859   1.272   0.604   7.599 -0.8240  0.3357 -1.3925
 8887SOL     OW28860   3.282   5.971   2.554 -0.3758  0.3271 -0.0550
 8887SOL    HW128861   3.299   5.957   2.461 -0.8130  0.7859 -0.2100
 8887SOL    HW228862   3.270   6.066   2.562 -0.4499  0.2761  0.4499
 8888SOL     OW28863   1.516   8.496   2.524  0.2992 -0.3139 -0.0479
 8888SOL    HW128864   1.478   8.573   2.565  2.5262  1.3890 -0.9837
 8888SOL    HW228865   1.599   8.482   2.569  0.0321 -2.0807 -0.0295
 8889SOL     OW28866   3.706   5.371   8.241  0.7759 -0.0066  0.1952
 8889SOL    HW128867   3.729   5.279   8.250 -2.0028 -0.7218  0.7479
 8889SOL    HW228868   3.672   5.396   8.327  0.4675  1.2466 -0.2669
 8890SOL     OW28869   7.704   6.518   2.266 -0.2698 -0.2704  0.1676
 8890SOL    HW128870   7.776   6.523   2.203 -0.3221 -1.9175 -0.0724
 8890SOL    HW228871   7.628   6.552   2.219 -0.0413 -0.3197 -0.2397
 8891SOL     OW28872   6.032   6.690   8.486 -0.0590  0.3934  0.1265
 8891SOL    HW128873   6.060   6.749   8.556 -1.1872 -0.0864  1.0114
 8891SOL    HW228874   6.097   6.703   8.417  1.1930  0.7534  1.3248
 8892SOL     OW28875   1.995   2.698   5.079  0.3590 -0.3154 -0.0739
 8892SOL    HW128876   1.919   2.643   5.060  0.0571  1.0006 -3.2639
 8892SOL    HW228877   2.049   2.693   5.000  1.4035  2.2291  0.3796
 8893SOL     OW28878   7.046   8.838   8.617  0.1252 -0.4228 -0.3131
 8893SOL    HW128879   7.036   8.932   8.633  0.6983 -0.1606 -1.3784
 8893SOL    HW228880   7.019   8.826   8.526 -0.8438 -1.4610  0.0763
 8894SOL     OW28881   0.497   9.414   1.734 -0.0208  0.1658 -0.4304
 8894SOL    HW128882   0.495   9.503   1.770  0.6299 -0.2128  0.5711
 8894SOL    HW228883   0.406   9.385   1.739  0.1472 -0.1846  1.7730
 8895SOL     OW28884   6.718   1.438   8.420  0.0186  0.0563 -0.1686
 8895SOL    HW128885   6.697   1.528   8.395 -0.3096  0.5844  1.8174
 8895SOL    HW228886   6.814   1.436   8.426  0.1483 -0.2449 -1.8951
 8896SOL     OW28887   8.123   5.019   2.451 -0.1333  0.2374 -0.0846
 8896SOL    HW128888   8.123   5.027   2.547 -0.7120 -1.5393  0.0897
 8896SOL    HW228889   8.171   4.938   2.434 -0.1637  0.4652 -1.3074
 8897SOL     OW28890   2.159   2.757   2.092  1.0683 -0.5435 -0.7040
 8897SOL    HW128891   2.117   2.805   2.163  2.0980  1.8089 -1.5975
 8897SOL    HW228892   2.087   2.738   2.031  0.4160 -1.4371  0.2823
 8898SOL     OW28893   5.284   9.228   6.373  0.5207  0.1007  0.1973
 8898SOL    HW128894   5.355   9.173   6.404  1.8739  1.3518 -0.5233
 8898SOL    HW228895   5.320   9.271   6.295 -0.4301  1.9951  0.7443
 8899SOL     OW28896   8.063   4.046   1.622 -0.2961  0.6263  0.6446
 8899SOL    HW128897   8.055   4.087   1.536  2.4807  0.5710  0.2769
 8899SOL    HW228898   8.024   3.959   1.611 -1.3252  1.1633 -0.1081
 8900SOL     OW28899   0.543   1.827   6.807  0.4496  0.1971 -0.0537
 8900SOL    HW128900   0.567   1.898   6.747  0.5629 -1.4704 -2.1187
 8900SOL    HW228901   0.550   1.747   6.754 -1.2993 -1.2255  1.6698
 8901SOL     OW28902   0.346   0.571   5.534  0.2291 -0.3544 -0.4605
 8901SOL    HW128903   0.260   0.533   5.516  0.4357 -0.0400 -2.2867
 8901SOL    HW228904   0.404   0.495   5.541  0.1594 -0.5114 -1.3865
 8902SOL     OW28905   6.026   6.807   9.556 -0.1197 -0.2375 -0.4639
 8902SOL    HW128906   6.014   6.864   9.480 -2.0627  1.1394  0.7830
 8902SOL    HW228907   6.042   6.867   9.628 -1.4416 -1.2863  0.7513
 8903SOL     OW28908   0.911   4.967   7.367  0.6839 -0.0683 -0.5559
 8903SOL    HW128909   0.911   4.934   7.457 -0.2168  1.1688 -0.0775
 8903SOL    HW228910   0.982   4.919   7.324 -1.4621 -3.8108 -0.3520
 8904SOL     OW28911   3.697   9.441   1.200 -0.5514  0.3246  0.4268
 8904SOL    HW128912   3.676   9.349   1.215 -1.1258 -0.0368 -2.1913
 8904SOL    HW228913   3.628   9.489   1.245 -0.1141 -0.4516  2.0279
 8905SOL     OW28914   3.195   4.795   5.288  0.1837  0.2128  0.0096
 8905SOL    HW128915   3.192   4.837   5.202  0.4649 -0.2833 -0.2452
 8905SOL    HW228916   3.231   4.862   5.346 -1.7803  1.2191  0.1528
 8906SOL     OW28917   5.835   5.518   9.291 -0.1011  0.2595 -0.5073
 8906SOL    HW128918   5.919   5.496   9.250 -0.1622 -0.6232 -0.1882
 8906SOL    HW228919   5.773   5.521   9.218 -0.5049 -2.7381 -0.4339
 8907SOL     OW28920   6.553   1.507   2.097  0.0353  0.4097  0.1420
 8907SOL    HW128921   6.591   1.448   2.161  2.1588  0.2941 -1.1330
 8907SOL    HW228922   6.575   1.468   2.012 -0.7380  1.7069 -0.6963
 8908SOL     OW28923   0.277   4.165   7.885  0.1132 -0.8650 -0.0490
 8908SOL    HW128924   0.222   4.154   7.962  2.0109 -1.5494  1.2719
 8908SOL    HW228925   0.300   4.076   7.859  3.3590 -0.6497  1.5821
 8909SOL     OW28926   5.144   6.693   1.721 -0.5837 -0.3498 -0.0014
 8909SOL    HW128927   5.180   6.712   1.634  1.1882  1.0814  0.9711
 8909SOL    HW228928   5.059   6.737   1.721 -0.5857 -0.3176 -0.9892
 8910SOL     OW28929   8.599   2.716   2.405 -0.0630  0.5697  0.6071
 8910SOL    HW128930   8.658   2.672   2.345  0.4872 -0.0183  1.5623
 8910SOL    HW228931   8.585   2.653   2.476 -1.9885  0.6173  0.3178
 8911SOL     OW28932   3.382   5.938   1.749 -0.2085  0.1369  0.2079
 8911SOL    HW128933   3.376   5.945   1.653  0.0261 -1.3737  0.0504
 8911SOL    HW228934   3.449   5.872   1.763  0.5366  1.1217  1.4634
 8912SOL     OW28935   7.903   0.357   0.627  0.1315  0.3034 -0.1080
 8912SOL    HW128936   7.946   0.284   0.583 -1.6358 -0.7018 -0.3035
 8912SOL    HW228937   7.960   0.432   0.613  1.7820 -0.9465 -0.2953
 8913SOL     OW28938   5.798   5.512   7.037  0.5462 -0.2439  0.1610
 8913SOL    HW128939   5.741   5.477   7.105 -0.3386  0.0875 -0.3978
 8913SOL    HW228940   5.739   5.556   6.976  1.1856 -1.5566 -1.4773
 8914SOL     OW28941   9.559   3.096   5.400 -0.4227  0.0381 -0.3802
 8914SOL    HW128942   9.586   3.116   5.310 -2.8490 -1.2213 -1.4938
 8914SOL    HW228943   9.640   3.103   5.451  1.1409  0.3769 -2.7141
 8915SOL     OW28944   3.874   6.073   5.965  0.2263  0.4787 -0.0057
 8915SOL    HW128945   3.843   6.153   6.008 -2.0353  0.6779 -1.7991
 8915SOL    HW228946   3.840   6.002   6.019 -1.6894  0.7414 -0.7754
 8916SOL     OW28947   7.359   5.068   2.979 -0.4105 -0.5280 -0.0240
 8916SOL    HW128948   7.365   5.098   3.069 -1.7754 -1.2535  0.3300
 8916SOL    HW228949   7.448   5.075   2.945 -0.3411  2.4299  0.4895
 8917SOL     OW28950   6.792   7.924   3.872 -0.2502  0.3957 -0.4612
 8917SOL    HW128951   6.714   7.980   3.874  0.6882  1.7310  0.5746
 8917SOL    HW228952   6.817   7.922   3.780 -1.6913 -0.3626 -0.8757
 8918SOL     OW28953   1.642   1.747   4.205  0.0797  0.1449  0.4474
 8918SOL    HW128954   1.608   1.661   4.182  0.5618 -0.1344  0.7545
 8918SOL    HW228955   1.604   1.766   4.291 -2.0990  1.3959 -0.7082
 8919SOL     OW28956   8.083   5.068   7.387  0.5506 -0.8093  0.2379
 8919SOL    HW128957   8.045   4.983   7.408  0.3436 -1.3534 -2.0568
 8919SOL    HW228958   8.149   5.048   7.320  0.0641  0.8953 -0.7980
 8920SOL     OW28959   5.100   3.357   5.657  0.1423  0.4843 -0.2239
 8920SOL    HW128960   5.155   3.382   5.731 -1.2890  1.3112  0.6212
 8920SOL    HW228961   5.158   3.359   5.581  2.0018 -1.7550  1.0228
 8921SOL     OW28962   1.509   1.476   4.225 -0.1045 -0.6763 -0.1944
 8921SOL    HW128963   1.430   1.447   4.272  0.4008  0.3809  1.3836
 8921SOL    HW228964   1.567   1.400   4.228 -0.7787 -1.2350 -0.7668
 8922SOL     OW28965   4.973   3.284   2.329  0.4135 -0.5885 -0.1752
 8922SOL    HW128966   5.036   3.290   2.257  1.1078 -0.8075  0.3999
 8922SOL    HW228967   4.974   3.370   2.369  0.6198 -0.6991  0.0582
 8923SOL     OW28968   9.181   9.076   5.939 -0.5591  0.2154  0.2113
 8923SOL    HW128969   9.164   9.165   5.969 -0.9504  0.6356 -1.1875
 8923SOL    HW228970   9.125   9.065   5.862 -0.2807 -1.1362  0.1704
 8924SOL     OW28971   3.332   2.604   7.779  0.3080 -0.8836 -0.1924
 8924SOL    HW128972   3.248   2.559   7.779 -0.1173 -0.1378  0.9675
 8924SOL    HW228973   3.332   2.654   7.697 -0.6494 -0.4148  0.0793
 8925SOL     OW28974   5.759   7.978   5.995 -0.6230  0.1369 -0.3434
 8925SOL    HW128975   5.723   7.921   6.062  1.8950 -0.4636  0.5949
 8925SOL    HW228976   5.834   7.930   5.960 -0.1279  1.6895 -1.5274
 8926SOL     OW28977   0.028   9.001   6.997 -0.1543 -0.3748  0.1138
 8926SOL    HW128978   0.009   8.985   6.905  1.0939 -3.4017  0.2433
 8926SOL    HW228979   0.111   9.048   6.997 -1.1172  1.4164 -0.2603
 8927SOL     OW28980   3.077   1.880   3.372 -0.6217 -0.0053  0.6285
 8927SOL    HW128981   3.026   1.806   3.339 -0.0555  0.6431 -1.8847
 8927SOL    HW228982   3.025   1.957   3.349  0.4955  0.5488 -0.1506
 8928SOL     OW28983   8.993   1.343   2.788 -0.1318 -0.2831  0.1438
 8928SOL    HW128984   9.031   1.279   2.729 -2.1348  0.2799 -1.9036
 8928SOL    HW228985   8.911   1.303   2.818 -0.5792  0.6269  0.1753
 8929SOL     OW28986   0.758   4.008   6.616 -0.0822  0.0276 -0.9847
 8929SOL    HW128987   0.687   4.058   6.576  1.2843  2.5249 -0.4791
 8929SOL    HW228988   0.830   4.071   6.626  2.5526 -2.5091 -2.2234
 8930SOL     OW28989   3.607   1.153   3.098 -0.4898  0.2515  0.0557
 8930SOL    HW128990   3.546   1.162   3.025  0.7142  1.3253 -0.8796
 8930SOL    HW228991   3.609   1.240   3.139 -1.6544 -0.5153  1.8203
 8931SOL     OW28992   3.487   2.230   2.016 -0.3289  0.6117 -0.0949
 8931SOL    HW128993   3.510   2.148   2.059 -0.3009  0.1532 -0.9846
 8931SOL    HW228994   3.544   2.295   2.058 -0.9730  0.3555  1.2429
 8932SOL     OW28995   5.471   6.361   3.779  0.5748  0.0374  0.3739
 8932SOL    HW128996   5.388   6.317   3.794  0.5499 -0.2529 -0.5485
 8932SOL    HW228997   5.471   6.380   3.685  1.6247 -0.1328  0.3280
 8933SOL     OW28998   6.564   6.583   7.657 -0.4833  0.1589  0.3148
 8933SOL    HW128999   6.473   6.564   7.633 -0.9633  1.7033  0.8045
 8933SOL    HW229000   6.571   6.678   7.649  1.0144  0.0912  0.5977
 8934SOL     OW29001   5.334   0.759   6.002 -0.2802 -0.7025 -0.1300
 8934SOL    HW129002   5.341   0.689   5.937  1.8737 -0.6657 -0.0264
 8934SOL    HW229003   5.365   0.719   6.083 -2.0489 -0.4778  0.7019
 8935SOL     OW29004   0.393   0.337   7.468 -0.5180  0.0638 -0.3012
 8935SOL    HW129005   0.460   0.390   7.511 -0.6242  0.3701 -0.5094
 8935SOL    HW229006   0.400   0.251   7.510  0.5460 -0.1536 -0.8607
 8936SOL     OW29007   3.933   1.403   6.523  0.2772  0.8212  0.5512
 8936SOL    HW129008   3.936   1.486   6.477  1.5883  0.6016  0.2030
 8936SOL    HW229009   3.870   1.417   6.595  0.3917  2.0552  0.4260
 8937SOL     OW29010   4.612   6.729   0.646 -0.4273 -0.2761  0.6653
 8937SOL    HW129011   4.521   6.703   0.658 -0.1925 -0.2562  3.0126
 8937SOL    HW229012   4.617   6.818   0.682  0.7435 -0.7567  1.7835
 8938SOL     OW29013   9.170   7.040   3.944  0.5404  0.2572  0.1472
 8938SOL    HW129014   9.177   6.969   3.880  0.8664  0.4090  0.0135
 8938SOL    HW229015   9.079   7.068   3.937  0.7529  0.7779 -0.8068
 8939SOL     OW29016   3.886   6.495   3.372 -0.1205  0.1114  0.1726
 8939SOL    HW129017   3.934   6.575   3.394 -0.2394  0.9195 -2.2383
 8939SOL    HW229018   3.796   6.513   3.398  0.1597  0.0118  1.2938
 8940SOL     OW29019   8.503   3.723   8.005 -0.0435  0.6042 -0.4859
 8940SOL    HW129020   8.492   3.787   7.935 -0.2859  0.2903 -0.7388
 8940SOL    HW229021   8.479   3.771   8.085  1.0510  1.2105 -0.5069
 8941SOL     OW29022   7.529   8.561   0.715 -0.1440 -0.1611  0.2605
 8941SOL    HW129023   7.547   8.591   0.626 -1.4918  0.2940  0.1291
 8941SOL    HW229024   7.434   8.563   0.723 -0.0542 -0.4303  1.6375
 8942SOL     OW29025   2.605   6.214   7.458 -0.0230  0.4689  0.0695
 8942SOL    HW129026   2.647   6.237   7.375  1.4434  0.2599  0.7280
 8942SOL    HW229027   2.628   6.285   7.518 -2.0396  1.2187  0.0236
 8943SOL     OW29028   8.746   5.414   5.734  0.2522  0.4456  0.5152
 8943SOL    HW129029   8.665   5.463   5.735  0.8477  1.4477  1.3982
 8943SOL    HW229030   8.720   5.324   5.713 -0.6257  1.4659 -3.5407
 8944SOL     OW29031   9.077   0.623   5.445 -0.3113  0.0866  0.6688
 8944SOL    HW129032   9.172   0.614   5.455 -0.0962 -0.5322 -1.5350
 8944SOL    HW229033   9.066   0.683   5.371 -1.5831 -1.6776 -0.6524
 8945SOL     OW29034   6.875   7.347   6.447  0.2657 -0.1432  0.6796
 8945SOL    HW129035   6.801   7.407   6.436  0.4792 -0.0181 -0.0680
 8945SOL    HW229036   6.835   7.260   6.442  0.1819 -0.0760  0.1799
 8946SOL     OW29037   0.542   5.843   7.057 -0.0821  0.3145  0.0168
 8946SOL    HW129038   0.530   5.753   7.027 -0.3342  0.8695 -1.6764
 8946SOL    HW229039   0.597   5.883   6.989 -1.0365  1.7632  0.0656
 8947SOL     OW29040   3.745   1.833   7.973  0.0216  0.4241 -0.2110
 8947SOL    HW129041   3.743   1.821   8.068 -1.5408 -0.3063 -0.3112
 8947SOL    HW229042   3.833   1.806   7.947  1.0122  2.0635  1.1749
 8948SOL     OW29043   0.647   8.324   3.479  0.2024 -0.3667  0.0063
 8948SOL    HW129044   0.561   8.324   3.437  0.1152 -1.5281  0.1545
 8948SOL    HW229045   0.633   8.370   3.562  0.5222  2.5598 -1.4270
 8949SOL     OW29046   6.661   8.618   6.623 -0.4897  0.0679  0.5313
 8949SOL    HW129047   6.670   8.712   6.643 -1.1640 -0.0697  1.5699
 8949SOL    HW229048   6.643   8.578   6.708  2.4219 -1.3879  0.6010
 8950SOL     OW29049   3.018   0.228   1.520 -0.7493  0.5382 -0.1333
 8950SOL    HW129050   2.948   0.170   1.548 -0.7827  0.3610 -0.5839
 8950SOL    HW229051   3.057   0.185   1.444  0.1757  0.3850  0.4169
 8951SOL     OW29052   9.499   6.196   1.476 -0.2181  0.2009 -0.4824
 8951SOL    HW129053   9.435   6.253   1.519  0.4946  2.4050 -2.1951
 8951SOL    HW229054   9.558   6.255   1.430  2.1440 -1.8186 -0.2988
 8952SOL     OW29055   6.791   6.985   1.615 -0.6630 -0.4584  0.4193
 8952SOL    HW129056   6.820   7.076   1.614  0.3060 -0.6830 -2.5559
 8952SOL    HW229057   6.862   6.937   1.658 -0.7377  0.0572  1.1264
 8953SOL     OW29058   8.522   2.844   8.914 -0.1367  0.0365  0.1692
 8953SOL    HW129059   8.597   2.899   8.934 -0.3980 -0.0824  1.5666
 8953SOL    HW229060   8.495   2.807   8.999 -1.5373 -0.2119 -0.3460
 8954SOL     OW29061   0.889   9.447   5.771  0.0971 -0.0339 -0.0268
 8954SOL    HW129062   0.810   9.490   5.739  1.1055  0.4258 -2.1220
 8954SOL    HW229063   0.938   9.516   5.816 -0.0466  0.0307  0.0289
 8955SOL     OW29064   4.017   5.539   7.864  0.1757 -0.0560 -0.5521
 8955SOL    HW129065   4.105   5.530   7.900  0.1000  0.0466 -0.3408
 8955SOL    HW229066   4.004   5.460   7.812 -0.6573 -1.4273  1.6187
 8956SOL     OW29067   4.093   2.919   3.377  0.4993  0.5314 -0.2196
 8956SOL    HW129068   4.088   2.932   3.282  1.5635  0.6464 -0.2664
 8956SOL    HW229069   4.001   2.918   3.405  0.1716  0.6108 -1.2278
 8957SOL     OW29070   1.870   5.958   9.470  0.0713 -0.3279 -0.3340
 8957SOL    HW129071   1.948   6.011   9.453  0.2046 -0.6536 -0.7707
 8957SOL    HW229072   1.797   6.020   9.464  0.3163  0.0283  0.3522
 8958SOL     OW29073   7.228   7.076   7.441  0.2072  0.1621 -0.3994
 8958SOL    HW129074   7.268   7.127   7.512  0.6205 -0.4149 -0.2057
 8958SOL    HW229075   7.302   7.047   7.388 -0.1515  1.1542 -1.4640
 8959SOL     OW29076   7.681   5.128   8.736  0.0047  0.4232  0.1890
 8959SOL    HW129077   7.638   5.205   8.774  1.1411  0.6565  1.0563
 8959SOL    HW229078   7.699   5.072   8.811 -0.4578 -0.5320 -0.3942
 8960SOL     OW29079   0.409   6.573   2.760  0.4650 -0.2059 -0.2258
 8960SOL    HW129080   0.449   6.618   2.834 -3.4998  1.2127  1.3786
 8960SOL    HW229081   0.357   6.503   2.799  0.6616 -1.4311 -2.0151
 8961SOL     OW29082   9.421   9.407   1.764 -0.2805  0.1023 -0.1386
 8961SOL    HW129083   9.431   9.339   1.831  0.1152  0.5390  0.2539
 8961SOL    HW229084   9.328   9.427   1.763 -0.6931 -1.5772 -1.4016
 8962SOL     OW29085   2.134   1.596   7.852 -0.1317 -0.0193 -0.2688
 8962SOL    HW129086   2.124   1.692   7.854 -0.0570  0.0184 -1.2170
 8962SOL    HW229087   2.192   1.580   7.777 -0.6121 -0.8371 -0.4738
 8963SOL     OW29088   0.885   6.103   1.738 -0.6528  0.1898 -0.2304
 8963SOL    HW129089   0.864   6.164   1.808 -1.4535 -1.3158  0.8952
 8963SOL    HW229090   0.980   6.106   1.731 -0.6316  1.0208  0.2920
 8964SOL     OW29091   5.836   0.682   7.058 -0.2191  0.3308 -0.5908
 8964SOL    HW129092   5.743   0.659   7.055  0.6483 -3.8939 -0.8642
 8964SOL    HW229093   5.857   0.683   7.151 -0.0750 -1.1969 -0.5899
 8965SOL     OW29094   5.778   0.824   5.573  0.3225  0.4982 -0.5924
 8965SOL    HW129095   5.825   0.889   5.625 -0.7335 -0.6374  1.9553
 8965SOL    HW229096   5.840   0.752   5.562  1.0032  1.2658 -2.1865
 8966SOL     OW29097   0.029   6.249   4.048 -0.0474 -0.2252  0.0126
 8966SOL    HW129098   0.102   6.307   4.029  0.1167 -0.4802 -0.1517
 8966SOL    HW229099   0.021   6.194   3.970  0.1755 -0.8115  0.3916
 8967SOL     OW29100   0.483   1.801   2.816 -0.1668  0.1850  0.4379
 8967SOL    HW129101   0.510   1.833   2.730  0.0182 -0.1027  0.3900
 8967SOL    HW229102   0.458   1.881   2.864 -1.1243  0.2790 -0.1739
 8968SOL     OW29103   2.521   1.433   5.870 -0.1875  0.3494 -0.5935
 8968SOL    HW129104   2.489   1.498   5.933  0.6349  0.8472 -0.6687
 8968SOL    HW229105   2.606   1.406   5.904 -0.0479  0.1029 -1.1255
 8969SOL     OW29106   5.707   3.495   3.130  0.4501  0.1359 -0.8377
 8969SOL    HW129107   5.634   3.518   3.188  0.6830 -0.0834 -0.4469
 8969SOL    HW229108   5.777   3.467   3.190  0.7300 -0.0032 -1.2228
 8970SOL     OW29109   7.349   4.989   1.130 -0.0189 -0.0788 -0.7052
 8970SOL    HW129110   7.296   5.037   1.194  2.0236  0.8965  0.3576
 8970SOL    HW229111   7.334   5.034   1.047 -0.6892  0.2820 -0.3944
 8971SOL     OW29112   4.475   3.792   4.399 -0.4366 -0.1813 -0.3102
 8971SOL    HW129113   4.514   3.738   4.330  0.8158 -0.1034  0.2985
 8971SOL    HW229114   4.418   3.854   4.353 -0.2517 -0.6653 -1.1942
 8972SOL     OW29115   5.983   4.187   5.228  0.3150  0.4474  0.1478
 8972SOL    HW129116   5.933   4.264   5.257  0.8467  0.2796  1.6420
 8972SOL    HW229117   5.984   4.130   5.305  1.2123 -0.3834 -0.4637
 8973SOL     OW29118   1.906   2.583   0.406 -0.0539 -0.4780 -0.0693
 8973SOL    HW129119   1.959   2.605   0.482  1.0522  0.6361 -1.1230
 8973SOL    HW229120   1.897   2.487   0.410  0.8491 -0.5404  0.8923
 8974SOL     OW29121   2.849   0.581   8.017 -0.1757  0.1341 -0.4431
 8974SOL    HW129122   2.786   0.577   7.945 -0.4129 -1.6432 -0.1860
 8974SOL    HW229123   2.919   0.521   7.991 -0.6635 -1.1992  1.1253
 8975SOL     OW29124   3.447   8.238   7.101  0.1742  0.4604  0.5264
 8975SOL    HW129125   3.355   8.236   7.129  0.6049 -1.7441  2.0040
 8975SOL    HW229126   3.459   8.327   7.067 -1.8037  1.6914  2.7291
 8976SOL     OW29127   0.387   8.314   0.814  0.0881 -0.1771  0.2022
 8976SOL    HW129128   0.323   8.270   0.870  0.7955 -1.6371 -0.0849
 8976SOL    HW229129   0.388   8.404   0.846 -1.0326 -0.4712  1.1671
 8977SOL     OW29130   3.727   0.986   0.288  0.0239 -0.4085 -0.0674
 8977SOL    HW129131   3.729   0.918   0.355  2.6846 -0.2990  0.0744
 8977SOL    HW229132   3.634   1.003   0.273 -0.6574 -1.0977  2.8766
 8978SOL     OW29133   4.081   2.011   6.838  0.3387  0.2617 -0.5254
 8978SOL    HW129134   4.031   1.933   6.863 -0.2191  0.4549 -1.0004
 8978SOL    HW229135   4.149   1.978   6.779 -0.3722  0.2258 -1.3339
 8979SOL     OW29136   7.759   2.453   1.089 -0.2748  0.3360 -0.0268
 8979SOL    HW129137   7.829   2.412   1.140 -0.3567 -1.0813 -0.9994
 8979SOL    HW229138   7.796   2.466   1.002 -1.1595 -0.3156 -0.5228
 8980SOL     OW29139   7.976   8.700   6.019  0.2539  0.1653  0.3538
 8980SOL    HW129140   7.903   8.686   5.959  0.8056  0.4834 -0.4025
 8980SOL    HW229141   8.048   8.648   5.983  1.2350  2.0221 -0.4881
 8981SOL     OW29142   1.312   6.618   7.778 -0.3111  0.0537  0.0658
 8981SOL    HW129143   1.300   6.641   7.686  1.0590 -2.4959 -0.8705
 8981SOL    HW229144   1.223   6.608   7.812 -0.8538  2.3092 -0.5672
 8982SOL     OW29145   1.585   2.829   0.907 -0.7147 -0.1556 -0.1622
 8982SOL    HW129146   1.546   2.915   0.892 -1.7051 -0.6105 -0.2493
 8982SOL    HW229147   1.512   2.774   0.935  0.2308 -0.5257  1.7051
 8983SOL     OW29148   0.008   7.960   0.307  0.0014 -0.1989 -0.0205
 8983SOL    HW129149   0.025   8.014   0.384 -0.7772 -0.5422  0.3965
 8983SOL    HW229150  -0.029   8.021   0.243 -0.0318 -0.0599  0.1304
 8984SOL     OW29151   8.689   6.577   6.204 -0.1039 -0.0046 -0.0042
 8984SOL    HW129152   8.732   6.492   6.199  0.6655  0.4158 -0.8403
 8984SOL    HW229153   8.599   6.560   6.176  0.3682 -0.3418 -1.4024
 8985SOL     OW29154   4.133   2.143   1.621 -0.2379 -0.2685  0.0612
 8985SOL    HW129155   4.228   2.132   1.619 -0.0901  0.9026 -1.6169
 8985SOL    HW229156   4.113   2.191   1.540 -2.3691 -1.3222 -0.1076
 8986SOL     OW29157   2.453   2.419   3.835  0.0189  0.1837 -0.0469
 8986SOL    HW129158   2.498   2.487   3.885  0.3897 -0.1378  0.0635
 8986SOL    HW229159   2.500   2.414   3.752  1.2027 -1.2194  0.6512
 8987SOL     OW29160   4.483   2.731   7.990  0.0203 -0.0084  0.7840
 8987SOL    HW129161   4.431   2.660   7.952  1.4985 -1.1581  0.8071
 8987SOL    HW229162   4.492   2.795   7.919 -2.1438  0.6850  1.0551
 8988SOL     OW29163   2.664   5.783   3.917 -0.0613 -0.2814  0.1310
 8988SOL    HW129164   2.700   5.860   3.874 -1.1844  0.9484  1.3050
 8988SOL    HW229165   2.740   5.732   3.943  0.7909  1.2802  0.8438
 8989SOL     OW29166   9.546   1.460   8.044  0.1436 -0.2068  0.4032
 8989SOL    HW129167   9.510   1.424   7.963  0.6163 -0.3390  0.2446
 8989SOL    HW229168   9.470   1.493   8.092 -0.2788 -1.2546  0.4723
 8990SOL     OW29169   6.016   3.200   7.616 -0.1788  0.4256  0.1570
 8990SOL    HW129170   6.077   3.202   7.689  0.0898 -0.5086 -0.0225
 8990SOL    HW229171   6.062   3.244   7.545 -1.1357  2.9657  1.0190
 8991SOL     OW29172   2.751   0.890   7.869  0.2986 -0.3654  0.2036
 8991SOL    HW129173   2.718   0.913   7.956  0.2454  0.7720 -0.1003
 8991SOL    HW229174   2.733   0.967   7.816  0.1796 -1.1082 -0.8683
 8992SOL     OW29175   1.270   7.887   2.109  0.8373  0.6577 -0.3308
 8992SOL    HW129176   1.237   7.803   2.078 -0.3380  1.0005 -0.0574
 8992SOL    HW229177   1.312   7.926   2.032  1.5120 -0.2315 -0.4210
 8993SOL     OW29178   6.513   0.169   0.571 -0.4600  0.3788 -0.3415
 8993SOL    HW129179   6.446   0.136   0.631 -0.8394 -1.0476 -1.5108
 8993SOL    HW229180   6.539   0.093   0.520  0.7526  1.3067 -1.1558
 8994SOL     OW29181   8.252   7.600   1.200 -0.3471 -0.6008  0.2234
 8994SOL    HW129182   8.177   7.630   1.149 -0.8621  0.0077  1.3111
 8994SOL    HW229183   8.242   7.505   1.204 -0.2078 -0.6817 -0.9197
 8995SOL     OW29184   5.890   3.540   7.360  0.0169 -0.2969  0.1185
 8995SOL    HW129185   5.958   3.528   7.426  0.8209  0.9610 -0.4348
 8995SOL    HW229186   5.820   3.479   7.385  0.7557 -0.6121  1.4957
 8996SOL     OW29187   8.875   2.947   8.140  0.4446  0.6415  0.4569
 8996SOL    HW129188   8.943   3.002   8.102  0.0822 -0.3094 -1.7580
 8996SOL    HW229189   8.916   2.861   8.147  0.2901  0.6599  1.6553
 8997SOL     OW29190   2.224   8.024   2.471  0.4030  0.7828 -0.2671
 8997SOL    HW129191   2.255   8.111   2.444 -0.6715  0.7000 -1.8929
 8997SOL    HW229192   2.235   7.970   2.393 -0.1821 -0.2143  0.3262
 8998SOL     OW29193   4.456   8.543   2.390  0.3177  0.2987  0.2016
 8998SOL    HW129194   4.434   8.460   2.433 -0.8629  1.1037  1.2310
 8998SOL    HW229195   4.500   8.517   2.309  0.7594 -1.3094  0.9106
 8999SOL     OW29196   1.558   4.842   5.374 -0.2177 -0.2010  1.2751
 8999SOL    HW129197   1.608   4.891   5.439 -0.6796 -0.2598  1.6823
 8999SOL    HW229198   1.569   4.892   5.293 -0.3577  0.3658  1.5972
 9000SOL     OW29199   8.418   1.946   0.063  0.5913  0.0963  0.5710
 9000SOL    HW129200   8.400   2.002   0.138 -0.4504 -1.6986  1.7208
 9000SOL    HW229201   8.455   1.866   0.101  0.3696 -0.7095 -0.8486
 9001SOL     OW29202   6.488   0.555   2.338 -0.0556  0.9410 -0.2856
 9001SOL    HW129203   6.520   0.588   2.422 -1.6612  0.2711  0.6330
 9001SOL    HW229204   6.546   0.595   2.273  1.4639  1.1917  1.1471
 9002SOL     OW29205   3.471   4.812   2.405  0.4799  0.3129 -0.1169
 9002SOL    HW129206   3.430   4.809   2.492 -0.8008  1.8862 -0.6117
 9002SOL    HW229207   3.541   4.876   2.414  0.9489 -0.2127 -0.0136
 9003SOL     OW29208   9.052   1.227   3.406 -0.5890  0.1432  0.2675
 9003SOL    HW129209   9.051   1.304   3.463  0.1547  1.2321 -1.1157
 9003SOL    HW229210   9.043   1.262   3.317  0.4014 -1.2912 -0.4577
 9004SOL     OW29211   8.628   0.021   5.329 -0.5450  0.0917 -0.9713
 9004SOL    HW129212   8.685  -0.042   5.284  0.4253  1.0840 -1.1709
 9004SOL    HW229213   8.685   0.096   5.346 -1.2370  0.2713  0.7566
 9005SOL     OW29214   4.182   3.531   7.696  0.1084  0.2459  0.3767
 9005SOL    HW129215   4.182   3.524   7.791  2.1438  1.0261  0.4729
 9005SOL    HW229216   4.129   3.609   7.678 -0.1334  0.1993  0.8658
 9006SOL     OW29217   7.355   7.860   6.220 -0.2591  0.1927 -0.2622
 9006SOL    HW129218   7.264   7.869   6.190 -0.0673 -1.2650 -1.4054
 9006SOL    HW229219   7.356   7.900   6.307 -3.1129 -3.5801  1.8226
 9007SOL     OW29220   5.227   4.855   6.231 -0.1588  0.0074 -0.4439
 9007SOL    HW129221   5.203   4.896   6.315 -1.0620 -0.4418 -0.4690
 9007SOL    HW229222   5.288   4.785   6.255 -0.4244 -0.1278 -0.1543
 9008SOL     OW29223   0.802   5.895   6.253  0.2897  0.0548 -0.7244
 9008SOL    HW129224   0.751   5.945   6.316  0.2020 -2.1751  1.0818
 9008SOL    HW229225   0.892   5.925   6.265  0.2989 -0.4628  0.6372
 9009SOL     OW29226   0.678   6.342   6.227 -0.3294  0.1973  0.6470
 9009SOL    HW129227   0.594   6.349   6.181 -0.0321  0.1864  0.1001
 9009SOL    HW229228   0.695   6.248   6.233  0.3064  0.2222 -0.4735
 9010SOL     OW29229   1.455   3.383   7.227  0.2074 -0.0057  0.1748
 9010SOL    HW129230   1.413   3.469   7.228 -0.3762 -0.2359 -1.7416
 9010SOL    HW229231   1.549   3.403   7.228  0.0765  0.6416  0.1231
 9011SOL     OW29232   4.888   0.771   0.741 -0.1440  0.4654 -0.1015
 9011SOL    HW129233   4.838   0.800   0.665 -1.4249 -1.6857 -0.1784
 9011SOL    HW229234   4.822   0.759   0.810  0.5662 -0.3896  0.4549
 9012SOL     OW29235   5.264   8.699   4.958 -0.0706  0.3152 -0.0558
 9012SOL    HW129236   5.179   8.695   5.001  1.3397 -2.0267  2.9617
 9012SOL    HW229237   5.255   8.642   4.881 -1.6565  1.6087 -0.8949
 9013SOL     OW29238   4.192   1.049   4.184 -0.1260 -0.3236  0.3119
 9013SOL    HW129239   4.203   0.999   4.103 -0.2020 -0.2276  0.2425
 9013SOL    HW229240   4.203   0.984   4.254 -1.5104 -0.7025  0.1989
 9014SOL     OW29241   7.608   4.331   3.343  0.1797 -0.6985 -0.3705
 9014SOL    HW129242   7.590   4.424   3.333 -2.2294 -1.0826 -0.3912
 9014SOL    HW229243   7.700   4.326   3.365  0.7202  1.5829 -1.7803
 9015SOL     OW29244   2.164   5.999   6.787  1.0624  0.4103  0.4557
 9015SOL    HW129245   2.098   5.931   6.775 -0.6294  1.7506  1.6427
 9015SOL    HW229246   2.217   5.997   6.708 -1.4082  0.3366 -1.2860
 9016SOL     OW29247   0.010   6.819   4.770  0.1381  0.0379 -0.7494
 9016SOL    HW129248   0.007   6.854   4.681 -0.0967  0.2144 -0.6748
 9016SOL    HW229249   0.071   6.746   4.765 -1.4448 -1.2916 -1.5427
 9017SOL     OW29250   8.819   4.966   5.153  0.0366 -0.2778 -0.8135
 9017SOL    HW129251   8.870   5.043   5.128 -0.7920 -0.1102 -2.0993
 9017SOL    HW229252   8.799   4.923   5.070 -1.1162 -0.8444 -0.2637
 9018SOL     OW29253   3.277   1.109   0.864 -0.3310 -0.8182 -0.6731
 9018SOL    HW129254   3.208   1.094   0.800 -0.1369 -0.8457 -0.8774
 9018SOL    HW229255   3.359   1.099   0.815 -0.1519 -1.9839 -0.1722
 9019SOL     OW29256   3.676   0.752   5.518 -0.2572 -1.0012  0.5109
 9019SOL    HW129257   3.602   0.760   5.579 -0.4991 -0.5056  0.1574
 9019SOL    HW229258   3.752   0.776   5.571 -0.3527 -1.4765  0.8680
 9020SOL     OW29259   7.388   3.967   2.283 -0.0797 -0.0950  0.5902
 9020SOL    HW129260   7.387   4.007   2.196  0.5076  0.7388  0.9529
 9020SOL    HW229261   7.425   3.880   2.269  0.7559  0.3275  0.1220
 9021SOL     OW29262   4.195   3.020   6.362 -0.7640  0.1788  0.0030
 9021SOL    HW129263   4.208   2.962   6.437  1.4760  0.1339 -0.3453
 9021SOL    HW229264   4.208   3.108   6.397  1.8473  0.0896 -0.5139
 9022SOL     OW29265   7.473   7.157   1.071 -0.2070 -0.5291 -0.0911
 9022SOL    HW129266   7.475   7.185   1.163 -0.5378  1.4902 -0.6409
 9022SOL    HW229267   7.421   7.077   1.072 -1.8917  0.4862  1.2783
 9023SOL     OW29268   6.685   5.273   8.032 -0.5592 -0.2669 -0.0914
 9023SOL    HW129269   6.665   5.335   7.962  0.6834 -0.1790 -0.3894
 9023SOL    HW229270   6.600   5.240   8.060 -1.3372  2.1637  0.6365
 9024SOL     OW29271   4.676   6.224   1.116  0.4877 -0.5226  0.1540
 9024SOL    HW129272   4.682   6.143   1.066 -0.5251 -1.8894  2.1312
 9024SOL    HW229273   4.764   6.236   1.152  0.2805 -1.6349  1.1011
 9025SOL     OW29274   8.909   1.456   4.793 -0.6654  0.4701  0.3550
 9025SOL    HW129275   8.937   1.504   4.715 -0.7401 -0.5558 -0.3232
 9025SOL    HW229276   8.985   1.404   4.818 -1.9026 -2.5380 -1.6605
 9026SOL     OW29277   1.397   7.137   5.917 -0.2422  0.5086 -0.5879
 9026SOL    HW129278   1.485   7.105   5.897  0.1829  0.4341  1.2833
 9026SOL    HW229279   1.347   7.058   5.939  0.2961  0.8549  2.1442
 9027SOL     OW29280   7.723   8.486   8.758 -0.2893 -0.4511 -0.3125
 9027SOL    HW129281   7.661   8.413   8.751 -0.9272  0.1213 -0.7353
 9027SOL    HW229282   7.701   8.542   8.684 -2.0067  1.8539  1.7887
 9028SOL     OW29283   6.102   7.897   5.180  0.2027 -0.2280  0.0039
 9028SOL    HW129284   6.131   7.809   5.203 -0.9883 -0.0548  2.5996
 9028SOL    HW229285   6.007   7.896   5.197  0.2962  1.7474  0.9401
 9029SOL     OW29286   3.723   3.792   5.512 -0.4005  0.4870 -0.4748
 9029SOL    HW129287   3.642   3.753   5.480 -0.3101  1.0117 -1.3686
 9029SOL    HW229288   3.715   3.885   5.490  0.6594  0.4556 -1.0488
 9030SOL     OW29289   4.005   0.495   0.239  0.4722  0.0397  0.4660
 9030SOL    HW129290   3.967   0.514   0.153  1.3403  0.5981  0.1934
 9030SOL    HW229291   4.040   0.407   0.231  0.1954 -0.0627  0.3739
 9031SOL     OW29292   8.185   0.661   3.839  0.3687 -0.2141  0.4421
 9031SOL    HW129293   8.146   0.638   3.924  1.7512  0.6475  1.3487
 9031SOL    HW229294   8.110   0.685   3.784 -0.5269 -0.4438  1.5382
 9032SOL     OW29295   3.101   4.383   0.775  0.5124 -0.2118 -0.8921
 9032SOL    HW129296   3.092   4.473   0.745 -1.7512  0.6971  2.0081
 9032SOL    HW229297   3.137   4.390   0.863 -0.4639 -2.0452 -0.2742
 9033SOL     OW29298   7.739   1.885   1.698 -0.8709 -0.2454  0.1415
 9033SOL    HW129299   7.650   1.864   1.729 -0.9879 -0.4897 -0.3582
 9033SOL    HW229300   7.725   1.943   1.624 -0.5957  0.0744  0.3380
 9034SOL     OW29301   6.133   2.737   8.006  0.0073  0.1558  0.5192
 9034SOL    HW129302   6.090   2.738   7.920 -1.6012 -0.6149  1.2594
 9034SOL    HW229303   6.122   2.826   8.039  1.7128  0.8038 -0.5338
 9035SOL     OW29304   7.933   4.088   5.292 -0.4481 -0.1051 -0.7184
 9035SOL    HW129305   7.993   4.026   5.334 -0.0946  0.6826 -0.0157
 9035SOL    HW229306   7.987   4.137   5.231 -0.2522  0.9043  0.2320
 9036SOL     OW29307   4.869   7.568   1.921  0.2160 -0.2305  0.5705
 9036SOL    HW129308   4.941   7.507   1.936  1.0752  0.8350  0.8807
 9036SOL    HW229309   4.897   7.649   1.964 -1.6167 -0.0905  1.6035
 9037SOL     OW29310   2.905   4.271   7.315 -0.3045  0.2239 -0.2137
 9037SOL    HW129311   2.950   4.194   7.280  2.2806  0.8940  1.4586
 9037SOL    HW229312   2.882   4.322   7.237 -1.4993 -1.8271 -1.3167
 9038SOL     OW29313   8.601   9.111   1.721 -0.6962 -0.2231 -0.1155
 9038SOL    HW129314   8.664   9.043   1.747 -2.0778 -1.0956  1.1078
 9038SOL    HW229315   8.630   9.189   1.766  1.4892  0.3634 -2.2984
 9039SOL     OW29316   5.831   4.759   6.838 -0.7657 -0.4391 -0.5706
 9039SOL    HW129317   5.791   4.706   6.906  0.3270 -1.6067 -0.7941
 9039SOL    HW229318   5.846   4.844   6.880 -3.6881  0.1789 -0.5861
 9040SOL     OW29319   5.917   3.323   0.382 -0.0914 -0.0950 -0.6189
 9040SOL    HW129320   5.846   3.311   0.446 -1.1561 -2.1775 -2.0725
 9040SOL    HW229321   5.872   3.349   0.302  1.0922  1.2026 -0.8778
 9041SOL     OW29322   6.073   0.549   1.040 -0.1883  0.4054  0.0449
 9041SOL    HW129323   6.067   0.642   1.064  0.4828  0.7099 -0.9144
 9041SOL    HW229324   5.982   0.519   1.039 -0.3286  0.6953  1.6532
 9042SOL     OW29325   3.080   6.559   0.215  0.3126 -0.0083  0.0608
 9042SOL    HW129326   3.119   6.473   0.200 -3.0874 -1.5035 -1.0721
 9042SOL    HW229327   3.050   6.556   0.306 -2.6076 -1.4409 -0.8105
 9043SOL     OW29328   6.990   6.477   1.058  0.2481 -0.7385  0.3243
 9043SOL    HW129329   7.015   6.527   0.980  1.0359  0.6992  1.4376
 9043SOL    HW229330   6.956   6.394   1.024  0.8650 -0.2854 -1.5133
 9044SOL     OW29331   4.404   4.328   4.057 -0.0405  0.3472  0.2669
 9044SOL    HW129332   4.359   4.325   3.972 -1.1011  1.8991  0.7408
 9044SOL    HW229333   4.449   4.413   4.057  0.2518  0.1948  1.1206
 9045SOL     OW29334   4.265   6.979   7.239  0.2375  0.0018  0.2041
 9045SOL    HW129335   4.211   7.051   7.272  1.0896  0.3234  0.9075
 9045SOL    HW229336   4.218   6.900   7.266 -1.3911  0.2298 -1.6721
 9046SOL     OW29337   3.135   7.051   3.633  0.5005  0.0239 -0.5368
 9046SOL    HW129338   3.199   7.023   3.699  0.5958  0.5068 -0.4240
 9046SOL    HW229339   3.176   7.029   3.549  0.0051 -1.4006 -0.4264
 9047SOL     OW29340   8.479   4.376   0.793 -0.3629  0.0538  0.2152
 9047SOL    HW129341   8.557   4.371   0.848 -1.3909 -0.1549  1.7106
 9047SOL    HW229342   8.408   4.399   0.853 -1.7831 -1.5201 -0.7626
 9048SOL     OW29343   0.925   7.277   6.692  0.0496 -0.0375 -0.1991
 9048SOL    HW129344   0.855   7.228   6.649 -0.3712  1.5362 -1.3945
 9048SOL    HW229345   0.926   7.243   6.782  0.2578 -2.6647 -1.1366
 9049SOL     OW29346   5.947   6.172   1.529 -0.0061  0.0891 -0.3634
 9049SOL    HW129347   6.007   6.236   1.568 -1.6739  2.1724 -0.9762
 9049SOL    HW229348   5.923   6.114   1.601  0.8659  0.7089  0.4586
 9050SOL     OW29349   5.503   8.198   5.823  0.0604  0.3809 -0.2454
 9050SOL    HW129350   5.443   8.271   5.837 -0.4550 -0.4187  2.1910
 9050SOL    HW229351   5.449   8.120   5.834  0.8187 -0.4091 -1.7477
 9051SOL     OW29352   9.292   4.031   6.401  0.1666 -0.2684  0.3685
 9051SOL    HW129353   9.328   3.977   6.471  0.8932 -0.5153 -0.1775
 9051SOL    HW229354   9.237   4.095   6.445  1.5649  0.3370  1.2721
 9052SOL     OW29355   3.508   5.020   1.722  0.2114  0.4972  0.5258
 9052SOL    HW129356   3.571   5.007   1.793  0.6247  1.9835  0.4653
 9052SOL    HW229357   3.546   5.090   1.669 -0.1423 -0.4988 -1.1177
 9053SOL     OW29358   7.636   2.221   5.259  0.8409 -0.5297  0.2128
 9053SOL    HW129359   7.593   2.143   5.225 -0.4329 -0.1751  0.9142
 9053SOL    HW229360   7.635   2.209   5.354  2.5276 -0.6052  0.2416
 9054SOL     OW29361   4.595   2.466   3.265  0.0698  0.4496 -0.0845
 9054SOL    HW129362   4.671   2.428   3.221 -0.9888 -0.1107 -1.5251
 9054SOL    HW229363   4.586   2.553   3.227 -0.6709  0.0764 -0.7993
 9055SOL     OW29364   5.666   2.230   6.479 -0.3310  0.1302  0.4933
 9055SOL    HW129365   5.708   2.310   6.449  1.3834 -0.4684  1.1487
 9055SOL    HW229366   5.680   2.167   6.409 -0.3652 -0.0026  0.6046
 9056SOL     OW29367   8.508   4.594   9.165 -0.3817 -0.3104  0.1077
 9056SOL    HW129368   8.540   4.633   9.084 -4.2862  2.8495 -0.2259
 9056SOL    HW229369   8.563   4.631   9.234  1.1608 -0.7835 -0.8288
 9057SOL     OW29370   2.354   7.582   3.298  0.2430  0.1529 -0.8494
 9057SOL    HW129371   2.382   7.633   3.375  1.6944 -1.0109 -0.5598
 9057SOL    HW229372   2.273   7.540   3.326  1.3922 -1.2472  0.5554
 9058SOL     OW29373   1.091   5.580   9.220 -0.7063 -0.6267  0.7407
 9058SOL    HW129374   1.129   5.529   9.291  2.0230 -0.6741 -0.6084
 9058SOL    HW229375   1.118   5.534   9.140 -0.1727  1.5410 -0.4343
 9059SOL     OW29376   3.797   4.984   2.462 -0.3647 -0.5042 -0.3089
 9059SOL    HW129377   3.867   5.038   2.425 -1.1439  0.0639 -1.0030
 9059SOL    HW229378   3.768   4.929   2.389  0.1576 -1.5936  0.2907
 9060SOL     OW29379   4.212   4.669   5.305 -0.0583 -0.2228 -0.3258
 9060SOL    HW129380   4.266   4.710   5.372 -1.2572 -0.7051  0.9903
 9060SOL    HW229381   4.262   4.679   5.224  1.0759  1.0713  0.4881
 9061SOL     OW29382   6.844   7.579   0.386  0.4918 -0.4325 -0.9265
 9061SOL    HW129383   6.827   7.569   0.292  0.3585 -0.6439 -0.8818
 9061SOL    HW229384   6.938   7.564   0.394  1.3427  3.4986 -1.5492
 9062SOL     OW29385   8.699   2.982   1.377 -0.0921  0.0379  0.0960
 9062SOL    HW129386   8.673   2.890   1.390  0.8027 -0.2493 -0.0661
 9062SOL    HW229387   8.650   3.010   1.300 -0.3519 -0.3163  0.1295
 9063SOL     OW29388   2.909   4.989   3.686 -0.0329  0.7017  0.5761
 9063SOL    HW129389   2.981   4.929   3.703 -0.4625  0.2195  0.7126
 9063SOL    HW229390   2.926   5.023   3.598  0.4639  0.7468  0.6865
 9064SOL     OW29391   0.869   7.469   7.327 -0.4842  0.1652  0.2846
 9064SOL    HW129392   0.931   7.517   7.381  0.2672 -0.7172  0.2196
 9064SOL    HW229393   0.898   7.485   7.237  0.4561 -1.2891  0.2995
 9065SOL     OW29394   6.189   0.074   6.377 -0.1019  0.2252 -0.8619
 9065SOL    HW129395   6.167   0.166   6.393 -2.7367 -0.4166 -0.2562
 9065SOL    HW229396   6.142   0.052   6.296 -3.6160 -1.7190  1.4531
 9066SOL     OW29397   5.374   6.886   0.793 -0.4045 -0.2181  1.1336
 9066SOL    HW129398   5.395   6.795   0.773  0.0764 -0.3411  2.1510
 9066SOL    HW229399   5.282   6.896   0.770  0.3303 -0.0313 -2.2388
 9067SOL     OW29400   6.623   1.230   5.690  0.5077  0.2967 -0.1058
 9067SOL    HW129401   6.563   1.249   5.762  1.2012  2.8602 -0.1002
 9067SOL    HW229402   6.597   1.143   5.659  0.2166 -0.9291  3.2022
 9068SOL     OW29403   7.016   2.717   8.266  0.7463 -0.5149  0.2415
 9068SOL    HW129404   6.992   2.807   8.244  2.5780  0.4257  1.7693
 9068SOL    HW229405   7.021   2.672   8.182 -0.2584  0.7883 -0.5511
 9069SOL     OW29406   2.002   0.651   1.851 -0.2417 -0.5303 -0.2538
 9069SOL    HW129407   2.089   0.691   1.848  0.2908 -1.4737  1.1857
 9069SOL    HW229408   1.988   0.615   1.764  0.3994  0.4471 -0.7703
 9070SOL     OW29409   1.365   2.842   1.824 -0.4068  0.5117  0.1078
 9070SOL    HW129410   1.451   2.850   1.781 -0.3986  0.8343  0.1824
 9070SOL    HW229411   1.328   2.762   1.787  0.1934  0.0203  0.5473
 9071SOL     OW29412   8.698   6.279   3.733 -0.2114 -0.3255  0.6731
 9071SOL    HW129413   8.628   6.321   3.684 -1.2666 -1.6681  0.9594
 9071SOL    HW229414   8.704   6.330   3.814 -1.1001 -0.3859  0.7881
 9072SOL     OW29415   4.216   6.876   6.154 -0.5604  0.4200  0.5459
 9072SOL    HW129416   4.286   6.829   6.199 -1.1043 -0.3773  0.5693
 9072SOL    HW229417   4.148   6.811   6.140  0.3157  0.0432 -3.1293
 9073SOL     OW29418   8.057   1.414   0.126 -0.1561  0.2872 -0.1843
 9073SOL    HW129419   8.045   1.509   0.120  0.4958  0.3531 -0.5560
 9073SOL    HW229420   8.089   1.400   0.215 -0.9975  0.3252  0.1336
 9074SOL     OW29421   0.003   6.933   8.214  0.2696  0.5529 -0.3462
 9074SOL    HW129422   0.030   6.869   8.149 -0.3715  0.3119 -0.3846
 9074SOL    HW229423  -0.039   7.003   8.163 -0.0116  0.4818 -0.2149
 9075SOL     OW29424   3.227   2.064   8.238  0.5297  0.2872 -0.5376
 9075SOL    HW129425   3.216   1.980   8.194  2.0449  0.6450 -1.6632
 9075SOL    HW229426   3.319   2.087   8.225  0.2906  1.8569  0.2366
 9076SOL     OW29427   7.724   6.417   0.903 -0.1980  0.4034  0.5119
 9076SOL    HW129428   7.719   6.480   0.831 -1.4228  0.5657  0.7287
 9076SOL    HW229429   7.807   6.437   0.947 -1.2187  2.8416  1.4638
 9077SOL     OW29430   3.329   5.042   3.641 -0.0325  0.4610 -0.2140
 9077SOL    HW129431   3.264   4.976   3.664 -0.3670  1.0692  0.6232
 9077SOL    HW229432   3.297   5.080   3.560  0.1720 -0.3960 -0.7195
 9078SOL     OW29433   3.858   5.991   5.093  0.2058  0.2791 -0.1503
 9078SOL    HW129434   3.798   6.061   5.068 -0.9512 -0.7062 -0.2224
 9078SOL    HW229435   3.846   5.923   5.027  1.5981  0.1573 -0.3081
 9079SOL     OW29436   7.447   7.511   6.890  0.2031 -0.1994 -0.0711
 9079SOL    HW129437   7.536   7.545   6.881  0.3072 -0.7045 -1.1546
 9079SOL    HW229438   7.441   7.442   6.824 -1.2310  0.3381 -0.5452
 9080SOL     OW29439   2.203   7.213   8.853 -1.0915 -0.6753  0.1745
 9080SOL    HW129440   2.236   7.236   8.940 -0.0380  0.7519 -0.5687
 9080SOL    HW229441   2.114   7.248   8.851 -0.3010  1.4589 -0.1254
 9081SOL     OW29442   3.582   5.818   4.743 -0.2616  0.7369  0.5487
 9081SOL    HW129443   3.582   5.772   4.827 -0.0119 -0.4030 -0.0481
 9081SOL    HW229444   3.561   5.750   4.678 -1.5401  1.8043 -0.2162
 9082SOL     OW29445   4.321   5.571   7.598 -0.2591  0.3849  0.4172
 9082SOL    HW129446   4.296   5.550   7.688 -1.2738  2.0940  0.5823
 9082SOL    HW229447   4.380   5.501   7.572  0.4048  0.0798  2.5816
 9083SOL     OW29448   1.451   0.314   3.968  0.7167 -0.2319 -0.1610
 9083SOL    HW129449   1.507   0.387   3.995 -0.3521 -0.0342  1.7009
 9083SOL    HW229450   1.512   0.242   3.952  1.7001  0.7296 -0.9567
 9084SOL     OW29451   2.741   8.899   1.006 -0.1429  0.2430  0.0188
 9084SOL    HW129452   2.666   8.931   1.055 -0.3650 -1.5209  0.8954
 9084SOL    HW229453   2.809   8.965   1.021 -0.9726  0.9773  0.6442
 9085SOL     OW29454   7.646   3.568   0.982 -0.2254  0.2061  0.0366
 9085SOL    HW129455   7.726   3.619   0.991 -0.5322  0.9681 -1.1927
 9085SOL    HW229456   7.626   3.538   1.070  0.4303  1.5377  0.6704
 9086SOL     OW29457   6.469   0.383   6.894  0.5092 -0.5284  0.0824
 9086SOL    HW129458   6.561   0.357   6.885  0.8003  0.6803 -0.7564
 9086SOL    HW229459   6.453   0.385   6.988  0.7297 -2.7070  0.2179
 9087SOL     OW29460   7.820   4.946   1.088 -0.5627 -0.5089  0.4932
 9087SOL    HW129461   7.805   5.039   1.068 -0.8472 -0.5255  0.6374
 9087SOL    HW229462   7.842   4.945   1.181 -0.4089 -0.5699  0.4563
 9088SOL     OW29463   6.467   0.954   1.290  0.1267 -0.4262 -0.2854
 9088SOL    HW129464   6.455   0.933   1.198  2.2870  1.7601 -1.1797
 9088SOL    HW229465   6.558   0.984   1.296 -0.4744  1.2516  2.1740
 9089SOL     OW29466   6.419   4.128   3.088  0.0708 -0.0272  0.1853
 9089SOL    HW129467   6.490   4.189   3.068  1.2369 -1.0025  1.1595
 9089SOL    HW229468   6.420   4.067   3.014  1.1481 -0.7884  0.7883
 9090SOL     OW29469   1.061   3.542   4.457 -0.1473 -0.5790  0.2142
 9090SOL    HW129470   1.154   3.556   4.473 -0.2153  0.2105 -0.0238
 9090SOL    HW229471   1.039   3.604   4.387 -1.4365  1.2498  2.1175
 9091SOL     OW29472   6.696   1.940   0.340  0.0474  0.4013 -0.3405
 9091SOL    HW129473   6.629   1.872   0.349 -0.6561  0.8342 -1.9129
 9091SOL    HW229474   6.761   1.901   0.282  0.9252  0.1645  0.7856
 9092SOL     OW29475   7.108   5.229   5.347  0.5434 -0.5052 -0.3393
 9092SOL    HW129476   7.123   5.288   5.273 -0.1181 -0.9108 -0.8043
 9092SOL    HW229477   7.038   5.271   5.397  0.9244 -0.2799  0.0186
 9093SOL     OW29478   7.225   6.763   1.601 -0.1894 -0.1797  0.4413
 9093SOL    HW129479   7.173   6.716   1.535  0.9437  0.0245 -0.6537
 9093SOL    HW229480   7.222   6.707   1.678 -0.5109 -1.0786 -0.1970
 9094SOL     OW29481   4.209   7.418   7.764 -0.2889  0.2835 -0.4167
 9094SOL    HW129482   4.214   7.428   7.669 -1.0438 -1.0580 -0.6369
 9094SOL    HW229483   4.243   7.330   7.780 -0.8716  0.2080  0.4624
 9095SOL     OW29484   7.965   8.022   7.242  0.6372  0.5028  1.1759
 9095SOL    HW129485   7.875   8.051   7.226 -0.0251 -1.3283  1.3415
 9095SOL    HW229486   7.962   7.983   7.330  1.8267  1.2419  1.5700
 9096SOL     OW29487   4.080   3.618   0.253 -0.8939 -0.1365  0.1357
 9096SOL    HW129488   4.140   3.680   0.295  0.6586 -0.1134 -1.9683
 9096SOL    HW229489   4.009   3.672   0.219  1.2408  0.9544 -3.1334
 9097SOL     OW29490   2.479   6.034   5.877 -0.5549  0.0901  0.1605
 9097SOL    HW129491   2.396   6.081   5.875 -1.2090 -0.9212 -3.1552
 9097SOL    HW229492   2.457   5.944   5.851  1.6283  0.0681 -1.9920
 9098SOL     OW29493   8.537   5.688   7.791  0.0279 -0.0681 -0.3026
 9098SOL    HW129494   8.593   5.625   7.747  1.6856  0.0630  1.4859
 9098SOL    HW229495   8.497   5.639   7.863 -1.0702  0.1995 -0.7119
 9099SOL     OW29496   6.059   4.065   5.484 -0.4384  0.3766 -0.5939
 9099SOL    HW129497   6.134   4.007   5.472  0.0076  0.9062 -0.3784
 9099SOL    HW229498   6.086   4.128   5.551 -1.1177  0.4967 -0.4176
 9100SOL     OW29499   1.054   0.461   0.870  0.0575 -0.2486 -0.0122
 9100SOL    HW129500   1.112   0.466   0.946 -0.4100  0.8677  0.3045
 9100SOL    HW229501   0.974   0.505   0.899  0.0449  0.6279 -1.2986
 9101SOL     OW29502   9.340   8.993   9.507  0.2893 -0.4100 -0.2661
 9101SOL    HW129503   9.329   9.083   9.536 -1.2176 -0.3470 -0.9471
 9101SOL    HW229504   9.285   8.941   9.566  0.0628 -0.7126 -0.7352
 9102SOL     OW29505   8.890   0.060   4.994  0.0693 -0.3540  0.3911
 9102SOL    HW129506   8.815   0.117   4.976  1.4361  1.3605 -0.1765
 9102SOL    HW229507   8.876  -0.017   4.938 -1.4153 -0.2125  0.5452
 9103SOL     OW29508   4.409   8.999   5.702  0.0720  0.3967  0.8238
 9103SOL    HW129509   4.322   8.966   5.680  0.7216 -0.6720 -0.3079
 9103SOL    HW229510   4.460   8.920   5.723  1.7532  0.5010 -2.2628
 9104SOL     OW29511   0.246   8.650   0.136  0.1826  0.3804  0.1109
 9104SOL    HW129512   0.220   8.562   0.166 -1.3351  0.9281  0.5046
 9104SOL    HW229513   0.338   8.658   0.162  1.0790 -1.9349 -1.9674
 9105SOL     OW29514   1.319   6.506   0.164 -0.6854  0.5773 -0.0082
 9105SOL    HW129515   1.358   6.594   0.169 -1.1080  0.7115  1.1967
 9105SOL    HW229516   1.342   6.465   0.247 -1.4914 -0.0231 -0.0740
 9106SOL     OW29517   6.840   5.603   5.287 -0.1267  0.4716  0.0725
 9106SOL    HW129518   6.882   5.689   5.286 -0.0074  0.4285 -1.3411
 9106SOL    HW229519   6.813   5.589   5.196  0.9477 -1.5265  0.0126
 9107SOL     OW29520   3.894   4.061   8.115 -0.2953  0.1332 -0.0320
 9107SOL    HW129521   3.833   4.032   8.048  0.8360  0.5248 -1.2833
 9107SOL    HW229522   3.940   4.135   8.076  1.7753 -0.8397  0.3795
 9108SOL     OW29523   6.587   6.407   7.214  0.1031 -0.2108  0.2538
 9108SOL    HW129524   6.625   6.467   7.279 -0.3397  0.0983  0.2298
 9108SOL    HW229525   6.599   6.453   7.131  0.0257 -0.2912  0.1991
 9109SOL     OW29526   3.562   0.144   6.483 -0.0898 -0.2726 -0.4416
 9109SOL    HW129527   3.540   0.055   6.513 -0.0576 -0.5963 -1.3607
 9109SOL    HW229528   3.485   0.172   6.435  0.0755  0.0324 -0.5276
 9110SOL     OW29529   0.909   1.236   3.460 -0.0872 -0.0497 -0.0060
 9110SOL    HW129530   0.843   1.173   3.489 -0.2749 -0.3330 -1.0423
 9110SOL    HW229531   0.969   1.186   3.406 -1.0758  0.9101 -2.1262
 9111SOL     OW29532   9.300   6.974   2.694  0.0211 -0.0998  0.0477
 9111SOL    HW129533   9.334   6.892   2.657 -0.3000 -0.0493 -0.3769
 9111SOL    HW229534   9.297   6.959   2.788  0.3929 -0.4118  0.0140
 9112SOL     OW29535   6.464   4.089   8.083 -0.3290 -0.0321  0.0682
 9112SOL    HW129536   6.536   4.089   8.020 -0.1778 -2.2534  0.1675
 9112SOL    HW229537   6.400   4.151   8.047  0.9608  0.8367 -0.7906
 9113SOL     OW29538   2.330   0.324   2.604  0.0856  0.1629  0.3424
 9113SOL    HW129539   2.401   0.280   2.652  0.2820  0.7399  0.5857
 9113SOL    HW229540   2.359   0.415   2.596  1.0235 -0.3193 -2.7228
 9114SOL     OW29541   0.388   9.238   8.835  0.0886  0.1801  0.0598
 9114SOL    HW129542   0.296   9.214   8.848  0.4738 -1.2707  0.3615
 9114SOL    HW229543   0.423   9.247   8.924  0.1834  1.0055 -0.0552
 9115SOL     OW29544   7.271   7.688   6.971  0.1546  0.2803 -0.2100
 9115SOL    HW129545   7.331   7.625   6.931  0.2278  0.8870 -1.1040
 9115SOL    HW229546   7.188   7.674   6.925 -0.6574 -1.0951  1.5593
 9116SOL     OW29547   5.897   0.290   0.090  0.1043 -0.2130 -0.2603
 9116SOL    HW129548   5.831   0.230   0.126 -0.4600  0.2480 -0.5251
 9116SOL    HW229549   5.857   0.376   0.095 -0.2909 -0.1923 -2.6073
 9117SOL     OW29550   8.479   3.515   0.885  0.2228  0.1236  0.1461
 9117SOL    HW129551   8.400   3.487   0.838  1.2779 -0.4689 -1.3784
 9117SOL    HW229552   8.530   3.561   0.818  0.7725  1.2897  1.3437
 9118SOL     OW29553   4.746   3.499   3.639 -0.2558 -0.1809  0.5493
 9118SOL    HW129554   4.651   3.499   3.645 -0.5651  2.1735 -1.9569
 9118SOL    HW229555   4.767   3.431   3.575 -0.3669  0.0159  0.3021
 9119SOL     OW29556   7.131   6.965   9.372  0.4224 -0.1144 -0.0540
 9119SOL    HW129557   7.133   6.993   9.280 -2.0756  1.1113  0.1765
 9119SOL    HW229558   7.045   6.923   9.383  1.0324 -1.0656  1.5325
 9120SOL     OW29559   0.484   6.778   6.860 -0.1824 -0.1155  0.3213
 9120SOL    HW129560   0.556   6.830   6.825 -0.9196  0.1516 -0.8245
 9120SOL    HW229561   0.461   6.821   6.942  0.5717  0.1353  0.4121
 9121SOL     OW29562   4.174   4.602   4.157 -0.7259  0.6813 -0.1761
 9121SOL    HW129563   4.264   4.631   4.144 -0.5032  0.0049 -0.1430
 9121SOL    HW229564   4.121   4.675   4.124 -0.1739  0.6914 -1.0682
 9122SOL     OW29565   8.071   1.070   8.190  0.3053 -0.5951  0.3285
 9122SOL    HW129566   8.158   1.064   8.228  0.4266 -0.6049  0.0515
 9122SOL    HW229567   8.084   1.112   8.105  0.1437 -1.3085 -0.0597
 9123SOL     OW29568   9.199   0.691   0.809  0.4689 -0.0334  0.2284
 9123SOL    HW129569   9.254   0.757   0.851 -0.7246  1.2879 -0.2436
 9123SOL    HW229570   9.174   0.632   0.881  4.1176 -1.9888  0.1859
 9124SOL     OW29571   5.292   7.796   8.467 -0.3258  0.1822 -0.0316
 9124SOL    HW129572   5.220   7.802   8.530  0.7688  2.1895  1.1469
 9124SOL    HW229573   5.348   7.870   8.489  1.3563 -0.4829 -1.8538
 9125SOL     OW29574   9.246   6.456   6.690  0.2126 -0.2790 -0.3790
 9125SOL    HW129575   9.228   6.411   6.607 -0.9693 -2.0191  0.7687
 9125SOL    HW229576   9.226   6.548   6.671  0.7298 -0.4890 -2.2191
 9126SOL     OW29577   4.246   5.761   0.981  0.4665  0.0489  0.1854
 9126SOL    HW129578   4.323   5.815   0.962  0.0310  0.8052  0.4834
 9126SOL    HW229579   4.175   5.805   0.935  0.0853 -0.2418  0.4944
 9127SOL     OW29580   8.264   0.894   8.509 -0.6800  0.2634 -0.1238
 9127SOL    HW129581   8.237   0.885   8.418 -0.1956 -0.4332 -0.2083
 9127SOL    HW229582   8.352   0.855   8.512 -0.1640  1.4368  0.3735
 9128SOL     OW29583   2.143   4.816   3.141 -0.3231  0.2589 -0.7803
 9128SOL    HW129584   2.127   4.759   3.065 -1.5751  0.3696 -0.6264
 9128SOL    HW229585   2.101   4.770   3.213  0.6345  0.2877 -0.1930
 9129SOL     OW29586   4.727   8.208   1.932 -0.2976  0.1566  0.1233
 9129SOL    HW129587   4.765   8.286   1.892  1.8159  0.5039  2.5276
 9129SOL    HW229588   4.740   8.221   2.026 -4.7722 -0.6758  1.0483
 9130SOL     OW29589   4.869   5.299   7.551  0.2208  0.3091  0.1363
 9130SOL    HW129590   4.962   5.277   7.547 -0.3493 -3.1417  2.0216
 9130SOL    HW229591   4.829   5.243   7.484 -0.7268  0.2062  0.7790
 9131SOL     OW29592   6.358   7.708   1.525  0.1912 -0.6371 -0.8430
 9131SOL    HW129593   6.267   7.735   1.512  0.7023  0.7150 -1.8189
 9131SOL    HW229594   6.352   7.617   1.553 -1.4838 -0.4045 -0.3438
 9132SOL     OW29595   5.397   9.044   8.520 -0.0717  0.1003 -0.3928
 9132SOL    HW129596   5.385   9.048   8.425 -0.3354  0.0151 -0.3638
 9132SOL    HW229597   5.322   8.994   8.551 -0.9956  1.6841  0.0354
 9133SOL     OW29598   2.959   2.312   8.366  0.0275  0.9662 -0.3043
 9133SOL    HW129599   2.960   2.321   8.271 -0.6875 -1.3601 -0.5869
 9133SOL    HW229600   2.880   2.261   8.384  0.8681  0.2219  1.4223
 9134SOL     OW29601   8.622   1.576   7.268 -0.3430 -0.2200 -0.2859
 9134SOL    HW129602   8.621   1.648   7.332 -1.3371 -0.5756  0.1257
 9134SOL    HW229603   8.575   1.505   7.312  0.2747 -0.9902 -0.8453
 9135SOL     OW29604   6.243   6.131   8.110 -0.6610  0.1424 -0.5223
 9135SOL    HW129605   6.292   6.050   8.120 -1.7786 -0.7421 -1.8948
 9135SOL    HW229606   6.162   6.116   8.159 -0.3089  0.9628  0.3442
 9136SOL     OW29607   3.964   9.329   4.048  0.2179 -0.3170 -0.3631
 9136SOL    HW129608   3.897   9.372   4.101  1.0834  2.3521 -1.2823
 9136SOL    HW229609   3.986   9.392   3.980  1.9620 -2.0585 -1.5381
 9137SOL     OW29610   3.723   6.650   0.090  0.1127 -0.4538 -0.4931
 9137SOL    HW129611   3.630   6.631   0.106 -0.4710  2.3320  0.0297
 9137SOL    HW229612   3.753   6.692   0.171  1.6033 -0.5279 -0.9727
 9138SOL     OW29613   8.276   4.191   2.534  0.0051 -0.0597  0.0398
 9138SOL    HW129614   8.348   4.133   2.560  1.2506  1.5765  0.4984
 9138SOL    HW229615   8.262   4.173   2.441  0.2841 -1.1310  0.1901
 9139SOL     OW29616   1.978   5.332   7.416  0.4508 -0.1942  0.2011
 9139SOL    HW129617   1.883   5.319   7.418  0.3433  0.5701  2.2310
 9139SOL    HW229618   2.013   5.261   7.470  0.8015  0.8629  1.4190
 9140SOL     OW29619   8.170   5.768   2.068  0.1205 -0.0569  0.0470
 9140SOL    HW129620   8.117   5.848   2.066 -1.2712 -0.8659  1.5119
 9140SOL    HW229621   8.135   5.719   2.142  1.3090 -1.7898 -0.4845
 9141SOL     OW29622   8.504   3.959   7.841  0.2521 -0.4517 -0.2241
 9141SOL    HW129623   8.501   4.036   7.898  0.1782 -0.2379 -0.5160
 9141SOL    HW229624   8.575   3.977   7.779 -0.8796  0.1522 -1.3805
 9142SOL     OW29625   4.235   4.133   3.522 -0.0258 -0.0110 -0.6108
 9142SOL    HW129626   4.228   4.038   3.531  1.6620 -0.1412 -0.2969
 9142SOL    HW229627   4.311   4.145   3.464 -0.7142  1.1393 -1.3026
 9143SOL     OW29628   5.012   8.543   5.011  0.0233 -0.1879 -0.2684
 9143SOL    HW129629   4.926   8.540   4.970 -0.6717 -1.1011  1.2084
 9143SOL    HW229630   5.060   8.469   4.972 -0.1158 -0.1526 -0.5094
 9144SOL     OW29631   4.529   1.152   3.492  0.3416 -0.3281  0.3759
 9144SOL    HW129632   4.597   1.093   3.460  0.4111 -0.7205  1.2146
 9144SOL    HW229633   4.447   1.106   3.473  0.3327 -0.1280 -0.0882
 9145SOL     OW29634   7.129   2.193   5.186  0.1785  0.4236 -0.5652
 9145SOL    HW129635   7.189   2.155   5.121  2.2006 -0.3207  1.6172
 9145SOL    HW229636   7.176   2.189   5.268 -2.1367  1.7180  0.9458
 9146SOL     OW29637   0.736   4.951   8.772 -0.6102  0.0636 -0.0894
 9146SOL    HW129638   0.688   4.873   8.797 -1.9541  0.3549 -1.5888
 9146SOL    HW229639   0.825   4.936   8.803 -1.3490 -1.0667  1.6130
 9147SOL     OW29640   8.283   5.776   8.307 -0.2918 -0.3028 -0.2807
 9147SOL    HW129641   8.321   5.849   8.257  1.8701 -0.4297  1.0130
 9147SOL    HW229642   8.239   5.819   8.381 -1.4549 -0.2261 -0.9910
 9148SOL     OW29643   6.711   4.018   3.163 -0.8259 -0.1860  0.1923
 9148SOL    HW129644   6.779   4.049   3.223  1.0170 -2.6887 -0.4448
 9148SOL    HW229645   6.703   4.087   3.097  1.2958  0.0729  0.1533
 9149SOL     OW29646   9.228   0.062   8.916  0.4501 -0.1615  0.2840
 9149SOL    HW129647   9.262   0.132   8.861  0.4239 -1.4982 -1.5404
 9149SOL    HW229648   9.190  -0.001   8.854 -0.3290 -1.3626  1.8994
 9150SOL     OW29649   9.315   6.948   4.540  0.1244  0.1561  0.0133
 9150SOL    HW129650   9.296   6.866   4.493  1.2744 -1.6178  2.3962
 9150SOL    HW229651   9.410   6.957   4.536 -0.0710  2.1321 -1.2815
 9151SOL     OW29652   3.799   6.379   6.396 -0.7154 -0.1579 -0.6282
 9151SOL    HW129653   3.846   6.405   6.475 -0.9934  0.3351 -0.6203
 9151SOL    HW229654   3.803   6.455   6.339  0.0440 -0.7335 -1.3673
 9152SOL     OW29655   4.510   0.392   2.633  0.0032  0.0933 -0.5287
 9152SOL    HW129656   4.440   0.458   2.632  0.2486  0.3588 -0.5789
 9152SOL    HW229657   4.467   0.311   2.607 -0.5752 -0.0508  0.8214
 9153SOL     OW29658   3.595   3.303   0.519 -0.3941  0.3616  0.1240
 9153SOL    HW129659   3.535   3.292   0.445 -1.5078 -1.2345  1.1826
 9153SOL    HW229660   3.681   3.316   0.479 -1.2740  1.7015 -1.4381
 9154SOL     OW29661   2.379   7.841   4.383  0.1743  0.8359  0.7367
 9154SOL    HW129662   2.303   7.846   4.441 -0.0777  2.7602  0.3217
 9154SOL    HW229663   2.345   7.805   4.302 -0.1491  1.0115  0.7923
 9155SOL     OW29664   6.180   3.309   6.080 -0.0584  0.3488  0.4969
 9155SOL    HW129665   6.184   3.390   6.029  0.2803 -0.4684 -0.8305
 9155SOL    HW229666   6.272   3.285   6.093 -0.1571 -0.7245 -0.6432
 9156SOL     OW29667   8.698   1.411   8.375  0.0901  0.1513  0.5452
 9156SOL    HW129668   8.776   1.464   8.360 -0.6803  1.3891  0.7248
 9156SOL    HW229669   8.704   1.341   8.310  0.9823  0.6393  0.0696
 9157SOL     OW29670   5.131   7.829   5.273  0.1751 -0.0250  0.3074
 9157SOL    HW129671   5.106   7.739   5.251  0.4645 -0.4665  1.6840
 9157SOL    HW229672   5.222   7.822   5.301 -0.3760  0.3266  2.3798
 9158SOL     OW29673   1.866   4.111   3.148  0.8455  0.3011  0.1609
 9158SOL    HW129674   1.811   4.126   3.225 -2.0515  1.1418 -1.8829
 9158SOL    HW229675   1.913   4.031   3.167 -1.7531 -0.9825  1.8231
 9159SOL     OW29676   6.267   5.558   7.518 -0.3688  0.4446 -0.2043
 9159SOL    HW129677   6.186   5.549   7.569  0.4478  0.3045  1.1257
 9159SOL    HW229678   6.312   5.474   7.531 -0.9006 -0.2884 -2.6206
 9160SOL     OW29679   3.588   6.999   4.685 -0.5199  0.0128 -0.4091
 9160SOL    HW129680   3.584   7.077   4.629 -1.0029  2.3226  2.5248
 9160SOL    HW229681   3.498   6.987   4.715  0.1032  0.6428  1.9380
 9161SOL     OW29682   5.864   3.733   8.013  0.4205  0.0905  0.8043
 9161SOL    HW129683   5.902   3.762   8.096  0.0328  0.9329  0.6944
 9161SOL    HW229684   5.810   3.806   7.984  0.7544 -0.0884 -0.3246
 9162SOL     OW29685   2.783   6.289   9.126 -0.0136  0.2176 -0.2152
 9162SOL    HW129686   2.748   6.242   9.050 -1.1211  1.6589 -0.6423
 9162SOL    HW229687   2.739   6.251   9.201  0.2120 -0.4235 -0.4011
 9163SOL     OW29688   9.384   2.005   5.816 -0.1844 -0.2516 -0.0544
 9163SOL    HW129689   9.357   1.913   5.813  0.7738 -0.6837  2.3220
 9163SOL    HW229690   9.302   2.054   5.810 -1.1136 -1.4060  2.0282
 9164SOL     OW29691   3.325   1.929   1.678 -0.6864  0.7650 -0.0406
 9164SOL    HW129692   3.400   1.968   1.723  0.3384 -2.1652  1.0245
 9164SOL    HW229693   3.249   1.975   1.713  0.2836  0.4304  2.7709
 9165SOL     OW29694   6.610   4.531   9.343 -0.9451  0.5484  0.4398
 9165SOL    HW129695   6.533   4.497   9.298 -0.1178 -2.6597  1.1518
 9165SOL    HW229696   6.585   4.535   9.435 -0.5299  0.2342  0.5731
 9166SOL     OW29697   3.954   3.639   0.977  0.3144  0.3534  0.5685
 9166SOL    HW129698   3.875   3.639   0.924  1.5249  1.7481 -1.3627
 9166SOL    HW229699   4.018   3.592   0.924  0.8933 -0.5978  2.0179
 9167SOL     OW29700   0.026   6.953   0.211 -0.0239  0.2155 -0.6814
 9167SOL    HW129701   0.020   6.938   0.117 -1.1015 -0.4142 -0.5314
 9167SOL    HW229702  -0.053   7.004   0.232  1.5881  2.8656 -0.5403
 9168SOL     OW29703   3.093   1.119   0.391 -0.8961 -0.6362  0.7268
 9168SOL    HW129704   3.036   1.171   0.333  1.5597  0.4073 -0.9138
 9168SOL    HW229705   3.112   1.040   0.341  0.5573 -0.1096  0.3812
 9169SOL     OW29706   5.127   1.662   7.504 -0.3931 -0.3698 -0.0370
 9169SOL    HW129707   5.148   1.570   7.486  0.0311 -0.3584  0.3833
 9169SOL    HW229708   5.143   1.707   7.421 -0.3325 -0.6322 -0.1687
 9170SOL     OW29709   3.517   7.954   3.551 -0.1169  0.5599  0.0033
 9170SOL    HW129710   3.593   7.939   3.607 -0.1834  0.1013 -0.0245
 9170SOL    HW229711   3.458   7.881   3.570 -0.2837  0.5760 -0.4272
 9171SOL     OW29712   3.054   7.365   2.752 -0.1942 -0.1809 -0.0175
 9171SOL    HW129713   3.070   7.402   2.839 -2.8243 -2.1712  1.4473
 9171SOL    HW229714   3.141   7.344   2.719  0.8634 -0.2380  2.5595
 9172SOL     OW29715   2.583   8.547   8.622 -0.2727 -0.3210  0.1203
 9172SOL    HW129716   2.664   8.500   8.605 -1.1273 -1.1845 -1.8813
 9172SOL    HW229717   2.545   8.562   8.535  0.0314  4.3408  0.5025
 9173SOL     OW29718   5.437   0.415   3.433  0.3393  0.4023  0.0957
 9173SOL    HW129719   5.428   0.371   3.518 -1.1015  0.7635  0.1518
 9173SOL    HW229720   5.432   0.344   3.369 -0.0057  0.2768  0.2593
 9174SOL     OW29721   8.463   9.434   7.792  0.2982  0.7813 -0.9519
 9174SOL    HW129722   8.424   9.348   7.778  0.7830  0.4735 -0.4625
 9174SOL    HW229723   8.544   9.433   7.740  1.7397 -0.1061  1.1595
 9175SOL     OW29724   8.537   0.994   3.355 -0.2175 -0.4416 -0.0125
 9175SOL    HW129725   8.626   1.028   3.367  0.0674 -1.9246  3.0494
 9175SOL    HW229726   8.489   1.026   3.431 -1.9417 -0.8036 -0.9163
 9176SOL     OW29727   7.750   7.445   3.359 -0.2127 -0.2071  0.2829
 9176SOL    HW129728   7.694   7.506   3.407  0.4373 -0.0596  0.8806
 9176SOL    HW229729   7.697   7.366   3.349 -1.0431  0.4303 -0.4537
 9177SOL     OW29730   0.435   7.107   7.735  0.3893 -0.3449  0.0344
 9177SOL    HW129731   0.355   7.128   7.782  1.5432  2.3163  1.0125
 9177SOL    HW229732   0.432   7.162   7.657  2.1233  1.4053  1.1127
 9178SOL     OW29733   2.418   2.780   7.975 -0.1400  0.0612  0.9224
 9178SOL    HW129734   2.385   2.848   8.034  2.7149  3.1904 -0.7184
 9178SOL    HW229735   2.496   2.746   8.018  0.2812  0.2431  0.3306
 9179SOL     OW29736   0.157   7.880   8.722  0.4058  0.2762 -0.1774
 9179SOL    HW129737   0.183   7.972   8.712  0.0378  0.5092  0.9343
 9179SOL    HW229738   0.171   7.861   8.815  2.3863 -1.3909 -0.7520
 9180SOL     OW29739   4.452   7.448   3.221  0.6660  0.0211  0.0193
 9180SOL    HW129740   4.501   7.381   3.269 -1.0245  0.5843  2.7754
 9180SOL    HW229741   4.501   7.529   3.237  0.2272  0.1684  0.6968
 9181SOL     OW29742   1.385   2.276   8.135  0.3923 -0.0910 -0.0012
 9181SOL    HW129743   1.351   2.252   8.049  0.2059 -2.6833  0.7153
 9181SOL    HW229744   1.323   2.236   8.197  1.7640 -0.2436  1.3261
 9182SOL     OW29745   7.157   3.682   1.223  0.5262  0.6050  0.6625
 9182SOL    HW129746   7.096   3.737   1.173  1.9437  0.9210 -0.8207
 9182SOL    HW229747   7.148   3.595   1.184  0.7497  0.5697  0.6883
 9183SOL     OW29748   1.440   4.960   3.840  0.1033  0.3374  0.3088
 9183SOL    HW129749   1.346   4.969   3.859 -0.2790 -0.2412 -1.1814
 9183SOL    HW229750   1.453   4.867   3.825  0.3738  0.6860 -1.9625
 9184SOL     OW29751   1.116   6.560   7.946  0.4332 -0.3725  0.6368
 9184SOL    HW129752   1.025   6.528   7.946  0.3199 -0.0806 -0.1768
 9184SOL    HW229753   1.160   6.507   8.012  0.0847 -1.7496 -0.1953
 9185SOL     OW29754   9.460   8.350   6.588  0.0626  0.5419 -0.0396
 9185SOL    HW129755   9.365   8.362   6.586  0.0917  0.7979  0.1005
 9185SOL    HW229756   9.488   8.396   6.667  0.1465 -0.6645  0.6715
 9186SOL     OW29757   1.894   3.615   8.949 -0.5175 -0.2516 -0.2331
 9186SOL    HW129758   1.859   3.563   9.022  1.8880 -0.1552  1.0822
 9186SOL    HW229759   1.921   3.698   8.989 -0.7210  0.5082 -1.5930
 9187SOL     OW29760   4.096   9.470   2.055 -0.6208 -0.0089 -0.0261
 9187SOL    HW129761   4.036   9.396   2.058  0.2778 -0.7399  2.3345
 9187SOL    HW229762   4.181   9.432   2.031 -0.2568  0.3131  0.7032
 9188SOL     OW29763   6.913   0.668   2.321  0.1143 -0.0844 -0.4463
 9188SOL    HW129764   6.833   0.687   2.271 -0.1209 -0.0757 -0.0707
 9188SOL    HW229765   6.982   0.713   2.273 -0.4538  1.9619  0.5409
 9189SOL     OW29766   1.088   2.938   0.547  0.1887  0.2949  0.3950
 9189SOL    HW129767   1.168   2.893   0.572  0.5808  0.6704 -0.1369
 9189SOL    HW229768   1.118   3.022   0.512 -0.4497  0.5189  0.3663
 9190SOL     OW29769   6.112   2.195   4.201 -0.3832 -0.0860  0.5753
 9190SOL    HW129770   6.206   2.214   4.211 -0.5309  0.4506  0.9435
 9190SOL    HW229771   6.084   2.167   4.288 -0.9270  1.3687  0.8942
 9191SOL     OW29772   0.151   6.044   2.854  0.4217  0.0151  0.0881
 9191SOL    HW129773   0.077   5.983   2.859  0.0372  0.3733 -1.0002
 9191SOL    HW229774   0.205   6.022   2.930 -0.3704 -0.8155  0.4315
 9192SOL     OW29775   8.056   6.908   3.482  0.6315  0.7719  0.3153
 9192SOL    HW129776   8.042   6.813   3.474 -1.8792  1.1162 -0.4833
 9192SOL    HW229777   8.047   6.925   3.576 -0.0163  0.3438  0.3404
 9193SOL     OW29778   9.195   8.434   6.566  0.5413  0.4522 -0.3739
 9193SOL    HW129779   9.177   8.493   6.639 -0.1150  0.2899 -0.3948
 9193SOL    HW229780   9.133   8.462   6.498  0.5465  0.0396 -0.5490
 9194SOL     OW29781   8.292   4.518   1.998 -0.2697  0.4553 -0.2342
 9194SOL    HW129782   8.343   4.544   1.922  1.1511  2.3514  1.2566
 9194SOL    HW229783   8.263   4.429   1.978  2.1722 -0.0711 -1.9160
 9195SOL     OW29784   5.693   6.620   0.357  0.3515 -0.5273 -0.0934
 9195SOL    HW129785   5.639   6.642   0.281  0.7860  0.8056 -0.0386
 9195SOL    HW229786   5.773   6.583   0.320  0.3456 -0.3703 -0.2610
 9196SOL     OW29787   8.799   5.835   5.567 -0.0394 -0.0371 -0.0645
 9196SOL    HW129788   8.875   5.783   5.543 -0.4596 -2.7973  3.6786
 9196SOL    HW229789   8.818   5.866   5.655 -1.7840  2.3636 -0.4319
 9197SOL     OW29790   6.754   8.840   1.749 -0.1550  0.3641  0.4058
 9197SOL    HW129791   6.683   8.791   1.790  0.9617 -0.5647  1.2896
 9197SOL    HW229792   6.790   8.893   1.820  1.6646 -1.1027  0.6650
 9198SOL     OW29793   6.822   3.053   0.092  0.0394  0.6935 -0.4550
 9198SOL    HW129794   6.743   3.106   0.094 -0.1684  0.3705 -0.1217
 9198SOL    HW229795   6.888   3.109   0.050  0.1869  1.6992  1.0698
 9199SOL     OW29796   3.034   4.102   0.836  0.1277  0.3933 -0.9614
 9199SOL    HW129797   3.047   4.192   0.806 -0.7755  0.8503 -0.0482
 9199SOL    HW229798   2.960   4.107   0.896  2.1863 -0.3412  1.8522
 9200SOL     OW29799   3.723   1.643   2.507  0.7530  0.1918 -0.3086
 9200SOL    HW129800   3.703   1.558   2.468  2.5196  0.3514 -1.7139
 9200SOL    HW229801   3.638   1.682   2.526 -0.0988 -1.4976 -0.5045
 9201SOL     OW29802   2.903   3.948   9.337 -0.4819 -0.1201 -0.0013
 9201SOL    HW129803   2.896   4.042   9.350  0.8532 -0.1498  1.1997
 9201SOL    HW229804   2.985   3.924   9.380 -1.0417 -1.8976  0.1650
 9202SOL     OW29805   2.797   8.836   5.716 -0.5127 -0.3025  0.9620
 9202SOL    HW129806   2.832   8.778   5.649  0.2503 -0.2307  1.2924
 9202SOL    HW229807   2.841   8.809   5.797 -2.4531 -1.3446  1.7446
 9203SOL     OW29808   5.463   2.352   9.220  0.0734 -0.1355  0.3383
 9203SOL    HW129809   5.519   2.302   9.160  0.0125 -0.2443  0.3726
 9203SOL    HW229810   5.378   2.355   9.176 -0.2201 -0.9733  0.8146
 9204SOL     OW29811   8.918   5.559   0.615 -0.6320  0.0812 -0.0794
 9204SOL    HW129812   8.877   5.527   0.696 -2.2529 -1.1201 -1.3113
 9204SOL    HW229813   8.967   5.484   0.582 -1.7928 -0.1751 -1.3150
 9205SOL     OW29814   3.935   7.542   2.056  0.0800  0.2027 -0.1337
 9205SOL    HW129815   4.017   7.495   2.039  0.6567  0.6136  1.4021
 9205SOL    HW229816   3.890   7.490   2.122  0.8136  1.8406  1.7293
 9206SOL     OW29817   6.417   5.708   9.543  0.2529  0.3313  0.8868
 9206SOL    HW129818   6.494   5.711   9.486 -0.7159 -2.8052 -0.7762
 9206SOL    HW229819   6.346   5.680   9.486 -0.8825 -2.6281  3.4981
 9207SOL     OW29820   6.395   2.824   3.355 -0.8097 -0.0222 -0.1479
 9207SOL    HW129821   6.472   2.864   3.396 -1.1883  0.3118  0.2428
 9207SOL    HW229822   6.396   2.859   3.266 -0.0534 -0.6564 -0.4031
 9208SOL     OW29823   1.431   3.623   2.599 -0.2653 -0.0356  0.1341
 9208SOL    HW129824   1.448   3.642   2.691 -0.0878 -1.7081  0.4783
 9208SOL    HW229825   1.518   3.603   2.563 -0.6412 -2.3222  0.3578
 9209SOL     OW29826   7.796   1.809   2.223 -0.0842  0.3938  0.4552
 9209SOL    HW129827   7.733   1.803   2.294 -0.9362  1.7218 -0.1477
 9209SOL    HW229828   7.743   1.821   2.144  0.8865  1.3671 -0.0829
 9210SOL     OW29829   4.802   2.357   6.450 -0.5637 -0.4285 -0.0752
 9210SOL    HW129830   4.791   2.409   6.530  1.2843 -0.7385  0.4111
 9210SOL    HW229831   4.832   2.420   6.385 -0.4488 -0.4894 -0.0803
 9211SOL     OW29832   9.281   5.394   4.155 -0.2404  0.0662  0.1074
 9211SOL    HW129833   9.333   5.323   4.118 -1.6579 -1.0356  0.1670
 9211SOL    HW229834   9.311   5.472   4.109  0.8266 -0.6737 -0.4878
 9212SOL     OW29835   3.603   1.052   0.786  0.8443 -0.2350  0.5011
 9212SOL    HW129836   3.656   1.113   0.836 -0.0823  2.1619 -1.2782
 9212SOL    HW229837   3.575   1.101   0.709 -1.8820 -2.1778  0.1105
 9213SOL     OW29838   1.641   8.896   8.735 -0.0867 -0.2457  0.2208
 9213SOL    HW129839   1.551   8.928   8.725 -0.4351 -0.6053  1.8987
 9213SOL    HW229840   1.643   8.815   8.684 -0.4510  0.2085 -0.5367
 9214SOL     OW29841   5.675   3.033   7.960  0.2714 -0.1118  0.1669
 9214SOL    HW129842   5.586   3.003   7.942 -0.2497  0.7435  1.1983
 9214SOL    HW229843   5.693   3.098   7.892  0.9588 -1.8020 -1.3553
 9215SOL     OW29844   6.447   8.181   6.141  0.2280  0.4803 -0.0649
 9215SOL    HW129845   6.453   8.241   6.067  0.0272  0.3261 -0.2069
 9215SOL    HW229846   6.537   8.160   6.163  0.2730  0.1112 -0.6041
 9216SOL     OW29847   4.283   9.108   8.702 -0.0278  0.2822  0.1253
 9216SOL    HW129848   4.301   9.140   8.791  1.3419 -0.1428  0.0315
 9216SOL    HW229849   4.224   9.173   8.665  1.7003  2.1017  0.3636
 9217SOL     OW29850   2.538   2.186   1.929 -0.0462  0.1787  0.2428
 9217SOL    HW129851   2.582   2.271   1.925 -0.8353  0.6773  1.5279
 9217SOL    HW229852   2.534   2.156   1.838  2.3403  0.4009  0.0037
 9218SOL     OW29853   6.360   0.968   2.603 -0.2309 -0.6839 -0.2353
 9218SOL    HW129854   6.451   0.947   2.580 -0.8920 -1.7774 -2.0866
 9218SOL    HW229855   6.356   0.959   2.698  1.4216 -1.3317 -0.2019
 9219SOL     OW29856   4.866   2.791   8.584 -0.3303 -0.2017 -0.3071
 9219SOL    HW129857   4.772   2.783   8.571 -0.6050  2.4018 -0.4908
 9219SOL    HW229858   4.875   2.848   8.661  1.0167  1.1459 -1.3902
 9220SOL     OW29859   6.940   2.371   5.078  0.4218  1.1123  0.5061
 9220SOL    HW129860   6.851   2.337   5.084  0.5902  0.4940 -0.3480
 9220SOL    HW229861   6.995   2.303   5.117  0.4949  1.6582  1.3816
 9221SOL     OW29862   4.248   4.704   2.533 -0.5664  0.3635 -0.1618
 9221SOL    HW129863   4.217   4.648   2.604 -1.3898 -1.1619 -1.6475
 9221SOL    HW229864   4.169   4.749   2.502  0.0250  2.1137  0.7687
 9222SOL     OW29865   6.214   7.585   5.733 -0.1479  0.1795 -0.4755
 9222SOL    HW129866   6.275   7.615   5.666 -0.2103  1.2591 -0.0607
 9222SOL    HW229867   6.191   7.663   5.782 -0.5267 -0.5089  0.4744
 9223SOL     OW29868   4.403   7.844   0.490 -0.3226  0.8180 -0.5827
 9223SOL    HW129869   4.424   7.855   0.398  0.2012  0.9946 -0.4491
 9223SOL    HW229870   4.320   7.890   0.502 -0.1509  1.2066 -0.8662
 9224SOL     OW29871   6.141   7.584   3.777  0.0827  0.2150 -1.0229
 9224SOL    HW129872   6.056   7.554   3.745  0.1331 -0.5106 -0.4933
 9224SOL    HW229873   6.199   7.509   3.764  0.3296  0.2530 -0.1479
 9225SOL     OW29874   1.689   7.004   3.514 -0.5646  0.5222  0.0013
 9225SOL    HW129875   1.709   6.936   3.579  0.4104 -0.0334 -0.8408
 9225SOL    HW229876   1.610   6.973   3.470 -0.7054  0.4511  0.2987
 9226SOL     OW29877   2.440   6.884   0.119  0.1751  0.3473  0.7919
 9226SOL    HW129878   2.351   6.867   0.149 -1.0632  0.6435 -2.3356
 9226SOL    HW229879   2.474   6.798   0.094  0.5512  0.3194  1.3746
 9227SOL     OW29880   6.122   7.221   1.192  0.5015 -0.4381  0.2828
 9227SOL    HW129881   6.177   7.252   1.121  0.3110  1.4520  0.9012
 9227SOL    HW229882   6.152   7.270   1.269 -1.6893  0.3221  0.7286
 9228SOL     OW29883   3.784   7.829   2.717 -0.2025  0.3766  0.0029
 9228SOL    HW129884   3.768   7.845   2.623 -0.6103  1.0876  0.1872
 9228SOL    HW229885   3.845   7.755   2.718 -2.8404 -2.0068 -0.7750
 9229SOL     OW29886   7.984   0.734   3.658 -0.0003  0.0983  0.2573
 9229SOL    HW129887   7.935   0.663   3.616 -0.4926 -1.0449  2.5711
 9229SOL    HW229888   7.945   0.814   3.623 -0.8404 -0.7762 -0.9063
 9230SOL     OW29889   9.280   7.469   4.145  0.2912  0.1346  0.0630
 9230SOL    HW129890   9.221   7.394   4.135  0.3266  0.2767 -1.4112
 9230SOL    HW229891   9.224   7.546   4.139  0.4361  0.2423  0.0702
 9231SOL     OW29892   4.387   5.011   6.742  0.0332 -0.3332  0.4668
 9231SOL    HW129893   4.313   5.072   6.753 -0.4580 -0.3231 -2.2874
 9231SOL    HW229894   4.462   5.068   6.722  0.1252 -0.4902  0.3619
 9232SOL     OW29895   6.622   4.121   2.325 -0.2569  0.3138  0.0625
 9232SOL    HW129896   6.668   4.046   2.362  0.3209  1.4357  1.7583
 9232SOL    HW229897   6.596   4.093   2.237 -2.8221 -2.9750  1.6685
 9233SOL     OW29898   7.164   5.839   9.431 -0.2316 -0.2338 -0.1199
 9233SOL    HW129899   7.181   5.889   9.511 -0.5237 -1.6653  0.8653
 9233SOL    HW229900   7.250   5.830   9.389  0.2563 -1.1143  1.0338
 9234SOL     OW29901   1.242   7.748   1.679  0.0814  0.6302 -0.2107
 9234SOL    HW129902   1.198   7.809   1.738 -0.7686 -1.3642  1.3015
 9234SOL    HW229903   1.277   7.680   1.736  0.0207 -0.9061 -1.9357
 9235SOL     OW29904   4.785   4.326   3.073  0.0780  0.5799  0.5796
 9235SOL    HW129905   4.831   4.293   2.996 -1.5458 -2.0845  0.6344
 9235SOL    HW229906   4.707   4.368   3.038 -0.7301 -0.7520  0.7125
 9236SOL     OW29907   2.107   6.290   3.686 -0.0526  0.0847 -0.8104
 9236SOL    HW129908   2.169   6.263   3.754 -0.6776  0.8658  0.0932
 9236SOL    HW229909   2.145   6.372   3.652  0.3961 -0.4419 -1.6038
 9237SOL     OW29910   7.010   7.159   1.382  0.6232 -0.1131  0.2634
 9237SOL    HW129911   7.052   7.136   1.300 -0.9856 -1.4422 -0.2545
 9237SOL    HW229912   6.949   7.230   1.359  0.2912 -0.3721  0.3341
 9238SOL     OW29913   5.762   8.581   7.104  0.1157  0.2317  0.0225
 9238SOL    HW129914   5.847   8.594   7.148  0.0480  0.8818 -0.0232
 9238SOL    HW229915   5.753   8.659   7.049 -0.1522 -0.2160 -0.5667
 9239SOL     OW29916   3.361   2.992   6.942  0.3492 -0.2568  0.3166
 9239SOL    HW129917   3.376   3.054   7.014  0.1874 -0.2804  0.3713
 9239SOL    HW229918   3.266   2.990   6.932  0.3875 -0.0117 -0.1135
 9240SOL     OW29919   5.914   5.847   4.141  0.1006  0.2786  1.0475
 9240SOL    HW129920   5.912   5.928   4.091  2.6902  0.0724  0.4271
 9240SOL    HW229921   5.884   5.780   4.080  0.3465  0.4431  0.7421
 9241SOL     OW29922   1.936   1.431   2.459  0.2930  0.0196 -0.1037
 9241SOL    HW129923   1.888   1.379   2.395  0.3741 -1.5690  1.0593
 9241SOL    HW229924   1.898   1.405   2.543  1.3937  0.7273  0.6277
 9242SOL     OW29925   7.908   5.947   5.479  0.7185  0.2562  0.5545
 9242SOL    HW129926   7.989   5.908   5.446 -0.2004 -2.0260  0.7951
 9242SOL    HW229927   7.874   5.997   5.405  0.7230 -1.4907 -0.6987
 9243SOL     OW29928   7.096   9.252   0.248  0.3122 -0.0453 -0.0794
 9243SOL    HW129929   7.173   9.237   0.303  0.6790  1.2759 -0.2024
 9243SOL    HW229930   7.107   9.341   0.213  0.4308 -1.0320 -2.8287
 9244SOL     OW29931   4.409   5.416   2.775  0.1826 -0.2901 -0.1027
 9244SOL    HW129932   4.391   5.327   2.742 -1.8002 -0.3761  1.0850
 9244SOL    HW229933   4.372   5.417   2.863  0.1772  1.7186 -0.0842
 9245SOL     OW29934   8.821   3.680   9.524 -0.1697 -0.1169  0.2075
 9245SOL    HW129935   8.888   3.711   9.463 -0.0670 -2.5480 -1.0144
 9245SOL    HW229936   8.871   3.644   9.598 -0.2847  2.0498  1.4299
 9246SOL     OW29937   9.506   8.353   0.566 -0.2963 -0.7299  0.0024
 9246SOL    HW129938   9.560   8.366   0.644  0.5616  1.4825 -0.8791
 9246SOL    HW229939   9.562   8.380   0.493 -1.2637 -2.2036 -1.3555
 9247SOL     OW29940   6.298   6.896   3.540  0.3079  0.2047  0.2487
 9247SOL    HW129941   6.376   6.856   3.503  0.9970  1.8282 -0.1743
 9247SOL    HW229942   6.243   6.919   3.464 -1.1384 -1.8916  0.5819
 9248SOL     OW29943   2.379   8.714   4.930  0.2309  1.1453 -0.1287
 9248SOL    HW129944   2.311   8.687   4.868 -1.3549  1.3878  1.4226
 9248SOL    HW229945   2.460   8.681   4.892 -0.6034  1.5660 -2.4952
 9249SOL     OW29946   3.205   0.541   7.289 -0.1147  0.4235 -0.3109
 9249SOL    HW129947   3.178   0.621   7.243  0.1368  1.3746  1.1320
 9249SOL    HW229948   3.291   0.562   7.326 -0.7746  0.0812  1.4873
 9250SOL     OW29949   9.467   0.286   5.419  0.3122 -0.3889 -0.1230
 9250SOL    HW129950   9.386   0.336   5.423  0.1638 -0.7087  1.4741
 9250SOL    HW229951   9.443   0.198   5.447  1.4636 -0.0941  2.0117
 9251SOL     OW29952   1.978   2.431   2.736 -0.0811  0.6877 -0.4252
 9251SOL    HW129953   1.967   2.361   2.671 -1.7978  1.1237 -0.6555
 9251SOL    HW229954   2.029   2.498   2.691 -2.7566  1.7894 -2.0736
 9252SOL     OW29955   7.968   6.054   8.434 -0.2450  0.6511  0.4391
 9252SOL    HW129956   7.876   6.052   8.461 -0.3430  0.1234  0.0804
 9252SOL    HW229957   8.008   5.980   8.480 -0.0771  0.6717  0.3261
 9253SOL     OW29958   1.715   4.103   8.946  0.2288  0.1213  0.2860
 9253SOL    HW129959   1.775   4.034   8.976 -1.1143 -0.9263  0.6781
 9253SOL    HW229960   1.760   4.185   8.967  2.1004 -0.6007 -0.6508
 9254SOL     OW29961   5.355   3.754   8.444  0.2976  0.6517  0.3386
 9254SOL    HW129962   5.386   3.778   8.531  1.1414 -1.7246  0.7567
 9254SOL    HW229963   5.435   3.738   8.394 -0.1603 -1.3783  0.1856
 9255SOL     OW29964   4.070   1.477   9.055 -0.1692  0.3946  0.1996
 9255SOL    HW129965   4.097   1.392   9.089  0.5925  0.3676 -0.4427
 9255SOL    HW229966   3.992   1.500   9.105 -0.2351 -0.5692  0.5448
 9256SOL     OW29967   9.485   3.489   7.662 -0.0335 -0.6630 -0.5451
 9256SOL    HW129968   9.504   3.525   7.749 -1.5963 -1.7745  0.2987
 9256SOL    HW229969   9.395   3.514   7.645  0.4864  0.2306 -2.2513
 9257SOL     OW29970   1.973   7.157   5.977 -0.4827  0.2531 -0.1145
 9257SOL    HW129971   1.935   7.182   5.893 -0.0707  1.0276 -0.0845
 9257SOL    HW229972   1.898   7.137   6.033 -0.7586 -0.3071 -0.6681
 9258SOL     OW29973   3.546   8.519   2.181  1.1355  0.9795 -0.2195
 9258SOL    HW129974   3.488   8.457   2.225 -1.5846  2.4253 -1.5570
 9258SOL    HW229975   3.617   8.465   2.146  0.0664 -1.0191  0.5423
 9259SOL     OW29976   4.691   7.664   5.974  0.1361  0.3411  0.1868
 9259SOL    HW129977   4.708   7.716   6.052  0.6842 -0.6103  0.7108
 9259SOL    HW229978   4.599   7.681   5.954  0.0772  0.8433  0.8485
 9260SOL     OW29979   7.629   5.211   3.898  0.4434  0.3118 -0.5836
 9260SOL    HW129980   7.641   5.146   3.828 -2.1809  0.8197 -1.6378
 9260SOL    HW229981   7.666   5.170   3.976  0.2082 -1.8260 -1.5285
 9261SOL     OW29982   9.097   2.133   2.684  0.5939  0.1507 -0.2335
 9261SOL    HW129983   9.162   2.062   2.689  0.6449  0.0091 -2.2682
 9261SOL    HW229984   9.149   2.212   2.672  0.4619  0.3265  0.3248
 9262SOL     OW29985   7.372   2.946   7.363 -0.0156  0.7688  0.2538
 9262SOL    HW129986   7.337   2.998   7.291  2.3950  0.9676 -0.8634
 9262SOL    HW229987   7.465   2.935   7.342 -0.1103 -2.9127  1.0817
 9263SOL     OW29988   7.576   8.433   8.130 -0.0334 -0.3539 -0.4523
 9263SOL    HW129989   7.543   8.345   8.148 -0.9843 -0.2817 -1.7424
 9263SOL    HW229990   7.498   8.485   8.114  0.5913  0.4200 -1.0384
 9264SOL     OW29991   2.377   4.956   6.058 -0.7285 -0.0507 -0.3745
 9264SOL    HW129992   2.364   5.045   6.025 -0.8401  0.1681  0.2387
 9264SOL    HW229993   2.387   4.968   6.153 -2.3779 -0.8443 -0.0652
 9265SOL     OW29994   0.612   2.138   5.422  0.4648 -0.2237  0.4519
 9265SOL    HW129995   0.649   2.143   5.510 -0.2738 -0.7521  0.8093
 9265SOL    HW229996   0.552   2.213   5.417  0.8712  0.0864  0.2204
 9266SOL     OW29997   0.498   4.733   1.413  0.7212 -0.6087  0.2614
 9266SOL    HW129998   0.476   4.708   1.323  1.6474 -1.0146  0.1436
 9266SOL    HW229999   0.413   4.737   1.457  0.2829 -0.7202 -0.5429
 9267SOL     OW30000   1.952   7.789   7.944  0.2813 -0.1722  0.2169
 9267SOL    HW130001   1.880   7.735   7.977  0.6841 -1.3149 -0.6926
 9267SOL    HW230002   2.002   7.813   8.022 -0.8440  0.3018  0.8147
 9268SOL     OW30003   6.812   1.275   8.198 -0.0356 -0.2284  0.4781
 9268SOL    HW130004   6.740   1.280   8.135 -0.6661 -1.5992  1.0519
 9268SOL    HW230005   6.780   1.326   8.273  0.4260  0.8147 -0.0165
 9269SOL     OW30006   6.531   8.861   3.603  0.2194 -0.1396  0.3197
 9269SOL    HW130007   6.575   8.911   3.671  1.3591 -0.8354  0.1281
 9269SOL    HW230008   6.470   8.804   3.650  1.5772 -1.1999  0.8556
 9270SOL     OW30009   0.549   5.417   1.173  0.5679 -0.2398 -0.4350
 9270SOL    HW130010   0.582   5.417   1.263 -1.2845 -1.9028  0.3108
 9270SOL    HW230011   0.517   5.507   1.159 -0.0628 -0.2263  0.9590
 9271SOL     OW30012   5.941   7.107   8.369 -0.2869 -0.0662 -0.6009
 9271SOL    HW130013   5.904   7.192   8.348  1.5832  1.0683  0.4141
 9271SOL    HW230014   6.005   7.090   8.300 -1.9553 -1.6104 -1.8709
 9272SOL     OW30015   2.001   9.284   0.699  0.8385  1.1049  0.3602
 9272SOL    HW130016   2.051   9.321   0.772  2.0637 -0.2448  0.2513
 9272SOL    HW230017   2.041   9.198   0.683  0.0254  0.9925 -1.3275
 9273SOL     OW30018   1.659   6.625   5.014  0.0443 -0.3535  0.9849
 9273SOL    HW130019   1.617   6.572   4.947  3.7854 -1.1060 -1.0980
 9273SOL    HW230020   1.659   6.571   5.092 -3.1052 -0.0613  1.3000
 9274SOL     OW30021   3.226   8.002   4.528 -0.5603  0.3236 -0.5347
 9274SOL    HW130022   3.201   7.963   4.611 -0.5787  0.4625 -0.4738
 9274SOL    HW230023   3.310   7.961   4.506 -0.1994  0.8024 -0.0892
 9275SOL     OW30024   1.098   6.176   0.815 -0.5488  0.2790 -0.0675
 9275SOL    HW130025   1.024   6.213   0.864 -0.5794 -0.6337  0.6150
 9275SOL    HW230026   1.080   6.082   0.813  0.4028  0.0951 -0.2242
 9276SOL     OW30027   5.173   8.922   8.573 -0.2024  0.7304  0.3843
 9276SOL    HW130028   5.103   8.974   8.612 -1.4798 -1.4038  1.0674
 9276SOL    HW230029   5.131   8.873   8.503  1.3091  1.7532 -1.3419
 9277SOL     OW30030   5.742   4.047   5.652  0.3916 -0.6672  0.6056
 9277SOL    HW130031   5.725   4.084   5.565  1.8474 -0.5919  0.3292
 9277SOL    HW230032   5.750   3.953   5.636 -2.4359 -1.0885  1.1761
 9278SOL     OW30033   7.592   0.194   5.264  0.0323  0.3744  0.2780
 9278SOL    HW130034   7.574   0.178   5.172 -0.6174 -0.6961  0.5768
 9278SOL    HW230035   7.671   0.143   5.282 -0.4455 -0.2724  0.5626
 9279SOL     OW30036   8.835   3.334   0.621  0.5493  0.1018  0.7120
 9279SOL    HW130037   8.825   3.408   0.561 -0.9001 -1.5474 -1.2307
 9279SOL    HW230038   8.930   3.321   0.626  0.7716 -1.0699 -3.2122
 9280SOL     OW30039   7.063   1.876   5.319  0.0168  0.6478  0.1222
 9280SOL    HW130040   7.041   1.895   5.410 -1.1848  0.2826 -0.0713
 9280SOL    HW230041   7.064   1.961   5.277 -1.4713  0.6727  0.0716
 9281SOL     OW30042   8.323   4.223   3.755 -0.2323  0.4181  0.6824
 9281SOL    HW130043   8.412   4.224   3.790 -0.1073  0.8735  0.3581
 9281SOL    HW230044   8.309   4.132   3.728 -0.0500  0.2337  1.1933
 9282SOL     OW30045   2.393   2.138   0.465 -1.0252 -0.0098  0.4892
 9282SOL    HW130046   2.371   2.068   0.404 -0.2270 -0.0519  0.2426
 9282SOL    HW230047   2.453   2.097   0.528  0.9531  0.8891 -0.7294
 9283SOL     OW30048   6.477   9.028   1.963  0.0029 -0.5212 -0.1722
 9283SOL    HW130049   6.554   9.085   1.965  1.1567 -1.8976 -2.1535
 9283SOL    HW230050   6.473   8.996   1.873 -3.2210 -0.1227 -0.2729
 9284SOL     OW30051   4.948   9.266   8.648 -0.1654 -0.7821 -0.0918
 9284SOL    HW130052   4.998   9.302   8.575 -1.8183 -0.3910 -1.0792
 9284SOL    HW230053   4.946   9.336   8.713 -0.5058 -0.3333 -0.5797
 9285SOL     OW30054   4.656   8.985   1.177  0.4873  0.0470  0.0396
 9285SOL    HW130055   4.581   8.983   1.117  0.9866  1.1861 -0.6453
 9285SOL    HW230056   4.732   8.974   1.120  0.9763  1.3208  0.4177
 9286SOL     OW30057   4.473   0.628   1.054 -0.2368  0.3560  0.5562
 9286SOL    HW130058   4.480   0.699   1.118  0.2577  0.3583  0.4963
 9286SOL    HW230059   4.385   0.592   1.069 -0.4546  0.9100  0.6576
 9287SOL     OW30060   7.666   7.333   9.164 -0.1985 -0.1489  0.7447
 9287SOL    HW130061   7.757   7.361   9.157 -0.9556  2.1977 -0.8351
 9287SOL    HW230062   7.615   7.414   9.159 -2.4414 -1.5096 -0.0572
 9288SOL     OW30063   0.907   4.446   2.173 -0.4140 -0.7193 -0.0076
 9288SOL    HW130064   0.864   4.366   2.204 -2.5268  0.6964  0.9248
 9288SOL    HW230065   0.884   4.450   2.080  1.0846 -1.9739 -0.4876
 9289SOL     OW30066   0.364   1.930   7.830 -0.1244  0.1984  0.4753
 9289SOL    HW130067   0.454   1.898   7.840 -0.2483 -0.1078  0.6345
 9289SOL    HW230068   0.332   1.940   7.920 -0.1013  0.7395  0.4248
 9290SOL     OW30069   5.898   0.745   4.008 -0.2908 -0.5510 -0.0611
 9290SOL    HW130070   5.822   0.686   4.012 -0.9340  0.2454 -0.0725
 9290SOL    HW230071   5.880   0.801   3.932  1.1428 -1.4209 -1.0898
 9291SOL     OW30072   3.480   7.893   4.883  0.0780 -0.2493 -0.7305
 9291SOL    HW130073   3.560   7.942   4.898 -0.7844  0.5660  1.6057
 9291SOL    HW230074   3.510   7.806   4.854  1.6798  0.7822 -2.3729
 9292SOL     OW30075   7.944   6.696   4.144 -0.0029  0.4223 -0.0954
 9292SOL    HW130076   8.016   6.755   4.123  1.4114 -0.4158  2.0488
 9292SOL    HW230077   7.976   6.609   4.120 -1.5085  0.2878 -1.8851
 9293SOL     OW30078   3.105   2.884   3.278 -0.4138 -0.4362  0.0165
 9293SOL    HW130079   3.194   2.920   3.276 -0.0329 -1.3531 -1.4544
 9293SOL    HW230080   3.061   2.925   3.204 -0.3699 -1.9205 -0.8833
 9294SOL     OW30081   6.543   7.804   3.076  0.1992 -0.1001  0.4584
 9294SOL    HW130082   6.454   7.789   3.105  0.0913 -0.4944 -0.0612
 9294SOL    HW230083   6.578   7.868   3.138 -0.9990  1.3892 -0.3253
 9295SOL     OW30084   3.689   0.220   3.387 -0.5631 -0.2416  0.4306
 9295SOL    HW130085   3.728   0.292   3.437  1.1051  1.0393 -2.4739
 9295SOL    HW230086   3.758   0.154   3.382 -0.9043 -0.5857  0.2429
 9296SOL     OW30087   4.123   0.797   5.448  0.6914 -0.2150 -0.7207
 9296SOL    HW130088   4.114   0.872   5.390  0.9095 -0.5043 -1.1288
 9296SOL    HW230089   4.209   0.807   5.488  0.9452 -0.5411 -1.1878
 9297SOL     OW30090   3.962   3.063   7.806 -0.4575  0.0784 -0.3058
 9297SOL    HW130091   3.940   3.092   7.717 -1.2914  0.2279 -0.0556
 9297SOL    HW230092   3.956   3.142   7.859  1.5465  0.3254 -0.3479
 9298SOL     OW30093   0.150   8.828   5.756 -0.0845 -0.2063 -0.2574
 9298SOL    HW130094   0.123   8.750   5.805 -0.2372  0.1852  0.3004
 9298SOL    HW230095   0.244   8.834   5.768 -0.2604  0.4957  0.9285
 9299SOL     OW30096   3.130   8.342   1.007 -0.0977  0.4236  0.4290
 9299SOL    HW130097   3.134   8.257   0.963  1.2616  1.3053 -1.3281
 9299SOL    HW230098   3.050   8.383   0.974  0.1663  0.5027 -0.1328
 9300SOL     OW30099   1.751   5.999   2.310  0.6302  0.4389  1.2038
 9300SOL    HW130100   1.676   6.027   2.363  0.8515  1.7467  0.8492
 9300SOL    HW230101   1.817   6.067   2.324  0.3226  1.4271 -1.5735
 9301SOL     OW30102   0.609   5.514   8.140  0.5273 -0.1281  0.0747
 9301SOL    HW130103   0.562   5.485   8.218  0.0750 -0.9998 -0.5106
 9301SOL    HW230104   0.544   5.559   8.087  0.4186 -1.0008 -0.5590
 9302SOL     OW30105   2.099   4.761   0.214 -0.7255 -0.2009 -0.0454
 9302SOL    HW130106   2.072   4.849   0.242 -0.0019 -0.0446  0.1911
 9302SOL    HW230107   2.193   4.758   0.233 -1.4267 -2.6375  4.3146
 9303SOL     OW30108   2.605   1.269   8.980 -0.0499  0.5011 -0.6891
 9303SOL    HW130109   2.599   1.279   9.075  1.5462 -0.7527 -0.4002
 9303SOL    HW230110   2.639   1.353   8.949 -0.2657  0.8046 -0.1120
 9304SOL     OW30111   3.002   2.011   0.038  0.3308 -0.4376  0.3718
 9304SOL    HW130112   3.083   2.036  -0.005  0.0347  0.6665  0.4249
 9304SOL    HW230113   2.974   1.931  -0.007  0.9035 -0.2436 -0.3396
 9305SOL     OW30114   9.303   0.288   4.902 -0.0459 -0.3500  0.2957
 9305SOL    HW130115   9.346   0.205   4.881  0.3170 -0.1788  0.3448
 9305SOL    HW230116   9.225   0.263   4.951  0.0706 -0.6625  0.3261
 9306SOL     OW30117   7.835   2.067   1.879  0.4327 -0.6484 -0.4743
 9306SOL    HW130118   7.787   1.996   1.837 -0.5050 -1.4679  1.7950
 9306SOL    HW230119   7.767   2.129   1.906  1.0860  0.2890 -0.9436
 9307SOL     OW30120   5.741   6.065   8.861  0.0162  1.1306 -0.6453
 9307SOL    HW130121   5.657   6.049   8.817 -1.5924  2.1502  1.8011
 9307SOL    HW230122   5.792   5.985   8.847 -2.1804 -0.3780 -0.5403
 9308SOL     OW30123   8.160   4.830   6.281  0.0748 -0.4843 -0.1185
 9308SOL    HW130124   8.097   4.849   6.212 -1.3941 -0.2114  1.2381
 9308SOL    HW230125   8.217   4.762   6.243 -0.3137  0.0615 -1.7710
 9309SOL     OW30126   7.524   8.339   2.420  0.2283  0.3124  0.5280
 9309SOL    HW130127   7.606   8.346   2.469  0.3047  0.6774  0.3542
 9309SOL    HW230128   7.481   8.261   2.455  0.6105  0.1700  0.6811
 9310SOL     OW30129   0.896   8.617   1.442  0.7154 -0.1581  0.0714
 9310SOL    HW130130   0.804   8.634   1.463  0.3153  0.6552 -2.1515
 9310SOL    HW230131   0.894   8.557   1.368  2.0644 -1.9183  1.3363
 9311SOL     OW30132   3.528   8.289   4.551 -0.0683 -0.1508 -0.5201
 9311SOL    HW130133   3.494   8.217   4.605 -0.1592 -0.2496 -0.7084
 9311SOL    HW230134   3.452   8.344   4.534 -0.3641 -0.9246 -1.8189
 9312SOL     OW30135   7.477   4.543   0.458 -0.1877 -0.5078  0.1461
 9312SOL    HW130136   7.422   4.479   0.414 -0.8113  1.0320 -1.4489
 9312SOL    HW230137   7.419   4.617   0.477  0.8865  0.3502  0.2560
 9313SOL     OW30138   0.003   0.939   6.289  0.2929 -0.1519 -0.1787
 9313SOL    HW130139  -0.043   1.019   6.313  0.6807 -0.6089  2.4305
 9313SOL    HW230140   0.029   0.951   6.198 -0.5015  2.2469 -0.1358
 9314SOL     OW30141   2.259   7.382   4.474  0.1763  0.3330  0.6145
 9314SOL    HW130142   2.288   7.394   4.383  0.4039 -1.7221  0.3799
 9314SOL    HW230143   2.180   7.328   4.467  0.7717 -0.7121  1.6891
 9315SOL     OW30144   4.169   1.101   8.485  0.0744 -0.6321  0.0158
 9315SOL    HW130145   4.146   1.033   8.421  0.1476 -0.7298  0.0932
 9315SOL    HW230146   4.199   1.052   8.562  1.0947 -0.5100 -0.2840
 9316SOL     OW30147   3.732   6.044   5.735 -0.2697 -0.6376 -0.1656
 9316SOL    HW130148   3.796   6.054   5.665 -0.0072  0.3779  0.1996
 9316SOL    HW230149   3.782   6.058   5.816 -0.9455  0.3077  0.1182
 9317SOL     OW30150   4.937   4.477   6.674 -0.2323 -0.2908  0.2308
 9317SOL    HW130151   4.930   4.405   6.611  0.2551 -0.9018  0.8749
 9317SOL    HW230152   4.958   4.435   6.757  0.2735  0.6115  0.5714
 9318SOL     OW30153   7.349   6.168   4.950  0.7271  0.0681  0.1952
 9318SOL    HW130154   7.361   6.263   4.958 -0.4335  0.1960  0.5335
 9318SOL    HW230155   7.415   6.131   5.009  0.9387  0.6722  0.3483
 9319SOL     OW30156   2.479   2.886   2.965 -0.4472  0.0056  0.3069
 9319SOL    HW130157   2.424   2.899   2.888 -0.6922  1.5872  0.6929
 9319SOL    HW230158   2.417   2.862   3.034 -0.1314 -2.2253 -0.1347
 9320SOL     OW30159   3.098   0.769   3.986  0.0040  0.2085  0.0002
 9320SOL    HW130160   3.164   0.741   3.922 -0.2626 -0.7957  0.1373
 9320SOL    HW230161   3.136   0.745   4.070 -1.3764 -2.3539 -0.0173
 9321SOL     OW30162   3.676   2.679   2.884 -0.7264  0.1313 -0.0416
 9321SOL    HW130163   3.710   2.602   2.838 -0.5913 -0.3236  0.7992
 9321SOL    HW230164   3.754   2.730   2.906 -0.7382  0.0639  0.1657
 9322SOL     OW30165   7.679   1.189   4.611 -0.5125  0.1159 -0.0702
 9322SOL    HW130166   7.748   1.159   4.670 -1.4947  2.5079  2.5196
 9322SOL    HW230167   7.703   1.279   4.589 -1.6647  0.2151 -1.0119
 9323SOL     OW30168   1.802   2.698   7.592 -0.3588 -0.0606 -0.0388
 9323SOL    HW130169   1.819   2.761   7.662  1.2311 -0.9097  0.3890
 9323SOL    HW230170   1.887   2.685   7.551 -1.2143  0.2404 -2.0180
 9324SOL     OW30171   5.731   2.058   1.961  0.5935  0.1481 -0.5420
 9324SOL    HW130172   5.751   1.965   1.968 -0.1288  0.0683  0.8610
 9324SOL    HW230173   5.691   2.068   1.874  0.3496 -0.9158 -0.5600
 9325SOL     OW30174   9.204   2.792   6.997 -0.2568  0.1009 -0.0127
 9325SOL    HW130175   9.149   2.806   6.920 -1.4489 -2.7707  0.2010
 9325SOL    HW230176   9.177   2.861   7.058 -0.6309  1.2698 -1.4422
 9326SOL     OW30177   3.189   2.212   3.162  0.0765  0.0638  0.0335
 9326SOL    HW130178   3.255   2.175   3.220  0.4865 -0.3782 -0.6955
 9326SOL    HW230179   3.215   2.183   3.074  0.8940  2.7558 -0.7124
 9327SOL     OW30180   5.071   7.385   2.737  0.5513  0.1556 -0.7559
 9327SOL    HW130181   5.018   7.382   2.817 -0.3064  2.9586 -1.1159
 9327SOL    HW230182   5.161   7.391   2.768  0.1953  1.8689  0.0715
 9328SOL     OW30183   8.952   7.200   4.609 -0.0729 -0.0489 -0.2185
 9328SOL    HW130184   8.995   7.117   4.630  0.4465  0.2463 -0.0948
 9328SOL    HW230185   8.863   7.175   4.582  1.0403 -0.9872 -3.5007
 9329SOL     OW30186   2.394   5.490   2.492 -0.4848  0.4416  0.7608
 9329SOL    HW130187   2.402   5.492   2.397 -1.8322  1.0427  0.6279
 9329SOL    HW230188   2.401   5.582   2.518 -0.4900  0.3172  1.2104
 9330SOL     OW30189   1.887   5.619   6.449  0.0621 -0.3780  0.2586
 9330SOL    HW130190   1.941   5.588   6.521  0.5098  1.0221  0.5483
 9330SOL    HW230191   1.805   5.570   6.458  0.3211 -0.6291  1.3684
 9331SOL     OW30192   3.533   5.430   6.735  0.2812 -0.1319  0.1899
 9331SOL    HW130193   3.606   5.388   6.689 -0.0304 -0.0775 -0.3651
 9331SOL    HW230194   3.458   5.415   6.678  0.1943  1.3132 -0.1094
 9332SOL     OW30195   1.437   5.423   0.314  0.2881  0.4942 -0.3791
 9332SOL    HW130196   1.453   5.335   0.348 -0.9240  0.4302  0.0742
 9332SOL    HW230197   1.471   5.482   0.382  0.8815  0.3773 -0.5742
 9333SOL     OW30198   4.565   3.377   4.275  0.2657 -0.4744  0.1218
 9333SOL    HW130199   4.482   3.328   4.279  0.8209 -1.3655  1.3641
 9333SOL    HW230200   4.632   3.312   4.294  1.1470  0.5171  0.5108
 9334SOL     OW30201   7.742   2.468   3.253 -0.0726  0.2274  0.2230
 9334SOL    HW130202   7.678   2.475   3.324 -0.6796 -1.2527 -0.1534
 9334SOL    HW230203   7.821   2.434   3.294 -0.8466 -1.9659  0.0030
 9335SOL     OW30204   6.103   1.761   1.055 -0.2972  0.0481  0.2694
 9335SOL    HW130205   6.168   1.744   0.987 -1.1249 -0.0204 -0.5159
 9335SOL    HW230206   6.019   1.764   1.009 -0.7613  1.0572  1.1385
 9336SOL     OW30207   6.016   6.370   5.192 -0.1075  0.3114  0.3629
 9336SOL    HW130208   6.021   6.441   5.256  2.1344 -0.0967  0.7369
 9336SOL    HW230209   6.102   6.370   5.150 -1.2101 -0.0527 -2.0080
 9337SOL     OW30210   4.336   3.357   2.212  0.2743 -0.0105 -0.1676
 9337SOL    HW130211   4.256   3.366   2.161  0.4336  2.4864 -0.1366
 9337SOL    HW230212   4.360   3.265   2.204 -0.9817 -0.2115 -2.6081
 9338SOL     OW30213   6.905   6.589   1.300  0.1323  0.7065  0.1416
 9338SOL    HW130214   6.919   6.553   1.212  1.2193 -1.8137  1.2297
 9338SOL    HW230215   6.820   6.554   1.327  1.3195 -1.4874  1.3173
 9339SOL     OW30216   0.690   1.217   8.653  0.2381  0.4855 -0.1541
 9339SOL    HW130217   0.604   1.242   8.686 -0.3217 -1.9425  0.3851
 9339SOL    HW230218   0.749   1.231   8.727  0.0320  0.6234 -0.0147
 9340SOL     OW30219   6.337   1.258   2.567 -0.2670  0.4000  0.4826
 9340SOL    HW130220   6.351   1.205   2.645  2.5185 -0.8467 -0.7200
 9340SOL    HW230221   6.299   1.197   2.504  0.6256  0.4600 -0.1341
 9341SOL     OW30222   2.750   2.150   1.322  0.4657  0.3706 -0.0251
 9341SOL    HW130223   2.763   2.181   1.411 -0.2461 -0.7131  0.4842
 9341SOL    HW230224   2.821   2.088   1.307 -0.6552 -1.1174  0.6193
 9342SOL     OW30225   3.408   5.689   1.215 -0.3537  0.3844  0.2376
 9342SOL    HW130226   3.331   5.746   1.216 -0.0713  0.7730  0.0782
 9342SOL    HW230227   3.443   5.694   1.304  0.3899  1.4592 -0.0936
 9343SOL     OW30228   0.546   5.481   4.924 -0.3506  0.2103 -0.4288
 9343SOL    HW130229   0.518   5.412   4.864  1.8765 -2.2722  1.1507
 9343SOL    HW230230   0.494   5.467   5.003  0.6384 -0.1696  0.1645
 9344SOL     OW30231   3.949   4.729   8.760 -0.1710  0.3415  0.5596
 9344SOL    HW130232   3.871   4.704   8.811  1.4291 -1.4157  2.3252
 9344SOL    HW230233   3.948   4.825   8.760 -1.2831  0.3746  2.2864
 9345SOL     OW30234   3.506   1.316   6.247 -0.3210 -0.3983  0.2460
 9345SOL    HW130235   3.474   1.385   6.189 -0.3461 -1.1263 -0.6397
 9345SOL    HW230236   3.527   1.243   6.188 -0.0329 -1.0501  1.1249
 9346SOL     OW30237   4.441   9.342   0.565 -0.5203 -0.5771 -0.0342
 9346SOL    HW130238   4.507   9.324   0.632  2.8181  2.2382 -2.2087
 9346SOL    HW230239   4.424   9.436   0.574 -2.8251 -0.8741 -0.8076
 9347SOL     OW30240   2.737   3.557   2.288 -0.1909 -0.1242  0.2817
 9347SOL    HW130241   2.672   3.493   2.315 -0.7650  0.6343  0.7204
 9347SOL    HW230242   2.733   3.626   2.355  2.2124 -0.8355  1.2661
 9348SOL     OW30243   0.705   7.074   9.251  0.3685 -0.3048 -0.4749
 9348SOL    HW130244   0.726   7.046   9.162 -2.1502  0.5808 -1.4457
 9348SOL    HW230245   0.763   7.148   9.268  0.8167 -0.4282 -1.4278
 9349SOL     OW30246   5.752   1.812   3.069 -0.4276 -0.5197  0.7166
 9349SOL    HW130247   5.846   1.831   3.067 -0.1455 -1.7553  1.0731
 9349SOL    HW230248   5.727   1.802   2.977 -0.3799  0.5460  0.5831
 9350SOL     OW30249   6.977   6.154   2.364 -0.0006  0.0319  0.0974
 9350SOL    HW130250   7.049   6.092   2.373  0.5009  0.6868  0.7795
 9350SOL    HW230251   6.992   6.217   2.435 -0.0125  1.4110 -1.0841
 9351SOL     OW30252   4.240   5.780   6.029 -0.0018  0.4421 -0.2480
 9351SOL    HW130253   4.296   5.727   6.085  0.9417  0.9826 -0.6663
 9351SOL    HW230254   4.196   5.717   5.972  0.0313  0.0006  0.2078
 9352SOL     OW30255   2.077   2.917   9.279  0.1277 -0.1999  0.2436
 9352SOL    HW130256   2.005   2.934   9.219  0.2351 -1.5523 -0.2958
 9352SOL    HW230257   2.034   2.895   9.362 -0.0379  0.4266  0.3321
 9353SOL     OW30258   9.335   7.871   4.584  0.1199  0.1564  0.0529
 9353SOL    HW130259   9.396   7.817   4.634 -0.8150 -0.4455  0.5658
 9353SOL    HW230260   9.339   7.957   4.626  2.9721  1.1228 -1.8632
 9354SOL     OW30261   6.843   7.314   6.971 -0.1938  0.2221  0.4719
 9354SOL    HW130262   6.924   7.346   6.933 -0.0786  0.4807  0.9235
 9354SOL    HW230263   6.775   7.339   6.909  0.0952 -0.1745 -0.0055
 9355SOL     OW30264   1.929   7.410   1.454 -0.5233 -0.1647  0.7575
 9355SOL    HW130265   1.870   7.376   1.521 -0.9276 -2.3934 -0.5870
 9355SOL    HW230266   2.016   7.399   1.491 -0.8113  0.6833  1.7338
 9356SOL     OW30267   6.487   0.440   6.576 -0.0301  0.2142  0.2130
 9356SOL    HW130268   6.556   0.474   6.633  0.6620  0.4688 -0.7560
 9356SOL    HW230269   6.434   0.384   6.633 -0.1025  1.4414  1.3984
 9357SOL     OW30270   6.332   0.789   4.848 -0.0312 -0.3913  0.2014
 9357SOL    HW130271   6.291   0.862   4.893  0.1928  0.2613 -0.6146
 9357SOL    HW230272   6.300   0.796   4.758  1.8595  0.1704 -0.4783
 9358SOL     OW30273   5.230   6.723   9.099 -0.0919  0.6449 -0.4587
 9358SOL    HW130274   5.153   6.679   9.061 -0.2160  0.1937  0.2984
 9358SOL    HW230275   5.267   6.659   9.159 -0.7327  1.8228  1.2791
 9359SOL     OW30276   2.706   5.146   0.479  0.3484 -0.0847  0.2299
 9359SOL    HW130277   2.670   5.121   0.563  0.0351  0.0756  0.1456
 9359SOL    HW230278   2.670   5.082   0.417 -0.8011  0.7961 -0.0562
 9360SOL     OW30279   6.898   1.974   9.537 -0.3782 -0.0314  0.6830
 9360SOL    HW130280   6.956   1.899   9.523  0.9372  1.0063  0.3187
 9360SOL    HW230281   6.896   1.984   9.633  0.4133  0.1811  0.6857
 9361SOL     OW30282   8.089   2.874   4.061 -0.5778 -0.1193  0.0267
 9361SOL    HW130283   8.058   2.939   3.998  1.8770  0.6115 -0.5769
 9361SOL    HW230284   8.184   2.891   4.067 -0.4764 -1.1259  2.8198
 9362SOL     OW30285   4.967   6.541   2.978 -0.2190  0.1275  0.1189
 9362SOL    HW130286   5.053   6.537   3.020 -0.1097 -0.3539 -0.1456
 9362SOL    HW230287   4.986   6.545   2.884 -0.4874 -0.1304  0.0522
 9363SOL     OW30288   7.058   3.138   9.035  0.3998 -0.0164  0.3051
 9363SOL    HW130289   7.061   3.209   8.972 -1.0663 -0.3446 -0.1723
 9363SOL    HW230290   6.990   3.164   9.097  1.0167 -0.2354  1.0952
 9364SOL     OW30291   5.819   9.467   9.262  0.5206 -0.2049  0.6612
 9364SOL    HW130292   5.766   9.447   9.184  1.3641 -1.6605  0.4309
 9364SOL    HW230293   5.888   9.524   9.229  0.4637 -0.2335  0.4857
 9365SOL     OW30294   1.563   6.816   9.133  0.0678 -0.0777 -0.6287
 9365SOL    HW130295   1.628   6.854   9.193 -0.7960  0.7885 -0.2228
 9365SOL    HW230296   1.575   6.864   9.051 -1.9264  2.1661  0.2638
 9366SOL     OW30297   4.796   9.473   4.250 -0.0302 -0.1304 -0.1307
 9366SOL    HW130298   4.723   9.416   4.276 -0.5224  0.7103  0.3867
 9366SOL    HW230299   4.802   9.537   4.321 -1.7299  2.5507 -2.1898
 9367SOL     OW30300   5.129   2.357   6.949 -0.0335  0.8523 -0.7974
 9367SOL    HW130301   5.048   2.322   6.912 -0.1826  1.0139 -0.6184
 9367SOL    HW230302   5.129   2.328   7.040 -1.0187  2.7963 -0.1338
 9368SOL     OW30303   7.457   8.373   5.233  0.3433 -0.3056 -0.3064
 9368SOL    HW130304   7.496   8.392   5.147  0.3066 -3.2477 -1.0723
 9368SOL    HW230305   7.480   8.282   5.250 -0.3196 -0.0367  2.5034
 9369SOL     OW30306   4.560   9.550   1.511 -0.4063  0.5824 -0.1594
 9369SOL    HW130307   4.513   9.468   1.495  1.1521 -0.4092  0.1228
 9369SOL    HW230308   4.599   9.572   1.426  0.5770  0.0923  0.1520
 9370SOL     OW30309   6.559   1.485   1.267  0.0204 -0.3047 -0.0530
 9370SOL    HW130310   6.534   1.490   1.175 -0.0601 -0.4464 -0.0395
 9370SOL    HW230311   6.637   1.429   1.268  0.2073 -0.0443 -0.0704
 9371SOL     OW30312   3.550   6.165   2.443  0.1594 -0.0903  0.7260
 9371SOL    HW130313   3.573   6.188   2.533 -0.2759  1.1099  0.5534
 9371SOL    HW230314   3.605   6.090   2.422  0.8265  0.1005  1.7316
 9372SOL     OW30315   1.862   6.419   5.934  0.3818 -0.4748 -0.0203
 9372SOL    HW130316   1.837   6.462   5.853  0.5365 -0.3880 -0.0227
 9372SOL    HW230317   1.926   6.353   5.908 -0.1832 -1.0147 -0.0757
 9373SOL     OW30318   3.587   0.178   9.214  0.5725 -0.2587  0.1573
 9373SOL    HW130319   3.670   0.136   9.238  0.9584  0.0764 -0.5826
 9373SOL    HW230320   3.528   0.105   9.194  0.7634 -0.4874  0.4108
 9374SOL     OW30321   6.680   0.317   0.385 -0.2483  0.1900 -0.0688
 9374SOL    HW130322   6.596   0.305   0.429 -0.7686  1.0882 -0.7679
 9374SOL    HW230323   6.731   0.240   0.409 -1.0875 -0.1283  0.7747
 9375SOL     OW30324   3.570   2.649   4.229  0.0208  0.0812 -0.3121
 9375SOL    HW130325   3.531   2.570   4.192 -1.5972  1.1240 -0.9569
 9375SOL    HW230326   3.568   2.713   4.157  0.6128  0.9325  0.4046
 9376SOL     OW30327   4.108   8.666   0.396 -0.4265 -0.5664  0.4590
 9376SOL    HW130328   4.185   8.655   0.341 -0.1185 -0.4360  0.8610
 9376SOL    HW230329   4.049   8.595   0.369 -0.6820  0.0751 -0.6947
 9377SOL     OW30330   6.050   2.660   5.866  0.3307 -0.0228 -0.1626
 9377SOL    HW130331   6.107   2.685   5.793  0.0424  0.8536 -0.1056
 9377SOL    HW230332   6.101   2.681   5.944 -0.4759  1.9307 -0.0864
 9378SOL     OW30333   4.781   3.663   7.655  0.0845  0.5489  0.4399
 9378SOL    HW130334   4.836   3.669   7.733  0.8462  0.7244 -0.0989
 9378SOL    HW230335   4.838   3.623   7.589 -0.7256 -0.1215  0.1303
 9379SOL     OW30336   3.253   6.666   2.209 -0.1566  0.1676 -0.3758
 9379SOL    HW130337   3.346   6.659   2.231 -0.2632 -1.1177 -0.2838
 9379SOL    HW230338   3.213   6.589   2.248 -1.2954  0.7666 -0.3217
 9380SOL     OW30339   9.434   2.814   7.615  0.0587 -0.2270 -0.4492
 9380SOL    HW130340   9.412   2.863   7.695  1.8210  0.9123 -0.6088
 9380SOL    HW230341   9.515   2.854   7.584  0.6527 -2.1590 -1.5536
 9381SOL     OW30342   0.703   6.522   4.096 -0.7134 -0.4522 -0.1502
 9381SOL    HW130343   0.684   6.527   4.003  0.6253 -1.4561 -0.5078
 9381SOL    HW230344   0.684   6.431   4.120 -1.4854 -0.0954  0.6803
 9382SOL     OW30345   1.392   5.878   3.192 -0.0776  0.0830 -0.2227
 9382SOL    HW130346   1.404   5.856   3.284 -0.3660 -0.6045 -0.3404
 9382SOL    HW230347   1.397   5.794   3.146  1.2428  0.5260 -0.9762
 9383SOL     OW30348   7.191   2.299   3.857  0.0726 -0.6914 -0.7191
 9383SOL    HW130349   7.201   2.234   3.925  2.5454 -0.3203 -0.6496
 9383SOL    HW230350   7.272   2.295   3.806 -0.4871  1.0190 -1.8755
 9384SOL     OW30351   3.634   3.379   9.013  0.0226  0.6161 -1.0753
 9384SOL    HW130352   3.669   3.453   8.963  0.9055  0.7017 -0.3588
 9384SOL    HW230353   3.692   3.372   9.089 -1.4164  0.6392  0.0705
 9385SOL     OW30354   4.570   2.412   2.880 -0.0770 -0.2480  0.0345
 9385SOL    HW130355   4.634   2.353   2.919 -1.5204 -0.9739  1.3702
 9385SOL    HW230356   4.517   2.357   2.823 -0.9547 -0.1257  0.7066
 9386SOL     OW30357   0.335   1.376   6.757 -0.4452 -0.0257  0.0421
 9386SOL    HW130358   0.276   1.316   6.710 -1.1529  1.0326 -0.4746
 9386SOL    HW230359   0.276   1.437   6.800  0.2680  0.3200  0.5364
 9387SOL     OW30360   3.719   9.387   1.950 -0.5157  0.0636 -0.3160
 9387SOL    HW130361   3.635   9.404   1.907 -0.4916  0.8551 -0.0570
 9387SOL    HW230362   3.748   9.472   1.982 -0.5916 -0.4903  1.3630
 9388SOL     OW30363   5.471   6.683   8.550 -0.6971 -0.2790  0.5682
 9388SOL    HW130364   5.430   6.759   8.591  1.8230  0.7827  1.3110
 9388SOL    HW230365   5.465   6.700   8.456 -1.1034  0.2925  0.6918
 9389SOL     OW30366   3.656   3.955   3.661 -0.0014  0.4148 -0.3060
 9389SOL    HW130367   3.580   3.946   3.603 -0.1178 -1.2726  0.0612
 9389SOL    HW230368   3.619   3.955   3.749  0.3962  0.1210 -0.1399
 9390SOL     OW30369   8.137   2.896   1.914  0.4099  0.1396  0.7321
 9390SOL    HW130370   8.099   2.922   1.998  0.2499 -3.2332  1.8291
 9390SOL    HW230371   8.088   2.818   1.889  1.6636  0.0316 -1.6368
 9391SOL     OW30372   0.528   3.537   5.152 -0.5772  0.4560  0.0302
 9391SOL    HW130373   0.586   3.499   5.218  0.5673  0.8966 -0.6802
 9391SOL    HW230374   0.466   3.591   5.201 -1.8796 -1.7991  1.0104
 9392SOL     OW30375   3.127   2.904   7.797  0.4503  0.0602  0.4128
 9392SOL    HW130376   3.058   2.930   7.858  0.2944 -0.2433  0.3676
 9392SOL    HW230377   3.178   2.838   7.846  1.4043  1.0971  0.8789
 9393SOL     OW30378   5.079   3.866   7.828  0.0084 -0.5647 -0.2509
 9393SOL    HW130379   4.996   3.900   7.794  0.3956 -0.7074 -1.3789
 9393SOL    HW230380   5.127   3.944   7.855 -1.4627 -0.5830  2.8901
 9394SOL     OW30381   4.271   3.039   3.572 -0.1750  0.1794  0.2888
 9394SOL    HW130382   4.225   3.001   3.497  0.0769 -1.7782  1.0783
 9394SOL    HW230383   4.203   3.056   3.636 -0.0918 -0.5411  0.5741
 9395SOL     OW30384   2.226   7.021   2.065  0.1532 -0.0764 -0.0768
 9395SOL    HW130385   2.173   7.100   2.076  0.2098  0.1357 -1.2362
 9395SOL    HW230386   2.314   7.048   2.093  1.0389  1.3977 -3.7578
 9396SOL     OW30387   5.389   8.019   8.217  0.1781 -0.0851 -0.1110
 9396SOL    HW130388   5.460   7.974   8.263  0.5841 -1.5091 -2.0316
 9396SOL    HW230389   5.320   8.027   8.283  1.4790 -0.1742  1.3242
 9397SOL     OW30390   4.061   8.606   1.322  0.2512  0.3299  0.2339
 9397SOL    HW130391   3.971   8.575   1.322  1.2793 -3.1543 -0.5414
 9397SOL    HW230392   4.070   8.654   1.239 -0.5257 -0.5986 -0.4014
 9398SOL     OW30393   7.299   2.341   6.703  0.0198 -0.1362  0.0426
 9398SOL    HW130394   7.258   2.330   6.617 -0.0793  0.3610  0.0229
 9398SOL    HW230395   7.309   2.435   6.713 -1.5739 -0.0571  1.3302
 9399SOL     OW30396   0.724   7.149   2.722  0.3265 -0.3460  0.1474
 9399SOL    HW130397   0.695   7.193   2.802  1.5860  0.8890 -0.0293
 9399SOL    HW230398   0.731   7.219   2.657 -0.5475 -1.3074 -1.0369
 9400SOL     OW30399   3.255   8.142   0.724 -0.2718 -0.3789  0.2617
 9400SOL    HW130400   3.292   8.229   0.735 -0.2174 -0.0729 -1.9527
 9400SOL    HW230401   3.186   8.136   0.790  0.1803  1.0615  0.8956
 9401SOL     OW30402   9.538   5.387   6.282 -0.2072  0.4939  0.7247
 9401SOL    HW130403   9.596   5.459   6.254 -0.3494  0.1522 -0.4800
 9401SOL    HW230404   9.566   5.312   6.229  1.4369 -1.0111  3.4800
 9402SOL     OW30405   2.053   5.519   6.237 -0.1274 -0.1651  0.0033
 9402SOL    HW130406   1.999   5.544   6.312  0.3431  0.2265  0.2137
 9402SOL    HW230407   2.138   5.559   6.253  0.0617 -0.3013 -0.6083
 9403SOL     OW30408   7.565   3.506   1.245 -0.4333  0.1680 -0.3249
 9403SOL    HW130409   7.514   3.586   1.244  1.2070  1.3066  0.9632
 9403SOL    HW230410   7.547   3.466   1.330 -1.4829 -1.0364 -1.0790
 9404SOL     OW30411   0.970   5.467   3.584  0.3794  0.5149  0.1226
 9404SOL    HW130412   1.032   5.431   3.521  0.5637 -2.0069  1.6191
 9404SOL    HW230413   0.899   5.403   3.587  0.8404  0.0240  3.0989
 9405SOL     OW30414   6.805   6.663   3.826 -0.3663  0.0312 -0.0364
 9405SOL    HW130415   6.794   6.734   3.888  2.8297  1.0557 -0.4566
 9405SOL    HW230416   6.786   6.702   3.741  0.3186  0.1086 -0.1613
 9406SOL     OW30417   3.467   7.936   0.500 -0.3557 -0.0072 -0.1697
 9406SOL    HW130418   3.425   7.855   0.529 -3.6140  0.9766 -1.6898
 9406SOL    HW230419   3.465   7.993   0.577  0.7601 -0.8788  0.5349
 9407SOL     OW30420   2.883   6.403   4.977 -0.1914 -0.4075  0.5130
 9407SOL    HW130421   2.822   6.335   5.006 -0.6873  0.3745  1.3675
 9407SOL    HW230422   2.928   6.430   5.057  1.1367 -0.8244 -0.0747
 9408SOL     OW30423   8.067   6.645   3.522 -0.3081  0.0809  0.2142
 9408SOL    HW130424   8.136   6.609   3.466 -2.3257 -3.2620 -0.4067
 9408SOL    HW230425   8.090   6.614   3.610 -0.0071  0.6589  0.3425
 9409SOL     OW30426   5.302   9.291   3.686  0.0093  0.5160  0.5301
 9409SOL    HW130427   5.315   9.386   3.685 -1.1892  0.6857 -0.2576
 9409SOL    HW230428   5.214   9.279   3.721 -0.7765 -0.1659 -1.5822
 9410SOL     OW30429   7.404   3.554   2.085  0.1930 -0.3197  0.2065
 9410SOL    HW130430   7.331   3.585   2.032  0.3253 -1.3893 -0.6200
 9410SOL    HW230431   7.431   3.631   2.135 -0.6302  0.4333 -0.4773
 9411SOL     OW30432   4.749   5.472   3.024 -0.0302  0.0961 -0.1540
 9411SOL    HW130433   4.771   5.474   2.930 -1.3243 -0.1606 -0.4743
 9411SOL    HW230434   4.676   5.534   3.032  0.3515  0.4413  0.7749
 9412SOL     OW30435   0.681   1.747   3.343 -0.1722  0.3854  0.2856
 9412SOL    HW130436   0.645   1.827   3.382  1.3708  2.2089 -1.7937
 9412SOL    HW230437   0.690   1.768   3.250  1.9442 -1.5722 -0.0243
 9413SOL     OW30438   1.631   3.749   0.395  0.5066 -0.1482 -0.1059
 9413SOL    HW130439   1.686   3.754   0.317  1.9661 -1.9753  0.7220
 9413SOL    HW230440   1.687   3.781   0.466  0.8772 -2.6604  0.8666
 9414SOL     OW30441   5.088   0.112   0.014 -0.4235 -0.3267  0.0107
 9414SOL    HW130442   5.030   0.044  -0.020 -0.0363 -0.1783 -0.9877
 9414SOL    HW230443   5.122   0.076   0.096  1.1115 -2.1405 -1.3077
 9415SOL     OW30444   8.267   6.628   1.406  0.4396 -0.2438 -0.0814
 9415SOL    HW130445   8.307   6.541   1.396  2.0251  0.5377 -0.9030
 9415SOL    HW230446   8.186   6.623   1.354 -0.1950 -1.6146  0.9662
 9416SOL     OW30447   3.595   8.034   2.961  0.3970 -0.1391 -0.0000
 9416SOL    HW130448   3.549   8.068   2.884  0.6734  2.8557  1.0305
 9416SOL    HW230449   3.528   7.985   3.009  0.0045 -1.3232 -1.6702
 9417SOL     OW30450   4.851   8.139   3.958  0.2866  0.3741 -0.2247
 9417SOL    HW130451   4.847   8.161   3.865 -1.9115 -0.8092 -0.4753
 9417SOL    HW230452   4.837   8.045   3.961 -2.5019  0.7249  1.3940
 9418SOL     OW30453   1.275   5.208   7.630  0.1242 -0.3743 -0.1002
 9418SOL    HW130454   1.335   5.265   7.582  1.4582 -0.0575  1.8549
 9418SOL    HW230455   1.256   5.137   7.568  1.9746 -0.1310 -1.0187
 9419SOL     OW30456   8.253   8.979   3.849 -0.1723  0.1781  0.1788
 9419SOL    HW130457   8.322   9.032   3.809 -0.3294  2.0197  2.1684
 9419SOL    HW230458   8.298   8.904   3.886  0.4281  0.2069 -0.4788
 9420SOL     OW30459   9.157   8.073   4.461 -0.0910  0.5861  0.4075
 9420SOL    HW130460   9.194   7.999   4.509  2.4757  2.1943  1.0637
 9420SOL    HW230461   9.232   8.129   4.440 -2.0192  3.8278  1.3600
 9421SOL     OW30462   1.503   7.739   7.173 -0.7535 -0.7146  0.0651
 9421SOL    HW130463   1.545   7.727   7.259 -0.0109 -0.6610 -0.2797
 9421SOL    HW230464   1.438   7.808   7.187 -0.6049 -0.6744  0.5778
 9422SOL     OW30465   9.421   7.911   7.057 -0.0528 -0.7941 -0.4700
 9422SOL    HW130466   9.515   7.926   7.054 -0.2113  0.1816 -1.9133
 9422SOL    HW230467   9.382   7.997   7.039 -1.2750 -0.8490  1.6121
 9423SOL     OW30468   3.571   6.500   7.203 -0.1025  0.1839 -0.4747
 9423SOL    HW130469   3.536   6.573   7.253 -0.4304  0.2340 -0.7759
 9423SOL    HW230470   3.586   6.535   7.115 -2.4283 -0.6572 -1.2899
 9424SOL     OW30471   4.073   5.305   0.463 -0.1690  0.1882 -0.2477
 9424SOL    HW130472   4.040   5.315   0.552  0.8768  1.0441  0.0698
 9424SOL    HW230473   4.096   5.394   0.436  2.2180 -0.3702 -0.2809
 9425SOL     OW30474   4.711   7.138   1.050  0.3253  0.4729 -0.4843
 9425SOL    HW130475   4.797   7.097   1.060  0.5448  0.9883 -0.2350
 9425SOL    HW230476   4.730   7.230   1.032 -0.1635  0.4503 -1.1395
 9426SOL     OW30477   2.860   5.602   3.223 -0.5462  0.0454 -0.3718
 9426SOL    HW130478   2.945   5.645   3.228 -0.8072  0.5211  0.0974
 9426SOL    HW230479   2.822   5.634   3.141  0.2740 -1.2177 -1.2724
 9427SOL     OW30480   1.732   5.563   5.263 -0.1985  0.0409  0.3192
 9427SOL    HW130481   1.751   5.621   5.338  1.0189 -0.7441  0.6472
 9427SOL    HW230482   1.732   5.475   5.301 -1.6618 -0.2288 -0.2459
 9428SOL     OW30483   3.906   1.009   6.826  0.5472  0.2316 -0.3508
 9428SOL    HW130484   3.900   0.929   6.878  1.4367  0.6964  0.5103
 9428SOL    HW230485   3.815   1.037   6.814  0.2650 -0.5580 -0.1225
 9429SOL     OW30486   0.772   3.404   9.034 -0.6754  0.0744 -0.8464
 9429SOL    HW130487   0.757   3.368   9.121  0.7629  2.1588  0.3644
 9429SOL    HW230488   0.685   3.420   8.999 -1.2763 -1.0984  0.0586
 9430SOL     OW30489   8.177   5.788   6.895  0.0016 -0.0446 -0.1870
 9430SOL    HW130490   8.244   5.855   6.905 -0.2482  0.3056 -0.8319
 9430SOL    HW230491   8.215   5.711   6.938  0.9929  0.0349 -0.8758
 9431SOL     OW30492   6.179   4.376   0.030  0.3259  0.4423  0.6436
 9431SOL    HW130493   6.104   4.433   0.046  1.6081  1.8739  1.8882
 9431SOL    HW230494   6.188   4.374  -0.066  0.4995  2.7747  0.5471
 9432SOL     OW30495   8.477   3.029   7.766 -0.0751 -0.2102 -0.4557
 9432SOL    HW130496   8.513   2.987   7.687 -1.0938 -1.3557 -0.3336
 9432SOL    HW230497   8.553   3.039   7.824  0.2657 -1.6149 -0.6172
 9433SOL     OW30498   0.050   1.948   2.923  0.2683 -0.0049  0.2332
 9433SOL    HW130499   0.062   1.855   2.940  0.5877 -0.1893 -0.8924
 9433SOL    HW230500   0.132   1.975   2.882  0.0937  0.7200  0.3480
 9434SOL     OW30501   8.439   4.832   4.881  0.3945  0.3364 -0.2787
 9434SOL    HW130502   8.434   4.915   4.929  0.2641  0.0355  0.2459
 9434SOL    HW230503   8.379   4.774   4.929  0.8272 -0.1924 -0.3622
 9435SOL     OW30504   0.067   6.792   6.671  0.1628  0.4776 -0.5176
 9435SOL    HW130505   0.039   6.766   6.583  0.3545 -0.4411 -0.3176
 9435SOL    HW230506   0.057   6.887   6.672 -2.0870  0.2948 -0.7418
 9436SOL     OW30507   1.566   8.420   6.301 -0.2857 -0.5435 -0.1957
 9436SOL    HW130508   1.510   8.360   6.252 -2.9181  0.8291  0.9270
 9436SOL    HW230509   1.613   8.364   6.362 -0.7594 -1.7108 -0.8593
 9437SOL     OW30510   1.001   0.610   2.873 -0.3762  0.2879 -0.5018
 9437SOL    HW130511   1.053   0.682   2.910 -2.6374  0.6788  2.2975
 9437SOL    HW230512   0.930   0.597   2.936 -1.7636 -2.4524 -2.4148
 9438SOL     OW30513   2.406   2.663   8.769  0.7207 -0.1033 -0.9566
 9438SOL    HW130514   2.357   2.616   8.837  1.5421  0.3098 -0.0577
 9438SOL    HW230515   2.410   2.602   8.696  0.3207 -0.7878 -0.4228
 9439SOL     OW30516   3.010   6.062   9.092 -0.4697  0.3523  0.6439
 9439SOL    HW130517   2.991   5.980   9.138 -2.0975  0.1653 -0.3095
 9439SOL    HW230518   2.959   6.127   9.139 -0.4318  0.5453  0.4150
 9440SOL     OW30519   4.802   3.699   1.657 -0.5145  0.7467  0.2850
 9440SOL    HW130520   4.889   3.683   1.619 -1.0492 -0.3372 -0.5485
 9440SOL    HW230521   4.812   3.780   1.707  0.7211  1.1862 -0.6218
 9441SOL     OW30522   1.835   4.914   0.903 -0.2267 -0.1496 -0.5480
 9441SOL    HW130523   1.919   4.891   0.943 -0.2237 -0.0458 -0.4951
 9441SOL    HW230524   1.822   4.848   0.835  0.7102  0.8166 -1.7223
 9442SOL     OW30525   6.194   3.075   2.469 -0.6448 -0.1402 -0.7835
 9442SOL    HW130526   6.209   3.070   2.563 -3.4873  1.0248 -0.1881
 9442SOL    HW230527   6.136   3.150   2.457 -0.8438 -0.5969 -3.4187
 9443SOL     OW30528   0.064   0.203   4.584 -0.7385  0.1323 -0.1586
 9443SOL    HW130529  -0.019   0.245   4.559 -0.1045  1.6799  0.2312
 9443SOL    HW230530   0.131   0.269   4.566  0.1247  0.0115  2.1775
 9444SOL     OW30531   3.982   8.608   5.945 -0.7098  0.5638  0.2747
 9444SOL    HW130532   3.892   8.632   5.968 -0.6042  0.3192  0.9921
 9444SOL    HW230533   4.036   8.660   6.005 -0.4402 -0.5377  1.0088
 9445SOL     OW30534   2.061   8.876   0.866  0.3289 -0.3805 -0.8362
 9445SOL    HW130535   1.981   8.879   0.813  0.2579 -0.3353 -0.7283
 9445SOL    HW230536   2.030   8.859   0.955  0.2379  1.7290 -0.3981
 9446SOL     OW30537   0.365   1.362   3.858 -0.6102  0.2622 -0.5328
 9446SOL    HW130538   0.377   1.378   3.764 -1.3014 -1.2571 -0.8980
 9446SOL    HW230539   0.304   1.431   3.886  1.9922  2.7243 -0.4563
 9447SOL     OW30540   6.543   9.062   6.479  0.1719  0.2209  0.1237
 9447SOL    HW130541   6.524   8.970   6.460  1.6796 -0.1863  0.4278
 9447SOL    HW230542   6.546   9.104   6.393  1.5125 -0.4708 -0.2002
 9448SOL     OW30543   9.274   9.444   6.434  0.1009  0.3309 -0.3955
 9448SOL    HW130544   9.291   9.392   6.512  1.5097 -0.7804 -1.3956
 9448SOL    HW230545   9.189   9.414   6.403 -0.2744  0.4841  0.4494
 9449SOL     OW30546   6.061   4.465   0.321  0.2565 -0.2710 -0.4409
 9449SOL    HW130547   5.995   4.438   0.257 -0.1196 -0.1706 -0.1008
 9449SOL    HW230548   6.018   4.535   0.371  0.7392  0.0244 -0.4333
 9450SOL     OW30549   8.082   2.189   6.390 -0.2464  0.1541  0.0637
 9450SOL    HW130550   8.107   2.280   6.370 -0.9828  0.2232 -0.6195
 9450SOL    HW230551   7.986   2.191   6.392 -0.3708 -0.9740 -1.8959
 9451SOL     OW30552   3.835   6.989   6.644  0.0163  0.0436  0.2724
 9451SOL    HW130553   3.814   7.069   6.595 -0.2013  0.3716  0.8868
 9451SOL    HW230554   3.927   6.998   6.666  0.0743 -0.0304  0.0636
 9452SOL     OW30555   1.518   5.814   2.787  0.3462 -0.1842  0.2651
 9452SOL    HW130556   1.489   5.882   2.848 -1.2060 -0.2636 -0.3378
 9452SOL    HW230557   1.611   5.832   2.774 -0.0023  1.7785  0.1966
 9453SOL     OW30558   8.191   1.270   8.838  0.2437 -0.0879  0.4503
 9453SOL    HW130559   8.276   1.253   8.879 -0.1097 -1.1525  0.7780
 9453SOL    HW230560   8.209   1.266   8.744  0.3507 -1.5413  0.5112
 9454SOL     OW30561   3.368   4.512   6.913  0.3853  0.3239 -0.4423
 9454SOL    HW130562   3.331   4.460   6.983  0.8599 -0.0052 -0.4293
 9454SOL    HW230563   3.310   4.587   6.905  0.7900  0.8137  0.8898
 9455SOL     OW30564   0.930   6.587   6.854  0.7782 -0.2212  0.0288
 9455SOL    HW130565   0.884   6.522   6.909 -0.8572  0.9982  0.1777
 9455SOL    HW230566   1.022   6.565   6.864  0.3951 -1.2769  1.6898
 9456SOL     OW30567   2.031   4.812   5.564  0.4066 -0.3225  0.3903
 9456SOL    HW130568   2.091   4.763   5.621 -0.5833 -2.1197 -0.0270
 9456SOL    HW230569   1.989   4.875   5.623 -0.7149 -2.2399  1.7820
 9457SOL     OW30570   5.741   7.985   8.610 -0.4565 -0.1373 -0.5230
 9457SOL    HW130571   5.801   8.010   8.540  0.6079  0.4100  0.5339
 9457SOL    HW230572   5.727   7.891   8.599  2.1044 -0.6935  0.2608
 9458SOL     OW30573   1.004   8.297   3.446  0.3299  0.5323  0.0871
 9458SOL    HW130574   1.021   8.251   3.364 -0.5142  0.5132 -0.0946
 9458SOL    HW230575   1.048   8.244   3.513 -0.6569 -0.6084 -0.1114
 9459SOL     OW30576   4.663   1.263   0.071 -0.1242  0.1062  0.5376
 9459SOL    HW130577   4.645   1.188   0.129 -0.6993 -1.0408 -1.0370
 9459SOL    HW230578   4.593   1.260   0.006  0.0203  1.8618  0.2555
 9460SOL     OW30579   0.630   3.335   1.605  0.0359  0.1868 -0.4330
 9460SOL    HW130580   0.574   3.303   1.534 -2.7934  0.5991  1.4837
 9460SOL    HW230581   0.673   3.257   1.638  0.0239 -0.2671 -1.4486
 9461SOL     OW30582   7.149   5.638   2.852 -0.6070 -0.2585  0.3054
 9461SOL    HW130583   7.107   5.664   2.934 -2.9943 -0.6997 -0.6861
 9461SOL    HW230584   7.147   5.542   2.853  0.6401 -0.3061  0.3093
 9462SOL     OW30585   3.275   7.659   3.289 -0.0970 -0.0498  0.0369
 9462SOL    HW130586   3.253   7.740   3.243  1.7255 -0.7038 -2.2139
 9462SOL    HW230587   3.297   7.687   3.378 -1.5182  1.6124 -0.0875
 9463SOL     OW30588   7.749   7.856   3.561  0.0362  0.1226  0.3080
 9463SOL    HW130589   7.689   7.852   3.635  0.4912 -0.3262  0.6543
 9463SOL    HW230590   7.697   7.826   3.486  0.6084 -3.3305  1.1181
 9464SOL     OW30591   3.787   2.835   7.807  0.1071  0.0138 -0.4864
 9464SOL    HW130592   3.766   2.839   7.714  0.3659  0.4772 -0.5273
 9464SOL    HW230593   3.849   2.906   7.821  1.2162 -0.9581 -0.2679
 9465SOL     OW30594   0.893   5.209   6.977 -0.1481  0.3396 -0.6189
 9465SOL    HW130595   0.939   5.269   7.036 -0.5242 -1.2471  1.3985
 9465SOL    HW230596   0.957   5.189   6.909  0.9922  0.7283  0.3039
 9466SOL     OW30597   5.093   1.984   4.380 -0.4243 -0.2777  0.1908
 9466SOL    HW130598   5.045   2.020   4.455 -1.0194 -0.9843  0.1650
 9466SOL    HW230599   5.090   1.889   4.393  0.1162 -0.3724 -0.3403
 9467SOL     OW30600   8.176   0.245   0.806 -0.2246  0.3670  0.1933
 9467SOL    HW130601   8.271   0.243   0.814 -0.2796 -0.2451  0.7610
 9467SOL    HW230602   8.153   0.338   0.814  0.2126  0.3886  1.4050
 9468SOL     OW30603   0.523   0.054   1.315  0.0471 -0.7293 -0.5591
 9468SOL    HW130604   0.431   0.030   1.305 -0.3370 -0.4867  1.8409
 9468SOL    HW230605   0.525   0.147   1.295 -0.1745 -0.7913 -0.8835
 9469SOL     OW30606   8.649   4.071   3.590  0.0669 -0.0661 -0.1947
 9469SOL    HW130607   8.603   3.999   3.633  0.3870 -0.2949 -0.2309
 9469SOL    HW230608   8.590   4.100   3.520  0.0062 -0.4011 -0.2806
 9470SOL     OW30609   4.355   2.507   7.799 -0.4697  0.4273  0.0685
 9470SOL    HW130610   4.441   2.517   7.758 -0.2132  0.6702  0.6542
 9470SOL    HW230611   4.361   2.424   7.847 -0.4649  0.5812  0.3370
 9471SOL     OW30612   4.176   3.869   3.539  0.0546 -0.2313 -0.1445
 9471SOL    HW130613   4.088   3.881   3.576  0.9430 -0.1290  2.1273
 9471SOL    HW230614   4.207   3.788   3.580  1.0048 -0.2777 -0.9485
 9472SOL     OW30615   7.321   1.325   3.340  0.1408  0.6707  0.1334
 9472SOL    HW130616   7.310   1.394   3.406 -1.5199  0.9894 -0.4262
 9472SOL    HW230617   7.311   1.370   3.256 -2.9598 -0.4368 -0.2375
 9473SOL     OW30618   3.875   2.684   9.360  0.2015  0.1829 -0.0858
 9473SOL    HW130619   3.792   2.713   9.323  0.1884  0.6537  0.2998
 9473SOL    HW230620   3.938   2.751   9.333  0.6332 -0.6062 -1.0901
 9474SOL     OW30621   8.878   2.258   8.175 -0.1443 -0.5373  0.2416
 9474SOL    HW130622   8.818   2.253   8.249  0.5009  1.6512  0.9783
 9474SOL    HW230623   8.965   2.244   8.213  0.3949  2.4505  0.3261
 9475SOL     OW30624   5.580   6.069   4.343 -0.2686  0.2770  0.1879
 9475SOL    HW130625   5.629   6.100   4.419  1.9383 -0.4708 -0.8384
 9475SOL    HW230626   5.534   5.991   4.374  0.2114  0.2551  0.8773
 9476SOL     OW30627   7.132   5.742   1.720 -0.0475 -0.3556  0.1562
 9476SOL    HW130628   7.186   5.720   1.796  1.2367 -1.4748 -1.0203
 9476SOL    HW230629   7.058   5.790   1.756  1.0673  0.0765  1.9830
 9477SOL     OW30630   9.090   7.347   7.922 -0.1782 -0.3285  0.0440
 9477SOL    HW130631   9.096   7.274   7.862 -0.8486  0.2840 -0.7865
 9477SOL    HW230632   8.997   7.370   7.925  0.2604  2.1027 -1.7440
 9478SOL     OW30633   3.243   2.630   0.046  0.1590 -0.0292 -0.3822
 9478SOL    HW130634   3.229   2.557   0.106  2.6258  0.7368  1.3013
 9478SOL    HW230635   3.156   2.652   0.014 -1.0537 -1.5976  1.6215
 9479SOL     OW30636   8.904   0.093   1.988 -0.4813 -0.0793 -0.0691
 9479SOL    HW130637   8.839   0.162   1.971 -2.3384 -2.0183 -1.2526
 9479SOL    HW230638   8.987   0.134   1.964 -1.4475  1.9041 -0.3108
 9480SOL     OW30639   5.101   8.024   9.066  0.1806 -0.1380  0.3396
 9480SOL    HW130640   5.191   8.051   9.051 -0.2838  1.6599  0.6408
 9480SOL    HW230641   5.057   8.039   8.982 -0.0986  0.1020  0.5281
 9481SOL     OW30642   0.557   2.955   2.572  0.4377  0.5136  0.4832
 9481SOL    HW130643   0.551   2.876   2.518  1.5627  0.8516 -0.1569
 9481SOL    HW230644   0.629   3.005   2.534 -0.5244  2.0684  0.6195
 9482SOL     OW30645   1.296   5.247   3.024  0.2750  0.4675  0.2851
 9482SOL    HW130646   1.213   5.243   2.977  0.5989 -0.4080 -0.2297
 9482SOL    HW230647   1.276   5.297   3.104 -0.8686 -0.1733  0.4167
 9483SOL     OW30648   1.364   5.348   4.790  0.3815  0.2813 -0.2993
 9483SOL    HW130649   1.415   5.427   4.777  2.2412 -0.8251 -0.0839
 9483SOL    HW230650   1.354   5.342   4.886  0.0200  0.3673 -0.3281
 9484SOL     OW30651   0.102   2.342   4.549  0.3814 -0.1804  0.7260
 9484SOL    HW130652   0.088   2.426   4.505  0.2897 -0.9345 -0.7417
 9484SOL    HW230653   0.037   2.340   4.619 -1.5398 -0.1810 -0.9676
 9485SOL     OW30654   5.159   8.561   0.212 -0.4602  0.1056  0.3729
 9485SOL    HW130655   5.161   8.591   0.122 -0.7434  2.0589  0.9686
 9485SOL    HW230656   5.233   8.501   0.220 -0.4999 -0.1705 -1.1610
 9486SOL     OW30657   4.736   3.844   7.467 -0.1247  0.1011 -0.1198
 9486SOL    HW130658   4.722   3.779   7.537 -2.0861  1.1580  0.5621
 9486SOL    HW230659   4.730   3.794   7.386 -0.6414 -0.7354  0.4171
 9487SOL     OW30660   6.289   5.708   2.528 -0.5237  0.2700 -0.3311
 9487SOL    HW130661   6.371   5.660   2.515 -0.2718  0.5130  0.3413
 9487SOL    HW230662   6.257   5.724   2.439  0.9669  1.5644 -0.6951
 9488SOL     OW30663   2.548   8.570   6.376  0.7930 -0.5659  0.3752
 9488SOL    HW130664   2.537   8.664   6.365 -0.5020 -0.4869  1.9600
 9488SOL    HW230665   2.640   8.559   6.400  0.9212  0.2965  0.3087
 9489SOL     OW30666   5.353   4.212   5.312  0.0788 -0.4319  0.3868
 9489SOL    HW130667   5.339   4.187   5.403  0.2996 -1.7075  0.0912
 9489SOL    HW230668   5.307   4.146   5.261  0.4493 -0.0755 -0.4337
 9490SOL     OW30669   5.185   3.658   1.430 -0.5507 -0.2810  0.3975
 9490SOL    HW130670   5.213   3.624   1.345 -1.2213 -1.0260  0.4618
 9490SOL    HW230671   5.153   3.746   1.412 -1.5520 -0.7628 -0.2907
 9491SOL     OW30672   5.725   6.090   2.099 -1.0482  0.2559  1.0659
 9491SOL    HW130673   5.679   6.045   2.170 -0.6120  0.3310  1.4008
 9491SOL    HW230674   5.695   6.181   2.104 -1.2682  0.1932  0.9377
 9492SOL     OW30675   3.517   4.768   0.999 -0.2221  0.3037 -0.1935
 9492SOL    HW130676   3.433   4.812   0.982 -0.7611 -0.4499  0.4742
 9492SOL    HW230677   3.545   4.737   0.913 -0.1825  1.3266 -0.5617
 9493SOL     OW30678   8.587   2.048   5.613  0.4915 -0.6678  0.2982
 9493SOL    HW130679   8.649   2.041   5.540  0.5320  0.2693  0.2377
 9493SOL    HW230680   8.638   2.083   5.685 -0.2243  1.3644 -0.1180
 9494SOL     OW30681   2.083   0.889   6.538  0.0926 -0.4193  0.5620
 9494SOL    HW130682   2.103   0.899   6.445  2.7438 -0.3443  1.0674
 9494SOL    HW230683   2.057   0.977   6.566 -0.0188 -0.2819  0.0419
 9495SOL     OW30684   6.731   4.319   3.359 -0.2810 -0.0109  0.0895
 9495SOL    HW130685   6.816   4.351   3.389 -1.1884  1.6749  1.0509
 9495SOL    HW230686   6.708   4.250   3.420  0.9468 -1.4367 -0.9784
 9496SOL     OW30687   0.726   1.341   2.174  0.1943  0.2149 -0.4797
 9496SOL    HW130688   0.783   1.402   2.127  0.3960  0.9201  0.6398
 9496SOL    HW230689   0.783   1.299   2.238 -0.6147  1.4111  1.1027
 9497SOL     OW30690   9.118   5.800   6.946 -0.3496 -0.0719 -0.5425
 9497SOL    HW130691   9.119   5.765   6.857  1.5990 -1.1485 -0.1611
 9497SOL    HW230692   9.211   5.807   6.970 -0.8245  0.5423  1.2693
 9498SOL     OW30693   3.894   3.313   0.808 -0.3262  0.8874 -0.2854
 9498SOL    HW130694   3.983   3.344   0.824  0.2227 -0.3258 -0.8394
 9498SOL    HW230695   3.859   3.373   0.741  0.6042  0.5111 -1.1302
 9499SOL     OW30696   5.720   6.401   1.154 -0.2131  0.4328 -0.0588
 9499SOL    HW130697   5.664   6.323   1.156  3.0662 -2.1584  2.5042
 9499SOL    HW230698   5.712   6.439   1.241  0.1631  1.5263 -0.4802
 9500SOL     OW30699   2.555   9.209   0.565  0.1969 -0.2709  0.1829
 9500SOL    HW130700   2.595   9.205   0.652  0.2128 -1.9655  0.1398
 9500SOL    HW230701   2.580   9.125   0.524  0.7524  0.7575 -1.7038
 9501SOL     OW30702   1.978   7.064   4.865  0.3987 -0.2678  0.4617
 9501SOL    HW130703   1.985   7.108   4.781  2.2660 -1.2565  0.0363
 9501SOL    HW230704   1.912   7.114   4.914  0.5457  1.3659 -0.9306
 9502SOL     OW30705   3.497   1.108   0.177 -0.0752 -0.2834 -0.4000
 9502SOL    HW130706   3.481   1.082   0.086 -1.2041 -0.9791 -0.0120
 9502SOL    HW230707   3.561   1.179   0.170  1.5382 -1.7498 -1.6105
 9503SOL     OW30708   9.037   2.928   1.047 -0.2346 -0.9880  0.4847
 9503SOL    HW130709   9.107   2.993   1.056 -0.4872 -0.6972  0.3640
 9503SOL    HW230710   8.995   2.926   1.133  0.6699 -2.0408  0.9396
 9504SOL     OW30711   0.887   9.243   2.995  0.0357  0.3172  0.0204
 9504SOL    HW130712   0.932   9.317   2.954 -0.6309  0.9141  0.3476
 9504SOL    HW230713   0.800   9.277   3.016 -0.0328 -0.3474  0.8377
 9505SOL     OW30714   1.096   2.067   0.855 -0.1692 -0.9643 -0.4005
 9505SOL    HW130715   1.054   2.027   0.779  0.5099 -0.8336 -0.8537
 9505SOL    HW230716   1.157   2.001   0.887 -2.6170 -2.3089  1.9868
 9506SOL     OW30717   5.282   6.995   9.186 -0.4297  0.0168 -0.4475
 9506SOL    HW130718   5.257   6.972   9.276 -1.4782 -0.3958 -0.8271
 9506SOL    HW230719   5.332   6.919   9.156  0.9944  0.6744  0.1807
 9507SOL     OW30720   8.254   8.023   6.913  0.0137 -0.3110  0.2579
 9507SOL    HW130721   8.334   8.040   6.862  0.4357 -1.0321  0.6655
 9507SOL    HW230722   8.183   8.038   6.851  0.4857 -0.2558 -0.2791
 9508SOL     OW30723   8.280   3.121   5.214 -0.0138 -0.0410  0.2624
 9508SOL    HW130724   8.204   3.121   5.156 -0.3218 -0.5625  0.6451
 9508SOL    HW230725   8.347   3.073   5.166 -0.1860 -0.2547  0.2325
 9509SOL     OW30726   7.631   7.702   1.413  0.2665  0.3786 -0.0566
 9509SOL    HW130727   7.576   7.663   1.481  0.2390  0.7766  0.1545
 9509SOL    HW230728   7.602   7.660   1.332 -0.2280  0.4518  0.0783
 9510SOL     OW30729   4.237   4.566   4.821  0.0275 -0.0095  0.1977
 9510SOL    HW130730   4.157   4.519   4.799  0.1263  0.5690 -1.5455
 9510SOL    HW230731   4.307   4.502   4.805 -0.0910 -1.1399  3.4935
 9511SOL     OW30732   1.870   3.732   0.194  0.4600 -0.0525 -0.2513
 9511SOL    HW130733   1.817   3.653   0.184  0.5422 -0.1383 -0.0118
 9511SOL    HW230734   1.929   3.713   0.267  0.5845  0.1728 -0.2903
 9512SOL     OW30735   7.724   9.214   7.203  0.0143  0.2394 -0.5547
 9512SOL    HW130736   7.784   9.140   7.198  0.5528  0.7419 -2.2780
 9512SOL    HW230737   7.773   9.282   7.249 -0.5692 -0.5066  1.2515
 9513SOL     OW30738   0.529   0.245   5.879  0.9969  0.8050 -0.3180
 9513SOL    HW130739   0.538   0.166   5.932  0.9195  1.1932  0.2783
 9513SOL    HW230740   0.439   0.243   5.848  0.6637  1.1962  0.5786
 9514SOL     OW30741   4.989   2.281   4.022 -0.3889 -0.1348 -0.0008
 9514SOL    HW130742   5.041   2.350   3.980  1.3827 -1.6573 -0.4520
 9514SOL    HW230743   4.945   2.237   3.950  0.5896 -1.1098 -0.0279
 9515SOL     OW30744   2.342   4.598   8.749  0.2541 -0.6168 -0.0790
 9515SOL    HW130745   2.292   4.600   8.830  0.9582  1.7978  0.3860
 9515SOL    HW230746   2.383   4.512   8.747 -1.4089 -1.4760  1.0640
 9516SOL     OW30747   1.314   9.469   4.853  0.5667 -0.3566  0.2399
 9516SOL    HW130748   1.403   9.489   4.882  0.7314  0.7991 -0.9766
 9516SOL    HW230749   1.257   9.515   4.914  0.7571 -1.3814  1.2363
 9517SOL     OW30750   3.564   5.504   4.127 -0.0231 -0.7986 -0.3523
 9517SOL    HW130751   3.474   5.501   4.161 -0.1147  0.4116 -0.4423
 9517SOL    HW230752   3.577   5.418   4.086 -0.9158 -1.2162  0.2134
 9518SOL     OW30753   4.339   5.189   9.485 -0.0947  0.2296 -0.5741
 9518SOL    HW130754   4.414   5.248   9.487  1.5257 -1.7135  1.6995
 9518SOL    HW230755   4.368   5.116   9.431 -0.3166 -0.5520  0.3487
 9519SOL     OW30756   7.687   0.635   1.021 -0.0409 -0.8453  0.6958
 9519SOL    HW130757   7.593   0.643   1.039 -0.1799  2.0720 -0.6482
 9519SOL    HW230758   7.692   0.620   0.926  0.8629 -2.1174  0.9240
 9520SOL     OW30759   2.184   7.901   0.643  0.1018 -0.1338  0.0801
 9520SOL    HW130760   2.213   7.856   0.723 -1.1760  0.9156  1.1816
 9520SOL    HW230761   2.151   7.831   0.587 -1.2892 -0.6739  1.5057
 9521SOL     OW30762   8.331   2.032   9.415  0.6186  0.0607 -0.0419
 9521SOL    HW130763   8.346   2.028   9.509 -2.0958  0.7714  0.5243
 9521SOL    HW230764   8.248   1.986   9.403  0.2033  1.2083 -1.8746
 9522SOL     OW30765   7.035   5.875   3.140 -0.3872  0.4488 -0.8462
 9522SOL    HW130766   6.985   5.876   3.058 -0.1920 -1.2722 -1.0134
 9522SOL    HW230767   7.074   5.962   3.145  1.4582 -0.0806 -3.7496
 9523SOL     OW30768   6.506   1.874   3.749  0.3646 -0.2886 -0.4384
 9523SOL    HW130769   6.435   1.930   3.780  0.7983  0.1325 -0.1752
 9523SOL    HW230770   6.585   1.917   3.782  0.7240 -0.8787 -0.5253
 9524SOL     OW30771   4.765   8.018   2.932 -0.5947 -0.3576  0.5142
 9524SOL    HW130772   4.695   7.983   2.987 -1.9309  0.8213 -0.3834
 9524SOL    HW230773   4.725   8.031   2.847  0.6422  0.6446  0.0498
 9525SOL     OW30774   5.925   7.573   7.299  0.2463 -0.2166 -0.0321
 9525SOL    HW130775   5.979   7.632   7.246  0.9554 -0.2384  0.6526
 9525SOL    HW230776   5.957   7.585   7.388 -0.3383 -0.8397  0.2698
 9526SOL     OW30777   7.116   5.166   7.768 -0.0463 -0.2901  0.2397
 9526SOL    HW130778   7.022   5.175   7.785  0.0825 -0.0636  0.8472
 9526SOL    HW230779   7.127   5.072   7.750 -0.1972 -0.5466  1.4169
 9527SOL     OW30780   5.482   9.284   2.709 -0.0281 -0.2217 -0.1571
 9527SOL    HW130781   5.488   9.188   2.713  0.6644 -0.2504 -1.5441
 9527SOL    HW230782   5.543   9.315   2.776 -0.3687 -0.7403  0.4037
 9528SOL     OW30783   3.938   7.013   8.608 -0.2432 -0.2265 -0.2845
 9528SOL    HW130784   3.883   6.934   8.609 -1.2789  0.4724 -0.2165
 9528SOL    HW230785   3.879   7.083   8.636  0.5887  0.6210 -0.6129
 9529SOL     OW30786   1.726   0.514   0.073  0.1279  0.4932 -0.5331
 9529SOL    HW130787   1.770   0.434   0.043  0.0099 -0.1052  0.8123
 9529SOL    HW230788   1.681   0.547  -0.005 -1.6735 -1.9765 -0.6449
 9530SOL     OW30789   5.227   4.402   6.718  0.6116  0.4943 -0.4143
 9530SOL    HW130790   5.143   4.358   6.733  0.8884 -0.1856 -0.8625
 9530SOL    HW230791   5.291   4.332   6.715  0.8261  0.7287 -3.0228
 9531SOL     OW30792   1.618   3.660   6.318  0.0908 -0.3696  0.7136
 9531SOL    HW130793   1.629   3.755   6.308  1.4318 -0.5610  0.0501
 9531SOL    HW230794   1.696   3.632   6.366 -1.7022 -0.7886  3.6177
 9532SOL     OW30795   4.734   2.755   5.276 -0.5937  0.4104 -0.2616
 9532SOL    HW130796   4.715   2.846   5.251 -0.0753  0.3957 -0.7155
 9532SOL    HW230797   4.650   2.710   5.267 -0.5898  0.5757 -1.2428
 9533SOL     OW30798   3.160   2.868   6.672  0.0600  0.9538 -0.0568
 9533SOL    HW130799   3.143   2.945   6.727 -1.3354  0.2122  0.6138
 9533SOL    HW230800   3.094   2.804   6.699  0.5183 -0.1140 -1.3315
 9534SOL     OW30801   4.076   3.253   4.943  0.0404 -0.3047 -0.4587
 9534SOL    HW130802   4.090   3.347   4.942 -0.0982 -0.2824 -0.3576
 9534SOL    HW230803   3.990   3.242   4.902  0.2545 -0.4219 -0.8892
 9535SOL     OW30804   8.840   0.867   3.659  0.0349 -0.3123 -0.2395
 9535SOL    HW130805   8.916   0.821   3.623  0.5487 -1.1834  1.7997
 9535SOL    HW230806   8.804   0.807   3.724  0.1798  1.7056  1.8762
 9536SOL     OW30807   3.354   7.274   8.668  0.0190  0.4894 -0.1492
 9536SOL    HW130808   3.374   7.333   8.741  0.3341  0.8281 -0.5003
 9536SOL    HW230809   3.345   7.188   8.708  1.3726  0.4650  0.1399
 9537SOL     OW30810   1.420   5.556   7.089  0.6370 -0.1613  0.0354
 9537SOL    HW130811   1.500   5.601   7.063  0.6786 -0.8659 -1.1387
 9537SOL    HW230812   1.400   5.497   7.016 -0.0030 -1.2650  1.0476
 9538SOL     OW30813   2.201   7.671   3.106 -0.2132 -0.3704  0.2717
 9538SOL    HW130814   2.258   7.657   3.182 -1.6263 -1.5360  1.1825
 9538SOL    HW230815   2.198   7.586   3.062  1.6363  0.5932 -1.9480
 9539SOL     OW30816   2.716   1.281   7.887  0.3375 -0.3389 -0.3060
 9539SOL    HW130817   2.756   1.363   7.857 -2.6623  1.1736 -0.6226
 9539SOL    HW230818   2.671   1.247   7.809  0.8455 -1.9040  0.0413
 9540SOL     OW30819   1.892   2.079   4.695  0.4255 -0.1492  0.0505
 9540SOL    HW130820   1.962   2.042   4.749  1.7655 -0.6671 -1.9368
 9540SOL    HW230821   1.812   2.045   4.735  1.3413 -0.5522  1.6625
 9541SOL     OW30822   7.953   6.283   6.629  0.3971  0.3474  0.6434
 9541SOL    HW130823   7.913   6.212   6.679  1.9953 -0.8844  0.2489
 9541SOL    HW230824   7.980   6.347   6.696 -3.3557  1.9814  0.8705
 9542SOL     OW30825   2.063   3.618   7.777 -0.1136  0.4340  0.0253
 9542SOL    HW130826   1.999   3.556   7.742 -0.3240  0.5483  0.2082
 9542SOL    HW230827   2.022   3.704   7.766  0.7609  0.6920 -1.5581
 9543SOL     OW30828   4.600   4.256   1.866 -0.5759  0.0290  0.4592
 9543SOL    HW130829   4.587   4.166   1.837  0.8329  0.0648 -0.4267
 9543SOL    HW230830   4.634   4.248   1.955 -0.8007 -0.2965  0.5167
 9544SOL     OW30831   5.520   0.314   6.248  0.1398 -0.2059 -0.0053
 9544SOL    HW130832   5.442   0.367   6.269  0.0947 -0.4805  0.5387
 9544SOL    HW230833   5.551   0.350   6.165 -0.4398  0.0566 -0.1196
 9545SOL     OW30834   5.196   9.190   4.586 -0.1404  0.5171  0.1443
 9545SOL    HW130835   5.159   9.276   4.603  2.3538  2.1800 -1.9948
 9545SOL    HW230836   5.199   9.183   4.490  5.2089  0.9057 -0.0547
 9546SOL     OW30837   2.773   3.158   2.821  0.5827 -0.5423 -0.5962
 9546SOL    HW130838   2.744   3.131   2.909 -3.1523  1.4689 -1.0003
 9546SOL    HW230839   2.748   3.085   2.765 -1.6120  0.0744 -0.5363
 9547SOL     OW30840   4.119   5.618   8.278  0.3521 -0.2038 -0.0148
 9547SOL    HW130841   4.049   5.594   8.218  1.3811 -1.9424 -0.5972
 9547SOL    HW230842   4.199   5.609   8.226  1.1773 -0.5579  1.2649
 9548SOL     OW30843   3.363   4.907   8.358 -0.3120  0.2720 -0.1828
 9548SOL    HW130844   3.312   4.827   8.346 -2.3049  1.3242  0.8597
 9548SOL    HW230845   3.393   4.904   8.448  1.8310 -0.4652 -0.8534
 9549SOL     OW30846   3.193   6.317   7.044  0.2424 -0.5888 -0.4585
 9549SOL    HW130847   3.136   6.311   6.966 -0.1086 -0.7366 -0.1940
 9549SOL    HW230848   3.136   6.355   7.111  0.6776 -0.0230 -0.3988
 9550SOL     OW30849   0.002   2.466   7.160 -0.2173 -0.3283  0.0575
 9550SOL    HW130850  -0.087   2.441   7.182 -0.9972  0.7202 -1.7366
 9550SOL    HW230851   0.008   2.559   7.182  0.6690 -0.5386  0.7851
 9551SOL     OW30852   3.910   4.727   0.917  0.2232  0.7254 -0.0825
 9551SOL    HW130853   3.866   4.799   0.962  1.1607  0.0368  2.0336
 9551SOL    HW230854   3.839   4.678   0.875 -0.6099  1.7620  0.0902
 9552SOL     OW30855   4.869   7.540   9.219  0.3496  0.0271 -0.2605
 9552SOL    HW130856   4.920   7.577   9.147  0.9271  0.6019  0.4293
 9552SOL    HW230857   4.925   7.551   9.296 -0.4677 -0.1154  0.3693
 9553SOL     OW30858   5.502   9.571   3.520  0.1195  0.0169  0.3609
 9553SOL    HW130859   5.549   9.642   3.564  0.3386  0.9084 -1.2168
 9553SOL    HW230860   5.410   9.583   3.547  0.0782  1.2065 -0.2125
 9554SOL     OW30861   0.433   3.903   5.937  0.3252 -0.7406  0.5167
 9554SOL    HW130862   0.502   3.925   5.874 -0.7131 -0.6993 -0.6580
 9554SOL    HW230863   0.433   3.807   5.940 -1.3013 -0.8837 -1.5900
 9555SOL     OW30864   4.113   4.129   0.581  0.5210 -0.0455  0.1782
 9555SOL    HW130865   4.105   4.129   0.486  1.7247 -1.0776  0.0457
 9555SOL    HW230866   4.073   4.047   0.609  0.6450  0.0041  0.5092
 9556SOL     OW30867   1.814   7.504   4.140 -0.4483  0.6642  0.7686
 9556SOL    HW130868   1.812   7.409   4.136 -0.9032  0.7098 -1.8998
 9556SOL    HW230869   1.723   7.531   4.129 -0.1026  1.3804 -0.7018
 9557SOL     OW30870   2.618   0.999   4.055  0.5650  0.3928 -0.0305
 9557SOL    HW130871   2.584   0.927   4.107  0.6540  0.2308 -0.1953
 9557SOL    HW230872   2.707   0.971   4.031  0.6571  0.6242  0.0381
 9558SOL     OW30873   7.396   2.739   4.269 -0.4605  0.0880 -0.3502
 9558SOL    HW130874   7.441   2.709   4.347  0.0817  1.3937 -0.1326
 9558SOL    HW230875   7.303   2.734   4.291 -0.3268 -0.0056  0.1911
 9559SOL     OW30876   6.355   4.211   6.950 -0.4268  0.3067  1.0796
 9559SOL    HW130877   6.359   4.272   6.876 -0.8517 -1.2618 -0.3187
 9559SOL    HW230878   6.317   4.131   6.912  0.7741 -1.0732  2.6363
 9560SOL     OW30879   3.580   7.857   1.376  0.0479  0.4105  0.0648
 9560SOL    HW130880   3.578   7.852   1.280 -0.8288 -0.8482  0.1249
 9560SOL    HW230881   3.515   7.793   1.405  1.4904 -0.4707  1.5436
 9561SOL     OW30882   7.691   8.055   7.265 -0.3206 -0.8223 -0.8497
 9561SOL    HW130883   7.674   7.971   7.221 -0.8373 -1.4874  0.5649
 9561SOL    HW230884   7.633   8.054   7.341  0.0322  0.6177 -0.5360
 9562SOL     OW30885   2.641   1.723   1.278  0.2484  0.1427 -0.2527
 9562SOL    HW130886   2.566   1.675   1.312  0.2051 -0.2224 -0.8486
 9562SOL    HW230887   2.610   1.814   1.271 -0.0711  0.0292 -0.3112
 9563SOL     OW30888   5.075   7.045   0.335 -0.3180 -0.1178 -0.4020
 9563SOL    HW130889   5.144   7.105   0.306  0.0280 -0.7262 -0.8415
 9563SOL    HW230890   5.002   7.103   0.359  0.8594  0.6631  1.6124
 9564SOL     OW30891   9.328   0.168   7.666 -0.0370  0.1020  0.3980
 9564SOL    HW130892   9.304   0.123   7.747  1.1421 -0.1416  0.6313
 9564SOL    HW230893   9.341   0.097   7.602 -2.0221  0.3363 -0.3454
 9565SOL     OW30894   7.008   1.827   4.577 -0.0765  0.4040 -0.3029
 9565SOL    HW130895   6.998   1.795   4.488  0.6216 -1.0556  0.1085
 9565SOL    HW230896   7.102   1.840   4.588 -0.2126  1.1646  0.0280
 9566SOL     OW30897   7.981   7.677   6.145 -0.0639 -0.2352  0.0573
 9566SOL    HW130898   7.923   7.749   6.168  0.3588  0.5342 -1.2096
 9566SOL    HW230899   8.035   7.664   6.223 -1.7749 -0.8462  1.1928
 9567SOL     OW30900   0.387   8.772   3.541 -0.3301  1.0100 -0.7520
 9567SOL    HW130901   0.376   8.681   3.571 -0.5476  1.3778  0.3394
 9567SOL    HW230902   0.299   8.809   3.544 -0.3190  1.1308 -1.6584
 9568SOL     OW30903   7.612   8.272   3.179 -0.1427  0.3111 -0.6647
 9568SOL    HW130904   7.693   8.298   3.134  0.4847  0.5884  0.5665
 9568SOL    HW230905   7.634   8.278   3.272 -0.5055 -2.9377 -0.2556
 9569SOL     OW30906   4.569   6.098   6.787 -0.0119  0.3894 -0.4801
 9569SOL    HW130907   4.607   6.185   6.771  0.2912  0.6301  1.3823
 9569SOL    HW230908   4.510   6.111   6.860  1.0525 -1.2248  0.7319
 9570SOL     OW30909   0.271   7.234   4.413  0.5771  0.4259 -0.0856
 9570SOL    HW130910   0.354   7.214   4.456  0.8761  0.5707 -0.5877
 9570SOL    HW230911   0.290   7.312   4.360  0.8322 -0.9642 -2.1932
 9571SOL     OW30912   6.273   1.685   0.857 -0.4596  0.2690  0.0969
 9571SOL    HW130913   6.214   1.662   0.785 -0.7267  0.0248  0.3883
 9571SOL    HW230914   6.296   1.776   0.841 -0.5678  0.2364 -0.2620
 9572SOL     OW30915   2.062   0.779   3.821 -0.2731  0.5580 -0.3362
 9572SOL    HW130916   2.040   0.710   3.758  0.9213 -0.3917  0.2502
 9572SOL    HW230917   2.148   0.810   3.795  0.7597 -0.6426  1.4475
 9573SOL     OW30918   2.680   8.899   4.735 -0.0318 -0.0462  0.0448
 9573SOL    HW130919   2.727   8.858   4.663  1.0041 -0.1163  0.7322
 9573SOL    HW230920   2.747   8.913   4.802 -1.1512 -0.9332  1.3970
 9574SOL     OW30921   0.710   5.902   9.427  0.3226  0.3635 -0.2466
 9574SOL    HW130922   0.761   5.822   9.434  0.4294  0.3768 -0.7872
 9574SOL    HW230923   0.620   5.873   9.410  0.7041  0.3461 -2.5610
 9575SOL     OW30924   7.172   5.605   4.641  0.5112 -0.3259  0.1938
 9575SOL    HW130925   7.092   5.655   4.633  0.1872 -0.9207 -0.4618
 9575SOL    HW230926   7.215   5.614   4.555  0.1789 -1.5767 -0.1359
 9576SOL     OW30927   7.097   7.773   0.565  0.3936  0.5975  0.1283
 9576SOL    HW130928   7.129   7.689   0.534 -0.4721 -0.0979  1.0568
 9576SOL    HW230929   7.176   7.818   0.597  0.8512  0.1219 -0.3090
 9577SOL     OW30930   3.890   8.353   4.522 -0.0303 -0.7497 -0.0667
 9577SOL    HW130931   3.845   8.306   4.452  0.4698 -0.2249 -0.7450
 9577SOL    HW230932   3.981   8.361   4.493 -0.0748  0.5542  0.0627
 9578SOL     OW30933   3.953   9.023   0.454  0.0441 -0.2122 -0.0380
 9578SOL    HW130934   3.996   8.966   0.517  0.3739 -1.1213 -1.0417
 9578SOL    HW230935   3.921   8.964   0.386 -0.9587  0.6642 -0.3535
 9579SOL     OW30936   2.906   1.844   7.089  0.4835  0.6422  0.4978
 9579SOL    HW130937   2.933   1.913   7.028  1.2636  0.4747  0.6487
 9579SOL    HW230938   2.967   1.772   7.074 -1.3776 -0.7407 -0.8978
 9580SOL     OW30939   1.615   8.900   3.680 -0.7793  0.2337  0.2535
 9580SOL    HW130940   1.703   8.928   3.654 -1.8372  1.7223 -2.1398
 9580SOL    HW230941   1.623   8.807   3.698  1.6033  0.6659  1.8236
 9581SOL     OW30942   7.802   0.435   1.177  0.1062 -0.4661  0.5978
 9581SOL    HW130943   7.824   0.407   1.088  2.4427 -0.3568  1.0722
 9581SOL    HW230944   7.758   0.519   1.165  0.1734 -0.5681 -0.4745
 9582SOL     OW30945   5.707   5.451   1.403  0.0076  0.2074  0.2418
 9582SOL    HW130946   5.698   5.359   1.375  0.2165  0.2989 -0.1340
 9582SOL    HW230947   5.676   5.502   1.328  3.8218  0.5664 -1.2685
 9583SOL     OW30948   8.967   2.744   7.200 -0.8471 -0.6213 -0.0468
 9583SOL    HW130949   9.055   2.752   7.237 -0.4438  2.5285 -1.3652
 9583SOL    HW230950   8.963   2.655   7.166  1.9557 -0.7643 -0.2175
 9584SOL     OW30951   8.316   1.763   8.935  0.6249  0.3160  0.1666
 9584SOL    HW130952   8.254   1.704   8.979  0.4044  0.2435 -0.2424
 9584SOL    HW230953   8.263   1.836   8.904  0.8501  0.5835  0.3926
 9585SOL     OW30954   2.143   0.039   4.479  0.3154 -0.2038 -0.3663
 9585SOL    HW130955   2.167  -0.049   4.449 -0.5489 -0.4077 -0.4786
 9585SOL    HW230956   2.075   0.024   4.545  0.8451  0.3375  0.3146
 9586SOL     OW30957   6.527   3.690   2.994  0.5278  0.3395  0.4476
 9586SOL    HW130958   6.451   3.634   3.009 -0.6818  1.4724 -1.1147
 9586SOL    HW230959   6.537   3.740   3.076 -0.9679  0.7882  0.3856
 9587SOL     OW30960   1.643   3.788   7.611  0.3686 -0.2183 -0.0350
 9587SOL    HW130961   1.620   3.718   7.549 -1.9284  1.0667 -0.7429
 9587SOL    HW230962   1.596   3.766   7.691 -0.4343  0.5485 -0.2886
 9588SOL     OW30963   1.908   6.932   3.351 -0.3954 -0.1794  0.0626
 9588SOL    HW130964   1.979   6.955   3.411 -0.5333  3.7157 -0.9937
 9588SOL    HW230965   1.828   6.944   3.402 -0.4020 -1.4532  0.3671
 9589SOL     OW30966   1.711   6.786   8.350  0.0541  0.2209 -0.4651
 9589SOL    HW130967   1.636   6.844   8.360 -0.8933 -1.2415  1.8045
 9589SOL    HW230968   1.700   6.747   8.263 -1.4156  0.6127 -0.4794
 9590SOL     OW30969   3.334   7.429   1.409 -0.7756  0.4278 -0.0433
 9590SOL    HW130970   3.416   7.391   1.377  0.1004  1.3171  1.0764
 9590SOL    HW230971   3.272   7.412   1.339  0.0906 -1.1865 -0.4880
 9591SOL     OW30972   9.480   0.201   8.511  0.3271  0.0823 -0.4416
 9591SOL    HW130973   9.515   0.244   8.589 -0.1559  0.4704 -0.4393
 9591SOL    HW230974   9.462   0.112   8.539  0.2011  0.2070 -0.1204
 9592SOL     OW30975   6.308   5.031   9.024  0.3315 -0.1764  0.5131
 9592SOL    HW130976   6.375   5.095   9.048  0.2001  1.5992 -3.1066
 9592SOL    HW230977   6.356   4.952   9.001  1.0913  0.6134 -0.6814
 9593SOL     OW30978   5.709   5.434   6.159 -0.5549  0.4759  0.7457
 9593SOL    HW130979   5.724   5.489   6.236 -1.3738  0.4193  0.9624
 9593SOL    HW230980   5.676   5.495   6.092  1.7707  0.8384 -0.1557
 9594SOL     OW30981   4.145   7.335   4.719 -0.0121 -0.3416 -0.2335
 9594SOL    HW130982   4.175   7.381   4.641  1.3449  0.6122  0.8146
 9594SOL    HW230983   4.116   7.249   4.686  2.1764 -0.6544 -1.5645
 9595SOL     OW30984   4.175   4.500   3.109 -0.2157  0.0717 -0.2191
 9595SOL    HW130985   4.226   4.490   3.189  0.8046  0.0393 -0.8691
 9595SOL    HW230986   4.086   4.476   3.135  0.8768 -5.2481 -0.2604
 9596SOL     OW30987   2.271   8.359   7.210  0.3355 -0.1364  0.0349
 9596SOL    HW130988   2.201   8.396   7.264 -1.0466 -1.3262 -0.8540
 9596SOL    HW230989   2.311   8.292   7.265 -1.3957 -1.6974 -0.4663
 9597SOL     OW30990   9.392   6.102   7.014 -0.1661  0.3171 -0.1928
 9597SOL    HW130991   9.443   6.135   7.088  2.0729 -1.9652 -0.5801
 9597SOL    HW230992   9.379   6.179   6.958  0.8337  1.4507  1.0665
 9598SOL     OW30993   7.745   9.324   1.990  0.1677 -0.2243  0.7606
 9598SOL    HW130994   7.820   9.268   1.973  1.0749  0.6221  1.7934
 9598SOL    HW230995   7.731   9.372   1.908 -1.3945 -2.7179 -0.5673
 9599SOL     OW30996   3.842   4.212   8.826 -0.4034  0.0677  0.2279
 9599SOL    HW130997   3.852   4.301   8.794 -0.7153  0.1976  0.4831
 9599SOL    HW230998   3.793   4.167   8.757 -1.8163  0.5669  0.8715
 9600SOL     OW30999   3.007   3.707   4.247  0.0301  0.0120 -0.2127
 9600SOL    HW131000   3.020   3.799   4.271  0.7454 -0.1726  0.1260
 9600SOL    HW231001   2.956   3.711   4.166  0.6009  0.7266 -0.5596
 9601SOL     OW31002   4.309   5.428   1.411 -0.1382  0.0185  0.4476
 9601SOL    HW131003   4.341   5.346   1.373  0.2598  0.9231 -1.2855
 9601SOL    HW231004   4.388   5.477   1.431 -0.3924  0.7084 -0.2265
 9602SOL     OW31005   5.520   7.429   1.998  0.5261 -0.3568  0.1693
 9602SOL    HW131006   5.484   7.359   1.943 -1.8603 -0.5576  1.8484
 9602SOL    HW231007   5.498   7.403   2.087  1.3503  1.5850  0.9902
 9603SOL     OW31008   5.247   5.912   5.623  0.2556 -0.0821 -0.0875
 9603SOL    HW131009   5.217   5.905   5.714  3.7527  0.5938  1.2703
 9603SOL    HW231010   5.239   6.005   5.602  2.2101  0.2933  0.6679
 9604SOL     OW31011   2.308   6.955   3.362 -0.1492  0.7299 -0.1663
 9604SOL    HW131012   2.329   6.903   3.439 -3.1115 -1.7458 -0.8354
 9604SOL    HW231013   2.332   6.898   3.288  0.7186  2.2073 -1.0746
 9605SOL     OW31014   1.027   1.102   6.896  0.0362  0.4560 -0.1988
 9605SOL    HW131015   1.068   1.037   6.954 -2.3483 -0.3033  0.7443
 9605SOL    HW231016   1.053   1.074   6.808  0.3114 -0.8941  0.2762
 9606SOL     OW31017   1.620   7.077   7.272  0.1343  0.2983 -0.3200
 9606SOL    HW131018   1.678   7.086   7.347 -0.4403  0.9886  0.0595
 9606SOL    HW231019   1.563   7.003   7.294  1.0852 -0.6208 -0.8577
 9607SOL     OW31020   4.390   1.120   8.274  0.0250  0.2392  0.4974
 9607SOL    HW131021   4.409   1.212   8.256 -1.1014  0.2797 -0.6011
 9607SOL    HW231022   4.311   1.101   8.222 -0.0077 -1.2262  1.0402
 9608SOL     OW31023   3.324   8.135   7.449 -0.0823 -0.0230  0.2333
 9608SOL    HW131024   3.244   8.151   7.399 -0.1689 -1.1495 -0.0099
 9608SOL    HW231025   3.295   8.083   7.524  0.5788 -1.5216 -0.5068
 9609SOL     OW31026   8.986   7.876   5.715  0.4186  0.0616 -0.3698
 9609SOL    HW131027   8.999   7.892   5.622 -1.7151 -0.3961 -0.8000
 9609SOL    HW231028   9.003   7.782   5.726  0.6060  0.1029 -0.3077
 9610SOL     OW31029   3.950   6.637   2.801  0.6863  0.2047 -0.3093
 9610SOL    HW131030   3.970   6.553   2.844  1.8772  0.7975  0.3445
 9610SOL    HW231031   4.029   6.658   2.751 -0.2881  0.0565 -1.9728
 9611SOL     OW31032   3.025   9.064   9.532  0.1472 -0.1467  0.0073
 9611SOL    HW131033   2.991   9.008   9.461  1.0110 -0.5485 -0.1043
 9611SOL    HW231034   3.067   9.137   9.486 -0.2191  0.1377  0.1299
 9612SOL     OW31035   9.445   2.946   4.645 -0.6343  0.5471 -0.4424
 9612SOL    HW131036   9.416   3.035   4.627 -1.4818  0.5018  0.6341
 9612SOL    HW231037   9.527   2.956   4.694 -0.7093  0.7290 -0.3568
 9613SOL     OW31038   0.395   6.099   1.394 -0.5334 -0.4508  0.4077
 9613SOL    HW131039   0.360   6.011   1.407  1.7021 -1.3219  0.9331
 9613SOL    HW231040   0.410   6.132   1.483 -0.0233 -0.1131  0.1996
 9614SOL     OW31041   0.151   5.196   0.430 -0.1797  0.3005 -0.3647
 9614SOL    HW131042   0.064   5.165   0.407  1.3883 -3.0298 -2.5551
 9614SOL    HW231043   0.176   5.253   0.357  0.5932 -1.2952 -1.3909
 9615SOL     OW31044   4.655   5.566   2.297 -0.3552 -0.1418 -0.2822
 9615SOL    HW131045   4.653   5.620   2.376 -0.3982 -0.3195 -0.1623
 9615SOL    HW231046   4.567   5.573   2.260 -0.0437  0.7753 -0.8773
 9616SOL     OW31047   5.431   4.878   5.254  0.0413  0.6409 -0.6628
 9616SOL    HW131048   5.394   4.867   5.341  1.4001 -0.7209 -0.2059
 9616SOL    HW231049   5.357   4.871   5.195 -0.4828 -2.6366  0.1589
 9617SOL     OW31050   5.714   1.234   9.162 -0.7091 -0.8547 -0.1382
 9617SOL    HW131051   5.621   1.237   9.142 -0.3134  1.0278 -2.1031
 9617SOL    HW231052   5.757   1.237   9.076  1.1615  1.4453  0.7842
 9618SOL     OW31053   1.387   8.294   5.716 -0.1933 -0.1579  0.6891
 9618SOL    HW131054   1.456   8.352   5.750 -0.6359  0.1238  1.1241
 9618SOL    HW231055   1.330   8.279   5.791  1.2731 -3.2891  1.3675
 9619SOL     OW31056   8.385   2.372   3.825  0.0367  0.2527 -0.2958
 9619SOL    HW131057   8.463   2.426   3.814  0.2368 -0.0844 -0.5208
 9619SOL    HW231058   8.313   2.435   3.822  0.1982  0.4118 -1.6424
 9620SOL     OW31059   4.554   8.602   2.874 -0.2239  0.2602 -0.0555
 9620SOL    HW131060   4.586   8.692   2.879 -1.4674  1.0130 -3.0474
 9620SOL    HW231061   4.464   8.610   2.843  0.0373 -2.0065 -1.7179
 9621SOL     OW31062   3.671   2.901   5.421 -0.3800 -0.0915 -0.0278
 9621SOL    HW131063   3.755   2.934   5.390 -0.2986  0.8577  1.1027
 9621SOL    HW231064   3.612   2.976   5.416 -1.6655 -1.1507 -2.3817
 9622SOL     OW31065   1.495   2.500   2.275  0.4153  0.0776 -0.1902
 9622SOL    HW131066   1.529   2.498   2.364 -1.9962  0.9698  0.8484
 9622SOL    HW231067   1.446   2.582   2.270 -0.7568 -0.6613 -1.8315
 9623SOL     OW31068   8.580   2.181   2.038 -0.2212  0.2174  0.5266
 9623SOL    HW131069   8.581   2.254   1.975  0.4320  1.0904  1.5140
 9623SOL    HW231070   8.545   2.108   1.988 -0.8694  1.1944 -0.5104
 9624SOL     OW31071   3.684   0.952   7.858  0.2994 -0.3648  0.2055
 9624SOL    HW131072   3.658   1.034   7.899 -0.1037 -0.1018 -0.5533
 9624SOL    HW231073   3.779   0.959   7.847  0.2063  0.2008 -0.2692
 9625SOL     OW31074   6.728   5.703   4.218  0.1046  0.3182  0.2905
 9625SOL    HW131075   6.704   5.690   4.126 -2.3722 -0.2769  0.9311
 9625SOL    HW231076   6.805   5.647   4.231 -0.9761 -1.5647 -0.8683
 9626SOL     OW31077   7.570   0.179   3.726  0.2638 -0.1699 -0.2835
 9626SOL    HW131078   7.661   0.161   3.746  0.4032 -0.1388 -0.8878
 9626SOL    HW231079   7.570   0.269   3.693 -0.3097  0.7033  1.9444
 9627SOL     OW31080   5.814   2.594   2.522  0.1133 -0.1757  0.1416
 9627SOL    HW131081   5.791   2.544   2.443  2.0480  0.0244 -0.6060
 9627SOL    HW231082   5.737   2.649   2.538 -1.6465 -2.5791  0.3788
 9628SOL     OW31083   3.859   8.353   5.363  0.1770 -0.1606  0.4423
 9628SOL    HW131084   3.859   8.421   5.430  1.7875 -0.2142  0.5512
 9628SOL    HW231085   3.801   8.285   5.397 -0.4576  0.6106  0.9195
 9629SOL     OW31086   8.521   5.369   1.155 -0.3844  0.1010  0.1683
 9629SOL    HW131087   8.434   5.386   1.193 -0.0707 -1.3103  1.6301
 9629SOL    HW231088   8.571   5.331   1.227  1.1371 -0.0736 -0.9458
 9630SOL     OW31089   0.297   6.379   0.801  0.5164  0.1948  0.1400
 9630SOL    HW131090   0.314   6.464   0.760  0.0885 -0.1841 -0.8776
 9630SOL    HW231091   0.365   6.369   0.866  0.6491  1.2639  0.1810
 9631SOL     OW31092   2.747   1.869   6.219 -0.1127 -0.0629  1.1438
 9631SOL    HW131093   2.656   1.886   6.194  0.4012  0.3563 -0.5111
 9631SOL    HW231094   2.775   1.949   6.262 -0.3682 -0.0097  1.2173
 9632SOL     OW31095   2.026   4.415   7.946 -0.8419  0.3053 -0.4974
 9632SOL    HW131096   1.990   4.360   8.016 -1.5006 -0.3293 -1.3226
 9632SOL    HW231097   1.978   4.498   7.954 -1.6525 -0.1219 -0.8357
 9633SOL     OW31098   8.409   0.423   7.390  0.0425 -0.2475 -0.1903
 9633SOL    HW131099   8.443   0.355   7.448  0.2443  0.0114 -0.0021
 9633SOL    HW231100   8.428   0.391   7.302 -1.7574 -1.4262 -0.1825
 9634SOL     OW31101   3.433   4.613   3.938 -0.3460  0.2212 -0.2488
 9634SOL    HW131102   3.384   4.532   3.953 -2.1200  1.3879  0.7086
 9634SOL    HW231103   3.487   4.623   4.016  1.9742 -1.3453 -1.5408
 9635SOL     OW31104   9.341   2.844   0.813  0.8537 -0.4221  0.5255
 9635SOL    HW131105   9.364   2.894   0.891 -1.7701 -1.2677  1.9483
 9635SOL    HW231106   9.257   2.879   0.786  1.5241 -0.4335 -1.7419
 9636SOL     OW31107   5.835   5.488   1.660  0.4775 -1.0108 -0.1301
 9636SOL    HW131108   5.776   5.492   1.584  0.2036  0.8185  0.1233
 9636SOL    HW231109   5.907   5.548   1.637  1.1692 -1.6019  0.4452
 9637SOL     OW31110   8.375   0.906   6.769 -0.7484 -0.6587  0.3240
 9637SOL    HW131111   8.427   0.901   6.850 -0.2226 -1.2849 -0.0476
 9637SOL    HW231112   8.440   0.918   6.700 -1.2496  0.9194  0.0708
 9638SOL     OW31113   8.588   1.042   1.437 -0.6563  0.1603 -0.2854
 9638SOL    HW131114   8.583   0.946   1.441  0.1242  0.0954 -0.5133
 9638SOL    HW231115   8.507   1.073   1.477 -0.1297 -0.5731  1.4722
 9639SOL     OW31116   3.396   5.578   8.948  0.1324 -0.7243 -1.0679
 9639SOL    HW131117   3.476   5.631   8.940  0.4053 -0.9204  0.2454
 9639SOL    HW231118   3.325   5.640   8.934  0.4816 -0.2580 -0.8101
 9640SOL     OW31119   9.028   8.478   3.957 -0.4128 -0.3556 -0.6116
 9640SOL    HW131120   9.077   8.409   4.002 -0.2721  0.5113  0.6439
 9640SOL    HW231121   8.939   8.471   3.992 -0.6052 -0.4554 -1.1264
 9641SOL     OW31122   0.686   9.452   0.821  0.3976  0.4559  0.1455
 9641SOL    HW131123   0.732   9.385   0.871  0.4717 -0.3046 -0.9014
 9641SOL    HW231124   0.632   9.402   0.759 -0.7397  1.3440  0.3835
 9642SOL     OW31125   8.802   0.719   0.075  0.0367 -0.2212  0.4228
 9642SOL    HW131126   8.827   0.697   0.165  0.3845  0.9490  0.6348
 9642SOL    HW231127   8.853   0.798   0.055 -0.0287 -0.4798 -0.8098
 9643SOL     OW31128   9.578   2.832   3.375  0.1269 -0.0340 -1.2121
 9643SOL    HW131129   9.595   2.882   3.455  1.6686  0.4410 -1.7842
 9643SOL    HW231130   9.483   2.820   3.373  0.1384 -1.2967  1.4049
 9644SOL     OW31131   5.707   2.398   8.682  0.5946  0.0671 -0.4537
 9644SOL    HW131132   5.723   2.315   8.726 -1.6892 -0.0385  0.3026
 9644SOL    HW231133   5.740   2.464   8.743 -0.1917 -0.1840  0.2598
 9645SOL     OW31134   0.195   3.794   6.617  0.3190 -0.0071 -0.1638
 9645SOL    HW131135   0.160   3.708   6.641  1.2680  0.1734  2.1570
 9645SOL    HW231136   0.119   3.851   6.612 -0.3505 -0.9646 -1.9344
 9646SOL     OW31137   0.798   9.354   7.099 -0.3164  0.1694 -0.0525
 9646SOL    HW131138   0.876   9.392   7.140  1.0575 -0.7363 -1.7193
 9646SOL    HW231139   0.771   9.419   7.034  1.1076 -0.9156 -1.8159
 9647SOL     OW31140   0.497   9.065   7.238 -0.4240  0.0257  0.2305
 9647SOL    HW131141   0.534   8.983   7.270  0.8549  1.0469  1.4612
 9647SOL    HW231142   0.412   9.072   7.280 -0.1498 -0.2331  0.8276
 9648SOL     OW31143   6.737   6.191   2.467  0.3880  0.1805  0.0058
 9648SOL    HW131144   6.812   6.160   2.416 -0.0790 -0.2375 -0.4408
 9648SOL    HW231145   6.775   6.246   2.535  1.0118  0.8830 -0.8949
 9649SOL     OW31146   0.498   0.555   5.829  0.1666  0.1605  0.2276
 9649SOL    HW131147   0.563   0.517   5.889 -0.3632  1.0839  1.4346
 9649SOL    HW231148   0.427   0.491   5.826 -0.3945  0.6681  1.6710
 9650SOL     OW31149   5.331   9.535   1.386  0.3357  0.2096 -0.2333
 9650SOL    HW131150   5.391   9.463   1.365  0.0259  0.1473 -0.9191
 9650SOL    HW231151   5.249   9.492   1.410  0.5724  0.2930  0.7898
 9651SOL     OW31152   2.500   8.414   8.936 -0.5732 -0.2409  0.1968
 9651SOL    HW131153   2.591   8.443   8.937 -0.7841  0.4186  0.5572
 9651SOL    HW231154   2.499   8.337   8.993  0.0791 -1.2856 -1.1344
 9652SOL     OW31155   1.985   7.435   0.572 -0.1443 -0.2322 -0.0454
 9652SOL    HW131156   1.892   7.411   0.577 -0.2714  0.2421 -0.0520
 9652SOL    HW231157   2.027   7.359   0.533 -0.7764  0.1967 -1.6110
 9653SOL     OW31158   2.423   2.867   9.043 -0.8205  0.4651 -0.0030
 9653SOL    HW131159   2.441   2.882   8.951 -0.5411 -0.0496 -0.0365
 9653SOL    HW231160   2.374   2.785   9.045 -0.4257  0.2319  0.3380
 9654SOL     OW31161   3.560   3.296   8.737 -0.1550 -0.0067  0.1913
 9654SOL    HW131162   3.492   3.328   8.796  0.3364  2.5582 -0.5333
 9654SOL    HW231163   3.640   3.297   8.789  0.5352  3.5204 -0.7204
 9655SOL     OW31164   7.426   9.374   8.341  0.1833 -0.2248  0.0646
 9655SOL    HW131165   7.479   9.429   8.399  1.7990 -0.0510 -1.5135
 9655SOL    HW231166   7.348   9.427   8.322  0.2088  0.2040  1.0826
 9656SOL     OW31167   2.569   5.359   0.587  0.1979 -0.2571  0.1839
 9656SOL    HW131168   2.634   5.318   0.530 -1.3592 -1.6763 -0.6717
 9656SOL    HW231169   2.574   5.309   0.669  0.0040 -0.5440  0.0217
 9657SOL     OW31170   5.357   8.864   1.940 -0.1712 -0.2815 -0.2020
 9657SOL    HW131171   5.404   8.811   1.875  0.1221 -1.7358  1.1468
 9657SOL    HW231172   5.277   8.891   1.895 -0.1760 -1.5994 -1.0356
 9658SOL     OW31173   1.461   6.488   2.608 -0.1708  0.1010 -0.0210
 9658SOL    HW131174   1.396   6.558   2.604  2.7202  3.1442  0.9262
 9658SOL    HW231175   1.460   6.459   2.699  0.8231  1.3562  0.4242
 9659SOL     OW31176   0.155   7.227   6.517 -0.5391  0.3812  0.1597
 9659SOL    HW131177   0.072   7.269   6.496 -0.5204  1.3785  1.8483
 9659SOL    HW231178   0.130   7.148   6.566 -0.5102  0.5395  0.4339
 9660SOL     OW31179   9.383   4.930   5.785 -0.0161  0.5255 -0.2803
 9660SOL    HW131180   9.474   4.902   5.798 -0.3732  0.0717  1.5369
 9660SOL    HW231181   9.356   4.886   5.704  1.4853  0.9951 -1.0746
 9661SOL     OW31182   0.597   8.793   6.659 -0.3258  0.0674  0.1493
 9661SOL    HW131183   0.605   8.784   6.564 -0.2654  2.1880 -0.0910
 9661SOL    HW231184   0.688   8.793   6.690 -0.1753  2.3586 -0.1623
 9662SOL     OW31185   3.280   1.460   1.805  0.6240 -0.0078  0.2343
 9662SOL    HW131186   3.299   1.516   1.730  0.2966 -0.9602 -0.5825
 9662SOL    HW231187   3.312   1.373   1.779  0.1509 -0.4413  1.0436
 9663SOL     OW31188   1.557   5.158   2.769  0.0240  0.3541 -0.0421
 9663SOL    HW131189   1.469   5.165   2.731 -0.2489 -0.3128  0.4270
 9663SOL    HW231190   1.604   5.099   2.709  0.0732  0.5067 -0.1548
 9664SOL     OW31191   2.583   3.878   0.442  0.2515 -0.2568  0.0135
 9664SOL    HW131192   2.629   3.896   0.360 -0.8383 -2.4473 -1.1720
 9664SOL    HW231193   2.500   3.839   0.415 -0.3219 -0.6678  2.1658
 9665SOL     OW31194   0.294   5.857   8.663  0.1239  0.4160  0.0734
 9665SOL    HW131195   0.322   5.813   8.583  2.2215  1.8860 -0.0776
 9665SOL    HW231196   0.317   5.797   8.733  1.5547  0.5961 -0.2214
 9666SOL     OW31197   9.394   0.552   5.077 -0.3399  0.8060 -0.1344
 9666SOL    HW131198   9.383   0.513   4.990  0.0324  0.3236  0.0287
 9666SOL    HW231199   9.376   0.645   5.064 -1.6758  0.5363 -0.4540
 9667SOL     OW31200   6.086   6.239   6.756 -0.0436  0.3581  0.3067
 9667SOL    HW131201   6.118   6.155   6.791  2.2991  1.8946  2.1169
 9667SOL    HW231202   6.014   6.262   6.815 -0.6405 -0.2779 -0.1442
 9668SOL     OW31203   0.810   3.011   0.268 -0.0329 -0.2756  0.0304
 9668SOL    HW131204   0.757   3.031   0.345 -0.0620 -1.8336  0.4448
 9668SOL    HW231205   0.872   2.945   0.297  2.0122  1.2697 -0.5171
 9669SOL     OW31206   8.142   7.231   6.927  0.1610 -0.0420  0.0375
 9669SOL    HW131207   8.057   7.190   6.910 -0.0362  0.6272 -0.6389
 9669SOL    HW231208   8.161   7.281   6.848  0.2664  1.3735  0.9296
 9670SOL     OW31209   4.759   5.238   6.346 -0.3371  0.1509  0.3742
 9670SOL    HW131210   4.755   5.171   6.415  0.3572  1.4663  1.7537
 9670SOL    HW231211   4.823   5.204   6.284 -1.2768 -1.2568  0.1236
 9671SOL     OW31212   5.327   7.157   8.754 -0.3091 -0.1517 -0.1577
 9671SOL    HW131213   5.233   7.139   8.748 -0.1972 -1.5938  1.6234
 9671SOL    HW231214   5.365   7.077   8.789  1.7152  0.1731 -1.4603
 9672SOL     OW31215   1.496   1.031   5.117 -0.1703 -0.0129 -0.1399
 9672SOL    HW131216   1.545   0.980   5.181 -1.4891 -0.7267  0.3354
 9672SOL    HW231217   1.447   1.096   5.168 -0.4737  0.0575 -0.5072
 9673SOL     OW31218   5.408   3.617   6.867  0.6076  0.0444  0.2114
 9673SOL    HW131219   5.399   3.555   6.939 -0.4334 -0.9479 -0.7414
 9673SOL    HW231220   5.423   3.702   6.910  0.7669 -0.6443  1.5540
 9674SOL     OW31221   5.100   1.816   6.684  0.1997 -0.2223 -0.1832
 9674SOL    HW131222   5.072   1.849   6.599 -0.9546 -1.1234 -0.1873
 9674SOL    HW231223   5.054   1.872   6.747  3.4408  2.5396  0.0227
 9675SOL     OW31224   4.392   7.494   2.287  0.2329  0.0330  0.0798
 9675SOL    HW131225   4.467   7.496   2.227 -0.9655 -0.8120 -1.5321
 9675SOL    HW231226   4.400   7.575   2.337  1.6106  0.5079 -0.8398
 9676SOL     OW31227   8.517   7.840   7.671  0.0256  0.0851  0.3920
 9676SOL    HW131228   8.500   7.833   7.765 -0.6837  1.6567  0.4175
 9676SOL    HW231229   8.436   7.875   7.635  0.3205 -0.4117 -0.8122
 9677SOL     OW31230   8.919   6.626   9.537  0.1337 -0.1521 -0.5056
 9677SOL    HW131231   8.888   6.665   9.618 -1.1169 -3.8408  1.0076
 9677SOL    HW231232   8.843   6.626   9.479  0.6958  1.4021 -1.2779
 9678SOL     OW31233   7.754   6.303   9.308 -0.2643 -0.2936  0.5758
 9678SOL    HW131234   7.661   6.297   9.287 -0.4853  0.7871  1.1861
 9678SOL    HW231235   7.758   6.349   9.392  0.8355  0.1697  0.3033
 9679SOL     OW31236   4.451   1.514   4.218  0.0042  0.0431 -0.1943
 9679SOL    HW131237   4.466   1.454   4.292  0.4536  0.8456  0.3751
 9679SOL    HW231238   4.531   1.565   4.212  0.0128 -0.0747 -1.3188
 9680SOL     OW31239   5.718   4.069   0.033 -0.5417  0.1949  0.0976
 9680SOL    HW131240   5.714   4.162   0.014  0.5471  0.5115  1.3481
 9680SOL    HW231241   5.809   4.044   0.017 -0.7175 -0.5637  0.2227
 9681SOL     OW31242   8.068   2.933   6.091 -0.3308  0.2088  0.3989
 9681SOL    HW131243   8.079   3.025   6.067 -0.8901 -0.2506 -1.8849
 9681SOL    HW231244   7.977   2.928   6.123 -0.9343  0.1491 -1.2487
 9682SOL     OW31245   6.572   1.142   1.930  0.4201  0.3820 -0.0648
 9682SOL    HW131246   6.524   1.197   1.867  0.2011  0.3510  0.0734
 9682SOL    HW231247   6.664   1.157   1.910  0.3497  0.2464 -0.5047
 9683SOL     OW31248   1.346   3.985   5.818 -0.4621  0.2684  0.5641
 9683SOL    HW131249   1.318   3.898   5.791 -3.0656  1.1402  0.1723
 9683SOL    HW231250   1.390   4.021   5.741 -0.4015 -0.2726  0.3398
 9684SOL     OW31251   0.998   0.378   1.937  0.0275  0.0245 -0.4890
 9684SOL    HW131252   1.071   0.318   1.943  0.1587 -0.0103 -1.9957
 9684SOL    HW231253   1.009   0.422   1.852 -2.5896 -1.2280 -1.6166
 9685SOL     OW31254   3.199   3.871   1.824 -0.1930  0.9933  0.6469
 9685SOL    HW131255   3.112   3.866   1.784  0.3237 -1.3741 -0.3957
 9685SOL    HW231256   3.245   3.795   1.788  1.9793  1.6201  1.9568
 9686SOL     OW31257   4.548   4.507   7.971 -0.1534 -0.0380  0.4521
 9686SOL    HW131258   4.461   4.491   7.936  0.4754 -0.4803 -0.9738
 9686SOL    HW231259   4.532   4.551   8.055 -1.7132  0.8637 -0.2751
 9687SOL     OW31260   4.673   8.520   4.469  0.0348 -0.5440 -0.4703
 9687SOL    HW131261   4.678   8.504   4.375 -0.4299 -0.3415 -0.5293
 9687SOL    HW231262   4.580   8.528   4.488  0.1374 -0.3443 -0.0307
 9688SOL     OW31263   2.482   1.986   6.157 -0.1042 -0.0368  0.1503
 9688SOL    HW131264   2.437   2.067   6.179  0.9806  0.0800  2.1357
 9688SOL    HW231265   2.418   1.917   6.170 -1.1664  0.4560 -1.9494
 9689SOL     OW31266   5.732   1.637   3.284 -0.0399  0.3441 -0.2027
 9689SOL    HW131267   5.675   1.662   3.357 -1.7813 -2.7275 -0.3263
 9689SOL    HW231268   5.721   1.707   3.220  0.4620  2.4370  1.8408
 9690SOL     OW31269   9.360   1.182   0.942  0.2336  0.0684 -0.5899
 9690SOL    HW131270   9.283   1.220   0.898 -1.5867  0.1388  2.3506
 9690SOL    HW231271   9.413   1.257   0.967  0.1519  0.1878 -0.7761
 9691SOL     OW31272   8.100   6.950   5.691  0.2589  0.2289 -0.1616
 9691SOL    HW131273   8.119   7.031   5.739 -1.0882 -0.3638  1.4982
 9691SOL    HW231274   8.026   6.912   5.738  0.0542 -1.3518 -1.6679
 9692SOL     OW31275   5.802   7.405   6.942 -0.0529 -0.4852 -0.0357
 9692SOL    HW131276   5.865   7.457   6.892  0.5592 -1.5326 -0.3737
 9692SOL    HW231277   5.718   7.422   6.899  0.7000 -2.8467 -2.7911
 9693SOL     OW31278   7.696   5.334   6.338  0.3588 -0.4272 -0.0128
 9693SOL    HW131279   7.610   5.294   6.348  0.0678  0.6365  2.6115
 9693SOL    HW231280   7.733   5.334   6.426  1.8478  1.6772 -0.5407
 9694SOL     OW31281   8.654   9.403   3.238 -0.0588  0.1522 -0.0870
 9694SOL    HW131282   8.610   9.488   3.242 -0.8476 -0.2768  0.9410
 9694SOL    HW231283   8.606   9.349   3.301  1.3161 -0.6483  0.2987
 9695SOL     OW31284   1.119   4.281   1.213 -0.2838  0.1902 -0.1862
 9695SOL    HW131285   1.141   4.281   1.119 -0.9027  1.2570 -0.3505
 9695SOL    HW231286   1.031   4.318   1.216 -0.4916 -0.3613  0.7858
 9696SOL     OW31287   3.520   8.939   4.399  0.2464  0.2211  0.4973
 9696SOL    HW131288   3.553   9.026   4.376  0.6291  0.0448  0.3766
 9696SOL    HW231289   3.509   8.895   4.315 -1.7035  0.7702  0.4217
 9697SOL     OW31290   7.773   0.799   4.081 -0.5891 -0.0909  0.0879
 9697SOL    HW131291   7.826   0.868   4.041  0.3607 -0.5149  0.5789
 9697SOL    HW231292   7.728   0.843   4.153  0.2445 -0.0261  0.5887
 9698SOL     OW31293   1.721   4.136   5.730 -0.5092 -0.1176 -0.7041
 9698SOL    HW131294   1.675   4.104   5.653 -0.7491 -1.1890 -0.1322
 9698SOL    HW231295   1.696   4.076   5.800  2.3023 -1.2015 -0.5076
 9699SOL     OW31296   2.397   0.418   6.717  0.3085  0.1391  0.1335
 9699SOL    HW131297   2.382   0.499   6.766 -2.8469 -0.0184 -0.3943
 9699SOL    HW231298   2.429   0.448   6.631  0.2341  0.7521  0.3116
 9700SOL     OW31299   3.277   7.068   7.124 -0.0274  0.6838  0.4493
 9700SOL    HW131300   3.315   7.136   7.068  1.1429 -0.1983  0.1375
 9700SOL    HW231301   3.340   7.057   7.195 -1.6153  1.9639  2.1591
 9701SOL     OW31302   2.657   1.023   2.639  0.6171 -0.1376 -0.6205
 9701SOL    HW131303   2.692   0.951   2.587  2.0075  0.1769 -0.1426
 9701SOL    HW231304   2.618   1.082   2.574  2.8897  0.5586 -1.4427
 9702SOL     OW31305   3.055   1.737   2.018 -0.3552  0.4474  0.0173
 9702SOL    HW131306   3.045   1.794   2.094 -1.0858 -1.1467  1.1831
 9702SOL    HW231307   3.013   1.784   1.946 -1.9360  0.9103  1.1979
 9703SOL     OW31308   8.035   2.607   4.665 -0.0653  0.0419 -0.3211
 9703SOL    HW131309   7.961   2.654   4.626  0.6807 -0.0261 -1.9353
 9703SOL    HW231310   8.081   2.672   4.717 -2.0227 -0.2506  1.9671
 9704SOL     OW31311   9.395   7.425   2.500 -0.1170  0.0515  0.6246
 9704SOL    HW131312   9.394   7.341   2.453 -1.0731 -0.6268  1.7976
 9704SOL    HW231313   9.439   7.485   2.440 -1.4064 -0.7182 -1.2082
 9705SOL     OW31314   5.946   4.003   8.593  0.2274  0.6075  0.2730
 9705SOL    HW131315   5.939   3.953   8.674  1.7854 -0.4157 -0.1702
 9705SOL    HW231316   6.039   4.025   8.586  0.1820  0.4227 -1.3594
 9706SOL     OW31317   3.100   4.864   7.645  0.4709  0.6876 -0.3808
 9706SOL    HW131318   3.184   4.834   7.612 -0.4940 -2.9734  0.0110
 9706SOL    HW231319   3.094   4.826   7.733 -1.7919  0.3728 -0.6065
 9707SOL     OW31320   6.942   1.992   2.157  0.1097  0.0986 -0.2034
 9707SOL    HW131321   6.969   1.954   2.241  0.6130 -0.8107 -0.7547
 9707SOL    HW231322   6.899   2.074   2.180 -0.3549 -0.4626  0.9894
 9708SOL     OW31323   6.196   4.186   7.421 -0.2342  0.5339 -0.1088
 9708SOL    HW131324   6.284   4.161   7.449  0.2195  0.6929 -1.3194
 9708SOL    HW231325   6.193   4.163   7.328 -1.0893  1.5336 -0.3484
 9709SOL     OW31326   9.058   1.355   5.952  0.0292 -0.2856 -0.4285
 9709SOL    HW131327   8.979   1.405   5.931  0.8047  1.4977  0.6751
 9709SOL    HW231328   9.038   1.311   6.035  0.3277  0.5329  0.0884
 9710SOL     OW31329   9.175   3.076   0.331  0.2448  0.6420 -0.0643
 9710SOL    HW131330   9.169   3.093   0.237 -0.0609  0.8976  0.0035
 9710SOL    HW231331   9.269   3.073   0.349  0.3067  1.8745 -0.1393
 9711SOL     OW31332   4.301   3.391   5.708  0.3865  0.7550 -0.2430
 9711SOL    HW131333   4.382   3.420   5.751  1.5906 -0.6405 -1.4685
 9711SOL    HW231334   4.249   3.471   5.700  1.2437  1.5274  1.3665
 9712SOL     OW31335   5.694   5.815   9.100 -0.0633  0.2534  0.0052
 9712SOL    HW131336   5.715   5.723   9.086  1.5396  0.5411  0.3262
 9712SOL    HW231337   5.612   5.828   9.053 -0.5663 -1.4409  0.3547
 9713SOL     OW31338   5.718   2.901   2.004  0.3070  0.3419  0.2698
 9713SOL    HW131339   5.762   2.826   2.045  0.6329  0.3528 -0.0619
 9713SOL    HW231340   5.636   2.909   2.053  0.4252 -0.0163  0.5349
 9714SOL     OW31341   1.753   4.209   3.389  0.0528 -0.3894 -0.0686
 9714SOL    HW131342   1.691   4.246   3.452 -0.3817 -0.4008 -0.4867
 9714SOL    HW231343   1.755   4.272   3.317  0.1742 -0.6175 -0.2661
 9715SOL     OW31344   0.349   1.910   6.304  0.3585  0.4569 -0.0389
 9715SOL    HW131345   0.373   1.853   6.377 -0.6244 -0.6061 -0.5154
 9715SOL    HW231346   0.270   1.871   6.268  2.1082 -0.5451 -3.2105
 9716SOL     OW31347   5.340   1.249   0.044 -0.0494  0.0816  0.3550
 9716SOL    HW131348   5.394   1.224   0.118  1.7265  1.4398 -0.4037
 9716SOL    HW231349   5.357   1.183  -0.023 -0.1910 -0.0932  0.4904
 9717SOL     OW31350   7.461   7.203   1.335  0.3151 -0.2020 -0.4899
 9717SOL    HW131351   7.389   7.143   1.355 -0.1704  0.0607 -1.3949
 9717SOL    HW231352   7.444   7.280   1.390  1.8149 -1.4491  1.8985
 9718SOL     OW31353   2.063   1.847   3.323 -0.5808 -0.5089 -0.1498
 9718SOL    HW131354   2.034   1.935   3.297 -1.0897 -0.7823 -0.5229
 9718SOL    HW231355   2.110   1.861   3.406  1.9434  0.5004 -1.6401
 9719SOL     OW31356   7.232   8.847   2.408 -0.2785 -0.1133  0.7514
 9719SOL    HW131357   7.311   8.874   2.454  0.2706 -3.0510  1.7748
 9719SOL    HW231358   7.175   8.811   2.477 -2.0386  0.8957 -0.1182
 9720SOL     OW31359   7.154   9.389   4.382  0.4471  0.1715 -0.2883
 9720SOL    HW131360   7.080   9.346   4.338  1.0358 -0.8936 -0.2891
 9720SOL    HW231361   7.215   9.411   4.311  0.6275  0.0237 -0.1816
 9721SOL     OW31362   4.421   5.954   2.367 -0.1241 -0.5844  0.0238
 9721SOL    HW131363   4.515   5.968   2.373 -0.0735 -1.2954  1.0917
 9721SOL    HW231364   4.382   6.029   2.412 -0.2109  1.1184 -2.6432
 9722SOL     OW31365   5.767   2.541   4.585 -0.3507  0.1596 -0.0586
 9722SOL    HW131366   5.702   2.561   4.518  0.5902 -2.7675 -2.0460
 9722SOL    HW231367   5.778   2.446   4.580  3.6818  0.4230  0.4660
 9723SOL     OW31368   5.154   2.658   4.989 -0.3577 -0.0494 -0.2484
 9723SOL    HW131369   5.191   2.688   4.906  1.9622  0.6143  0.9363
 9723SOL    HW231370   5.204   2.705   5.056 -0.8519 -1.9392  1.5601
 9724SOL     OW31371   2.304   8.935   4.027  0.5467 -0.3384 -0.2870
 9724SOL    HW131372   2.282   8.958   3.937 -0.0102 -0.7232 -0.2593
 9724SOL    HW231373   2.286   9.014   4.077  2.0266  0.2803 -0.6642
 9725SOL     OW31374   7.976   7.992   6.163 -0.2555  0.6359 -0.5764
 9725SOL    HW131375   8.009   7.985   6.074 -0.1933  0.5022 -0.5434
 9725SOL    HW231376   7.888   7.954   6.160 -0.0561  0.1533 -0.4735
 9726SOL     OW31377   6.215   9.341   5.807  0.6234 -0.0748 -0.7528
 9726SOL    HW131378   6.216   9.290   5.725  0.8002  0.5426 -1.1369
 9726SOL    HW231379   6.122   9.352   5.826  0.5719 -1.1911 -0.2489
 9727SOL     OW31380   7.119   3.849   7.308  0.1027 -0.3419 -0.2603
 9727SOL    HW131381   7.056   3.841   7.379  0.0765  0.6214 -0.1646
 9727SOL    HW231382   7.170   3.767   7.311  0.0462 -0.3436  0.7985
 9728SOL     OW31383   2.300   4.577   6.512  0.3650  0.9075  0.2259
 9728SOL    HW131384   2.286   4.652   6.569 -2.5581  0.5676  0.0796
 9728SOL    HW231385   2.287   4.611   6.423  0.9101  0.5959  0.0185
 9729SOL     OW31386   9.354   5.747   0.047 -0.6828  0.4443 -0.1974
 9729SOL    HW131387   9.315   5.792  -0.028  1.2968  1.0007 -0.9609
 9729SOL    HW231388   9.416   5.811   0.083 -0.0393 -0.5906  0.5786
 9730SOL     OW31389   9.248   7.027   2.117  0.6637 -0.3101  0.4718
 9730SOL    HW131390   9.169   6.990   2.156 -0.3116  0.8873 -0.3233
 9730SOL    HW231391   9.302   7.052   2.192  0.3403 -1.1956  1.0198
 9731SOL     OW31392   5.655   0.236   9.323  0.1409 -0.0243  0.0148
 9731SOL    HW131393   5.587   0.214   9.386 -0.2883 -0.1170 -0.4749
 9731SOL    HW231394   5.672   0.329   9.339  0.4708 -0.1883  0.6710
 9732SOL     OW31395   1.868   2.842   2.008 -0.0906  0.3667  0.7453
 9732SOL    HW131396   1.880   2.829   1.913  0.6928 -1.3684  1.0289
 9732SOL    HW231397   1.877   2.754   2.045  0.9393  1.1687  2.5644
 9733SOL     OW31398   0.168   0.961   7.031 -0.1625  0.2556 -0.0536
 9733SOL    HW131399   0.207   0.979   7.117 -1.3183  2.8280  0.0107
 9733SOL    HW231400   0.225   1.006   6.969 -0.5890  0.3223 -0.4013
 9734SOL     OW31401   5.596   8.020   9.211  0.0632 -0.2775 -0.0083
 9734SOL    HW131402   5.678   8.060   9.181  0.8370 -0.3983  1.8343
 9734SOL    HW231403   5.528   8.063   9.158  1.2074  0.5938 -0.8294
 9735SOL     OW31404   0.096   4.910   0.781 -0.0953  0.4174  0.1380
 9735SOL    HW131405   0.145   4.854   0.841 -0.5301 -0.2855 -0.1599
 9735SOL    HW231406   0.145   4.908   0.699 -1.7583 -2.1517 -0.9187
 9736SOL     OW31407   1.917   6.581   1.599  0.1921 -0.7230 -0.1469
 9736SOL    HW131408   1.980   6.653   1.604 -0.7071  0.2369 -1.6892
 9736SOL    HW231409   1.838   6.616   1.639 -0.7535 -0.1853 -2.3124
 9737SOL     OW31410   7.367   7.899   0.425  0.4952  0.2789  0.1995
 9737SOL    HW131411   7.385   7.805   0.419 -1.3313 -0.0641 -0.8054
 9737SOL    HW231412   7.405   7.936   0.345 -0.1125  0.1404 -0.1558
 9738SOL     OW31413   7.296   6.080   1.526  0.4939 -0.5854 -0.2557
 9738SOL    HW131414   7.364   6.144   1.549 -0.1507 -0.0370  0.1645
 9738SOL    HW231415   7.269   6.105   1.438 -0.3760  0.2829  0.2457
 9739SOL     OW31416   0.456   8.483   6.864 -0.5397  0.3343 -0.4598
 9739SOL    HW131417   0.536   8.534   6.855  0.3379 -1.0781 -1.0527
 9739SOL    HW231418   0.403   8.531   6.927  1.0204  1.0189  0.3733
 9740SOL     OW31419   4.828   9.087   6.813 -0.3427 -0.3828 -0.0033
 9740SOL    HW131420   4.894   9.028   6.848  0.7723  2.0357  2.2940
 9740SOL    HW231421   4.745   9.052   6.844  0.3243 -0.6265  1.6189
 9741SOL     OW31422   5.684   2.480   6.327 -0.0440  0.1506 -0.0037
 9741SOL    HW131423   5.733   2.553   6.364  0.7883  0.5766 -1.8496
 9741SOL    HW231424   5.751   2.422   6.291 -0.8013 -0.1402 -0.9864
 9742SOL     OW31425   1.517   0.789   2.333 -0.3065  0.1732 -0.7322
 9742SOL    HW131426   1.526   0.865   2.391  0.5652  1.0378 -1.9392
 9742SOL    HW231427   1.427   0.794   2.302 -0.1728  0.9200 -1.0396
 9743SOL     OW31428   3.571   5.682   4.999 -0.3052  0.5181 -0.0135
 9743SOL    HW131429   3.540   5.613   4.940 -1.3346  1.3798 -0.5182
 9743SOL    HW231430   3.614   5.634   5.071  1.3731 -0.5463 -1.6292
 9744SOL     OW31431   9.545   8.440   7.071  0.1741  0.0647  0.2463
 9744SOL    HW131432   9.478   8.436   7.140  0.0603 -1.3714  0.0776
 9744SOL    HW231433   9.581   8.528   7.078 -2.2600  1.1588 -0.1476
 9745SOL     OW31434   8.423   1.229   6.613 -0.6452 -0.2932  0.0431
 9745SOL    HW131435   8.425   1.233   6.517  0.0068 -1.1552  0.0101
 9745SOL    HW231436   8.331   1.242   6.635 -0.7472  0.2699 -0.6829
 9746SOL     OW31437   2.993   8.644   2.566  0.0559  0.5103 -0.2574
 9746SOL    HW131438   3.077   8.681   2.591 -0.5437  0.1418  2.7700
 9746SOL    HW231439   2.929   8.696   2.614 -1.0127 -2.3684  1.7127
 9747SOL     OW31440   5.981   5.718   1.736  1.0747  1.1108 -0.3727
 9747SOL    HW131441   6.064   5.691   1.697  0.9522  1.1932 -0.6895
 9747SOL    HW231442   5.927   5.747   1.662  0.6320  0.7093 -0.2152
 9748SOL     OW31443   4.355   5.080   8.513  0.1816 -0.1326 -0.5772
 9748SOL    HW131444   4.423   5.145   8.496  2.1071 -1.2078  2.1649
 9748SOL    HW231445   4.381   5.004   8.461  1.6246 -0.7749  0.9576
 9749SOL     OW31446   7.438   4.963   0.355  0.5668 -0.3539  0.0376
 9749SOL    HW131447   7.444   5.008   0.439 -0.6298 -2.0939  1.1353
 9749SOL    HW231448   7.371   5.011   0.307  2.6952  1.9267 -0.8640
 9750SOL     OW31449   1.744   5.293   8.729  0.2909  0.0138  0.3265
 9750SOL    HW131450   1.778   5.300   8.818  1.6105  0.6631 -0.2087
 9750SOL    HW231451   1.784   5.366   8.682 -0.3122 -0.3774 -0.8271
 9751SOL     OW31452   1.434   5.445   2.834 -0.1846  0.1081  0.1537
 9751SOL    HW131453   1.450   5.350   2.836 -1.3024 -0.1075 -0.1300
 9751SOL    HW231454   1.370   5.457   2.764 -0.7518  0.9557  0.7919
 9752SOL     OW31455   1.674   1.977   5.677  0.3568  0.3298 -0.1001
 9752SOL    HW131456   1.683   1.987   5.772 -0.1546  1.9079 -0.1916
 9752SOL    HW231457   1.752   1.928   5.651  0.7220  0.2462  1.0881
 9753SOL     OW31458   1.423   4.618   1.009  0.1798  0.1401  0.0879
 9753SOL    HW131459   1.335   4.608   1.044  1.0472 -1.0181  2.1468
 9753SOL    HW231460   1.443   4.711   1.021  0.0932 -0.0388  1.9769
 9754SOL     OW31461   8.948   7.143   7.214 -0.2430  0.1240  0.2814
 9754SOL    HW131462   9.039   7.124   7.194 -0.5455 -1.2717  0.0902
 9754SOL    HW231463   8.951   7.199   7.291  0.7726 -0.5611  0.7588
 9755SOL     OW31464   5.935   5.831   0.790 -0.4686 -0.2847  0.7591
 9755SOL    HW131465   5.987   5.839   0.870  0.7233 -0.8722  0.0573
 9755SOL    HW231466   5.862   5.774   0.814 -0.5247  0.1421  1.6194
 9756SOL     OW31467   4.273   4.176   3.787  0.1856  0.2752 -0.3169
 9756SOL    HW131468   4.360   4.138   3.797 -1.1092 -2.7260  0.6682
 9756SOL    HW231469   4.250   4.159   3.696 -0.1526 -0.8233 -0.0357
 9757SOL     OW31470   1.693   5.071   8.527 -0.3206  0.3886 -0.0074
 9757SOL    HW131471   1.611   5.031   8.559 -0.4559  0.2272 -0.5576
 9757SOL    HW231472   1.696   5.156   8.571  0.3683 -0.5179  1.7980
 9758SOL     OW31473   6.073   1.917   3.704 -0.1638  0.6001 -0.3036
 9758SOL    HW131474   6.143   1.853   3.721  0.2600  1.0962 -0.1456
 9758SOL    HW231475   6.026   1.924   3.786  1.6620  2.7271  0.6949
 9759SOL     OW31476   7.144   0.153   1.715  0.1245  0.8175  0.0358
 9759SOL    HW131477   7.095   0.104   1.649 -1.2262  0.7238  1.0648
 9759SOL    HW231478   7.078   0.177   1.781  1.8642 -1.6561  2.9002
 9760SOL     OW31479   8.767   4.243   0.344 -0.7806 -0.2962 -0.2430
 9760SOL    HW131480   8.689   4.190   0.364  0.0947 -1.0375  1.3421
 9760SOL    HW231481   8.822   4.236   0.421  0.9133  0.1698 -1.3448
 9761SOL     OW31482   2.929   5.690   3.913 -0.4465 -0.0357 -0.0383
 9761SOL    HW131483   2.947   5.609   3.865  0.6450  0.1425  0.0462
 9761SOL    HW231484   2.992   5.753   3.878 -1.0698  0.6867  0.1256
 9762SOL     OW31485   7.640   1.327   0.608  0.7156 -0.2436 -0.2565
 9762SOL    HW131486   7.604   1.383   0.538  1.8672  2.7278  1.3391
 9762SOL    HW231487   7.727   1.303   0.577  0.4912 -0.5558 -0.6517
 9763SOL     OW31488   2.959   2.949   4.699 -0.1987  0.0181 -0.4150
 9763SOL    HW131489   2.980   3.032   4.740 -0.2585 -0.3097  0.2866
 9763SOL    HW231490   2.880   2.919   4.744 -0.0711 -0.5104 -0.5309
 9764SOL     OW31491   6.201   7.432   1.867 -0.7992 -0.0188  0.2678
 9764SOL    HW131492   6.112   7.420   1.835 -0.9135 -0.4838  0.7460
 9764SOL    HW231493   6.220   7.353   1.917  0.5945 -0.8268 -1.4281
 9765SOL     OW31494   2.415   4.901   8.090 -0.2208  0.0640 -0.3564
 9765SOL    HW131495   2.328   4.910   8.051 -0.0546 -0.7808 -0.9534
 9765SOL    HW231496   2.445   4.991   8.104 -0.0618  0.4390 -2.7411
 9766SOL     OW31497   4.687   7.980   6.107 -0.6068  0.1928 -0.2163
 9766SOL    HW131498   4.629   8.005   6.178 -0.4232  3.0306 -0.9525
 9766SOL    HW231499   4.764   7.943   6.150 -1.4927 -0.3968  0.8969
 9767SOL     OW31500   0.683   9.216   1.769  0.4939 -0.3213  0.1495
 9767SOL    HW131501   0.746   9.228   1.841  0.0496 -2.5263  0.9961
 9767SOL    HW231502   0.614   9.280   1.787  0.8524 -0.1918  1.1655
 9768SOL     OW31503   8.674   3.334   5.342  0.2850 -0.3172  0.6422
 9768SOL    HW131504   8.664   3.351   5.436  1.2064  3.6470  0.1998
 9768SOL    HW231505   8.767   3.345   5.325 -0.0836  0.7353 -0.9450
 9769SOL     OW31506   0.550   2.808   7.277  0.3420 -0.1739 -0.4787
 9769SOL    HW131507   0.589   2.817   7.364 -2.0367  0.2832  0.6205
 9769SOL    HW231508   0.585   2.881   7.227  0.2355  0.7369  0.7323
 9770SOL     OW31509   2.512   0.569   9.195  0.0814 -0.2311  0.5888
 9770SOL    HW131510   2.532   0.652   9.151  0.7672  0.1327  1.5622
 9770SOL    HW231511   2.480   0.512   9.125  0.6204  0.5117 -0.2823
 9771SOL     OW31512   8.864   5.066   9.357  0.2164 -0.3060  0.6713
 9771SOL    HW131513   8.800   5.136   9.344 -1.5503 -1.7036  1.5455
 9771SOL    HW231514   8.821   5.004   9.415  1.8612 -2.0023  0.1691
 9772SOL     OW31515   2.068   1.168   4.759 -0.2187 -0.2816  0.3374
 9772SOL    HW131516   2.078   1.250   4.711 -1.4193 -0.3070  0.0111
 9772SOL    HW231517   2.132   1.174   4.830  1.7714 -0.3502 -1.3634
 9773SOL     OW31518   2.666   2.254   0.383  0.3851 -0.2836 -0.4030
 9773SOL    HW131519   2.596   2.203   0.425 -0.2217  0.1703 -0.8554
 9773SOL    HW231520   2.684   2.325   0.445  0.4322 -0.3914 -0.2932
 9774SOL     OW31521   7.783   1.404   0.992  0.2153 -0.3434 -0.3786
 9774SOL    HW131522   7.850   1.429   0.929 -1.3438  1.6144 -1.3710
 9774SOL    HW231523   7.704   1.392   0.940 -0.1198 -3.4132  0.6431
 9775SOL     OW31524   8.378   6.902   6.841  0.2764 -0.2976  0.0901
 9775SOL    HW131525   8.309   6.892   6.906  1.3292 -0.5093  1.2012
 9775SOL    HW231526   8.457   6.869   6.884  1.3862  1.3487 -0.5982
 9776SOL     OW31527   5.938   4.561   2.992 -0.2815 -0.3222  0.1626
 9776SOL    HW131528   5.909   4.524   3.075 -0.0446  2.0405  1.3854
 9776SOL    HW231529   6.033   4.551   2.993 -0.0555  1.6113  1.2209
 9777SOL     OW31530   1.716   2.382   2.989  0.4682 -0.6879  0.4964
 9777SOL    HW131531   1.653   2.454   2.993 -1.6631 -2.4129  0.6205
 9777SOL    HW231532   1.682   2.325   2.919  2.0913 -1.5617  0.3713
 9778SOL     OW31533   1.958   2.158   3.637 -0.4059  0.2247  0.2832
 9778SOL    HW131534   1.863   2.147   3.635 -0.9780  3.7265  1.1032
 9778SOL    HW231535   1.986   2.116   3.717 -1.2120 -1.0002 -0.0528
 9779SOL     OW31536   7.402   5.877   6.761  0.3431 -0.4687 -0.4131
 9779SOL    HW131537   7.382   5.970   6.767  0.1242 -0.3740 -2.0679
 9779SOL    HW231538   7.343   5.844   6.693  0.7978 -1.6941 -0.2448
 9780SOL     OW31539   0.505   4.031   5.380 -0.0216 -0.0187 -0.1397
 9780SOL    HW131540   0.420   4.003   5.347 -0.1464 -0.6018  0.6515
 9780SOL    HW231541   0.492   4.043   5.474  1.3924 -2.7537  0.5197
 9781SOL     OW31542   3.362   9.375   5.878 -0.9261  0.1190  0.0846
 9781SOL    HW131543   3.429   9.319   5.838 -1.2268 -0.2439  0.0856
 9781SOL    HW231544   3.298   9.314   5.913 -1.7257  0.4797 -0.7078
 9782SOL     OW31545   5.046   6.260   0.021  0.3801  0.2788  0.3431
 9782SOL    HW131546   4.970   6.314   0.000 -1.4873 -2.5990 -1.0656
 9782SOL    HW231547   5.102   6.264  -0.056  0.7114  0.8901  0.6110
 9783SOL     OW31548   6.821   7.374   5.382 -0.0255 -0.2792 -0.3365
 9783SOL    HW131549   6.840   7.465   5.404  0.2173 -0.4632  0.2197
 9783SOL    HW231550   6.757   7.346   5.447 -1.1790 -0.0919 -1.3488
 9784SOL     OW31551   5.938   9.260   8.331  0.2994 -0.0242  0.0236
 9784SOL    HW131552   5.936   9.224   8.242  0.3742 -1.4749  0.5801
 9784SOL    HW231553   5.943   9.355   8.318  0.9584 -0.2288 -1.5205
 9785SOL     OW31554   1.795   7.952   3.568  0.1132 -0.5902 -0.4400
 9785SOL    HW131555   1.796   8.046   3.549 -0.7593 -0.6548 -0.8105
 9785SOL    HW231556   1.877   7.937   3.616 -1.6265  1.2091  3.5990
 9786SOL     OW31557   5.060   2.802   5.275  0.4579 -0.6185  0.4141
 9786SOL    HW131558   5.021   2.754   5.202 -0.0658 -0.1513  0.3802
 9786SOL    HW231559   5.082   2.734   5.339 -0.9890 -0.8476  0.7027
 9787SOL     OW31560   6.176   3.576   4.501 -0.3460 -0.3701  0.8777
 9787SOL    HW131561   6.120   3.532   4.437  0.7657 -1.7357  0.7915
 9787SOL    HW231562   6.201   3.658   4.458 -1.2011 -0.3510  0.3869
 9788SOL     OW31563   3.692   5.650   2.625 -0.2024 -0.0499  0.0932
 9788SOL    HW131564   3.761   5.613   2.570  0.2429  1.4126 -0.3719
 9788SOL    HW231565   3.617   5.659   2.567  0.0709  0.8954 -0.1305
 9789SOL     OW31566   7.870   1.183   7.751  0.2755  0.3389  0.4276
 9789SOL    HW131567   7.904   1.201   7.663  1.1918  1.2592  0.9517
 9789SOL    HW231568   7.892   1.261   7.802 -1.9764  0.6575  1.0062
 9790SOL     OW31569   0.173   2.030   5.304  0.1714 -0.2117 -0.2595
 9790SOL    HW131570   0.241   2.006   5.368  0.7712 -1.1671 -1.2207
 9790SOL    HW231571   0.221   2.044   5.222 -0.5498  1.3424 -0.4466
 9791SOL     OW31572   2.963   8.246   6.121  0.6593  1.2219 -0.8015
 9791SOL    HW131573   2.872   8.240   6.093 -0.9698  2.6162  3.4549
 9791SOL    HW231574   2.994   8.328   6.083 -0.0504  1.1169 -1.6538
 9792SOL     OW31575   1.318   4.242   6.044 -0.3307 -0.5979 -0.4587
 9792SOL    HW131576   1.303   4.179   5.974 -3.0618 -0.8231  0.2340
 9792SOL    HW231577   1.385   4.301   6.009  1.6544 -3.2632 -1.4790
 9793SOL     OW31578   0.608   6.304   8.003 -0.8365  0.8104  0.1339
 9793SOL    HW131579   0.649   6.249   8.070 -1.2921  0.7271  0.3512
 9793SOL    HW231580   0.673   6.311   7.934 -1.1709 -0.9575 -0.4158
 9794SOL     OW31581   7.964   7.856   8.550 -0.1836  0.3695  0.2391
 9794SOL    HW131582   8.016   7.788   8.507  1.6161  2.0190 -0.3437
 9794SOL    HW231583   7.984   7.847   8.643  1.0550  0.8711  0.0369
 9795SOL     OW31584   1.074   9.509   9.196  0.0073 -0.3122  0.1096
 9795SOL    HW131585   1.147   9.568   9.214  0.7949 -1.1667 -0.2304
 9795SOL    HW231586   1.013   9.524   9.269  1.3768 -0.9346  1.4386
 9796SOL     OW31587   8.900   8.071   1.643  0.1235 -0.3182 -0.4074
 9796SOL    HW131588   8.814   8.048   1.608 -1.5081  0.9046  2.4397
 9796SOL    HW231589   8.888   8.156   1.685  2.4991 -0.5126  0.8733
 9797SOL     OW31590   3.483   4.932   6.123 -0.3173  0.1636  0.6497
 9797SOL    HW131591   3.518   4.849   6.154  0.8812  0.0584 -0.8761
 9797SOL    HW231592   3.390   4.915   6.109 -0.4117 -0.4406  1.8247
 9798SOL     OW31593   6.045   7.503   1.558 -0.1977  0.8920 -0.0876
 9798SOL    HW131594   5.976   7.476   1.618 -0.9180  0.5626 -1.0287
 9798SOL    HW231595   6.022   7.592   1.533  0.0256  0.9812  0.0206
 9799SOL     OW31596   2.862   0.585   2.387  0.6149  0.0735  0.4734
 9799SOL    HW131597   2.930   0.566   2.322  0.5910 -0.9374  0.7319
 9799SOL    HW231598   2.841   0.500   2.425  1.9006  0.8370  3.1157
 9800SOL     OW31599   8.553   3.158   5.625 -0.0339  0.3749 -1.0059
 9800SOL    HW131600   8.504   3.078   5.648 -0.0845  0.3324 -1.2579
 9800SOL    HW231601   8.486   3.218   5.592  0.0548  0.3965 -1.1436
 9801SOL     OW31602   0.058   5.271   2.413 -0.2702  0.0115 -0.2644
 9801SOL    HW131603   0.128   5.264   2.479 -1.5761 -1.2329  1.0811
 9801SOL    HW231604   0.006   5.346   2.440  0.2363  0.6309 -0.9753
 9802SOL     OW31605   6.888   6.916   6.993  0.3000  0.2823 -0.3165
 9802SOL    HW131606   6.812   6.955   7.036 -3.2302 -4.6705 -1.1900
 9802SOL    HW231607   6.885   6.948   6.904 -0.2496  0.7755 -0.1217
 9803SOL     OW31608   9.387   2.625   8.006 -0.1492  0.0505  0.9707
 9803SOL    HW131609   9.354   2.583   8.085  0.6868  0.8265  1.7543
 9803SOL    HW231610   9.371   2.561   7.936  2.6881 -2.4787  2.3644
 9804SOL     OW31611   3.542   8.077   8.196 -0.2311  0.1752  0.2782
 9804SOL    HW131612   3.561   8.102   8.105 -0.8302 -1.2142 -0.2567
 9804SOL    HW231613   3.572   8.152   8.248  1.1359  0.5439 -0.9686
 9805SOL     OW31614   2.566   6.554   2.702 -0.2846  0.4240  0.0290
 9805SOL    HW131615   2.614   6.522   2.778  0.7511  0.1481 -0.7329
 9805SOL    HW231616   2.488   6.498   2.697  1.4535 -2.0369 -1.2595
 9806SOL     OW31617   0.247   4.739   7.814  0.1793  0.4220  0.8635
 9806SOL    HW131618   0.155   4.718   7.827  0.1415 -0.6513 -0.8792
 9806SOL    HW231619   0.249   4.795   7.737  0.8934  1.7066  1.7656
 9807SOL     OW31620   1.021   8.342   6.170  0.4755 -0.0136 -0.6527
 9807SOL    HW131621   0.978   8.297   6.243  1.2989 -1.3070 -0.9288
 9807SOL    HW231622   1.110   8.306   6.169  0.8648  0.9285 -1.5080
 9808SOL     OW31623   7.111   3.562   2.588  0.0349  0.2683  0.2076
 9808SOL    HW131624   7.136   3.615   2.512 -0.3500 -0.2444 -0.2867
 9808SOL    HW231625   7.180   3.577   2.652  0.7307  0.1682 -0.5072
 9809SOL     OW31626   5.211   0.586   6.852  0.0597 -0.1166 -0.2512
 9809SOL    HW131627   5.123   0.552   6.866 -0.1191  0.3328 -0.2813
 9809SOL    HW231628   5.212   0.671   6.896  0.4821 -0.1240 -0.2397
 9810SOL     OW31629   2.387   7.838   1.596  0.1096  0.2347  0.6155
 9810SOL    HW131630   2.474   7.802   1.579  0.1320 -0.0135  1.2559
 9810SOL    HW231631   2.376   7.905   1.528  0.7864  0.2477  0.5087
 9811SOL     OW31632   7.964   8.973   0.371  0.6600 -0.4165 -0.2821
 9811SOL    HW131633   8.013   8.905   0.416 -1.3124 -1.2300  0.7926
 9811SOL    HW231634   7.872   8.951   0.388 -0.0657  2.5519  0.1496
 9812SOL     OW31635   2.957   3.459   7.369 -0.1143 -0.1650  0.1884
 9812SOL    HW131636   3.011   3.434   7.294  0.8035  0.4325  0.6350
 9812SOL    HW231637   2.935   3.551   7.353  1.6212  0.5464  1.5004
 9813SOL     OW31638   7.494   2.134   7.937  0.8141  0.4495 -0.2102
 9813SOL    HW131639   7.546   2.072   7.887  0.8461  0.7419 -0.5452
 9813SOL    HW231640   7.405   2.123   7.906  0.9690  1.2478 -0.9769
 9814SOL     OW31641   7.370   0.889   6.140  0.0848  0.1109  0.0022
 9814SOL    HW131642   7.385   0.823   6.207 -2.4561 -1.1453 -0.5558
 9814SOL    HW231643   7.424   0.964   6.167  0.7113 -1.0902  2.2822
 9815SOL     OW31644   0.667   2.681   1.079 -0.6726  0.6634  0.2068
 9815SOL    HW131645   0.726   2.754   1.097 -0.4851  0.3516  0.8518
 9815SOL    HW231646   0.703   2.607   1.127 -1.3883  0.3732  0.3158
 9816SOL     OW31647   8.893   9.408   0.212  0.1520 -0.2105  0.6920
 9816SOL    HW131648   8.844   9.489   0.227  0.6943  0.8080 -2.2961
 9816SOL    HW231649   8.827   9.344   0.186 -0.0624 -0.1456  1.0764
 9817SOL     OW31650   1.327   1.419   4.809 -0.0703  0.0606 -0.1842
 9817SOL    HW131651   1.308   1.495   4.864  0.5250  0.2927 -0.2855
 9817SOL    HW231652   1.288   1.345   4.856 -0.3485  0.3802  0.0924
 9818SOL     OW31653   1.964   4.899   8.733 -0.1492  0.5440  0.1134
 9818SOL    HW131654   1.952   4.950   8.652  0.3005 -0.6640 -0.7421
 9818SOL    HW231655   2.055   4.871   8.730 -0.7570 -1.6122 -0.2618
 9819SOL     OW31656   8.451   1.334   8.135  0.3385  0.2224 -0.0034
 9819SOL    HW131657   8.368   1.379   8.118  0.0160 -0.7660 -1.1348
 9819SOL    HW231658   8.456   1.265   8.069  1.6251 -0.3366  0.6306
 9820SOL     OW31659   8.247   0.222   8.129  0.3336  0.1572  0.3427
 9820SOL    HW131660   8.280   0.299   8.082  0.3206 -0.5952 -0.9610
 9820SOL    HW231661   8.261   0.150   8.068  0.4382 -0.9013  1.5765
 9821SOL     OW31662   0.300   3.013   3.463  0.0179  0.1057  0.2052
 9821SOL    HW131663   0.206   3.008   3.481  0.3086 -0.4569  1.6738
 9821SOL    HW231664   0.323   2.926   3.432 -0.3908  0.9395 -2.7432
 9822SOL     OW31665   7.081   5.347   0.828 -0.0452  0.3147  0.1861
 9822SOL    HW131666   7.091   5.442   0.821 -0.2798  0.2743 -0.8244
 9822SOL    HW231667   7.084   5.315   0.738 -2.4499 -0.3731  0.2660
 9823SOL     OW31668   2.891   0.933   8.399  0.2538 -0.1800 -0.2830
 9823SOL    HW131669   2.803   0.937   8.360  0.4585 -0.4332 -0.7779
 9823SOL    HW231670   2.875   0.921   8.492 -0.2386 -0.8043 -0.4377
 9824SOL     OW31671   6.132   7.370   5.493 -0.0849 -0.7476 -0.5150
 9824SOL    HW131672   6.158   7.393   5.404 -1.4282 -0.0473 -0.7669
 9824SOL    HW231673   6.036   7.377   5.492 -0.0516  1.5565  1.5513
 9825SOL     OW31674   8.056   8.740   6.779  0.0362 -0.5253 -0.1397
 9825SOL    HW131675   8.082   8.813   6.723 -1.6017 -0.2966 -0.6512
 9825SOL    HW231676   8.077   8.769   6.867 -3.2789  1.9389  0.0254
 9826SOL     OW31677   3.469   6.543   8.010  0.6440  0.3408  0.0052
 9826SOL    HW131678   3.379   6.576   8.015 -0.2111 -1.8420  0.0618
 9826SOL    HW231679   3.459   6.448   8.001  2.9632  0.0418  0.0855
 9827SOL     OW31680   8.942   2.444   1.369  0.0325  0.5395  0.0477
 9827SOL    HW131681   9.035   2.427   1.385  0.2472  1.4725 -0.1585
 9827SOL    HW231682   8.916   2.377   1.306  0.4007 -0.1071  0.5550
 9828SOL     OW31683   5.777   7.209   5.267 -0.1275  0.3906  0.1401
 9828SOL    HW131684   5.727   7.272   5.215 -0.0952 -0.7426 -1.3343
 9828SOL    HW231685   5.867   7.240   5.262 -0.2818  0.8859  0.4258
 9829SOL     OW31686   7.898   5.558   7.310 -0.4846 -0.4194 -0.1676
 9829SOL    HW131687   7.977   5.510   7.337 -1.1275 -1.1131  0.5354
 9829SOL    HW231688   7.911   5.576   7.217  0.2253 -1.0657 -0.2007
 9830SOL     OW31689   6.282   8.376   7.674  0.3379  0.4731 -0.1755
 9830SOL    HW131690   6.233   8.452   7.706 -0.5679 -0.3399  0.4206
 9830SOL    HW231691   6.218   8.325   7.624  0.8181 -0.1225 -0.2035
 9831SOL     OW31692   6.314   2.642   9.233  0.2195  0.1930 -0.3058
 9831SOL    HW131693   6.252   2.714   9.224  0.6850  0.3416 -3.6837
 9831SOL    HW231694   6.368   2.646   9.154  0.8451 -3.3401 -0.2546
 9832SOL     OW31695   6.549   7.696   5.745  0.0057 -0.1207 -0.2620
 9832SOL    HW131696   6.496   7.756   5.797 -0.5396 -1.4043  0.7370
 9832SOL    HW231697   6.617   7.751   5.706 -0.1999  1.0585  0.9798
 9833SOL     OW31698   7.911   1.122   4.804  0.1938 -0.0233 -0.0368
 9833SOL    HW131699   7.964   1.113   4.725  1.4719  0.9793  0.6667
 9833SOL    HW231700   7.951   1.060   4.866  1.0031  1.2071  0.7098
 9834SOL     OW31701   4.127   9.415   7.436  0.3987  0.0071 -0.1891
 9834SOL    HW131702   4.102   9.333   7.394  0.5676 -1.2160  1.9319
 9834SOL    HW231703   4.047   9.467   7.437  0.3313 -0.0271 -1.6964
 9835SOL     OW31704   8.308   0.690   7.159 -0.2003 -0.6001  0.0002
 9835SOL    HW131705   8.262   0.754   7.104 -0.6042  0.0542  1.0535
 9835SOL    HW231706   8.245   0.618   7.168 -0.9316  0.1454  1.1605
 9836SOL     OW31707   7.819   4.199   0.266 -0.1764  0.2291 -0.0663
 9836SOL    HW131708   7.907   4.206   0.303 -0.3756  1.4864  0.2282
 9836SOL    HW231709   7.777   4.282   0.289 -0.4363  0.9788 -2.8148
 9837SOL     OW31710   9.313   8.187   0.015 -0.4591  0.6102 -0.1361
 9837SOL    HW131711   9.273   8.118  -0.036 -1.1111  0.9386 -0.0794
 9837SOL    HW231712   9.406   8.165   0.016 -0.7384 -0.6284  0.4496
 9838SOL     OW31713   9.388   7.372   1.478  0.1445 -0.2988  0.1427
 9838SOL    HW131714   9.453   7.306   1.500 -0.4085 -1.2541 -0.9960
 9838SOL    HW231715   9.426   7.454   1.509  1.0492 -1.0697  1.1620
 9839SOL     OW31716   4.133   3.059   1.986 -0.5883  0.1273  0.5650
 9839SOL    HW131717   4.130   3.147   2.025  0.1555  0.4849 -0.1755
 9839SOL    HW231718   4.086   3.068   1.904  0.1565  0.0192  0.1224
 9840SOL     OW31719   3.251   8.635   6.851  0.5569  0.2765  0.1754
 9840SOL    HW131720   3.267   8.544   6.875 -0.6465 -0.0908 -0.3677
 9840SOL    HW231721   3.339   8.670   6.832  1.0255 -0.7875  0.3069
 9841SOL     OW31722   7.924   1.667   3.187 -0.4718  0.2076  0.5480
 9841SOL    HW131723   7.981   1.712   3.125  2.0602 -2.0049  1.0544
 9841SOL    HW231724   7.976   1.662   3.267 -2.3932  0.1792  1.8702
 9842SOL     OW31725   6.557   0.511   1.432 -0.1010  0.0491  0.4058
 9842SOL    HW131726   6.573   0.432   1.483  0.4287 -0.3672 -0.3907
 9842SOL    HW231727   6.572   0.583   1.494 -1.4436 -0.4565  1.3810
 9843SOL     OW31728   1.150   4.967   3.889 -0.6813  0.6679  0.4818
 9843SOL    HW131729   1.152   4.873   3.903 -0.0185  0.3960 -1.2816
 9843SOL    HW231730   1.099   5.001   3.963 -1.2295 -1.0953  0.9496
 9844SOL     OW31731   7.686   3.125   6.744  0.7093  0.2934 -0.2849
 9844SOL    HW131732   7.674   3.216   6.772 -3.3988  0.0168 -0.5326
 9844SOL    HW231733   7.661   3.073   6.821  2.1061 -0.6671 -0.4404
 9845SOL     OW31734   1.993   5.567   7.264 -0.3620  0.1749  0.1258
 9845SOL    HW131735   2.087   5.580   7.280 -0.6518  0.7765  1.3955
 9845SOL    HW231736   1.971   5.489   7.314 -0.9296  1.1422  1.4333
 9846SOL     OW31737   0.468   0.954   4.523  0.0839  0.5726  0.3490
 9846SOL    HW131738   0.546   0.975   4.472  0.1374 -0.7458 -0.1652
 9846SOL    HW231739   0.501   0.936   4.611  0.3743  0.0004  0.1288
 9847SOL     OW31740   0.625   2.960   5.350  0.8628 -0.1732 -0.7229
 9847SOL    HW131741   0.647   2.893   5.414  1.9992  0.3983 -0.5009
 9847SOL    HW231742   0.530   2.954   5.341  0.9694 -1.9637 -0.8905
 9848SOL     OW31743   3.130   0.044   8.095  0.0133 -0.4961  0.4353
 9848SOL    HW131744   3.139   0.115   8.159  0.1342 -0.0945 -0.0254
 9848SOL    HW231745   3.083   0.083   8.022  2.9152  0.0915 -1.2692
 9849SOL     OW31746   2.075   7.043   7.536  0.4886 -0.2284  0.3546
 9849SOL    HW131747   2.077   7.138   7.531 -1.5386 -0.1897 -0.9046
 9849SOL    HW231748   2.114   7.014   7.453  0.2961 -0.4791  0.3506
 9850SOL     OW31749   4.194   0.711   8.431 -0.1910 -0.2457  0.3815
 9850SOL    HW131750   4.222   0.692   8.520 -0.2907  0.4414  0.5699
 9850SOL    HW231751   4.100   0.695   8.430  0.0891 -2.1087 -0.1295
 9851SOL     OW31752   9.054   5.344   8.193 -0.7764 -0.2051 -0.4028
 9851SOL    HW131753   9.015   5.336   8.106  1.2319  1.4234 -1.5427
 9851SOL    HW231754   9.130   5.400   8.181  0.1691 -0.7298  2.2485
 9852SOL     OW31755   2.055   9.385   3.028 -0.6487  0.2002 -0.2868
 9852SOL    HW131756   2.104   9.467   3.021  0.2486 -0.3942 -1.4601
 9852SOL    HW231757   2.103   9.333   3.093 -2.2033  1.2170  1.7673
 9853SOL     OW31758   6.550   5.713   3.461  0.6310  1.2529 -0.2361
 9853SOL    HW131759   6.525   5.802   3.488  0.2881  0.4206  2.4780
 9853SOL    HW231760   6.473   5.660   3.480  1.0193  0.2619 -1.3253
 9854SOL     OW31761   9.271   0.645   4.410 -0.0346 -0.2473 -0.6949
 9854SOL    HW131762   9.272   0.611   4.499  0.0159  0.7171 -0.3210
 9854SOL    HW231763   9.201   0.595   4.366 -0.6258 -0.1423  0.1129
 9855SOL     OW31764   6.172   4.485   8.023 -0.2366 -0.5739  0.0005
 9855SOL    HW131765   6.165   4.566   7.973  0.1973 -0.0775  0.7287
 9855SOL    HW231766   6.182   4.514   8.114 -2.0906 -1.4701  0.5307
 9856SOL     OW31767   3.942   5.599   5.225  0.1145 -0.3261  0.9193
 9856SOL    HW131768   4.022   5.568   5.182  0.4308 -0.1936  1.4091
 9856SOL    HW231769   3.971   5.668   5.284 -0.2593 -0.7690  1.6382
 9857SOL     OW31770   2.198   3.824   1.707  0.1889 -1.0119  0.3791
 9857SOL    HW131771   2.242   3.886   1.766 -1.3997 -0.8358  1.4622
 9857SOL    HW231772   2.269   3.770   1.672  1.4890  0.6054  0.3517
 9858SOL     OW31773   2.309   1.041   1.541  0.5462 -0.1787  0.3069
 9858SOL    HW131774   2.393   1.052   1.584  0.5634  0.9346  0.0195
 9858SOL    HW231775   2.325   0.976   1.473  1.6547  1.3503 -0.9553
 9859SOL     OW31776   3.877   5.999   9.257  0.4010 -0.2218 -0.0412
 9859SOL    HW131777   3.953   5.982   9.201 -0.9350 -1.5041 -1.5435
 9859SOL    HW231778   3.815   5.930   9.236 -1.8562  1.6757 -0.0294
 9860SOL     OW31779   1.018   2.813   8.178 -0.1995  0.0232  0.5615
 9860SOL    HW131780   1.091   2.862   8.216  0.8878 -0.7632 -0.4539
 9860SOL    HW231781   0.961   2.881   8.141  0.2426  0.6251  0.9476
 9861SOL     OW31782   6.030   7.740   4.832 -0.6347  0.3142 -0.4547
 9861SOL    HW131783   6.072   7.670   4.883 -0.9103  0.4157 -0.0821
 9861SOL    HW231784   5.999   7.803   4.898 -0.4899  0.7315 -0.7813
 9862SOL     OW31785   6.824   4.845   5.631 -0.1336 -0.4440 -0.7221
 9862SOL    HW131786   6.774   4.810   5.557 -0.3609  2.1414 -1.9023
 9862SOL    HW231787   6.905   4.877   5.592  0.7677 -1.0985  0.5610
 9863SOL     OW31788   7.015   7.180   0.877 -0.3881 -0.2562 -0.5338
 9863SOL    HW131789   7.038   7.272   0.862 -0.4183 -0.0951  0.3877
 9863SOL    HW231790   6.924   7.174   0.847 -0.9129  0.4012  0.8318
 9864SOL     OW31791   9.158   3.047   7.609  0.0116 -0.3324 -0.2309
 9864SOL    HW131792   9.142   3.136   7.580  0.0165 -0.0768  0.5272
 9864SOL    HW231793   9.245   3.025   7.575  1.6014  1.2328  2.4631
 9865SOL     OW31794   3.453   5.874   0.946  0.3434  0.1504  0.6111
 9865SOL    HW131795   3.487   5.905   1.030  0.1428  2.0398  0.0378
 9865SOL    HW231796   3.359   5.861   0.962 -0.1845  2.7855  0.1538
 9866SOL     OW31797   3.048   5.223   8.634  0.4821 -1.0970 -0.2881
 9866SOL    HW131798   3.017   5.159   8.699  2.3315 -2.2305 -0.4421
 9866SOL    HW231799   3.126   5.262   8.674  0.3168 -0.1222 -0.8897
 9867SOL     OW31800   1.197   9.003   2.950 -0.0201 -0.2190  0.1648
 9867SOL    HW131801   1.216   8.929   3.008 -0.2725  1.4237  2.5037
 9867SOL    HW231802   1.108   8.985   2.918 -0.1360 -0.8556  0.8099
 9868SOL     OW31803   6.205   7.285   7.411 -0.0755  0.5469  0.4601
 9868SOL    HW131804   6.193   7.216   7.345 -1.7234  0.6460  0.6067
 9868SOL    HW231805   6.233   7.238   7.489 -0.7853  0.0733  0.4427
 9869SOL     OW31806   2.922   5.416   9.296  0.1829 -0.7768  0.4169
 9869SOL    HW131807   2.954   5.427   9.386  0.5627 -1.6690  0.3976
 9869SOL    HW231808   2.846   5.474   9.291  0.9604  0.3278  0.8882
 9870SOL     OW31809   4.504   4.899   1.964  0.4690 -0.0446 -0.2929
 9870SOL    HW131810   4.442   4.830   1.939 -0.9190 -0.0706  2.7626
 9870SOL    HW231811   4.450   4.976   1.979  1.2133  0.1893  1.5442
 9871SOL     OW31812   3.588   1.797   5.967  0.5587  0.6636  0.5687
 9871SOL    HW131813   3.544   1.798   6.052 -0.1979  1.3824  0.1849
 9871SOL    HW231814   3.557   1.718   5.925  0.1301  0.8365  0.5568
 9872SOL     OW31815   1.317   6.889   6.051 -0.1577  0.1565 -0.1769
 9872SOL    HW131816   1.388   6.876   6.113  0.1302  1.1924 -0.2624
 9872SOL    HW231817   1.237   6.874   6.101  0.0719  0.9307  0.4390
 9873SOL     OW31818   8.853   8.843   8.292  0.3777  0.1555 -0.1965
 9873SOL    HW131819   8.828   8.935   8.280 -1.8881 -0.1847  1.3368
 9873SOL    HW231820   8.858   8.808   8.203  0.3682  1.5155 -0.7630
 9874SOL     OW31821   9.083   3.820   1.047 -0.1271 -0.3157  0.2561
 9874SOL    HW131822   9.127   3.760   1.108 -2.2612 -1.6553  0.5977
 9874SOL    HW231823   9.079   3.772   0.964 -1.0367 -0.2911  0.2737
 9875SOL     OW31824   7.436   2.871   3.485  0.3538 -0.3067  0.0681
 9875SOL    HW131825   7.364   2.829   3.532  0.3205  1.2814  1.5098
 9875SOL    HW231826   7.515   2.841   3.530  0.4144  0.1371  0.2561
 9876SOL     OW31827   8.021   8.720   1.420 -0.0305 -0.6545  0.0666
 9876SOL    HW131828   7.980   8.725   1.507  0.7459  0.4154  0.3938
 9876SOL    HW231829   7.991   8.799   1.375 -0.4732 -1.2346 -0.6733
 9877SOL     OW31830   0.207   3.235   7.835 -0.2494  0.2473 -0.1931
 9877SOL    HW131831   0.299   3.244   7.808 -0.1299 -1.7456 -0.6117
 9877SOL    HW231832   0.211   3.177   7.911 -1.2249 -0.8551 -0.9459
 9878SOL     OW31833   1.742   4.287   6.309  0.1069 -0.7370  0.3097
 9878SOL    HW131834   1.837   4.300   6.313  0.1165 -0.1125 -1.2938
 9878SOL    HW231835   1.722   4.236   6.388  2.1420 -3.1408 -0.5778
 9879SOL     OW31836   5.750   0.203   6.401  0.2185 -0.6973  0.2597
 9879SOL    HW131837   5.782   0.164   6.320  0.9964  1.4353 -0.5395
 9879SOL    HW231838   5.656   0.210   6.389  0.3573 -0.1251 -0.6194
 9880SOL     OW31839   7.827   7.855   9.168 -0.0813  0.2846  0.0639
 9880SOL    HW131840   7.881   7.869   9.246 -0.8130 -1.8794  1.0300
 9880SOL    HW231841   7.737   7.872   9.197 -0.2027  1.4434 -0.8880
 9881SOL     OW31842   9.433   8.215   9.306 -0.1698 -0.3936  0.3357
 9881SOL    HW131843   9.351   8.229   9.260 -0.6186 -0.7730  1.0113
 9881SOL    HW231844   9.492   8.283   9.273 -1.5820  1.6791  1.8883
 9882SOL     OW31845   6.507   5.176   3.725 -0.0296  0.2503  0.2151
 9882SOL    HW131846   6.485   5.120   3.651 -0.3090  1.2525 -0.4729
 9882SOL    HW231847   6.495   5.266   3.693 -0.1142  0.7083  1.4492
 9883SOL     OW31848   4.822   5.260   3.487  0.3436  0.1534  0.0438
 9883SOL    HW131849   4.759   5.297   3.549  1.2932  0.3356  0.9421
 9883SOL    HW231850   4.822   5.321   3.413 -2.3053 -1.1330 -1.1476
 9884SOL     OW31851   3.392   1.076   5.372 -0.0097  0.3101 -0.1102
 9884SOL    HW131852   3.378   0.985   5.397 -2.8705  0.2129 -1.6546
 9884SOL    HW231853   3.433   1.116   5.448  1.5511 -2.2883  0.5132
 9885SOL     OW31854   8.298   3.059   7.531  0.0511 -0.4009  0.3390
 9885SOL    HW131855   8.216   3.083   7.487  0.2174  0.0513  0.2727
 9885SOL    HW231856   8.328   2.982   7.484  0.6240  0.5082 -0.8563
 9886SOL     OW31857   1.845   5.994   7.230 -0.1472 -0.0726  0.2003
 9886SOL    HW131858   1.858   5.943   7.310  1.5646 -0.0601 -0.0376
 9886SOL    HW231859   1.757   6.031   7.240 -0.7746 -1.6665  1.1512
 9887SOL     OW31860   7.922   3.129   0.138  0.0342  0.3320 -0.1081
 9887SOL    HW131861   7.993   3.097   0.194  0.1271  1.4521  0.4344
 9887SOL    HW231862   7.849   3.144   0.198 -0.1894  0.5931 -0.4425
 9888SOL     OW31863   7.838   1.314   5.486 -0.1496 -0.0760 -0.3342
 9888SOL    HW131864   7.924   1.293   5.450  0.8906  2.5638  0.3645
 9888SOL    HW231865   7.819   1.402   5.453 -2.2245 -0.2652  0.1944
 9889SOL     OW31866   3.796   4.539   2.442 -0.1059 -0.2423 -0.3225
 9889SOL    HW131867   3.768   4.561   2.532  0.8286 -0.1827 -0.0423
 9889SOL    HW231868   3.844   4.615   2.413 -3.2892  1.2562 -2.2071
 9890SOL     OW31869   9.079   0.513   5.835 -0.4939 -0.4066  0.2331
 9890SOL    HW131870   9.051   0.577   5.900 -2.5576  0.0921 -1.0425
 9890SOL    HW231871   9.009   0.512   5.770  0.5929 -2.2471 -1.0324
 9891SOL     OW31872   4.255   7.500   0.626  0.2445 -0.3652  0.1957
 9891SOL    HW131873   4.193   7.462   0.689 -1.3918 -1.2645 -1.8312
 9891SOL    HW231874   4.200   7.532   0.555  2.0801 -0.6552 -1.4250
 9892SOL     OW31875   7.109   2.794   0.669  0.3202  0.0703  0.4963
 9892SOL    HW131876   7.124   2.862   0.604  1.7997 -0.6831 -0.0139
 9892SOL    HW231877   7.194   2.782   0.711 -0.4356  0.0454  2.1001
 9893SOL     OW31878   8.424   3.847   8.870 -0.4039  0.6612  0.6633
 9893SOL    HW131879   8.465   3.860   8.785  0.3277  0.6545  1.0096
 9893SOL    HW231880   8.347   3.793   8.852  1.6749 -2.4492  0.4467
 9894SOL     OW31881   9.487   0.047   5.584 -0.4059  0.0086 -0.3927
 9894SOL    HW131882   9.414  -0.013   5.573  0.1202 -0.5973 -0.6422
 9894SOL    HW231883   9.514   0.036   5.675  0.7809 -1.4320 -0.8745
 9895SOL     OW31884   5.579   3.606   7.843  0.3772 -0.0479 -0.1567
 9895SOL    HW131885   5.517   3.552   7.793 -0.6487 -0.6974  1.7082
 9895SOL    HW231886   5.528   3.683   7.868 -0.1480 -1.1369  2.4104
 9896SOL     OW31887   4.533   9.089   2.502  0.4142 -0.5058 -0.3409
 9896SOL    HW131888   4.455   9.128   2.542 -0.6439  1.4538 -3.8828
 9896SOL    HW231889   4.499   9.014   2.453  0.2474  1.4240 -3.4127
 9897SOL     OW31890   7.545   5.559   2.129 -0.1682 -0.1038  0.0236
 9897SOL    HW131891   7.628   5.572   2.176 -0.1791 -2.3670  0.7670
 9897SOL    HW231892   7.501   5.644   2.135  2.1012  1.2119 -0.4915
 9898SOL     OW31893   8.140   3.362   1.594  0.5034 -0.2364 -0.7406
 9898SOL    HW131894   8.088   3.318   1.527 -1.6187  0.4498  0.3546
 9898SOL    HW231895   8.110   3.453   1.592 -0.2191 -0.3471  1.6012
 9899SOL     OW31896   3.586   8.724   0.007  0.3778  0.3764  0.1219
 9899SOL    HW131897   3.615   8.716   0.098  0.4252 -0.2918  0.0471
 9899SOL    HW231898   3.595   8.637  -0.030 -0.8921  0.3386 -0.1551
 9900SOL     OW31899   5.215   5.133   9.406 -0.3587 -0.0163 -0.2666
 9900SOL    HW131900   5.303   5.139   9.370  0.5417 -0.3248  1.7559
 9900SOL    HW231901   5.179   5.222   9.396  0.3142  0.2120 -0.7499
 9901SOL     OW31902   1.883   1.347   8.564  0.3008  0.4736 -0.0045
 9901SOL    HW131903   1.800   1.308   8.537  0.4221  0.3258 -0.1638
 9901SOL    HW231904   1.918   1.386   8.484  1.2150 -0.9667 -0.3369
 9902SOL     OW31905   6.688   4.134   1.306  0.0020  0.0936 -0.9191
 9902SOL    HW131906   6.753   4.066   1.288 -1.0030 -0.6738 -1.7354
 9902SOL    HW231907   6.624   4.125   1.236 -1.1933  0.5744  0.0767
 9903SOL     OW31908   4.365   0.454   4.219  0.2142 -0.2764  0.6707
 9903SOL    HW131909   4.383   0.488   4.307  0.5330  0.1068  0.4547
 9903SOL    HW231910   4.297   0.387   4.234  0.8103 -0.7568  1.3036
 9904SOL     OW31911   6.088   9.503   4.557 -0.6767 -0.2926 -0.0269
 9904SOL    HW131912   6.102   9.522   4.464 -1.4896  2.3682  0.3141
 9904SOL    HW231913   6.098   9.408   4.564 -2.1822 -0.7894 -3.1231
 9905SOL     OW31914   5.066   6.560   6.416  0.3805 -0.7352  0.4203
 9905SOL    HW131915   5.142   6.539   6.470  1.5735 -0.5552 -1.1060
 9905SOL    HW231916   5.094   6.540   6.326 -0.8175  0.8106 -0.3599
 9906SOL     OW31917   2.214   4.319   2.466 -0.2636 -0.7316 -0.6641
 9906SOL    HW131918   2.127   4.354   2.441 -0.7101 -1.5346 -0.2572
 9906SOL    HW231919   2.208   4.304   2.560  0.0562 -1.5127 -0.7607
 9907SOL     OW31920   7.327   2.121   0.589 -1.0167  0.0557  0.4014
 9907SOL    HW131921   7.346   2.212   0.614 -0.4251 -0.6251  2.6166
 9907SOL    HW231922   7.298   2.079   0.670 -0.5320 -1.9267 -0.3972
 9908SOL     OW31923   8.608   3.028   6.440 -0.0734  0.7852  0.0792
 9908SOL    HW131924   8.691   2.986   6.460 -0.8154  0.4387  2.8892
 9908SOL    HW231925   8.559   2.963   6.390  1.4171  1.1438 -1.9531
 9909SOL     OW31926   5.112   7.615   3.534  0.2611 -0.3499 -0.1567
 9909SOL    HW131927   5.110   7.671   3.612  0.6247 -0.3398 -0.1534
 9909SOL    HW231928   5.183   7.651   3.481  0.1879 -0.5213 -0.3727
 9910SOL     OW31929   7.803   6.817   8.673  0.0332  0.9358 -0.6259
 9910SOL    HW131930   7.717   6.792   8.638  0.5409 -1.9174 -0.0696
 9910SOL    HW231931   7.786   6.844   8.763 -0.2411 -0.0904 -0.3649
 9911SOL     OW31932   5.990   9.117   6.192 -0.4680 -0.1562  0.5009
 9911SOL    HW131933   5.984   9.029   6.229 -1.1459 -0.1810  0.3496
 9911SOL    HW231934   5.915   9.122   6.132  0.8398 -0.2886 -1.2252
 9912SOL     OW31935   0.477   4.759   3.593  0.3999 -0.0175 -0.1894
 9912SOL    HW131936   0.395   4.726   3.557  0.0766  1.5808 -1.0486
 9912SOL    HW231937   0.545   4.721   3.538  0.4866 -3.0321  1.7942
 9913SOL     OW31938   5.533   7.561   0.866 -0.4565 -0.2560 -0.4915
 9913SOL    HW131939   5.493   7.516   0.791  0.0261 -0.5075 -0.6011
 9913SOL    HW231940   5.506   7.653   0.856 -1.2811 -0.4799 -0.3756
 9914SOL     OW31941   1.623   3.044   5.126  0.4431 -0.1879  0.8375
 9914SOL    HW131942   1.688   3.073   5.061  0.7530 -1.1683  0.7024
 9914SOL    HW231943   1.665   3.061   5.211 -0.1678  1.5836  0.8331
 9915SOL     OW31944   1.320   4.402   1.821 -0.4931 -0.0046  0.4294
 9915SOL    HW131945   1.247   4.464   1.828 -0.4833  0.0755 -0.1604
 9915SOL    HW231946   1.301   4.351   1.742  0.5488  0.6281 -0.2518
 9916SOL     OW31947   8.711   8.548   5.890  0.0021 -0.3484  0.4816
 9916SOL    HW131948   8.776   8.569   5.822 -0.2168  1.3204  0.7311
 9916SOL    HW231949   8.749   8.582   5.971 -0.9440  0.2295  0.7058
 9917SOL     OW31950   9.126   2.132   6.146  0.6194 -0.0249 -0.2179
 9917SOL    HW131951   9.097   2.074   6.216 -0.0797  0.0500 -0.4283
 9917SOL    HW231952   9.221   2.133   6.153  0.5127  1.6258  2.0428
 9918SOL     OW31953   3.384   5.085   1.132 -0.0316  0.3886 -0.1625
 9918SOL    HW131954   3.459   5.090   1.072  0.3670 -1.9684  0.0295
 9918SOL    HW231955   3.375   5.173   1.166  0.4719  1.5659 -2.7761
 9919SOL     OW31956   0.425   6.263   4.059  0.0703 -0.5578  0.3199
 9919SOL    HW131957   0.453   6.266   4.151 -0.8104  0.1452  0.5723
 9919SOL    HW231958   0.356   6.328   4.052 -0.9759 -1.7059 -0.4740
 9920SOL     OW31959   0.512   0.331   5.590  0.1546  0.2322  0.0306
 9920SOL    HW131960   0.424   0.325   5.626  0.2751 -1.5094  0.0951
 9920SOL    HW231961   0.569   0.336   5.666  0.0926  2.6323 -0.0048
 9921SOL     OW31962   4.291   5.130   1.972 -0.1971 -0.0789 -0.0244
 9921SOL    HW131963   4.344   5.179   1.910  0.6518  0.0005  0.7365
 9921SOL    HW231964   4.207   5.175   1.974  1.1491  2.6088  2.0776
 9922SOL     OW31965   1.495   6.480   1.581  0.5089 -0.5751 -0.3121
 9922SOL    HW131966   1.567   6.419   1.595  1.0322  0.7363  4.1841
 9922SOL    HW231967   1.538   6.564   1.566 -0.0845 -0.1895  0.1073
 9923SOL     OW31968   6.546   7.900   5.368  0.0168  0.4786  0.5200
 9923SOL    HW131969   6.529   7.974   5.309 -0.2136 -0.8703 -1.2132
 9923SOL    HW231970   6.601   7.841   5.316 -1.0033 -1.2254  1.2795
 9924SOL     OW31971   4.728   7.403   6.075  0.1541  0.0282 -0.1863
 9924SOL    HW131972   4.809   7.417   6.123 -0.0254  1.3573 -0.2475
 9924SOL    HW231973   4.679   7.484   6.085 -0.8126 -0.4462 -0.8511
 9925SOL     OW31974   9.401   4.537   8.687 -0.0434 -0.5396 -0.2695
 9925SOL    HW131975   9.369   4.481   8.758 -0.5037 -0.5925 -0.5204
 9925SOL    HW231976   9.334   4.604   8.677  0.9905  0.7058  0.7540
 9926SOL     OW31977   8.734   1.920   1.242 -0.1348  0.2120 -0.3609
 9926SOL    HW131978   8.693   1.882   1.164 -1.6664 -0.8436  0.8805
 9926SOL    HW231979   8.661   1.961   1.290  1.3653  5.0168 -1.6006
 9927SOL     OW31980   9.559   2.515   3.425 -0.4489 -0.4104  0.0052
 9927SOL    HW131981   9.561   2.549   3.336  0.2086 -1.0053 -0.2107
 9927SOL    HW231982   9.469   2.532   3.455 -0.0544  1.8853  0.0639
 9928SOL     OW31983   8.440   4.204   1.270 -0.2073 -0.3753  0.0054
 9928SOL    HW131984   8.527   4.242   1.280 -0.1468 -0.5047 -0.0196
 9928SOL    HW231985   8.445   4.120   1.317 -0.0403 -0.8052 -0.7725
 9929SOL     OW31986   4.485   7.262   2.025  0.0324 -0.0631  0.1740
 9929SOL    HW131987   4.549   7.243   1.956  0.5539 -1.5025  1.0176
 9929SOL    HW231988   4.402   7.234   1.988  0.0898  0.4915 -0.3935
 9930SOL     OW31989   8.759   8.739   5.481 -0.2162  0.2659 -0.4114
 9930SOL    HW131990   8.818   8.693   5.541 -1.7429  1.4579  2.1732
 9930SOL    HW231991   8.692   8.675   5.459  0.1281 -0.0647 -0.4928
 9931SOL     OW31992   2.112   4.043   8.663  0.7063  0.0075 -0.1796
 9931SOL    HW131993   2.178   4.110   8.680  0.3253  0.4303 -0.3261
 9931SOL    HW231994   2.122   3.981   8.735  0.9583  0.3071  0.0519
 9932SOL     OW31995   5.308   1.717   5.264  0.4493 -0.1083  0.4218
 9932SOL    HW131996   5.293   1.801   5.306 -1.1088 -0.0005 -0.2835
 9932SOL    HW231997   5.244   1.658   5.304 -0.1283 -0.3340 -0.7726
 9933SOL     OW31998   2.342   7.575   1.492  0.4581 -0.1830 -0.7372
 9933SOL    HW131999   2.367   7.664   1.515 -0.3483 -0.0568 -0.3174
 9933SOL    HW232000   2.340   7.575   1.396 -1.3971  0.8079 -0.7468
 9934SOL     OW32001   5.721   7.316   2.953 -0.5452  0.1950  0.5527
 9934SOL    HW132002   5.750   7.231   2.919 -1.1828 -0.7828  2.3416
 9934SOL    HW232003   5.787   7.378   2.922  2.4575 -1.6304  2.8514
 9935SOL     OW32004   9.059   3.471   8.108  0.0112 -0.0454 -0.1919
 9935SOL    HW132005   9.106   3.535   8.054 -0.7158  3.4010  2.8723
 9935SOL    HW232006   8.974   3.462   8.066 -0.3314  2.0857 -0.0576
 9936SOL     OW32007   4.960   9.264   7.208 -0.3022  0.2336 -0.0505
 9936SOL    HW132008   4.970   9.198   7.277 -1.2208  0.2768  0.1506
 9936SOL    HW232009   4.869   9.253   7.178 -1.2929  2.8594  1.5741
 9937SOL     OW32010   4.627   4.056   0.583  0.0700 -0.1624 -0.5261
 9937SOL    HW132011   4.625   4.021   0.495  2.5263  0.8389 -1.0670
 9937SOL    HW232012   4.554   4.119   0.586 -0.7039 -0.9859 -1.4471
 9938SOL     OW32013   8.130   7.531   5.963  0.2787 -0.2807 -0.4261
 9938SOL    HW132014   8.075   7.576   6.026 -0.8564 -1.5473 -0.4723
 9938SOL    HW232015   8.071   7.508   5.891  0.6430 -2.3069 -0.1580
 9939SOL     OW32016   2.599   6.267   9.338 -0.6816  0.0705  0.7624
 9939SOL    HW132017   2.606   6.172   9.340  0.0341  0.0921 -0.1502
 9939SOL    HW232018   2.662   6.297   9.404  0.1706 -0.0598  0.0284
 9940SOL     OW32019   3.880   0.877   4.888  0.2136  0.1603  0.5652
 9940SOL    HW132020   3.820   0.879   4.814 -0.6285  1.6686  1.2547
 9940SOL    HW232021   3.828   0.907   4.963  1.6312  0.8452  1.3135
 9941SOL     OW32022   3.666   1.505   8.829 -0.4730  0.4638 -0.1500
 9941SOL    HW132023   3.589   1.501   8.886  0.2708  0.6797  0.8862
 9941SOL    HW232024   3.702   1.416   8.831 -1.6262 -0.0960 -1.9877
 9942SOL     OW32025   2.350   7.541   7.853 -0.0143 -0.1094  0.2623
 9942SOL    HW132026   2.280   7.526   7.917 -1.5865 -0.1839 -1.3855
 9942SOL    HW232027   2.386   7.455   7.836 -0.5136 -0.2856  0.0718
 9943SOL     OW32028   0.318   7.540   8.436 -0.0440  0.6106  0.1266
 9943SOL    HW132029   0.325   7.459   8.486  0.5591 -0.0395 -0.9733
 9943SOL    HW232030   0.405   7.551   8.396 -0.4360  1.2280 -0.5866
 9944SOL     OW32031   6.510   5.807   1.863 -0.3557 -0.0272  0.0060
 9944SOL    HW132032   6.570   5.852   1.804  0.9967 -0.4461  0.9898
 9944SOL    HW232033   6.523   5.714   1.844 -2.2384 -0.1012 -1.1764
 9945SOL     OW32034   7.654   3.733   6.458 -0.6619  0.2935  0.3688
 9945SOL    HW132035   7.594   3.664   6.487  1.2948  0.1114  4.6363
 9945SOL    HW232036   7.718   3.686   6.404 -1.0624 -0.6464  0.6735
 9946SOL     OW32037   3.198   8.978   5.924  0.3109 -0.8701 -0.1641
 9946SOL    HW132038   3.150   8.915   5.978  1.5071 -2.1950 -0.5907
 9946SOL    HW232039   3.141   9.054   5.920 -0.4078 -1.2606  1.8066
 9947SOL     OW32040   2.108   5.796   2.403  0.3764 -0.0178 -0.0371
 9947SOL    HW132041   2.119   5.715   2.453 -0.1184 -1.0971 -1.5836
 9947SOL    HW232042   2.017   5.792   2.371  0.9526  0.1043 -1.8137
 9948SOL     OW32043   2.465   0.681   6.790  0.1425  0.9871  0.4253
 9948SOL    HW132044   2.511   0.740   6.851 -2.1173  2.0755  1.1713
 9948SOL    HW232045   2.421   0.739   6.729 -1.3619  0.0452  0.5750
 9949SOL     OW32046   2.796   7.246   3.378  0.0646  0.2209  0.2823
 9949SOL    HW132047   2.716   7.296   3.391  0.6057  1.5636 -1.1567
 9949SOL    HW232048   2.767   7.156   3.365 -1.0974  0.4871  0.9065
 9950SOL     OW32049   4.981   3.242   0.140  0.0004  0.6500  0.0159
 9950SOL    HW132050   4.975   3.172   0.205  1.0478 -0.3492 -0.9187
 9950SOL    HW232051   5.012   3.318   0.189  0.4209  0.0154  0.7443
 9951SOL     OW32052   5.393   3.839   7.849  0.4081 -0.1434  0.0637
 9951SOL    HW132053   5.412   3.933   7.856  1.5050 -0.2516 -0.9827
 9951SOL    HW232054   5.299   3.832   7.859  0.3106  1.0777  0.1431
 9952SOL     OW32055   2.955   9.570   1.817  0.0882  0.4502  0.4215
 9952SOL    HW132056   3.034   9.574   1.764 -0.6981 -0.9167 -0.9207
 9952SOL    HW232057   2.985   9.551   1.906  1.3870  2.2054  0.4105
 9953SOL     OW32058   6.106   7.805   0.174  0.7136 -0.2583 -0.4344
 9953SOL    HW132059   6.097   7.871   0.104 -0.2727 -0.2278 -0.2839
 9953SOL    HW232060   6.038   7.828   0.237  1.2092 -0.6543  0.2488
 9954SOL     OW32061   6.235   2.319   0.242 -0.2155  0.4874  0.1352
 9954SOL    HW132062   6.262   2.243   0.294  0.6364  0.4993 -0.2690
 9954SOL    HW232063   6.311   2.377   0.244 -0.2042  0.5354 -1.0156
 9955SOL     OW32064   7.494   5.527   5.698 -0.4891  0.5672  0.5680
 9955SOL    HW132065   7.430   5.569   5.756 -1.7324 -0.9660  0.3648
 9955SOL    HW232066   7.445   5.458   5.654  1.3161 -0.6814  0.3980
 9956SOL     OW32067   0.550   7.967   1.240 -0.3139 -0.4091 -0.6813
 9956SOL    HW132068   0.617   8.027   1.207  0.6027  0.2761  2.0962
 9956SOL    HW232069   0.467   8.009   1.220  0.2926  1.4312  0.4167
 9957SOL     OW32070   6.250   0.669   7.176  0.1078  0.5135  0.8774
 9957SOL    HW132071   6.175   0.644   7.230  0.5452 -1.6480  0.5757
 9957SOL    HW232072   6.292   0.586   7.152 -0.7647  1.1329 -3.8533
 9958SOL     OW32073   6.676   1.050   8.705 -0.2270  0.1097 -0.2147
 9958SOL    HW132074   6.597   1.038   8.757 -0.7399  0.8793 -0.7902
 9958SOL    HW232075   6.747   1.056   8.770 -0.9426  1.8489  0.4667
 9959SOL     OW32076   0.992   7.076   8.231  0.4531  0.1011  0.6163
 9959SOL    HW132077   1.024   7.069   8.140  2.4050 -0.7365  1.3149
 9959SOL    HW232078   0.898   7.062   8.224  0.7775 -1.7599 -1.1103
 9960SOL     OW32079   7.204   3.878   8.333 -0.1550 -0.2890  0.0806
 9960SOL    HW132080   7.238   3.961   8.299 -1.7906 -0.2659 -1.6918
 9960SOL    HW232081   7.265   3.854   8.403  0.3423  2.4156  0.7034
 9961SOL     OW32082   7.922   8.684   1.748 -0.2637 -0.4372  0.1325
 9961SOL    HW132083   7.851   8.625   1.772 -1.6996  1.5802  1.1134
 9961SOL    HW232084   8.001   8.640   1.780 -0.8490 -3.1720 -1.8014
 9962SOL     OW32085   5.199   3.471   0.674  0.2991 -0.0317 -0.1163
 9962SOL    HW132086   5.215   3.505   0.761  0.7569 -0.4695 -0.0249
 9962SOL    HW232087   5.267   3.511   0.619 -0.7828  1.2708 -0.5433
 9963SOL     OW32088   2.882   9.214   1.397  0.1412  0.2379  0.4579
 9963SOL    HW132089   2.866   9.120   1.403  0.5074  0.1056 -0.5313
 9963SOL    HW232090   2.923   9.236   1.481  0.9736 -0.6854  0.3195
 9964SOL     OW32091   3.704   5.226   1.813 -0.4072  0.1079 -0.2677
 9964SOL    HW132092   3.673   5.316   1.824 -3.1099 -0.6417 -0.7785
 9964SOL    HW232093   3.714   5.216   1.718 -1.4551 -0.4621 -0.3392
 9965SOL     OW32094   5.989   5.825   4.879  0.4831  0.3920 -0.1408
 9965SOL    HW132095   5.982   5.729   4.875  0.4807  0.3472  0.7025
 9965SOL    HW232096   5.943   5.856   4.801 -0.5549 -0.2563  0.1977
 9966SOL     OW32097   4.680   2.721   5.588  0.0017 -0.3702  0.3687
 9966SOL    HW132098   4.724   2.670   5.521  0.2264 -0.2890  0.4538
 9966SOL    HW232099   4.587   2.705   5.573 -0.0265  0.7670 -0.8712
 9967SOL     OW32100   4.779   6.991   8.819 -0.5081 -0.1169  0.2508
 9967SOL    HW132101   4.745   6.906   8.846 -1.0006  0.5105  1.6668
 9967SOL    HW232102   4.781   7.043   8.899 -0.7941  1.4028 -0.6935
 9968SOL     OW32103   8.882   5.967   8.149 -0.6226  0.1007 -0.4618
 9968SOL    HW132104   8.857   6.023   8.076 -0.3977  1.4010  0.4306
 9968SOL    HW232105   8.919   5.889   8.108 -0.7963  0.6653 -1.7339
 9969SOL     OW32106   2.729   0.282   8.908 -0.6737  0.5569  0.1415
 9969SOL    HW132107   2.772   0.221   8.969 -0.1350  0.2285 -0.5605
 9969SOL    HW232108   2.753   0.368   8.941  0.9768  0.3878 -0.5259
 9970SOL     OW32109   5.857   7.249   3.561 -0.1015 -0.2863  0.3496
 9970SOL    HW132110   5.932   7.235   3.503  0.1239  0.2695  0.4973
 9970SOL    HW232111   5.782   7.254   3.502  0.2432  1.2539 -0.0133
 9971SOL     OW32112   6.107   5.519   4.874 -0.1923 -0.0185  0.1803
 9971SOL    HW132113   6.076   5.517   4.783  1.0870 -0.0013 -0.2899
 9971SOL    HW232114   6.100   5.429   4.904  0.4525 -0.2520 -0.3415
 9972SOL     OW32115   2.003   1.796   0.816  0.1295 -0.7532 -0.3266
 9972SOL    HW132116   2.003   1.848   0.896 -0.2829 -1.6381  0.2682
 9972SOL    HW232117   1.943   1.842   0.757  2.1989  1.2110 -1.0527
 9973SOL     OW32118   5.606   0.566   5.374 -0.3352 -0.1663 -0.1071
 9973SOL    HW132119   5.682   0.519   5.338 -1.0905 -1.5847  0.0666
 9973SOL    HW232120   5.579   0.512   5.449 -0.8725  0.8903  0.4729
 9974SOL     OW32121   3.056   1.385   0.067 -0.5795  0.5384  0.2214
 9974SOL    HW132122   3.115   1.310   0.078  1.2522  1.8177 -0.2389
 9974SOL    HW232123   2.995   1.378   0.140 -1.2163 -2.0082 -0.4485
 9975SOL     OW32124   2.589   0.811   6.992 -0.1370  0.4384  0.2004
 9975SOL    HW132125   2.571   0.738   7.052 -2.9239  1.7421  1.1359
 9975SOL    HW232126   2.661   0.858   7.033  0.8323 -1.0293  0.2663
 9976SOL     OW32127   8.044   8.584   0.877 -0.6340 -0.0104  0.5767
 9976SOL    HW132128   7.959   8.598   0.835 -0.7788  1.2204  1.2303
 9976SOL    HW232129   8.108   8.604   0.808 -0.8400 -1.4586 -0.0778
 9977SOL     OW32130   8.959   2.694   2.401 -0.3347  0.2363  0.6500
 9977SOL    HW132131   9.009   2.711   2.321 -1.0835 -1.3241 -0.1877
 9977SOL    HW232132   9.018   2.640   2.455 -0.5045 -0.2372  0.3639
 9978SOL     OW32133   8.295   8.054   2.465 -0.7682  0.2932 -0.3686
 9978SOL    HW132134   8.229   7.986   2.453 -1.0626  0.8012 -1.8659
 9978SOL    HW232135   8.253   8.118   2.523 -1.9086  0.9680 -1.8783
 9979SOL     OW32136   5.035   1.161   6.328 -0.0912  0.6041  0.2429
 9979SOL    HW132137   4.969   1.092   6.318  1.8143 -1.1428 -1.1328
 9979SOL    HW232138   5.065   1.152   6.419  0.6855 -1.0004 -0.1279
 9980SOL     OW32139   4.823   2.574   2.977 -0.0402 -0.4466  0.2566
 9980SOL    HW132140   4.916   2.597   2.981 -0.1303 -0.1777  0.9122
 9980SOL    HW232141   4.821   2.480   2.995 -0.0722 -0.0361  2.5856
 9981SOL     OW32142   8.086   2.146   5.762  0.1410  0.1552  0.1536
 9981SOL    HW132143   8.159   2.173   5.818  0.6388  0.1854 -0.5033
 9981SOL    HW232144   8.094   2.201   5.684  1.1088 -1.7389 -1.1578
 9982SOL     OW32145   7.312   5.869   2.897  0.2649 -0.8364 -0.4298
 9982SOL    HW132146   7.274   5.784   2.872 -0.3457 -0.9967  0.9381
 9982SOL    HW232147   7.283   5.929   2.829 -2.3012 -1.0087  0.3939
 9983SOL     OW32148   2.450   6.184   4.198 -0.0190  0.2729  0.1901
 9983SOL    HW132149   2.533   6.137   4.200  0.1064  0.4684 -0.2767
 9983SOL    HW232150   2.384   6.117   4.183  0.3736  0.4653 -3.0938
 9984SOL     OW32151   4.869   3.103   0.377 -0.1526  0.3198 -0.1826
 9984SOL    HW132152   4.851   3.175   0.437 -1.5678  0.1141 -0.3451
 9984SOL    HW232153   4.784   3.081   0.338  0.7312  0.6630 -2.5107
 9985SOL     OW32154   5.104   9.307   0.580  0.8567 -0.1241 -0.1348
 9985SOL    HW132155   5.104   9.256   0.662 -1.6793  1.6782  1.1281
 9985SOL    HW232156   5.022   9.282   0.537  0.7629  1.0701 -0.6811
 9986SOL     OW32157   2.818   5.721   2.697  0.0753 -0.0056 -0.0112
 9986SOL    HW132158   2.756   5.676   2.640  1.0958  0.9824 -2.0068
 9986SOL    HW232159   2.877   5.767   2.637  0.7801  1.7057  1.8751
 9987SOL     OW32160   9.275   2.106   1.445 -0.0339 -0.3108 -0.4865
 9987SOL    HW132161   9.349   2.136   1.497  0.1259 -0.9712 -0.3312
 9987SOL    HW232162   9.231   2.041   1.500 -0.5117 -0.1968 -0.7248
 9988SOL     OW32163   6.914   4.123   0.728  0.3063 -0.5813  0.0647
 9988SOL    HW132164   6.979   4.119   0.798  0.9925 -0.4568 -0.5498
 9988SOL    HW232165   6.884   4.033   0.717 -0.6496 -0.4409  1.2698
 9989SOL     OW32166   1.732   8.423   2.694 -0.0864  0.3468  0.2205
 9989SOL    HW132167   1.797   8.442   2.626 -2.6386 -0.1349 -2.5983
 9989SOL    HW232168   1.765   8.346   2.739  1.2838  0.1163 -1.1026
 9990SOL     OW32169   2.485   2.702   0.599  0.2591 -0.1107  0.9179
 9990SOL    HW132170   2.429   2.652   0.539  1.8828 -1.6648  0.6099
 9990SOL    HW232171   2.535   2.761   0.542  0.5755 -0.3782  0.9117
 9991SOL     OW32172   4.235   1.978   0.116 -0.1967 -0.0259  0.0875
 9991SOL    HW132173   4.156   1.924   0.128  1.6027 -2.5854  1.4353
 9991SOL    HW232174   4.298   1.918   0.077  1.8300  1.2036  1.3250
 9992SOL     OW32175   0.174   3.859   3.392  0.2557  0.7425 -0.6194
 9992SOL    HW132176   0.135   3.929   3.340  0.8196  0.2906 -1.6804
 9992SOL    HW232177   0.269   3.876   3.389  0.3645  0.1976 -0.4947
 9993SOL     OW32178   6.943   8.419   3.348 -0.5047  0.3446  0.0823
 9993SOL    HW132179   6.945   8.477   3.272  0.8796  0.5910  0.2758
 9993SOL    HW232180   6.992   8.466   3.415 -0.6174 -0.4223  0.7179
 9994SOL     OW32181   6.998   5.099   8.692  0.2346 -0.4945  0.2236
 9994SOL    HW132182   7.091   5.114   8.708  0.1672 -1.0580  1.2270
 9994SOL    HW232183   6.958   5.185   8.700  0.5385 -0.4040  0.8028
 9995SOL     OW32184   5.125   0.387   5.553  0.6980 -0.0203 -0.3529
 9995SOL    HW132185   5.177   0.353   5.479  1.1344 -2.4577  0.9552
 9995SOL    HW232186   5.172   0.464   5.583  1.8444 -0.3866 -1.1516
 9996SOL     OW32187   5.962   8.565   6.123 -0.3486 -0.3946  0.9208
 9996SOL    HW132188   5.907   8.489   6.140  1.2020 -1.3322  1.9475
 9996SOL    HW232189   6.004   8.584   6.206  2.3238 -0.9314 -0.1961
 9997SOL     OW32190   4.228   2.336   6.113  0.0732  0.5266  0.3477
 9997SOL    HW132191   4.256   2.396   6.044  0.0108 -0.6039 -0.7044
 9997SOL    HW232192   4.306   2.321   6.166  1.0996 -1.2374 -1.5230
 9998SOL     OW32193   0.140   0.032   4.374  0.2343 -0.1913  0.3530
 9998SOL    HW132194   0.131   0.088   4.450 -1.2012 -0.3875  0.3546
 9998SOL    HW232195   0.159  -0.055   4.410 -0.9408 -0.3869  0.5266
 9999SOL     OW32196   3.962   2.656   6.703  0.0187 -0.0678 -0.2031
 9999SOL    HW132197   3.895   2.705   6.656  0.4608  0.1081 -0.6625
 9999SOL    HW232198   3.994   2.592   6.640  0.1373 -0.2876  0.0786
10000SOL     OW32199   6.359   5.904   0.825  0.4552 -0.6802 -0.3378
10000SOL    HW132200   6.318   5.945   0.749  0.2328  1.5474  0.9217
10000SOL    HW232201   6.296   5.915   0.896  1.8713 -0.0733  0.8806
10001SOL     OW32202   7.143   0.851   2.965 -0.0036 -0.8231 -0.6617
10001SOL    HW132203   7.083   0.894   2.903 -0.6824 -2.2262 -1.0290
10001SOL    HW232204   7.086   0.822   3.036  1.0594  2.8794  1.9837
10002SOL     OW32205   0.617   2.764   3.339  0.5240 -0.3539  0.0820
10002SOL    HW132206   0.612   2.671   3.319  1.3408 -0.5121  0.5863
10002SOL    HW232207   0.527   2.789   3.359  0.0122 -0.6590 -1.6376
10003SOL     OW32208   4.648   6.182   2.815 -0.1553  0.4242  0.0338
10003SOL    HW132209   4.730   6.222   2.786 -1.2347  0.8462 -2.6907
10003SOL    HW232210   4.653   6.092   2.784  0.2701 -0.3149  2.0724
10004SOL     OW32211   2.416   2.485   6.901 -0.4482 -0.0296  0.2666
10004SOL    HW132212   2.380   2.402   6.933 -3.3408  0.7768 -0.6240
10004SOL    HW232213   2.365   2.504   6.822  1.3055  1.7951 -0.5085
10005SOL     OW32214   0.219   1.135   0.945 -0.1704 -0.4903  0.6260
10005SOL    HW132215   0.222   1.123   1.040 -0.3568 -1.2426  0.5375
10005SOL    HW232216   0.311   1.143   0.920 -0.1312 -0.0200  0.8957
10006SOL     OW32217   7.063   0.792   1.401 -0.0746 -0.7974  0.3914
10006SOL    HW132218   7.127   0.798   1.472 -0.7099 -0.8385  0.9853
10006SOL    HW232219   7.062   0.880   1.362 -0.3590 -0.5101  1.0183
10007SOL     OW32220   0.433   7.788   9.167  0.3332 -0.7634 -0.6630
10007SOL    HW132221   0.480   7.751   9.241  1.7069  0.6542 -0.7688
10007SOL    HW232222   0.384   7.862   9.204 -0.1542 -0.9474 -0.9231
10008SOL     OW32223   0.919   4.923   9.183 -0.6650  0.2737  0.3379
10008SOL    HW132224   0.992   4.974   9.216 -0.6383  0.7839 -0.4650
10008SOL    HW232225   0.949   4.832   9.186 -0.0442  0.4683  0.1479
10009SOL     OW32226   7.344   2.580   2.223 -0.1467 -0.2623  0.6507
10009SOL    HW132227   7.375   2.617   2.306 -0.9777 -0.6406  1.1407
10009SOL    HW232228   7.283   2.510   2.249 -0.0087 -0.7395 -0.2749
10010SOL     OW32229   5.307   5.675   4.482 -0.6296  0.5159 -0.4232
10010SOL    HW132230   5.381   5.614   4.487  0.0444  1.3974  0.9079
10010SOL    HW232231   5.235   5.623   4.446  0.1582 -0.8363 -0.0919
10011SOL     OW32232   1.954   2.709   3.388  0.5629 -0.0521  0.2270
10011SOL    HW132233   1.898   2.650   3.337 -1.3044  1.3557  0.5450
10011SOL    HW232234   2.026   2.731   3.329 -1.0126  0.7525 -1.4687
10012SOL     OW32235   6.153   3.458   2.833  0.0174 -0.1519  0.3613
10012SOL    HW132236   6.224   3.499   2.784  0.7001 -0.6603  0.8843
10012SOL    HW232237   6.073   3.498   2.800  0.5260  0.1718 -0.5018
10013SOL     OW32238   9.282   9.232   7.821 -0.4223  0.2941  0.0285
10013SOL    HW132239   9.198   9.278   7.818 -1.2398 -1.1577 -0.3330
10013SOL    HW232240   9.273   9.162   7.757  0.8618 -0.2239  0.3921
10014SOL     OW32241   9.031   2.921   4.043 -0.0435  0.9001  0.6934
10014SOL    HW132242   9.124   2.934   4.062  0.1902 -0.5682  0.6243
10014SOL    HW232243   9.019   2.961   3.957  1.2309 -1.4304 -0.6924
10015SOL     OW32244   7.980   7.229   6.235  0.3367 -0.1197  0.4906
10015SOL    HW132245   8.057   7.179   6.207 -0.7324 -2.2361  1.0611
10015SOL    HW232246   8.014   7.314   6.260  2.1528 -0.1631 -1.5100
10016SOL     OW32247   4.751   5.090   9.002 -0.6235  0.4647 -0.1321
10016SOL    HW132248   4.714   5.127   9.082  2.2361 -0.1314  1.5978
10016SOL    HW232249   4.679   5.039   8.964 -2.4181  1.7184  1.3728
10017SOL     OW32250   0.310   3.991   0.503 -0.3706 -0.1721 -0.1287
10017SOL    HW132251   0.221   3.970   0.529 -1.0716 -0.3097 -2.4153
10017SOL    HW232252   0.348   3.908   0.476  0.5823 -0.1627  1.0938
10018SOL     OW32253   0.790   1.768   0.908 -0.2821 -0.1744  0.2293
10018SOL    HW132254   0.870   1.717   0.920 -1.1032 -1.5043  0.3521
10018SOL    HW232255   0.811   1.830   0.838  0.5832 -1.1327 -0.3948
10019SOL     OW32256   9.345   7.224   0.302  0.2209  0.1003 -0.4469
10019SOL    HW132257   9.397   7.302   0.319 -0.9303  0.7363  0.3389
10019SOL    HW232258   9.263   7.239   0.350 -0.1499 -1.4535 -0.5333
10020SOL     OW32259   5.234   0.180   3.335  0.4077 -0.5972  0.2590
10020SOL    HW132260   5.244   0.115   3.405  0.0425  0.1113  0.9856
10020SOL    HW232261   5.144   0.210   3.343  0.5792  0.0203 -0.0469
10021SOL     OW32262   9.376   3.144   9.051  0.1781  0.9012  0.3021
10021SOL    HW132263   9.356   3.076   9.115 -0.8018 -0.5166 -1.4488
10021SOL    HW232264   9.328   3.221   9.082 -0.3177  0.2406  1.2214
10022SOL     OW32265   7.387   6.155   3.149  0.6401 -0.9103  0.3664
10022SOL    HW132266   7.379   6.060   3.157 -2.4267 -0.6482  1.7610
10022SOL    HW232267   7.467   6.177   3.197  0.2452 -2.6204  1.9022
10023SOL     OW32268   0.420   1.631   5.238  0.1388  0.4824  0.5750
10023SOL    HW132269   0.411   1.652   5.145 -0.0664  1.3795  0.7899
10023SOL    HW232270   0.332   1.604   5.265  0.1407  0.4760  0.5747
10024SOL     OW32271   3.917   6.839   2.471  0.3895  0.1239 -0.5463
10024SOL    HW132272   3.959   6.801   2.549 -0.6597  0.0062 -0.0300
10024SOL    HW232273   3.914   6.766   2.409  2.1795  0.4816 -1.1208
10025SOL     OW32274   3.581   7.156   4.198 -0.4768  0.0048  0.3749
10025SOL    HW132275   3.537   7.194   4.122  1.7322  0.6104 -0.6951
10025SOL    HW232276   3.671   7.141   4.168  0.6746  0.9568  3.0614
10026SOL     OW32277   7.319   8.731   8.622  0.2213  0.5310 -0.0642
10026SOL    HW132278   7.227   8.754   8.634 -0.0170 -0.5086  0.2502
10026SOL    HW232279   7.363   8.814   8.608 -1.3747  0.8660 -4.9484
10027SOL     OW32280   2.784   3.793   3.676  0.1702 -0.1814 -0.6472
10027SOL    HW132281   2.819   3.748   3.753 -0.8329  0.2136  0.0529
10027SOL    HW232282   2.817   3.882   3.683  0.5296 -0.2863 -0.9756
10028SOL     OW32283   6.878   6.919   2.682  0.3514  0.7374  0.2283
10028SOL    HW132284   6.943   6.951   2.745  0.3636  1.3941 -0.0989
10028SOL    HW232285   6.794   6.939   2.723  0.3328 -0.6125  0.8992
10029SOL     OW32286   5.084   2.612   5.465 -0.1574 -0.5849 -0.5074
10029SOL    HW132287   5.017   2.574   5.409 -0.7616 -1.4756  0.7805
10029SOL    HW232288   5.153   2.546   5.468 -0.1249 -0.5399 -0.2144
10030SOL     OW32289   2.600   5.650   0.582 -0.8839 -0.1048 -0.2174
10030SOL    HW132290   2.672   5.626   0.641  1.7244  1.6149 -2.4536
10030SOL    HW232291   2.580   5.568   0.536 -1.3497 -0.9209  1.3676
10031SOL     OW32292   4.651   9.521   5.699  0.0584 -0.0614 -0.3356
10031SOL    HW132293   4.559   9.543   5.686 -0.0587  0.3907  1.0870
10031SOL    HW232294   4.665   9.442   5.647 -1.1229 -0.1383 -0.5502
10032SOL     OW32295   2.743   5.238   6.732  0.7649 -0.2720  0.1108
10032SOL    HW132296   2.771   5.212   6.644  0.2270  0.5830 -0.3290
10032SOL    HW232297   2.822   5.276   6.772  1.0068 -0.6540 -0.0076
10033SOL     OW32298   8.686   3.839   8.370  0.1225 -0.1238 -0.4204
10033SOL    HW132299   8.774   3.875   8.360  0.2461  0.0759  1.1779
10033SOL    HW232300   8.659   3.865   8.457 -0.5644 -2.2368  0.0560
10034SOL     OW32301   6.249   6.610   7.960 -0.1913 -0.4164 -0.1452
10034SOL    HW132302   6.175   6.577   8.011 -0.4500 -1.8532 -1.3664
10034SOL    HW232303   6.326   6.568   8.000 -0.2438 -0.4661 -0.0955
10035SOL     OW32304   7.790   0.244   1.368  0.3900  0.8133 -0.0549
10035SOL    HW132305   7.711   0.253   1.420  0.0198  0.7363 -0.5955
10035SOL    HW232306   7.779   0.305   1.295  1.2985  1.5752  0.4172
10036SOL     OW32307   5.636   9.415   6.206  0.3353 -0.3171  0.0398
10036SOL    HW132308   5.706   9.481   6.212 -0.2536  0.5303 -1.5430
10036SOL    HW232309   5.556   9.464   6.228 -0.1267 -0.4258 -1.3003
10037SOL     OW32310   1.828   8.103   9.575 -0.3764 -0.0647 -0.7201
10037SOL    HW132311   1.874   8.120   9.657  0.5204 -1.2746 -0.9497
10037SOL    HW232312   1.820   8.008   9.571 -1.7838  0.0445 -1.3231
10038SOL     OW32313   4.359   3.784   7.812 -0.6808  0.2124  0.8973
10038SOL    HW132314   4.281   3.780   7.867 -1.2354  0.2426  0.1380
10038SOL    HW232315   4.326   3.768   7.723  0.0433  1.0433  0.4569
10039SOL     OW32316   2.513   1.250   2.445 -0.3518 -0.4108 -0.4372
10039SOL    HW132317   2.491   1.321   2.505 -0.7717  0.1830 -1.2606
10039SOL    HW232318   2.434   1.196   2.441  0.1586 -1.2759  0.6297
10040SOL     OW32319   0.134   2.918   1.865  0.4776  0.4158 -0.7015
10040SOL    HW132320   0.137   2.969   1.946 -0.6718  1.7935 -1.4730
10040SOL    HW232321   0.216   2.938   1.821  0.7529  0.2978 -0.2438
10041SOL     OW32322   9.076   7.880   6.125 -0.1205  0.6906  0.2345
10041SOL    HW132323   9.126   7.925   6.192  1.0136 -0.9203  0.5282
10041SOL    HW232324   9.140   7.861   6.056 -0.3049 -1.2924  0.5593
10042SOL     OW32325   4.204   4.934   3.548 -0.0946  0.2077 -0.0576
10042SOL    HW132326   4.127   4.905   3.597  0.2684 -1.9119 -0.6414
10042SOL    HW232327   4.194   4.894   3.461  1.4523  0.2404 -0.2778
10043SOL     OW32328   7.044   5.866   2.638 -0.0320  0.7347  0.8425
10043SOL    HW132329   7.112   5.934   2.634 -0.9572  1.6725  0.3650
10043SOL    HW232330   7.085   5.793   2.683  1.4100  1.1372  0.2371
10044SOL     OW32331   7.898   1.691   6.528  0.2063  0.0528  0.2203
10044SOL    HW132332   7.983   1.720   6.496  0.0759  1.3456  0.9744
10044SOL    HW232333   7.877   1.752   6.598 -1.8470  0.4691 -0.6803
10045SOL     OW32334   8.202   5.973   7.986 -0.0152  0.3192  0.5146
10045SOL    HW132335   8.288   5.985   8.025  0.4421  1.4686 -0.7391
10045SOL    HW232336   8.143   6.022   8.042  0.5354  1.4653  0.1237
10046SOL     OW32337   6.468   5.976   5.018 -0.0484  0.1073  0.5305
10046SOL    HW132338   6.516   5.974   5.100  0.3596 -1.8363  0.2889
10046SOL    HW232339   6.400   5.909   5.028 -0.8672  0.7954 -0.2160
10047SOL     OW32340   0.763   3.878   0.506 -0.3516  0.3465 -0.2147
10047SOL    HW132341   0.803   3.937   0.441 -0.0177  0.1638 -0.1786
10047SOL    HW232342   0.728   3.937   0.573 -1.1443  0.5632 -0.8003
10048SOL     OW32343   7.998   4.975   8.044 -0.0277  0.2016  0.0469
10048SOL    HW132344   8.062   4.977   7.973  0.3235  3.2636  0.3124
10048SOL    HW232345   7.914   4.989   8.002  0.1755  1.9712  0.1625
10049SOL     OW32346   4.165   3.758   1.283  0.5189  0.3433 -0.3506
10049SOL    HW132347   4.148   3.840   1.236 -1.5571  0.2098  0.0969
10049SOL    HW232348   4.079   3.716   1.290  1.1817 -0.8029  1.4288
10050SOL     OW32349   2.878   3.407   4.972  0.5923 -0.2665  0.3745
10050SOL    HW132350   2.934   3.428   4.898 -1.2928 -0.7691 -1.2708
10050SOL    HW232351   2.808   3.472   4.968 -0.1857 -1.0497  0.9680
10051SOL     OW32352   1.597   2.278   4.232  0.4977 -0.2424 -0.2758
10051SOL    HW132353   1.600   2.182   4.226 -0.6579 -0.3658  0.7798
10051SOL    HW232354   1.538   2.305   4.162  2.8948 -0.0338 -2.3674
10052SOL     OW32355   0.713   0.722   3.558 -0.3446  0.1240 -0.3704
10052SOL    HW132356   0.669   0.797   3.598  0.3646  0.0222  0.6562
10052SOL    HW232357   0.644   0.657   3.546 -0.6854  0.3849  0.1538
10053SOL     OW32358   4.247   7.414   1.134 -0.3752 -0.1261 -0.3497
10053SOL    HW132359   4.314   7.345   1.128  0.2199  0.5325 -1.7303
10053SOL    HW232360   4.186   7.393   1.063  0.5181  1.4515 -1.6547
10054SOL     OW32361   9.285   8.660   6.171 -0.0179 -0.0565 -0.4547
10054SOL    HW132362   9.254   8.621   6.090 -1.7682 -1.4011  0.7994
10054SOL    HW232363   9.344   8.595   6.208 -0.0932  0.0632 -0.1200
10055SOL     OW32364   0.963   4.571   1.373  0.4836 -0.0464  0.5442
10055SOL    HW132365   0.872   4.577   1.402  0.6273  0.4586  0.9047
10055SOL    HW232366   0.958   4.561   1.278  0.0471 -0.3588  0.5976
10056SOL     OW32367   4.364   0.469   6.687 -0.2318  0.3819 -0.0397
10056SOL    HW132368   4.399   0.411   6.755  1.0344  0.6126 -0.4567
10056SOL    HW232369   4.326   0.409   6.622 -0.2571  0.0931  0.2375
10057SOL     OW32370   6.931   3.450   1.530 -0.1402 -0.4095 -0.1375
10057SOL    HW132371   6.897   3.440   1.441 -0.2454  1.7724 -0.3988
10057SOL    HW232372   7.000   3.515   1.522 -0.2904 -0.0174  1.4036
10058SOL     OW32373   6.692   1.471   9.403 -0.1230  0.0641  0.3511
10058SOL    HW132374   6.613   1.417   9.413  0.2765 -0.2658  1.9707
10058SOL    HW232375   6.759   1.424   9.452  0.8749  0.7841 -0.2968
10059SOL     OW32376   2.714   9.445   1.931 -0.1505 -0.3649 -0.3292
10059SOL    HW132377   2.650   9.460   1.862  0.0494  0.7451 -0.2978
10059SOL    HW232378   2.795   9.484   1.897  0.3240 -1.1169 -0.0779
10060SOL     OW32379   8.385   8.172   7.494  0.6661 -0.1662  0.1191
10060SOL    HW132380   8.292   8.176   7.474  1.2140  1.7864 -2.8009
10060SOL    HW232381   8.424   8.130   7.417  2.4349  2.0927 -0.3356
10061SOL     OW32382   4.627   6.188   5.595 -0.0006 -0.2590 -0.0113
10061SOL    HW132383   4.626   6.122   5.664  0.2943 -0.7300 -0.4486
10061SOL    HW232384   4.688   6.254   5.627  0.9812 -1.0021 -0.2841
10062SOL     OW32385   6.419   3.522   4.764 -0.2440  0.0001  0.3832
10062SOL    HW132386   6.503   3.479   4.779 -0.7232 -1.1143 -0.0176
10062SOL    HW232387   6.356   3.470   4.813 -0.5480  1.5711  1.7406
10063SOL     OW32388   8.789   6.209   6.340  0.1843  0.3406  0.2801
10063SOL    HW132389   8.694   6.215   6.326  0.4038  1.5870 -0.8027
10063SOL    HW232390   8.804   6.116   6.361 -1.1053 -0.1509 -0.8409
10064SOL     OW32391   6.395   4.639   6.515 -0.3458  0.0657 -0.2820
10064SOL    HW132392   6.323   4.609   6.571 -1.1989 -0.9208 -1.8352
10064SOL    HW232393   6.462   4.669   6.576 -2.2939  1.5830  1.2326
10065SOL     OW32394   1.112   8.289   5.814  0.5461  0.0542  0.0807
10065SOL    HW132395   1.025   8.300   5.852  0.1753  1.8853 -1.1531
10065SOL    HW232396   1.125   8.368   5.761  2.2282 -1.0145 -1.2023
10066SOL     OW32397   0.010   1.845   9.315  0.2671 -0.4379 -0.3658
10066SOL    HW132398  -0.041   1.800   9.248  0.6599 -0.4536 -0.6578
10066SOL    HW232399   0.009   1.786   9.390 -1.8344  0.4263  0.3624
10067SOL     OW32400   5.645   2.266   2.097 -0.2351  0.4303 -0.2047
10067SOL    HW132401   5.695   2.190   2.068  1.3575  0.6713  1.7216
10067SOL    HW232402   5.601   2.297   2.017  1.2028 -0.9137 -1.5900
10068SOL     OW32403   2.682   5.569   6.606  0.2750  0.0175 -0.5308
10068SOL    HW132404   2.698   5.662   6.626 -0.2371 -0.1581  0.7981
10068SOL    HW232405   2.644   5.534   6.686 -1.5700 -0.8588 -1.7232
10069SOL     OW32406   3.160   7.410   0.883  0.2925  0.3306  0.2025
10069SOL    HW132407   3.206   7.482   0.926 -1.5342 -0.1878  3.3498
10069SOL    HW232408   3.110   7.453   0.814  1.9169  1.5231 -0.2967
10070SOL     OW32409   6.275   1.887   4.687 -0.2772 -0.6128 -0.1430
10070SOL    HW132410   6.302   1.864   4.776  1.4086 -1.2206 -0.7527
10070SOL    HW232411   6.292   1.807   4.636 -0.1515  0.0652 -1.1938
10071SOL     OW32412   1.179   2.876   7.654  0.2661 -0.2185  0.0902
10071SOL    HW132413   1.205   2.848   7.741 -0.2213 -0.1077  0.2752
10071SOL    HW232414   1.161   2.969   7.663  0.8489 -0.0654 -0.2798
10072SOL     OW32415   5.750   7.709   1.760  0.2155  0.0560  0.1981
10072SOL    HW132416   5.846   7.714   1.769  0.3490  0.1043 -1.0914
10072SOL    HW232417   5.718   7.787   1.805  0.8364  0.4542 -0.0319
10073SOL     OW32418   0.902   5.053   2.866  0.2209  0.4131  0.6229
10073SOL    HW132419   0.839   4.983   2.848  0.7607  0.0433  0.1623
10073SOL    HW232420   0.968   5.011   2.921 -1.0924  1.3610  3.1107
10074SOL     OW32421   1.511   1.643   0.067  0.0969 -0.0829 -0.0772
10074SOL    HW132422   1.418   1.621   0.056  0.2356 -1.4809  1.1767
10074SOL    HW232423   1.550   1.625  -0.019 -0.7660  0.4151 -0.5830
10075SOL     OW32424   6.291   2.635   1.858 -0.2806  0.3018  0.2124
10075SOL    HW132425   6.382   2.611   1.842 -0.6710 -1.5895  0.6146
10075SOL    HW232426   6.292   2.674   1.945  0.3627  1.8230 -0.4373
10076SOL     OW32427   0.244   9.233   2.721  0.3413 -0.1666 -0.3672
10076SOL    HW132428   0.302   9.175   2.673 -0.1756 -0.1565 -1.0138
10076SOL    HW232429   0.211   9.179   2.794 -0.0145 -0.6405 -0.8729
10077SOL     OW32430   6.226   8.830   5.901  0.1227  0.0303  0.0963
10077SOL    HW132431   6.296   8.873   5.852  0.4753 -0.7838 -0.1414
10077SOL    HW232432   6.223   8.877   5.985  0.4007  0.5922 -0.2018
10078SOL     OW32433   1.542   4.379   0.480 -0.3012 -0.5501  0.0767
10078SOL    HW132434   1.477   4.450   0.475  1.4950  1.1790 -0.1111
10078SOL    HW232435   1.589   4.385   0.398 -0.7652 -2.7186 -0.4004
10079SOL     OW32436   0.237   2.297   2.882 -0.3897 -0.0954  0.0745
10079SOL    HW132437   0.272   2.338   2.803  2.0148  0.1369  1.1632
10079SOL    HW232438   0.315   2.280   2.936 -1.6396 -2.9009  1.1686
10080SOL     OW32439   3.697   1.686   3.769 -0.2587 -0.0844  0.3370
10080SOL    HW132440   3.656   1.659   3.687 -1.1385 -0.0647  0.7478
10080SOL    HW232441   3.789   1.699   3.748  0.0270 -2.4539 -0.1028
10081SOL     OW32442   8.043   7.975   5.906  0.5700  0.0493  0.4292
10081SOL    HW132443   8.102   8.015   5.842  0.1797  0.0083  0.0419
10081SOL    HW232444   7.955   7.996   5.874  0.3220  1.9963  2.1394
10082SOL     OW32445   3.173   8.035   8.563  0.3683 -0.1641 -0.0053
10082SOL    HW132446   3.172   7.975   8.488  0.3883 -2.1123  1.4581
10082SOL    HW232447   3.266   8.055   8.576  0.2997  0.8915 -0.9932
10083SOL     OW32448   1.959   2.428   3.559 -0.2839 -0.4862 -0.5871
10083SOL    HW132449   2.046   2.468   3.563 -0.6791  0.3669 -0.2374
10083SOL    HW232450   1.972   2.339   3.590  0.4241 -0.2843 -0.2844
10084SOL     OW32451   4.439   8.322   4.874 -0.3555  0.0381 -0.2279
10084SOL    HW132452   4.396   8.272   4.943 -0.5636 -0.4795 -0.7244
10084SOL    HW232453   4.373   8.386   4.847  0.1913  1.1573  0.9708
10085SOL     OW32454   0.362   6.580   3.814 -0.7585  0.3978 -0.2043
10085SOL    HW132455   0.456   6.588   3.832 -1.0895  1.1815  1.2462
10085SOL    HW232456   0.342   6.657   3.760 -0.3381 -0.4519 -1.6278
10086SOL     OW32457   9.355   7.765   9.300 -0.0718 -0.5179 -0.4222
10086SOL    HW132458   9.305   7.701   9.249 -0.0227 -1.5501  0.7680
10086SOL    HW232459   9.400   7.713   9.366  2.5552  0.3793 -1.3738
10087SOL     OW32460   6.633   8.312   4.391 -0.4514  0.0459  0.6458
10087SOL    HW132461   6.710   8.343   4.342 -0.0604  2.3294  2.5598
10087SOL    HW232462   6.665   8.298   4.480 -2.1621  0.6314  1.3867
10088SOL     OW32463   7.752   6.431   2.535  0.2579 -0.5184  0.5608
10088SOL    HW132464   7.793   6.349   2.509 -0.5254 -1.0488  0.9786
10088SOL    HW232465   7.712   6.465   2.455  0.6570 -0.5000  0.3703
10089SOL     OW32466   7.710   0.559   0.729 -0.9246 -0.9712  0.1473
10089SOL    HW132467   7.786   0.586   0.677 -0.5467 -0.9471  0.6999
10089SOL    HW232468   7.662   0.498   0.673 -1.5199  0.4553 -0.9262
10090SOL     OW32469   1.694   8.530   3.369 -0.6366  0.7558 -0.3274
10090SOL    HW132470   1.696   8.442   3.331 -1.7117  0.2888  0.6435
10090SOL    HW232471   1.685   8.588   3.293 -3.4495 -0.1916 -0.8586
10091SOL     OW32472   4.386   8.568   4.301  0.3047 -0.5297 -0.9500
10091SOL    HW132473   4.470   8.543   4.261 -0.0483 -0.6618 -1.6231
10091SOL    HW232474   4.398   8.660   4.326  0.1865 -0.1170 -2.3405
10092SOL     OW32475   4.397   1.546   8.488 -0.4584  0.1826 -0.1212
10092SOL    HW132476   4.386   1.542   8.583 -0.0527 -1.6758 -0.1223
10092SOL    HW232477   4.327   1.491   8.453  1.3235 -1.8876 -0.6865
10093SOL     OW32478   3.199   9.086   9.111  0.0201 -0.0955 -0.8095
10093SOL    HW132479   3.136   9.137   9.162  0.4177 -0.1604 -0.2453
10093SOL    HW232480   3.176   8.995   9.127  0.1595 -0.1172 -0.7259
10094SOL     OW32481   2.085   2.263   5.685  0.3084 -0.1322  0.0735
10094SOL    HW132482   2.080   2.322   5.610  0.1850  0.1864  0.3317
10094SOL    HW232483   2.178   2.241   5.691  0.2903 -0.3317 -0.3015
10095SOL     OW32484   2.673   8.881   1.390  0.0971  0.6067 -0.6480
10095SOL    HW132485   2.639   8.970   1.383 -2.4125 -0.1503  0.8039
10095SOL    HW232486   2.674   8.848   1.301  0.3001  1.8201 -1.1087
10096SOL     OW32487   0.246   7.629   1.095  0.4192 -0.3243  0.5618
10096SOL    HW132488   0.242   7.657   1.186 -0.4413  0.6585  0.2408
10096SOL    HW232489   0.216   7.538   1.097 -0.0697 -0.1592  1.2057
10097SOL     OW32490   1.858   7.686   7.163 -0.2940 -0.1575  0.5957
10097SOL    HW132491   1.917   7.756   7.190  1.2301 -1.5021  0.9192
10097SOL    HW232492   1.812   7.721   7.086  2.3213  0.3141 -0.8629
10098SOL     OW32493   0.672   2.683   8.004  0.1081 -0.4537  0.0982
10098SOL    HW132494   0.658   2.775   7.982 -0.5403 -0.6379 -0.3087
10098SOL    HW232495   0.733   2.651   7.937 -0.0995 -0.4557 -0.0903
10099SOL     OW32496   6.968   9.476   7.592  0.2645  0.4397  0.6924
10099SOL    HW132497   6.892   9.476   7.533  0.1605  1.4064  0.7928
10099SOL    HW232498   7.044   9.476   7.534  0.1636  1.0375  0.5455
10100SOL     OW32499   8.948   6.565   8.317 -0.1447  0.0286 -0.2782
10100SOL    HW132500   8.863   6.585   8.277 -0.5682 -0.0113  0.5679
10100SOL    HW232501   8.926   6.510   8.393  0.5810  0.5348  0.3086
10101SOL     OW32502   8.360   7.033   0.823  0.1180  0.6460  0.1342
10101SOL    HW132503   8.279   7.075   0.793 -0.0829 -0.4129 -0.8546
10101SOL    HW232504   8.353   7.033   0.918 -1.9742 -1.1595  0.0475
10102SOL     OW32505   0.596   3.684   6.427 -0.0076  0.2939 -0.5062
10102SOL    HW132506   0.670   3.702   6.485 -0.4548  0.2478  0.0901
10102SOL    HW232507   0.528   3.745   6.455 -0.6569 -0.5595 -0.1422
10103SOL     OW32508   2.662   9.120   7.942 -0.0085 -0.1884  0.2684
10103SOL    HW132509   2.567   9.114   7.948 -0.1000 -0.2913 -0.9776
10103SOL    HW232510   2.694   9.056   8.005 -0.7905 -1.0844 -0.2207
10104SOL     OW32511   9.570   8.080   3.565 -0.0318  0.3788 -0.4107
10104SOL    HW132512   9.595   8.022   3.638  0.5463 -0.3138 -1.1420
10104SOL    HW232513   9.477   8.095   3.578 -0.2169 -0.8013 -0.2556
10105SOL     OW32514   5.969   8.584   9.416 -0.2278 -0.2025  0.6494
10105SOL    HW132515   5.875   8.590   9.400 -0.4211 -0.4471  1.6241
10105SOL    HW232516   5.986   8.490   9.423  0.2911 -0.2198 -0.5911
10106SOL     OW32517   8.396   7.520   2.883  0.1224 -0.0887 -0.1662
10106SOL    HW132518   8.441   7.482   2.958  1.1080 -1.5687 -1.4574
10106SOL    HW232519   8.328   7.457   2.862  2.0189 -1.4926 -2.5700
10107SOL     OW32520   7.331   9.250   0.387  0.8142 -0.9528 -0.0425
10107SOL    HW132521   7.352   9.343   0.396 -0.1262 -0.3417 -3.1702
10107SOL    HW232522   7.331   9.217   0.477 -2.2549  2.8259  1.6150
10108SOL     OW32523   0.988   0.283   3.732 -0.0973  0.0862 -0.0107
10108SOL    HW132524   1.036   0.362   3.708 -0.9223  0.3732 -0.7760
10108SOL    HW232525   0.918   0.277   3.667 -0.3498 -0.9996  0.3434
10109SOL     OW32526   1.739   9.053   7.936 -0.1215  0.0331 -0.1736
10109SOL    HW132527   1.667   9.116   7.943 -0.6828 -0.6108 -0.0631
10109SOL    HW232528   1.762   9.053   7.843 -1.1210 -0.6891 -0.4288
10110SOL     OW32529   3.446   5.161   8.911 -0.2475  0.5139 -0.2774
10110SOL    HW132530   3.505   5.174   8.837  0.1458 -0.2824 -0.1090
10110SOL    HW232531   3.458   5.069   8.936 -0.3964  0.7712  0.7641
10111SOL     OW32532   3.472   6.678   8.957  0.4308  0.3002  0.0776
10111SOL    HW132533   3.388   6.721   8.966  0.1408 -0.2498  0.0453
10111SOL    HW232534   3.485   6.632   9.040  0.6383  0.2769  0.0348
10112SOL     OW32535   6.901   6.888   0.073 -0.1291  0.3531  0.0523
10112SOL    HW132536   6.813   6.872   0.039 -0.6243  2.3053  0.2891
10112SOL    HW232537   6.936   6.801   0.091 -1.4330 -0.5445 -1.4564
10113SOL     OW32538   9.201   9.031   3.960 -0.8567  0.2499 -0.5098
10113SOL    HW132539   9.248   9.009   4.041 -1.3291  1.6348  0.1731
10113SOL    HW232540   9.114   8.992   3.971 -1.3415  1.4971  0.2302
10114SOL     OW32541   4.667   4.059   3.546 -0.3057 -0.3090  0.0983
10114SOL    HW132542   4.640   3.976   3.586 -2.3234 -0.0238 -0.5576
10114SOL    HW232543   4.758   4.044   3.518 -0.7898 -2.4811 -0.4710
10115SOL     OW32544   5.022   2.505   2.757  0.0058 -0.1473 -0.0169
10115SOL    HW132545   4.995   2.458   2.678  0.0606 -0.4984  0.1696
10115SOL    HW232546   5.096   2.455   2.791  0.6735  0.6186 -0.3283
10116SOL     OW32547   2.911   7.497   2.559  0.2213  0.1821  0.5407
10116SOL    HW132548   2.969   7.455   2.623 -0.7019 -0.8791  0.7010
10116SOL    HW232549   2.908   7.589   2.587  0.7809 -0.0209  1.3146
10117SOL     OW32550   2.666   8.447   0.227 -0.0549 -0.1759 -0.2499
10117SOL    HW132551   2.585   8.467   0.181  0.2622 -0.5637 -0.9977
10117SOL    HW232552   2.695   8.363   0.190  1.0249  0.2782 -0.4768
10118SOL     OW32553   1.794   5.948   3.557  0.0696  0.3134 -0.6890
10118SOL    HW132554   1.813   6.013   3.625 -0.4553 -0.3464  0.1046
10118SOL    HW232555   1.873   5.895   3.552 -0.8257 -1.3248  1.3561
10119SOL     OW32556   1.357   6.078   2.605 -0.6731  0.6957 -0.4257
10119SOL    HW132557   1.315   5.993   2.620  1.7432 -0.6417 -0.7990
10119SOL    HW232558   1.284   6.138   2.589 -2.4086 -1.5851 -1.5705
10120SOL     OW32559   3.279   3.690   1.069 -0.1039  0.5671 -0.3762
10120SOL    HW132560   3.362   3.679   1.023  0.7122  0.4926  1.0493
10120SOL    HW232561   3.266   3.785   1.073  0.2672  0.6074 -0.0230
10121SOL     OW32562   6.382   3.607   0.504 -0.5480 -0.1494 -0.0790
10121SOL    HW132563   6.373   3.693   0.462  0.5282  0.2212  0.4063
10121SOL    HW232564   6.304   3.559   0.476 -0.4752  0.4890 -1.5127
10122SOL     OW32565   6.015   0.107   7.654 -0.5584 -0.1030 -0.7914
10122SOL    HW132566   5.976   0.175   7.710 -1.4942  0.5025 -2.1265
10122SOL    HW232567   6.105   0.137   7.639 -0.5409  0.1289 -0.2572
10123SOL     OW32568   6.592   0.788   4.720 -0.1999 -0.1907  0.4542
10123SOL    HW132569   6.660   0.770   4.784 -0.4592 -1.0157  0.5089
10123SOL    HW232570   6.510   0.777   4.767 -0.3952  1.4485  0.5637
10124SOL     OW32571   0.120   1.992   8.751  0.4074 -0.1027 -1.2437
10124SOL    HW132572   0.075   2.053   8.693 -1.3383 -1.2340 -1.1411
10124SOL    HW232573   0.050   1.941   8.792  1.5669  0.4183  1.6250
10125SOL     OW32574   4.522   1.114   3.806  0.6949 -0.1408  0.6823
10125SOL    HW132575   4.453   1.057   3.772 -1.3844  2.0811  0.9408
10125SOL    HW232576   4.563   1.151   3.728  0.6243 -0.3861  0.5293
10126SOL     OW32577   3.329   6.786   1.758 -0.0824 -0.4468 -0.1420
10126SOL    HW132578   3.284   6.729   1.820 -0.5535  2.5269  2.4875
10126SOL    HW232579   3.264   6.801   1.689 -1.4302 -0.0474  1.1453
10127SOL     OW32580   0.712   8.824   2.374 -0.3085  0.0666 -0.3229
10127SOL    HW132581   0.744   8.776   2.298 -1.2741  0.3199 -0.9094
10127SOL    HW232582   0.620   8.799   2.382 -0.3199  0.3388  0.5339
10128SOL     OW32583   6.426   0.016   0.925  0.1879  0.3428  0.3039
10128SOL    HW132584   6.400   0.035   1.015  0.6183  1.2769  0.2333
10128SOL    HW232585   6.389   0.087   0.873  0.9597  0.4570 -0.1021
10129SOL     OW32586   8.189   5.232   4.940 -0.0315  0.1509 -0.3792
10129SOL    HW132587   8.183   5.322   4.971  0.3977  0.1619 -0.3143
10129SOL    HW232588   8.129   5.227   4.866 -0.4533  0.3474 -0.0489
10130SOL     OW32589   3.129   6.934   6.472 -0.0347  0.2276 -0.0737
10130SOL    HW132590   3.216   6.931   6.513  0.2155  1.0339 -0.5155
10130SOL    HW232591   3.068   6.932   6.546  0.3074 -1.4275  0.2056
10131SOL     OW32592   7.400   6.751   7.050 -0.9191 -0.4974  0.0612
10131SOL    HW132593   7.307   6.753   7.074 -1.3955 -2.6212 -1.3053
10131SOL    HW232594   7.422   6.658   7.049  1.3143 -0.0197  0.5902
10132SOL     OW32595   6.456   8.982   6.902 -0.1224  0.6868 -0.3410
10132SOL    HW132596   6.501   9.066   6.905  3.0681 -0.7623 -2.0996
10132SOL    HW232597   6.493   8.932   6.975  0.1739 -0.0667 -0.9807
10133SOL     OW32598   5.774   7.452   9.190 -0.4973 -0.4681  0.0466
10133SOL    HW132599   5.817   7.530   9.156  1.0854 -1.1952  0.2575
10133SOL    HW232600   5.788   7.386   9.121 -1.3931 -0.7026  0.0796
10134SOL     OW32601   0.063   2.007   0.242 -0.0881 -0.4125  0.0169
10134SOL    HW132602  -0.024   1.966   0.240  1.0441 -2.9687 -1.1556
10134SOL    HW232603   0.068   2.054   0.159 -0.2777 -0.4377 -0.0109
10135SOL     OW32604   7.352   3.649   6.092 -0.1438 -0.5273  0.0162
10135SOL    HW132605   7.442   3.662   6.121 -0.7768 -0.9966  2.3797
10135SOL    HW232606   7.338   3.715   6.025  2.0368 -0.6472 -0.6082
10136SOL     OW32607   5.839   6.012   7.379 -0.2069 -0.0145 -0.3249
10136SOL    HW132608   5.854   6.010   7.473  2.0107 -1.4743 -0.6467
10136SOL    HW232609   5.923   6.036   7.341 -0.4547 -1.5920 -2.0172
10137SOL     OW32610   0.514   7.966   5.109  0.0918 -0.2046  0.4196
10137SOL    HW132611   0.482   7.984   5.198  0.2714 -0.8734  0.6247
10137SOL    HW232612   0.596   8.016   5.102 -1.3009  2.1385 -0.3703
10138SOL     OW32613   5.332   6.246   6.353  0.0336 -0.5946  0.0045
10138SOL    HW132614   5.386   6.216   6.426 -0.0289 -1.5793 -0.3460
10138SOL    HW232615   5.275   6.313   6.391  2.8630  2.0744  0.0061
10139SOL     OW32616   4.064   1.913   2.631  0.9575 -0.4583  0.5501
10139SOL    HW132617   3.979   1.915   2.588  1.7772  0.3691 -1.1567
10139SOL    HW232618   4.053   1.854   2.705 -1.4635  0.7223  1.1995
10140SOL     OW32619   7.612   8.572   5.988 -1.1496  0.4048  0.7213
10140SOL    HW132620   7.641   8.639   6.050  0.8591  0.8636 -0.6204
10140SOL    HW232621   7.618   8.490   6.037  0.7068  0.7175  1.0945
10141SOL     OW32622   1.433   0.806   6.305  0.0983 -0.1092 -0.6266
10141SOL    HW132623   1.529   0.805   6.301  0.3777 -1.6901  2.7869
10141SOL    HW232624   1.411   0.884   6.356 -0.6480  1.2648 -2.9233
10142SOL     OW32625   7.161   0.767   0.328  0.1114  0.4726 -0.1565
10142SOL    HW132626   7.220   0.695   0.347 -0.1050  0.5786  0.9966
10142SOL    HW232627   7.114   0.739   0.250  0.2841 -0.4861  0.0666
10143SOL     OW32628   8.807   6.369   4.462  0.3464 -0.0529  0.2414
10143SOL    HW132629   8.827   6.297   4.522  0.0051  0.4614  0.9828
10143SOL    HW232630   8.889   6.385   4.415  0.8636  0.1016  1.1770
10144SOL     OW32631   2.977   9.027   3.901 -0.1038  0.4394  0.4748
10144SOL    HW132632   2.889   8.997   3.881  0.7806 -1.4079 -0.9209
10144SOL    HW232633   3.014   8.959   3.957  0.7491  0.7139  0.2682
10145SOL     OW32634   7.397   6.067   7.047 -0.5518 -0.1101 -0.1895
10145SOL    HW132635   7.386   6.142   6.988 -1.0700  0.4085  0.5410
10145SOL    HW232636   7.464   6.096   7.110  0.2275 -0.7750 -0.6968
10146SOL     OW32637   3.537   2.223   1.259 -0.1821  0.2592 -0.0593
10146SOL    HW132638   3.446   2.234   1.286  0.2698  1.9690  0.9247
10146SOL    HW232639   3.560   2.134   1.285 -1.3945  0.0072  0.1996
10147SOL     OW32640   7.965   7.724   5.203 -0.4657 -0.2327  0.6010
10147SOL    HW132641   8.012   7.749   5.282 -1.8365 -2.0792  2.1101
10147SOL    HW232642   7.888   7.676   5.235 -2.0794  0.5351 -1.8087
10148SOL     OW32643   9.397   3.928   8.054  0.0019  0.8689 -0.5328
10148SOL    HW132644   9.392   3.833   8.045  0.2220  0.6946  1.0050
10148SOL    HW232645   9.452   3.955   7.980  0.9212 -0.3296 -0.3251
10149SOL     OW32646   5.638   2.066   4.555  0.3265  0.3305 -0.5775
10149SOL    HW132647   5.558   2.029   4.518  1.1301 -1.0273 -1.0336
10149SOL    HW232648   5.614   2.089   4.645 -0.3756 -0.8210 -0.4440
10150SOL     OW32649   9.327   1.602   8.149  0.5088  0.0493  0.0526
10150SOL    HW132650   9.300   1.684   8.107  1.5027  0.2013 -0.3144
10150SOL    HW232651   9.280   1.602   8.233 -0.0098  0.6728 -0.2253
10151SOL     OW32652   3.564   6.858   1.913 -0.2442  0.0163 -0.2105
10151SOL    HW132653   3.534   6.913   1.986 -1.4682 -1.5176  0.5091
10151SOL    HW232654   3.484   6.824   1.874  0.4396 -0.1544 -1.5413
10152SOL     OW32655   2.099   6.513   5.231  0.7922  0.1628  0.2411
10152SOL    HW132656   2.135   6.428   5.207 -0.9375 -0.5801  0.1494
10152SOL    HW232657   2.065   6.501   5.320  0.8308  0.8619  0.3561
10153SOL     OW32658   9.562   3.569   8.594  0.1917  0.3306 -0.0481
10153SOL    HW132659   9.623   3.596   8.526  0.2226  3.0879  0.9429
10153SOL    HW232660   9.616   3.524   8.659  0.4913 -0.5626 -0.9022
10154SOL     OW32661   0.618   4.612   9.215  0.7094 -0.0574  0.3904
10154SOL    HW132662   0.545   4.551   9.205  1.2457 -0.9500  1.6633
10154SOL    HW232663   0.611   4.644   9.305  1.0736  0.9498  0.0794
10155SOL     OW32664   2.288   7.855   4.655 -0.4161  0.1475 -0.1269
10155SOL    HW132665   2.270   7.906   4.734 -0.7400  0.8576 -0.6442
10155SOL    HW232666   2.326   7.773   4.687 -0.4485  0.4666  0.7531
10156SOL     OW32667   3.730   2.363   4.593  0.2655  0.0194 -0.5541
10156SOL    HW132668   3.798   2.423   4.565  0.9775 -0.6273 -0.2398
10156SOL    HW232669   3.772   2.308   4.659 -0.8051  0.1784  0.2826
10157SOL     OW32670   4.846   9.237   0.398 -0.0540  0.1482 -0.0081
10157SOL    HW132671   4.827   9.328   0.378 -0.1759 -0.2183 -1.6856
10157SOL    HW232672   4.777   9.210   0.459 -0.1808  1.0756  0.2703
10158SOL     OW32673   7.846   5.727   2.770 -0.8633  1.0198  0.3687
10158SOL    HW132674   7.852   5.784   2.694 -0.2192 -1.1263 -1.2993
10158SOL    HW232675   7.755   5.698   2.771 -0.8763  1.0610  0.4361
10159SOL     OW32676   8.247   0.157   2.384 -0.3262  0.6210  0.5208
10159SOL    HW132677   8.320   0.213   2.358 -0.0688 -0.0982 -0.3493
10159SOL    HW232678   8.244   0.165   2.479  0.7100  0.8794  0.5468
10160SOL     OW32679   7.087   9.165   4.628  0.2217 -0.4048 -0.3423
10160SOL    HW132680   7.098   9.249   4.584 -0.0150 -0.0894  0.2023
10160SOL    HW232681   7.088   9.186   4.721 -1.1521 -0.8336 -0.2150
10161SOL     OW32682   0.679   2.358   6.613  0.3022 -0.2481 -0.2633
10161SOL    HW132683   0.618   2.294   6.577 -0.4751  1.2487 -1.7934
10161SOL    HW232684   0.636   2.442   6.598  1.2595  0.6584  1.7103
10162SOL     OW32685   8.467   7.819   6.766 -0.4077  0.7043 -0.6472
10162SOL    HW132686   8.557   7.827   6.797 -0.6846 -1.2516  0.7815
10162SOL    HW232687   8.439   7.910   6.750  2.0933  1.3170 -2.1097
10163SOL     OW32688   6.734   0.753   7.072 -0.5204  0.0920  0.1223
10163SOL    HW132689   6.688   0.836   7.081 -0.3635  0.1325  0.5629
10163SOL    HW232690   6.822   0.777   7.045 -1.0203 -0.0333 -1.7622
10164SOL     OW32691   6.690   8.576   3.110 -0.7387  0.1768  0.3374
10164SOL    HW132692   6.675   8.671   3.107  0.2705  0.3940  1.5063
10164SOL    HW232693   6.616   8.542   3.161 -1.9928  0.0926 -1.4347
10165SOL     OW32694   8.254   2.245   4.435 -0.7929  0.2481 -0.4179
10165SOL    HW132695   8.331   2.286   4.474  1.1213 -1.2555 -2.3937
10165SOL    HW232696   8.240   2.293   4.353 -0.9473 -0.5236 -0.8525
10166SOL     OW32697   7.065   6.449   5.249 -0.3447  0.3619  0.0030
10166SOL    HW132698   7.098   6.517   5.308  2.4264  0.0919 -1.0902
10166SOL    HW232699   7.079   6.485   5.161 -1.6421 -0.4584 -0.5740
10167SOL     OW32700   4.457   8.674   3.661  0.1834  0.0607  0.4795
10167SOL    HW132701   4.480   8.609   3.594  2.5255  0.7315  0.5507
10167SOL    HW232702   4.424   8.749   3.611 -5.0154 -1.8337  0.4619
10168SOL     OW32703   9.184   9.460   4.863  0.1488  0.6868  0.4302
10168SOL    HW132704   9.270   9.501   4.876  0.1373  0.4260  1.4313
10168SOL    HW232705   9.159   9.431   4.951 -0.8797  0.5938  0.1104
10169SOL     OW32706   8.771   0.614   7.891  1.0605 -0.5952  0.0077
10169SOL    HW132707   8.704   0.561   7.936  1.2368 -0.3628  0.5563
10169SOL    HW232708   8.822   0.550   7.841  0.7581 -0.8404  0.0025
10170SOL     OW32709   1.338   5.999   0.377 -1.0556  0.0482 -0.2027
10170SOL    HW132710   1.283   5.936   0.423 -0.7195 -0.3624 -0.3532
10170SOL    HW232711   1.370   5.951   0.301 -2.2505  0.9702 -1.3177
10171SOL     OW32712   4.733   5.014   1.131  0.0945  0.1506  0.1628
10171SOL    HW132713   4.828   5.005   1.141  0.1535  0.1307 -0.3839
10171SOL    HW232714   4.721   5.095   1.082  0.1074 -1.8622 -3.6184
10172SOL     OW32715   0.924   1.441   7.146  0.0366 -0.0671  0.0521
10172SOL    HW132716   0.991   1.446   7.214  0.3823 -0.1191 -0.2833
10172SOL    HW232717   0.862   1.375   7.178 -0.2404  0.4936  0.7005
10173SOL     OW32718   7.710   8.861   8.313 -0.5257  0.3743 -0.1177
10173SOL    HW132719   7.616   8.868   8.328 -0.5248  1.0753 -0.3723
10173SOL    HW232720   7.719   8.862   8.218 -0.1202  3.0905 -0.1443
10174SOL     OW32721   5.825   3.816   6.274  0.4855  0.2439 -0.0078
10174SOL    HW132722   5.883   3.880   6.316 -0.0359  0.2913  0.6770
10174SOL    HW232723   5.742   3.826   6.321  0.4111 -0.9817  0.1525
10175SOL     OW32724   7.512   4.213   7.937 -0.8061  0.8320 -0.0535
10175SOL    HW132725   7.436   4.236   7.883 -0.7453  0.1726 -0.4397
10175SOL    HW232726   7.579   4.276   7.912 -1.0359  1.0407 -0.1530
10176SOL     OW32727   6.894   1.993   5.074 -0.3298  0.1389  0.2844
10176SOL    HW132728   6.894   1.901   5.049 -1.4611  0.3665 -0.6637
10176SOL    HW232729   6.822   2.001   5.137  0.6049  0.1463  1.3882
10177SOL     OW32730   0.738   7.955   2.908  0.7192 -0.2362  0.4996
10177SOL    HW132731   0.643   7.971   2.902  0.7880  0.3685  0.9065
10177SOL    HW232732   0.765   7.939   2.817  0.0664 -1.4233  0.4907
10178SOL     OW32733   6.529   4.219   6.437  0.1903  0.6395  0.2409
10178SOL    HW132734   6.578   4.211   6.519  0.1742  2.7296  0.4946
10178SOL    HW232735   6.566   4.150   6.381  1.8276  0.6692  1.2131
10179SOL     OW32736   4.591   7.299   4.027  0.3457 -0.1738  0.0881
10179SOL    HW132737   4.620   7.209   4.013  2.0224  0.2033  0.8288
10179SOL    HW232738   4.519   7.293   4.089 -2.1044 -1.2508 -2.6011
10180SOL     OW32739   3.916   7.389   7.395  0.6099  0.0158 -0.3207
10180SOL    HW132740   3.838   7.444   7.383  1.9097  2.1198  0.2396
10180SOL    HW232741   3.954   7.383   7.307  0.0599 -0.6734 -0.5219
10181SOL     OW32742   9.074   3.302   7.572  0.4884  0.3403  0.1975
10181SOL    HW132743   9.046   3.322   7.482  1.6330 -0.4058 -0.3435
10181SOL    HW232744   9.127   3.378   7.598 -1.4615  1.5074  1.0292
10182SOL     OW32745   8.331   3.140   1.399  0.0111 -0.0369  0.5180
10182SOL    HW132746   8.272   3.068   1.378  2.1013 -1.1762 -2.1421
10182SOL    HW232747   8.275   3.217   1.404 -1.8214 -1.2193 -0.7153
10183SOL     OW32748   5.601   0.087   4.012  0.1892 -0.5312 -0.6303
10183SOL    HW132749   5.575   0.038   4.090  2.0268 -1.5925 -0.6191
10183SOL    HW232750   5.694   0.066   4.001  0.4879  1.2730 -1.9015
10184SOL     OW32751   2.677   0.354   1.765  0.2810  0.1472 -0.1562
10184SOL    HW132752   2.647   0.263   1.770 -1.0954  0.5770 -0.4695
10184SOL    HW232753   2.770   0.349   1.790 -0.1459 -1.1291  1.3545
10185SOL     OW32754   6.311   2.121   4.550 -0.1040 -0.2489 -0.3872
10185SOL    HW132755   6.372   2.179   4.597  1.1343 -1.4863 -0.4130
10185SOL    HW232756   6.300   2.046   4.608  1.0474 -1.5702 -1.7857
10186SOL     OW32757   8.470   2.577   8.785  0.1439 -0.2917 -0.6402
10186SOL    HW132758   8.557   2.541   8.801 -0.8138 -2.0258  1.1126
10186SOL    HW232759   8.476   2.668   8.813  1.4222 -0.3387 -0.6914
10187SOL     OW32760   2.306   8.012   8.665 -0.1497  0.4422 -0.3581
10187SOL    HW132761   2.314   7.992   8.758 -1.2536  1.6533  0.0218
10187SOL    HW232762   2.344   8.099   8.656 -3.7291  2.1795 -0.2179
10188SOL     OW32763   9.303   5.527   7.034  0.6935  0.3955 -0.4454
10188SOL    HW132764   9.332   5.612   7.067 -0.0278  0.6025 -0.3304
10188SOL    HW232765   9.212   5.520   7.062  1.5818 -1.8405  2.4740
10189SOL     OW32766   4.632   1.448   2.075 -0.8408  0.2302  0.1594
10189SOL    HW132767   4.614   1.501   2.152 -2.2181 -1.1327  0.8520
10189SOL    HW232768   4.674   1.369   2.109  0.4016  0.4667 -0.7464
10190SOL     OW32769   1.196   2.220   5.187  0.4353 -0.5132  0.4556
10190SOL    HW132770   1.201   2.133   5.147  2.3986 -0.6127  0.8141
10190SOL    HW232771   1.133   2.211   5.258 -1.4383 -0.9048 -1.1464
10191SOL     OW32772   0.664   1.154   2.004  0.1193  0.5414  0.5472
10191SOL    HW132773   0.682   1.221   1.937 -2.4670  0.9136  0.1197
10191SOL    HW232774   0.663   1.202   2.086  0.8879  0.5249  0.5736
10192SOL     OW32775   4.362   7.757   9.267  0.2819  0.3116  0.1723
10192SOL    HW132776   4.360   7.672   9.309  0.1599 -0.5216 -1.4283
10192SOL    HW232777   4.322   7.817   9.330 -2.8441 -1.4207  0.0320
10193SOL     OW32778   7.940   3.370   3.576 -0.3743 -0.2395  0.2513
10193SOL    HW132779   7.980   3.354   3.490 -0.4146  0.4802  0.0867
10193SOL    HW232780   7.915   3.463   3.573 -4.9386 -1.2330 -0.9027
10194SOL     OW32781   2.324   2.287   0.038 -0.3160  0.5367  0.1132
10194SOL    HW132782   2.272   2.248   0.108 -0.3164 -0.4859 -0.4366
10194SOL    HW232783   2.339   2.216  -0.024  0.2393  1.2563 -0.6119
10195SOL     OW32784   1.871   2.621   6.367  0.1670  0.3734  0.0557
10195SOL    HW132785   1.872   2.629   6.272  0.4161  2.7190  0.2104
10195SOL    HW232786   1.932   2.549   6.385 -2.8457 -2.9059 -1.6630
10196SOL     OW32787   1.391   3.188   7.398 -0.0635  0.2763  0.7253
10196SOL    HW132788   1.320   3.224   7.451 -1.1176  0.4713 -0.7636
10196SOL    HW232789   1.389   3.237   7.317 -0.3531 -1.8638 -0.6518
10197SOL     OW32790   0.764   5.031   5.757 -0.0810  0.1312 -0.0811
10197SOL    HW132791   0.814   5.045   5.838  0.3156  0.7107 -0.4263
10197SOL    HW232792   0.817   4.968   5.707  0.7419  1.3614 -0.8092
10198SOL     OW32793   6.624   6.692   9.175 -0.3190 -0.2124 -0.6228
10198SOL    HW132794   6.713   6.670   9.149  0.5915  1.7422  0.6287
10198SOL    HW232795   6.607   6.638   9.252 -0.7117 -1.4812 -1.5697
10199SOL     OW32796   8.329   7.695   0.328  0.3783  0.5215  0.1822
10199SOL    HW132797   8.291   7.673   0.413 -0.3178 -2.1371 -0.7301
10199SOL    HW232798   8.260   7.746   0.284 -0.4232 -0.5386  0.1701
10200SOL     OW32799   4.162   2.407   9.398 -0.0167 -0.7814 -0.0631
10200SOL    HW132800   4.253   2.393   9.423 -0.0726  1.3775  1.6747
10200SOL    HW232801   4.115   2.332   9.434  0.7228 -0.4793  1.6292
10201SOL     OW32802   8.181   4.276   8.491 -0.1023  0.1766  0.2860
10201SOL    HW132803   8.208   4.212   8.425 -2.0447  0.0497 -0.4479
10201SOL    HW232804   8.255   4.337   8.498  0.4250 -0.2130 -1.4880
10202SOL     OW32805   8.993   2.003   6.342  0.0956  0.1149  0.7190
10202SOL    HW132806   8.909   1.971   6.309 -0.0160  0.8084  0.3008
10202SOL    HW232807   8.988   1.989   6.437 -0.4903  0.1389  0.6983
10203SOL     OW32808   2.078   6.537   6.466 -0.1822 -0.1867 -0.0181
10203SOL    HW132809   2.093   6.594   6.391 -1.3455 -1.7065 -1.4765
10203SOL    HW232810   1.988   6.505   6.455 -0.0495 -1.2068  1.5016
10204SOL     OW32811   7.469   6.943   5.180  0.1801  0.2020  0.0013
10204SOL    HW132812   7.476   7.018   5.238 -1.5424  1.2513 -1.0671
10204SOL    HW232813   7.387   6.900   5.206  0.8330 -0.9925  0.1977
10205SOL     OW32814   0.007   2.525   6.781 -0.2868  0.8521  0.0377
10205SOL    HW132815  -0.059   2.588   6.810 -0.5238 -0.2005  1.9613
10205SOL    HW232816   0.001   2.453   6.844 -1.5468 -2.1983 -3.1971
10206SOL     OW32817   0.527   7.690   2.270  0.0098  0.4524  0.0511
10206SOL    HW132818   0.449   7.746   2.263  0.6141  1.2855 -0.0956
10206SOL    HW232819   0.566   7.692   2.182  2.2116  3.0349  0.9696
10207SOL     OW32820   4.205   3.627   2.716  0.5915  0.1355 -0.2418
10207SOL    HW132821   4.278   3.595   2.769  2.2595  1.4765 -1.5873
10207SOL    HW232822   4.214   3.581   2.633 -0.0092  0.4229 -0.4717
10208SOL     OW32823   8.722   4.389   6.541  0.4912  0.2334 -0.0888
10208SOL    HW132824   8.718   4.448   6.466 -1.6896  0.3944  0.0835
10208SOL    HW232825   8.787   4.323   6.517  1.7276  1.7248 -1.0007
10209SOL     OW32826   4.264   7.609   7.121 -0.3421 -0.7255  0.1684
10209SOL    HW132827   4.222   7.688   7.154  0.3599 -1.4146  2.9618
10209SOL    HW232828   4.354   7.616   7.151  0.4077 -1.4579 -1.7334
10210SOL     OW32829   7.524   3.156   0.801  0.1051  0.3763  0.3824
10210SOL    HW132830   7.482   3.119   0.723  1.4786 -0.3408 -0.0526
10210SOL    HW232831   7.466   3.227   0.828 -2.2944 -1.6061  0.8256
10211SOL     OW32832   3.979   0.340   1.669 -0.3893 -0.5504  0.4471
10211SOL    HW132833   4.020   0.346   1.755 -0.6823 -0.7471  0.6027
10211SOL    HW232834   4.052   0.341   1.607 -0.0632 -1.9924  0.7605
10212SOL     OW32835   5.010   5.518   7.457 -0.0679  0.1894  0.2069
10212SOL    HW132836   4.974   5.535   7.370 -1.2115  0.3423  0.6852
10212SOL    HW232837   4.949   5.456   7.496 -0.1813  0.9536  1.2924
10213SOL     OW32838   9.243   5.222   3.131  0.0184  0.4312  0.6653
10213SOL    HW132839   9.306   5.158   3.098  0.6647  1.8951 -1.0774
10213SOL    HW232840   9.295   5.300   3.147 -1.5400  2.3929 -2.8618
10214SOL     OW32841   5.962   5.368   8.585  0.3920 -0.1153 -0.0863
10214SOL    HW132842   6.008   5.446   8.554 -0.7478  0.2266 -1.0011
10214SOL    HW232843   5.915   5.336   8.508 -0.2704 -0.8905  0.6223
10215SOL     OW32844   5.965   3.330   5.420 -0.4215 -0.1617 -0.0186
10215SOL    HW132845   6.056   3.335   5.452 -0.7116 -1.5593  1.0976
10215SOL    HW232846   5.938   3.422   5.413  0.5617  0.2621  1.1989
10216SOL     OW32847   4.973   4.209   1.430 -0.4123 -0.2606 -0.1859
10216SOL    HW132848   4.902   4.157   1.468  0.0902 -1.2318 -0.5379
10216SOL    HW232849   5.010   4.257   1.504 -1.7337  0.6530 -0.0778
10217SOL     OW32850   3.455   3.613   3.636 -0.4914  0.2337 -0.0226
10217SOL    HW132851   3.438   3.669   3.559 -0.2722 -0.5074 -0.6220
10217SOL    HW232852   3.384   3.634   3.697  0.3356  2.1711  0.3472
10218SOL     OW32853   8.068   3.217   9.515 -0.7271  0.4528 -0.2850
10218SOL    HW132854   8.048   3.185   9.603  1.8239 -0.5290  0.0546
10218SOL    HW232855   8.164   3.212   9.510 -0.8156 -0.1924 -3.3610
10219SOL     OW32856   1.135   0.949   4.401 -0.0353  0.5080 -0.3700
10219SOL    HW132857   1.041   0.932   4.397  0.3453 -1.8370 -1.3740
10219SOL    HW232858   1.144   1.027   4.456 -2.4435 -0.1214  1.0440
10220SOL     OW32859   3.045   8.059   6.309  0.0179  0.1578 -0.0505
10220SOL    HW132860   3.024   8.133   6.252 -0.2214 -0.2082 -0.4391
10220SOL    HW232861   3.049   7.983   6.250 -0.0247 -0.1877  0.3883
10221SOL     OW32862   3.190   5.623   5.641  0.3566  0.0030 -0.1733
10221SOL    HW132863   3.118   5.575   5.683  0.9890 -1.3051 -0.5566
10221SOL    HW232864   3.260   5.624   5.706  0.7914 -0.7007 -0.6163
10222SOL     OW32865   1.644   7.011   8.058 -0.1167 -0.1619  0.4388
10222SOL    HW132866   1.566   7.028   8.111  1.0250 -0.6734  2.3724
10222SOL    HW232867   1.645   6.916   8.048  0.1864 -0.1454  0.3198
10223SOL     OW32868   3.227   4.881   0.483  0.3025 -0.3337 -0.4637
10223SOL    HW132869   3.137   4.851   0.476  0.4197 -0.5389 -1.1949
10223SOL    HW232870   3.231   4.929   0.565 -0.2266 -1.1879  0.0702
10224SOL     OW32871   0.185   7.878   4.684 -0.1617 -0.6457  0.6040
10224SOL    HW132872   0.159   7.786   4.685 -1.7254 -0.2397  0.5951
10224SOL    HW232873   0.244   7.886   4.609 -0.1117 -1.6119  0.5290
10225SOL     OW32874   8.282   0.189   3.819 -0.0919 -0.8708  0.3140
10225SOL    HW132875   8.236   0.147   3.892  0.9147 -0.5818  1.1387
10225SOL    HW232876   8.220   0.255   3.787  0.7421  1.6540  3.3696
10226SOL     OW32877   8.627   4.230   4.126  0.0574  0.7269  0.3249
10226SOL    HW132878   8.687   4.300   4.098  0.6884 -0.5004 -1.5174
10226SOL    HW232879   8.674   4.185   4.196  1.7064 -0.6786 -1.5803
10227SOL     OW32880   1.064   9.536   2.612  0.5070  0.3724 -0.4632
10227SOL    HW132881   0.994   9.600   2.605  1.1201  1.2143  0.7302
10227SOL    HW232882   1.086   9.515   2.521 -1.1566  0.1967 -0.8586
10228SOL     OW32883   7.725   0.994   2.146 -0.8750 -0.7299 -0.0953
10228SOL    HW132884   7.818   0.995   2.124 -0.9377  0.6855 -0.4212
10228SOL    HW232885   7.723   0.983   2.241 -0.3126  0.2161  0.0475
10229SOL     OW32886   6.359   2.327   3.000  0.0107  0.2281 -0.5334
10229SOL    HW132887   6.318   2.312   2.915  0.7690 -1.2250 -0.6641
10229SOL    HW232888   6.286   2.344   3.059 -0.7011 -1.0192 -1.0204
10230SOL     OW32889   7.952   3.830   3.079 -0.5214  0.0389 -0.2166
10230SOL    HW132890   7.915   3.847   3.165  0.2371 -0.6334  0.2582
10230SOL    HW232891   7.905   3.890   3.020 -2.4275 -0.8583  0.3166
10231SOL     OW32892   2.389   9.097   7.984  0.1530 -0.3840 -0.1495
10231SOL    HW132893   2.350   9.184   7.973  0.7131  0.0470  1.0597
10231SOL    HW232894   2.369   9.051   7.902  0.2400  1.0301 -1.0066
10232SOL     OW32895   3.192   0.484   8.328 -0.7702  0.6136  0.0666
10232SOL    HW132896   3.144   0.566   8.324 -0.4506  0.8284  0.4976
10232SOL    HW232897   3.242   0.489   8.410 -2.1733 -0.8146  1.0593
10233SOL     OW32898   7.581   1.840   0.501 -0.6193  0.5735  0.2285
10233SOL    HW132899   7.505   1.781   0.499 -0.1589 -0.0326  0.6080
10233SOL    HW232900   7.571   1.893   0.422 -0.1098 -1.1997 -1.1033
10234SOL     OW32901   4.898   8.920   4.683  0.2363 -0.7346  0.0048
10234SOL    HW132902   4.871   8.852   4.621  1.9342 -0.9477 -0.5477
10234SOL    HW232903   4.900   9.000   4.632 -0.2650 -0.5359  0.2839
10235SOL     OW32904   2.819   2.282   3.363 -0.1012  0.6914 -0.5225
10235SOL    HW132905   2.822   2.359   3.305  0.1466 -0.2331 -1.7766
10235SOL    HW232906   2.847   2.210   3.308  1.3736 -0.0390  1.0894
10236SOL     OW32907   8.448   0.003   5.558  0.4860  0.6581 -0.5894
10236SOL    HW132908   8.519   0.004   5.494  1.1090 -0.5761  0.0365
10236SOL    HW232909   8.492  -0.014   5.642 -0.5838 -0.7782 -0.2675
10237SOL     OW32910   5.038   1.862   9.104  0.8118  0.2568  0.1891
10237SOL    HW132911   5.001   1.801   9.167  0.1940  1.1772  0.7375
10237SOL    HW232912   5.067   1.936   9.157  0.2008  1.0905 -0.6079
10238SOL     OW32913   3.173   4.712   5.780 -0.0903 -0.5986 -0.3989
10238SOL    HW132914   3.079   4.724   5.794 -0.2502 -0.5309 -1.3886
10238SOL    HW232915   3.192   4.625   5.815 -0.4388 -0.4527  0.1660
10239SOL     OW32916   2.011   4.571   6.563  0.0915  0.4305  0.0507
10239SOL    HW132917   1.987   4.497   6.619  0.1969  0.8732  0.7029
10239SOL    HW232918   2.093   4.546   6.522  0.4139  0.4004  0.6993
10240SOL     OW32919   4.312   4.416   6.391 -0.1332 -0.7739  0.3985
10240SOL    HW132920   4.282   4.392   6.479  1.0219 -2.1977  0.4309
10240SOL    HW232921   4.405   4.396   6.391 -0.0461 -0.4522 -1.0464
10241SOL     OW32922   7.816   1.836   2.874 -0.0236  0.1432 -0.0942
10241SOL    HW132923   7.893   1.830   2.929  1.9540  3.0422 -2.2682
10241SOL    HW232924   7.822   1.760   2.816  0.6558 -0.1559  0.3605
10242SOL     OW32925   1.281   2.677   3.526 -0.3420  0.3104  0.8731
10242SOL    HW132926   1.221   2.620   3.477 -0.0120  1.6917 -1.2876
10242SOL    HW232927   1.368   2.651   3.496  0.1027 -0.5500  2.7431
10243SOL     OW32928   2.839   0.025   1.203  0.0493 -0.2226 -0.1493
10243SOL    HW132929   2.890   0.087   1.255  0.3681  0.6261 -1.4211
10243SOL    HW232930   2.791  -0.027   1.268 -1.5239  2.4134  0.9517
10244SOL     OW32931   4.272   0.719   8.688  0.2229  0.2124 -0.0035
10244SOL    HW132932   4.330   0.692   8.759  0.5134 -2.1516 -1.0207
10244SOL    HW232933   4.289   0.812   8.677  2.3865  0.0063  1.0223
10245SOL     OW32934   1.063   2.344   7.455  0.0458 -0.0657 -0.3639
10245SOL    HW132935   0.994   2.289   7.495  0.5557  0.4883  1.3699
10245SOL    HW232936   1.045   2.340   7.361 -1.3047 -1.3444 -0.0953
10246SOL     OW32937   5.385   1.339   1.131 -0.4164 -0.5645  0.4568
10246SOL    HW132938   5.456   1.351   1.068 -1.9187 -0.4558 -1.2807
10246SOL    HW232939   5.345   1.256   1.108 -2.0989  0.3008  0.0827
10247SOL     OW32940   8.303   2.206   5.288 -0.0282 -0.1319  0.6144
10247SOL    HW132941   8.381   2.241   5.330  0.1751  0.8184 -0.4743
10247SOL    HW232942   8.244   2.282   5.282 -0.9231 -0.7707  1.1685
10248SOL     OW32943   8.690   4.878   0.158  1.1068 -0.2731 -0.2282
10248SOL    HW132944   8.642   4.931   0.222 -1.9111 -0.8531 -1.8353
10248SOL    HW232945   8.748   4.823   0.211  0.6792  1.1068  1.7974
10249SOL     OW32946   0.404   4.613   5.192 -0.1691 -0.2824  0.5505
10249SOL    HW132947   0.421   4.562   5.271  4.1432  0.7069  0.4912
10249SOL    HW232948   0.483   4.602   5.139 -0.6867  3.2698 -1.2224
10250SOL     OW32949   0.708   3.647   0.606 -0.2674  0.1495  0.0843
10250SOL    HW132950   0.706   3.732   0.563  0.1111 -0.3037 -0.8747
10250SOL    HW232951   0.692   3.665   0.698 -0.6976  1.2012 -0.1885
10251SOL     OW32952   8.327   1.731   3.130  0.1046 -0.0310  1.0259
10251SOL    HW132953   8.266   1.800   3.153  1.6491  1.7683 -0.0132
10251SOL    HW232954   8.315   1.718   3.036  1.9938  1.1252  0.5698
10252SOL     OW32955   6.370   0.391   7.180  0.3844 -0.0413 -0.2804
10252SOL    HW132956   6.278   0.362   7.178 -0.1365  1.5984 -1.4265
10252SOL    HW232957   6.384   0.417   7.271  0.2510 -1.7995  0.3004
10253SOL     OW32958   3.908   5.273   8.024 -0.2843 -0.2739  0.5173
10253SOL    HW132959   3.941   5.183   8.023 -0.8165 -0.4733 -0.4863
10253SOL    HW232960   3.929   5.305   8.112 -1.1222 -1.7762  1.3152
10254SOL     OW32961   6.958   7.978   5.404  0.4388 -0.2619  0.1701
10254SOL    HW132962   6.922   8.007   5.487 -1.6726 -0.7581 -0.5072
10254SOL    HW232963   6.980   8.059   5.358 -2.7324  0.3183 -0.5710
10255SOL     OW32964   5.725   7.919   1.941 -0.0986  0.2064 -0.0727
10255SOL    HW132965   5.807   7.959   1.970  1.4385 -2.1713 -0.8337
10255SOL    HW232966   5.706   7.852   2.008 -1.1077  0.3513 -0.2037
10256SOL     OW32967   1.904   7.272   7.956  0.2944 -0.0975  0.0991
10256SOL    HW132968   1.885   7.277   8.050 -0.0402  0.4786  0.0058
10256SOL    HW232969   1.945   7.186   7.944 -2.1342 -1.3851  0.3510
10257SOL     OW32970   7.491   4.729   8.830  0.3989  0.1766 -0.2486
10257SOL    HW132971   7.547   4.732   8.752  0.2517  1.3486 -0.3338
10257SOL    HW232972   7.516   4.807   8.880 -1.9033  1.4134 -0.8535
10258SOL     OW32973   9.255   3.513   1.428  0.2481 -0.2600  0.6070
10258SOL    HW132974   9.187   3.498   1.493  0.5460 -3.4686  0.3395
10258SOL    HW232975   9.309   3.583   1.465 -0.7267 -0.5875  2.8108
10259SOL     OW32976   3.242   1.800   4.990 -0.1367  0.1322  0.4624
10259SOL    HW132977   3.249   1.866   5.059 -1.3712  0.4684  0.2863
10259SOL    HW232978   3.312   1.737   5.010 -0.0995  0.5312  1.6818
10260SOL     OW32979   6.864   4.489   8.638  0.5046  0.1860 -0.1355
10260SOL    HW132980   6.911   4.407   8.622 -1.4662 -1.3876  1.5244
10260SOL    HW232981   6.933   4.555   8.642  2.2421 -1.4489 -0.9496
10261SOL     OW32982   5.686   6.954   4.553  0.2998 -0.0706  0.4244
10261SOL    HW132983   5.729   6.982   4.472 -0.2450  2.0696  0.8006
10261SOL    HW232984   5.592   6.962   4.534  0.1699  0.6496  1.3168
10262SOL     OW32985   1.999   6.324   8.862 -0.2480 -0.1589  0.1067
10262SOL    HW132986   2.057   6.385   8.908  0.7802 -1.0136 -0.0100
10262SOL    HW232987   1.945   6.286   8.931 -2.6461  2.6058 -0.0681
10263SOL     OW32988   0.537   5.027   3.625 -0.0247 -0.5800  0.5089
10263SOL    HW132989   0.545   5.085   3.549 -1.5759  2.3593  2.3895
10263SOL    HW232990   0.541   4.939   3.589  0.9806  0.6591 -2.7492
10264SOL     OW32991   4.726   7.866   2.389  0.3945 -0.1314 -0.0622
10264SOL    HW132992   4.804   7.811   2.385  1.2909  1.0878  0.0610
10264SOL    HW232993   4.753   7.950   2.351 -0.6158  0.5909  0.7407
10265SOL     OW32994   9.230   1.341   0.307 -0.4644 -0.2682 -0.1993
10265SOL    HW132995   9.221   1.246   0.295 -0.0025 -0.6110  1.7446
10265SOL    HW232996   9.181   1.379   0.234 -1.0355 -1.9937 -0.7825
10266SOL     OW32997   8.717   4.835   4.928  0.4003 -0.4902 -0.4330
10266SOL    HW132998   8.624   4.826   4.909  0.1841  1.3394 -0.4092
10266SOL    HW232999   8.738   4.760   4.983 -1.5496  0.1726  1.3233
10267SOL     OW33000   8.352   6.522   4.176 -0.3566 -0.1156  0.2663
10267SOL    HW133001   8.396   6.513   4.091 -0.8834 -1.8725  0.1277
10267SOL    HW233002   8.259   6.518   4.155 -0.4849 -0.9926  0.9348
10268SOL     OW33003   4.687   2.087   1.518 -0.5902 -1.2301  0.0430
10268SOL    HW133004   4.672   2.066   1.609  0.2873  1.7057  1.0017
10268SOL    HW233005   4.736   2.012   1.483 -0.5818 -2.2332  2.0777
10269SOL     OW33006   7.016   8.291   2.247 -0.0475 -0.2281 -0.2574
10269SOL    HW133007   7.106   8.276   2.276  0.2461 -1.1961 -1.5761
10269SOL    HW233008   6.977   8.344   2.316  0.6094 -2.4139  1.9352
10270SOL     OW33009   2.841   5.834   7.876 -0.6986 -0.2622 -0.0846
10270SOL    HW133010   2.902   5.762   7.858 -0.5102 -0.2322  0.4134
10270SOL    HW233011   2.839   5.841   7.972 -0.6085  0.4869 -0.1280
10271SOL     OW33012   5.659   2.500   0.745  0.1288  0.4213  0.2043
10271SOL    HW133013   5.570   2.531   0.728  0.7538  3.1947  1.3127
10271SOL    HW233014   5.685   2.546   0.825  2.1180 -1.3076  0.6270
10272SOL     OW33015   3.921   4.348   5.034 -0.1556 -0.2780  0.3608
10272SOL    HW133016   3.973   4.385   5.105 -0.4493  0.9451 -0.0369
10272SOL    HW233017   3.833   4.380   5.050 -0.0302  0.8950 -1.1271
10273SOL     OW33018   1.621   2.924   7.573  0.0752  0.0096  0.2980
10273SOL    HW133019   1.620   2.953   7.664 -1.4131 -1.3533  0.7565
10273SOL    HW233020   1.691   2.859   7.570 -0.9008 -1.1155  0.9030
10274SOL     OW33021   8.510   2.576   6.544 -0.3374  0.2706  0.6627
10274SOL    HW133022   8.474   2.657   6.511 -1.8798 -0.5438  0.2549
10274SOL    HW233023   8.500   2.513   6.472 -0.7105 -0.6824  1.5102
10275SOL     OW33024   2.018   5.778   3.590 -0.1238  0.1488 -0.8570
10275SOL    HW133025   2.067   5.789   3.508  1.6093  0.3035  0.1373
10275SOL    HW233026   2.017   5.684   3.605 -0.6938  0.0992 -1.1961
10276SOL     OW33027   0.266   9.412   7.441  0.0499  0.5219 -0.6092
10276SOL    HW133028   0.228   9.398   7.527  0.6187  1.6714 -0.1465
10276SOL    HW233029   0.331   9.481   7.454  0.3880  0.4817 -1.8925
10277SOL     OW33030   0.518   7.719   3.826  0.3047 -0.0346  0.1816
10277SOL    HW133031   0.596   7.739   3.774  0.4258 -0.0551  0.3544
10277SOL    HW233032   0.550   7.661   3.896 -0.0398 -0.8496 -0.3229
10278SOL     OW33033   7.676   7.916   0.427 -0.0766  0.4586  0.2803
10278SOL    HW133034   7.743   7.951   0.369 -0.1401  0.4945  0.2295
10278SOL    HW233035   7.644   7.838   0.383  1.1054 -0.5197  1.0689
10279SOL     OW33036   2.362   6.423   5.971 -0.0035  0.4404 -0.7483
10279SOL    HW133037   2.292   6.361   5.994 -0.6523  1.4885  0.1875
10279SOL    HW233038   2.361   6.487   6.042  1.5395  0.7974 -1.0255
10280SOL     OW33039   8.556   3.792   6.429  0.5836  0.3485 -0.0914
10280SOL    HW133040   8.471   3.752   6.447 -0.1399  1.3526 -1.1570
10280SOL    HW233041   8.615   3.752   6.493 -0.8027  0.0885  1.0752
10281SOL     OW33042   9.502   7.478   8.757  0.0101 -0.2181 -0.1881
10281SOL    HW133043   9.518   7.384   8.757 -0.4183 -0.2913 -1.0076
10281SOL    HW233044   9.567   7.513   8.819  0.6838 -0.9545 -0.4693
10282SOL     OW33045   3.835   7.295   0.375 -0.1129  0.3073 -0.5349
10282SOL    HW133046   3.788   7.239   0.312 -1.7331 -0.2790  1.0915
10282SOL    HW233047   3.783   7.375   0.378 -0.8904 -0.2133  1.0342
10283SOL     OW33048   0.097   8.395   8.270 -0.1949  0.0971 -0.2134
10283SOL    HW133049   0.074   8.379   8.361 -2.4185 -0.5069 -0.8216
10283SOL    HW233050   0.107   8.490   8.263  1.2401  0.0591  0.8796
10284SOL     OW33051   1.641   3.053   1.605 -0.4479  0.5977 -0.2325
10284SOL    HW133052   1.664   2.965   1.574  1.6259  1.1828 -0.4949
10284SOL    HW233053   1.642   3.045   1.701 -1.7562  0.0079 -0.2508
10285SOL     OW33054   3.606   5.699   8.251 -0.6664  0.2898 -0.2689
10285SOL    HW133055   3.589   5.773   8.309 -2.5858  0.8400 -1.4446
10285SOL    HW233056   3.636   5.739   8.169 -0.0770 -0.3409 -0.3683
10286SOL     OW33057   5.573   3.863   7.468  0.2249 -0.2762 -0.2914
10286SOL    HW133058   5.626   3.832   7.541  0.5558  3.4039  1.2510
10286SOL    HW233059   5.626   3.846   7.390  2.4382  0.6220  0.9206
10287SOL     OW33060   5.483   2.405   1.009 -0.1993  0.0506  0.1307
10287SOL    HW133061   5.556   2.344   0.998 -0.7856 -0.8065  0.8547
10287SOL    HW233062   5.526   2.489   1.027  0.6130 -0.3841  0.3039
10288SOL     OW33063   6.262   6.745   2.783 -0.2942 -0.0967 -0.9850
10288SOL    HW133064   6.183   6.738   2.729 -0.2679  0.2830 -1.0784
10288SOL    HW233065   6.317   6.672   2.754 -0.1617  0.2668 -1.6782
10289SOL     OW33066   7.665   6.290   0.377  0.4870  0.6372 -0.1368
10289SOL    HW133067   7.606   6.360   0.405 -0.6403 -0.6722  0.9048
10289SOL    HW233068   7.635   6.269   0.288 -0.3042  0.3155  0.1994
10290SOL     OW33069   2.794   2.880   5.975  0.1151  0.2182  0.1432
10290SOL    HW133070   2.788   2.880   5.879 -1.0837 -1.7540  0.1496
10290SOL    HW233071   2.879   2.841   5.993  0.2112  0.2994 -0.1305
10291SOL     OW33072   9.364   3.857   0.015  0.6166  0.8412 -0.4925
10291SOL    HW133073   9.304   3.914   0.062  1.7962  0.4833  1.5697
10291SOL    HW233074   9.444   3.908   0.006  1.0897  0.1698 -0.2158
10292SOL     OW33075   3.363   6.741   6.835 -0.0418 -0.5202  0.2841
10292SOL    HW133076   3.346   6.692   6.755 -1.1825  2.0663 -1.1784
10292SOL    HW233077   3.440   6.794   6.815 -1.0201  1.0170  0.3889
10293SOL     OW33078   4.798   1.743   5.972 -0.1032 -0.1699 -0.2639
10293SOL    HW133079   4.802   1.838   5.977  0.5090 -0.2524  2.0136
10293SOL    HW233080   4.783   1.724   5.880 -0.5249  2.1295 -0.7200
10294SOL     OW33081   9.375   3.184   1.255 -1.0343  0.6940  0.3582
10294SOL    HW133082   9.306   3.196   1.319 -1.8587  0.2136 -0.4199
10294SOL    HW233083   9.377   3.266   1.205 -2.9066 -0.2253 -1.3605
10295SOL     OW33084   4.765   1.512   4.029  0.1584 -0.4736  0.0205
10295SOL    HW133085   4.706   1.466   3.969  0.1068 -0.0506 -0.2577
10295SOL    HW233086   4.819   1.567   3.972 -1.5809  1.8849  0.5111
10296SOL     OW33087   0.222   9.083   5.218 -0.3543 -0.2260  0.0417
10296SOL    HW133088   0.223   9.007   5.277 -0.7649 -0.5175 -0.3180
10296SOL    HW233089   0.154   9.062   5.155 -0.5293  0.4914 -0.0073
10297SOL     OW33090   5.147   5.961   0.459 -0.2093  0.1814  0.0788
10297SOL    HW133091   5.068   6.001   0.424 -0.2713 -0.1269 -0.1417
10297SOL    HW233092   5.185   5.912   0.386  0.9443  1.4389 -0.2004
10298SOL     OW33093   1.954   5.831   0.544  0.1134  0.0940  0.4572
10298SOL    HW133094   1.927   5.917   0.576  1.7910  1.4040 -1.4432
10298SOL    HW233095   1.901   5.817   0.466  1.0556  0.1941 -0.2057
10299SOL     OW33096   7.810   1.260   6.477  0.5834 -0.0884  0.0430
10299SOL    HW133097   7.896   1.296   6.499 -0.6138  2.7776  0.5507
10299SOL    HW233098   7.773   1.323   6.415 -0.9200 -1.6003 -0.6963
10300SOL     OW33099   6.763   6.888   6.292  0.3098  0.2217 -0.7940
10300SOL    HW133100   6.806   6.821   6.344  1.1926  1.3084 -0.0923
10300SOL    HW233101   6.820   6.899   6.216  0.1672  0.1869 -0.9063
10301SOL     OW33102   2.537   4.508   1.845 -0.0827  0.2917  1.0558
10301SOL    HW133103   2.633   4.511   1.851 -0.0932  0.5144  1.1424
10301SOL    HW233104   2.518   4.514   1.751  0.0222 -1.0248  0.9292
10302SOL     OW33105   2.419   6.022   5.442 -0.5768 -0.0724  0.2327
10302SOL    HW133106   2.418   5.927   5.426  2.0320 -0.1450 -0.0073
10302SOL    HW233107   2.445   6.060   5.358 -1.4805  0.8599  0.3617
10303SOL     OW33108   3.725   0.272   4.879 -0.0825  0.6855 -0.0965
10303SOL    HW133109   3.707   0.214   4.954 -0.0015  0.9746  0.1465
10303SOL    HW233110   3.774   0.217   4.818 -0.0617  0.4767  0.1036
10304SOL     OW33111   1.394   3.349   2.472 -0.2340  0.1358 -0.5671
10304SOL    HW133112   1.398   3.436   2.510  0.1229  0.2959 -0.9671
10304SOL    HW233113   1.378   3.291   2.546 -1.0354  0.5938 -0.3669
10305SOL     OW33114   0.180   6.347   1.407  0.3255 -0.7655 -0.0792
10305SOL    HW133115   0.201   6.305   1.324  1.2950 -1.1095  0.3320
10305SOL    HW233116   0.214   6.288   1.474  0.2536 -0.1116  0.5481
10306SOL     OW33117   3.968   4.768   4.974  0.1979 -0.1459 -0.2282
10306SOL    HW133118   4.040   4.716   4.939 -0.0909  0.7875 -2.3432
10306SOL    HW233119   4.002   4.857   4.980 -0.9810  0.4916 -2.1174
10307SOL     OW33120   0.242   1.467   2.753  0.1303 -0.3115 -0.0284
10307SOL    HW133121   0.202   1.423   2.678  2.4197 -0.5995 -1.1739
10307SOL    HW233122   0.323   1.504   2.718  1.0985 -0.1468  2.2376
10308SOL     OW33123   1.938   5.065   2.825  0.4013  0.0221 -0.0264
10308SOL    HW133124   1.952   5.106   2.910 -0.5464  0.2729  0.0216
10308SOL    HW233125   1.995   4.988   2.826  0.8265  0.3355  0.6026
10309SOL     OW33126   7.361   0.376   1.029  0.1522  0.2259 -0.0846
10309SOL    HW133127   7.297   0.389   1.098 -1.1974 -0.2522 -1.1970
10309SOL    HW233128   7.423   0.449   1.038 -0.5101  0.6637  1.0350
10310SOL     OW33129   5.589   6.639   5.314  0.3952  0.1896 -0.1133
10310SOL    HW133130   5.566   6.640   5.221 -3.0590 -0.4362  0.6052
10310SOL    HW233131   5.653   6.569   5.322 -1.9273 -2.3115 -1.5770
10311SOL     OW33132   6.372   3.857   5.774 -0.3113 -0.3268 -0.3379
10311SOL    HW133133   6.368   3.783   5.835 -0.0436 -0.1853 -0.1457
10311SOL    HW233134   6.355   3.819   5.688  0.0827 -0.6528 -0.2725
10312SOL     OW33135   3.032   7.610   4.873  0.5105 -0.2907  0.4075
10312SOL    HW133136   2.955   7.632   4.925  0.3795 -0.7542  0.4153
10312SOL    HW233137   3.004   7.621   4.782  1.0017  1.3925  0.4266
10313SOL     OW33138   1.512   0.222   0.916  0.2279  0.0605  0.9050
10313SOL    HW133139   1.476   0.134   0.926  0.4783 -0.2242 -0.5339
10313SOL    HW233140   1.598   0.209   0.876  1.0022  0.8746  2.2116
10314SOL     OW33141   0.489   9.560   7.467 -0.3008 -0.1177 -0.6460
10314SOL    HW133142   0.564   9.569   7.409 -0.3461 -0.3822 -0.7487
10314SOL    HW233143   0.517   9.599   7.549 -1.0747  2.5306 -1.5639
10315SOL     OW33144   1.591   2.423   8.177  0.0099 -0.3331  0.2219
10315SOL    HW133145   1.511   2.373   8.161  0.0801 -0.3082 -0.2178
10315SOL    HW233146   1.603   2.475   8.097  1.0455 -1.1242 -0.1443
10316SOL     OW33147   7.419   5.514   0.791  0.6622 -0.0371  0.2193
10316SOL    HW133148   7.499   5.562   0.811 -0.4256  2.1463 -0.4286
10316SOL    HW233149   7.349   5.578   0.801 -1.0755 -1.9397  1.0119
10317SOL     OW33150   4.804   7.107   4.412 -0.3073 -0.0230  0.0323
10317SOL    HW133151   4.824   7.189   4.457  1.5707 -0.8079  0.7560
10317SOL    HW233152   4.710   7.097   4.420 -0.4669  1.6568  0.6247
10318SOL     OW33153   5.659   5.127   7.550 -0.6145 -0.3702 -0.2914
10318SOL    HW133154   5.589   5.062   7.542 -0.7155 -0.5153  1.5332
10318SOL    HW233155   5.650   5.162   7.638  2.5415 -1.5108  0.6447
10319SOL     OW33156   0.967   9.205   4.777 -0.1180  0.8887  1.3480
10319SOL    HW133157   0.875   9.228   4.789 -0.3923  1.2772 -0.9837
10319SOL    HW233158   0.976   9.117   4.814 -2.2053 -0.4380 -1.0365
10320SOL     OW33159   6.421   6.946   8.305 -0.3493 -0.5128  0.1272
10320SOL    HW133160   6.438   6.964   8.212 -0.1873  0.9814  0.4236
10320SOL    HW233161   6.375   6.862   8.305  1.0268 -1.3164 -1.1874
10321SOL     OW33162   1.112   1.078   1.223 -0.4148 -0.4382 -0.0138
10321SOL    HW133163   1.049   1.151   1.223 -0.0612 -0.1292 -0.0154
10321SOL    HW233164   1.188   1.113   1.176 -1.0410 -1.5167 -1.9446
10322SOL     OW33165   2.800   7.589   8.890  0.0956 -0.3756 -0.2479
10322SOL    HW133166   2.795   7.668   8.944  0.2747 -0.1729 -0.5189
10322SOL    HW233167   2.712   7.553   8.892 -0.2851  0.4613 -1.0421
10323SOL     OW33168   8.770   2.772   4.326 -0.5395 -0.1816 -0.1494
10323SOL    HW133169   8.681   2.802   4.310 -1.5304 -1.8570  1.7578
10323SOL    HW233170   8.760   2.698   4.386  2.0130 -1.7281 -1.4709
10324SOL     OW33171   8.100   1.088   2.242 -0.0411  0.1422  0.0017
10324SOL    HW133172   8.117   0.994   2.247  0.5524  0.2394 -0.0800
10324SOL    HW233173   8.163   1.128   2.302 -0.3440  0.4833  0.0991
10325SOL     OW33174   4.637   6.500   7.022  0.2683  0.0981  0.0820
10325SOL    HW133175   4.657   6.486   7.114  0.2850 -0.3429  0.0104
10325SOL    HW233176   4.719   6.531   6.984  1.1393 -2.5524 -0.3986
10326SOL     OW33177   6.792   7.149   8.005 -0.6563  0.1517 -0.2404
10326SOL    HW133178   6.811   7.061   7.974  1.2542  0.8790 -1.3253
10326SOL    HW233179   6.769   7.138   8.097  1.3383 -1.3393  0.1553
10327SOL     OW33180   6.810   6.856   3.603  0.4082  0.1240  0.4928
10327SOL    HW133181   6.757   6.902   3.537  0.0837 -0.1604  0.5476
10327SOL    HW233182   6.825   6.920   3.672  1.7469  0.7879 -0.3832
10328SOL     OW33183   2.052   0.966   1.144 -0.1668  0.6564 -0.0160
10328SOL    HW133184   1.998   0.889   1.162  1.4831 -0.5886 -0.2052
10328SOL    HW233185   2.035   0.986   1.052 -0.0882  0.0874 -0.1588
10329SOL     OW33186   8.264   2.529   5.542 -0.4630  0.6395  0.4537
10329SOL    HW133187   8.258   2.568   5.630 -1.9289  1.3792  0.0552
10329SOL    HW233188   8.251   2.603   5.482  2.0847  0.4274 -0.4607
10330SOL     OW33189   4.983   5.631   1.497  0.7894 -0.0415  0.2553
10330SOL    HW133190   5.017   5.610   1.410  0.4426 -0.1096  0.1330
10330SOL    HW233191   5.003   5.554   1.550  0.8174 -0.0849  0.1828
10331SOL     OW33192   0.331   5.573   4.523 -0.1259  0.2470 -0.7465
10331SOL    HW133193   0.421   5.605   4.519  0.0930  0.2108  1.9582
10331SOL    HW233194   0.304   5.566   4.431  1.5890  3.1223 -1.6258
10332SOL     OW33195   3.729   0.021   2.536  0.6570 -0.4854  0.7770
10332SOL    HW133196   3.688   0.103   2.509  3.4206  0.7538 -0.0207
10332SOL    HW233197   3.713  -0.040   2.464  2.5903  0.8821 -0.9366
10333SOL     OW33198   0.178   4.679   8.181  0.6666  0.4708  0.1579
10333SOL    HW133199   0.221   4.623   8.245  1.1736  2.1143  1.3196
10333SOL    HW233200   0.142   4.618   8.116  2.8934 -1.0852  0.2702
10334SOL     OW33201   4.140   5.378   9.136  0.4935 -0.9659 -0.6895
10334SOL    HW133202   4.081   5.308   9.166 -0.4215 -0.4105 -1.1438
10334SOL    HW233203   4.088   5.458   9.145  1.0574 -0.5046 -1.4330
10335SOL     OW33204   3.113   4.995   1.946  0.5680 -0.9323  0.3706
10335SOL    HW133205   3.187   5.055   1.937  0.1777  0.2801  3.8940
10335SOL    HW233206   3.153   4.911   1.966  1.0574 -1.7072 -3.1831
10336SOL     OW33207   6.102   0.736   6.313  0.1701  0.6479  0.5995
10336SOL    HW133208   6.165   0.671   6.344 -0.1289 -0.0956 -0.2951
10336SOL    HW233209   6.027   0.728   6.372  0.0877  0.0786  0.4257
10337SOL     OW33210   3.852   0.923   0.593 -0.1553 -0.4689  0.1071
10337SOL    HW133211   3.870   0.858   0.661  1.2731  1.5881  1.8114
10337SOL    HW233212   3.937   0.941   0.553 -0.4814  0.4172 -0.2205
10338SOL     OW33213   6.369   8.486   7.069 -0.3533 -0.2267 -0.0148
10338SOL    HW133214   6.294   8.511   7.016 -0.7068 -3.5234 -1.2506
10338SOL    HW233215   6.331   8.443   7.146  0.2765  0.3441  0.6415
10339SOL     OW33216   7.793   3.367   7.917  0.0750 -0.1626  0.2873
10339SOL    HW133217   7.831   3.422   7.849  1.0462 -1.6846 -0.4408
10339SOL    HW233218   7.861   3.360   7.984  0.4413 -1.4805 -0.2091
10340SOL     OW33219   2.248   6.114   6.047 -0.6363 -0.4061 -0.2228
10340SOL    HW133220   2.162   6.141   6.079 -1.1965 -1.0822 -1.1331
10340SOL    HW233221   2.309   6.170   6.095 -1.6535  1.1486 -0.6493
10341SOL     OW33222   1.702   5.032   5.577  0.3243  0.2364  0.4299
10341SOL    HW133223   1.631   5.084   5.614 -0.6798 -1.0937  0.4543
10341SOL    HW233224   1.755   5.006   5.652 -0.7745 -1.0875  0.7782
10342SOL     OW33225   2.985   3.303   4.190 -0.1927 -0.1542 -0.4473
10342SOL    HW133226   3.015   3.218   4.221  0.8026 -0.4863 -2.1836
10342SOL    HW233227   3.062   3.360   4.193 -0.3242  0.0911 -1.2332
10343SOL     OW33228   3.142   3.038   6.090 -0.2306  0.1604 -0.1159
10343SOL    HW133229   3.128   3.054   5.997 -0.3155 -0.0656 -0.1416
10343SOL    HW233230   3.064   3.074   6.132 -0.1353  0.3753 -0.1202
10344SOL     OW33231   7.356   3.086   7.838  0.3580 -0.1948 -0.6175
10344SOL    HW133232   7.333   3.034   7.761  1.2868 -0.5029 -0.6908
10344SOL    HW233233   7.271   3.114   7.874 -0.1012 -0.6110 -1.3585
10345SOL     OW33234   7.976   3.744   5.931  0.3043 -0.9629 -0.6600
10345SOL    HW133235   8.035   3.802   5.980 -0.4858  0.0399 -0.8755
10345SOL    HW233236   7.945   3.681   5.997 -0.0517 -0.1737 -0.0572
10346SOL     OW33237   8.849   8.175   4.368  0.4781  0.5058 -0.2508
10346SOL    HW133238   8.868   8.172   4.461 -0.0981  0.3961 -0.1310
10346SOL    HW233239   8.886   8.093   4.334 -0.8075 -0.3036  0.1920
10347SOL     OW33240   8.571   5.009   5.835  0.4749 -0.3922 -0.5025
10347SOL    HW133241   8.553   5.013   5.928  0.7477  0.4387 -0.4716
10347SOL    HW233242   8.665   4.990   5.829  0.5539  0.0154 -0.5964
10348SOL     OW33243   9.500   2.744   2.237 -0.3341 -0.4430 -0.2215
10348SOL    HW133244   9.469   2.811   2.175 -0.5740 -0.1794  0.1831
10348SOL    HW233245   9.537   2.794   2.309 -0.0246 -0.7546 -0.1662
10349SOL     OW33246   9.515   8.498   0.068  0.6543 -0.2770 -0.1733
10349SOL    HW133247   9.427   8.486   0.032  1.0804 -1.1740 -0.9572
10349SOL    HW233248   9.509   8.578   0.120  0.1670  1.4927 -2.7752
10350SOL     OW33249   4.873   2.071   4.912 -0.3495  0.2576 -0.2803
10350SOL    HW133250   4.853   2.027   4.829  2.7701 -1.5574 -0.2003
10350SOL    HW233251   4.932   2.142   4.887  1.0104 -0.6096  0.3945
10351SOL     OW33252   6.397   4.567   5.918 -0.1393 -0.4865  0.4014
10351SOL    HW133253   6.466   4.586   5.855  0.8590 -0.1510  1.5388
10351SOL    HW233254   6.389   4.647   5.970 -0.2842 -1.0449  1.2676
10352SOL     OW33255   3.163   0.594   1.166  0.1015 -0.3820 -0.2351
10352SOL    HW133256   3.209   0.666   1.124  0.3794  0.0353  0.7619
10352SOL    HW233257   3.232   0.534   1.194 -0.0376 -0.3378  0.2076
10353SOL     OW33258   2.253   0.736   1.457 -0.0231  0.1441 -0.1324
10353SOL    HW133259   2.326   0.674   1.458 -0.3736 -0.2726  0.6048
10353SOL    HW233260   2.265   0.786   1.376  1.3611  0.4350  0.2372
10354SOL     OW33261   3.343   7.704   1.470 -0.6301  0.2886 -0.4643
10354SOL    HW133262   3.329   7.611   1.453 -0.6716  0.5016 -1.6270
10354SOL    HW233263   3.296   7.749   1.400 -0.5368  1.1864  0.0359
10355SOL     OW33264   9.323   6.931   0.451 -0.5780  0.3311 -0.0905
10355SOL    HW133265   9.307   6.903   0.541  1.6005 -1.6065 -0.2333
10355SOL    HW233266   9.389   7.000   0.459  0.4729 -0.6350 -0.2326
10356SOL     OW33267   1.721   1.957   2.951 -0.2395 -0.0467  0.0337
10356SOL    HW133268   1.699   1.983   2.861  3.5811  1.4894 -0.6486
10356SOL    HW233269   1.761   1.871   2.942 -0.5797 -0.2458  0.4042
10357SOL     OW33270   8.462   4.644   2.578  0.1410 -0.1923 -0.2491
10357SOL    HW133271   8.483   4.736   2.591 -1.4967  0.3368 -1.0620
10357SOL    HW233272   8.468   4.605   2.665 -0.4012  0.9678  0.3351
10358SOL     OW33273   4.412   4.214   5.496 -0.3448  0.7146  0.2629
10358SOL    HW133274   4.427   4.305   5.521 -0.3372  0.9410 -0.5452
10358SOL    HW233275   4.500   4.176   5.491 -0.1159  1.4157 -2.1329
10359SOL     OW33276   2.064   2.740   7.451 -0.4496 -0.4760  0.2244
10359SOL    HW133277   2.139   2.799   7.453 -0.4213 -0.5231  1.5060
10359SOL    HW233278   2.071   2.695   7.367 -0.2905  1.0979 -0.6351
10360SOL     OW33279   7.979   6.720   0.775 -0.8418  0.5557  0.0807
10360SOL    HW133280   7.981   6.652   0.842 -1.4408  0.5645  0.1103
10360SOL    HW233281   7.924   6.684   0.705  0.0751  0.3937 -0.5737
10361SOL     OW33282   1.232   8.351   7.885  0.2900 -0.0477  0.0878
10361SOL    HW133283   1.149   8.399   7.881 -1.1488 -2.4854 -1.4964
10361SOL    HW233284   1.247   8.339   7.979 -1.0052  0.6383  0.4168
10362SOL     OW33285   8.761   3.751   5.803 -0.2262 -0.5369  0.1345
10362SOL    HW133286   8.696   3.817   5.778 -1.8527 -1.3348  1.9963
10362SOL    HW233287   8.834   3.802   5.839  0.0108  0.3558 -1.5272
10363SOL     OW33288   6.496   3.478   7.213  0.3800 -0.6502  0.2351
10363SOL    HW133289   6.462   3.454   7.127 -1.5703  0.0756  0.7585
10363SOL    HW233290   6.437   3.546   7.245  2.2311  0.5513  1.3206
10364SOL     OW33291   1.366   5.131   9.556 -0.0990 -0.4335 -0.1013
10364SOL    HW133292   1.434   5.194   9.534  0.7749 -0.9759  0.9619
10364SOL    HW233293   1.393   5.050   9.511  0.4617 -0.9001  1.0411
10365SOL     OW33294   3.946   1.592   0.112 -0.1703 -0.1125 -0.2084
10365SOL    HW133295   3.924   1.532   0.041  1.9220 -0.1672 -0.8836
10365SOL    HW233296   4.042   1.591   0.115 -0.0218  3.1779 -0.2684
10366SOL     OW33297   7.837   4.927   4.521 -0.1242 -0.1898 -0.2550
10366SOL    HW133298   7.773   4.957   4.456  1.6085  1.0274 -1.4796
10366SOL    HW233299   7.825   4.832   4.523 -0.8990 -0.1501 -1.6144
10367SOL     OW33300   0.359   6.980   8.226  0.1483  0.1391  0.2932
10367SOL    HW133301   0.339   6.887   8.237  0.5864 -0.1576 -1.2038
10367SOL    HW233302   0.391   7.008   8.312 -1.1403 -0.7734  1.1054
10368SOL     OW33303   7.243   5.807   7.699 -0.6440 -0.0633  0.5129
10368SOL    HW133304   7.325   5.759   7.687 -0.3811  0.8625 -2.0879
10368SOL    HW233305   7.270   5.895   7.724 -0.3862  1.4395 -4.1080
10369SOL     OW33306   9.221   1.637   8.392 -0.4769  0.1700 -0.8644
10369SOL    HW133307   9.152   1.578   8.421 -0.6902  0.9145  0.1878
10369SOL    HW233308   9.195   1.723   8.424  1.1705  0.3847 -0.0167
10370SOL     OW33309   1.796   1.628   6.944 -0.3709 -0.0268  0.1365
10370SOL    HW133310   1.858   1.574   6.895  0.8622 -0.1414  1.7618
10370SOL    HW233311   1.849   1.698   6.981 -1.5709  1.0346 -0.0641
10371SOL     OW33312   0.983   2.708   6.566  0.1152  0.0422  0.1664
10371SOL    HW133313   1.022   2.795   6.577  1.2579 -0.2276 -1.4431
10371SOL    HW233314   0.927   2.698   6.643  0.1633  2.0792  0.5333
10372SOL     OW33315   3.689   6.183   0.465  0.2183 -0.1659  0.0168
10372SOL    HW133316   3.778   6.148   0.463  0.1396 -0.4671  1.2678
10372SOL    HW233317   3.691   6.253   0.530 -0.5792 -0.5126  0.4281
10373SOL     OW33318   7.979   3.279   0.568  0.3581  0.3155  0.7287
10373SOL    HW133319   7.980   3.320   0.655 -0.1466  1.3478  0.2558
10373SOL    HW233320   7.964   3.351   0.507 -3.2666 -0.8306  0.0440
10374SOL     OW33321   2.102   5.635   7.584  0.1298  0.2248 -0.1065
10374SOL    HW133322   2.171   5.693   7.616  1.3981 -1.1823 -0.1860
10374SOL    HW233323   2.075   5.674   7.500  2.5209 -0.4350 -1.2647
10375SOL     OW33324   7.842   6.206   2.425 -0.0652 -0.6393 -0.3221
10375SOL    HW133325   7.872   6.121   2.457 -0.3036 -1.3915 -2.0258
10375SOL    HW233326   7.807   6.189   2.338  0.3396  1.2779 -0.9214
10376SOL     OW33327   4.254   3.204   2.475  0.8446  0.2691 -0.1865
10376SOL    HW133328   4.285   3.117   2.502 -0.1613 -0.0148  0.1168
10376SOL    HW233329   4.269   3.206   2.380 -0.0950 -0.6784 -0.3866
10377SOL     OW33330   5.791   8.386   2.796  0.1191 -0.0069  0.3211
10377SOL    HW133331   5.736   8.342   2.860  0.6586 -1.4081 -0.1403
10377SOL    HW233332   5.733   8.448   2.752 -1.0956 -1.4053 -0.1053
10378SOL     OW33333   4.572   1.939   2.299 -0.2323 -0.5450  0.2370
10378SOL    HW133334   4.586   1.888   2.219 -0.2410  0.0369 -0.1380
10378SOL    HW233335   4.483   1.917   2.326 -0.5824 -0.0155 -0.4501
10379SOL     OW33336   0.911   1.219   0.091 -0.6283  0.0811 -0.2902
10379SOL    HW133337   0.864   1.136   0.079 -1.1425  0.0153  1.6974
10379SOL    HW233338   0.843   1.281   0.118  0.0805  0.5541  0.4670
10380SOL     OW33339   6.886   8.988   1.036 -0.4020  0.3374 -0.3835
10380SOL    HW133340   6.962   9.038   1.067 -1.0071  0.9636  0.1185
10380SOL    HW233341   6.853   8.943   1.114  0.6866 -1.6532 -0.9960
10381SOL     OW33342   4.415   9.470   3.957  0.1016  0.5771  0.6215
10381SOL    HW133343   4.354   9.476   3.883  0.2060 -2.2931  0.1942
10381SOL    HW233344   4.501   9.491   3.919 -0.0840  0.8237  0.3340
10382SOL     OW33345   1.365   1.806   6.052 -0.4309  0.1473 -0.0056
10382SOL    HW133346   1.288   1.760   6.019 -0.6892  1.2483 -0.9941
10382SOL    HW233347   1.435   1.741   6.048 -1.4049 -1.0695  1.4945
10383SOL     OW33348   9.255   8.277   0.738 -0.1070 -0.5772 -0.0410
10383SOL    HW133349   9.163   8.294   0.758 -0.4266 -1.2396 -0.8828
10383SOL    HW233350   9.303   8.315   0.812 -1.1538 -1.8513  1.3494
10384SOL     OW33351   5.659   4.413   1.564 -0.1351 -0.3421 -0.6532
10384SOL    HW133352   5.726   4.345   1.577 -0.8400 -1.3397 -2.0177
10384SOL    HW233353   5.709   4.492   1.545  0.6731 -0.8911 -0.8700
10385SOL     OW33354   8.804   3.171   2.349  1.0952 -0.4873 -0.7190
10385SOL    HW133355   8.878   3.115   2.329  1.3161  0.1646 -1.7894
10385SOL    HW233356   8.746   3.116   2.402  1.2651 -1.7574 -1.8018
10386SOL     OW33357   5.592   2.796   6.768 -0.1447 -0.0006  0.1037
10386SOL    HW133358   5.539   2.844   6.704  0.7163  0.2117 -0.4702
10386SOL    HW233359   5.580   2.704   6.745  1.1772  0.1187 -1.2298
10387SOL     OW33360   4.705   6.456   0.604  0.0789 -0.2275 -0.1280
10387SOL    HW133361   4.690   6.421   0.692 -0.5321  0.0249 -0.1274
10387SOL    HW233362   4.694   6.551   0.614 -3.0940 -0.3747 -1.0354
10388SOL     OW33363   9.074   4.812   5.458  0.2808  0.4166  0.2169
10388SOL    HW133364   8.986   4.845   5.440 -1.1671 -2.1066  2.1976
10388SOL    HW233365   9.061   4.736   5.514  3.5296 -2.0959 -2.0570
10389SOL     OW33366   2.030   7.697   4.509  0.5153 -0.0524  0.0703
10389SOL    HW133367   2.104   7.677   4.566  0.5647 -0.2279 -0.0547
10389SOL    HW233368   2.024   7.793   4.512  0.4738 -0.0651  0.4201
10390SOL     OW33369   0.649   9.577   0.008 -0.6935  0.3057 -0.1228
10390SOL    HW133370   0.639   9.672  -0.003  0.9855  0.7634  1.6260
10390SOL    HW233371   0.619   9.561   0.098 -2.3333 -1.1023 -0.8761
10391SOL     OW33372   0.384   4.696   9.399  0.3944  0.2407  0.9738
10391SOL    HW133373   0.400   4.612   9.357  1.3325  0.1365  1.5149
10391SOL    HW233374   0.471   4.729   9.422  0.0327  1.2726  0.9440
10392SOL     OW33375   5.693   0.834   4.285  0.2241  0.0296 -0.1940
10392SOL    HW133376   5.660   0.896   4.221  2.2904 -1.0261 -2.4541
10392SOL    HW233377   5.622   0.825   4.349 -0.9125  3.1098 -0.8722
10393SOL     OW33378   6.576   8.402   0.183  0.4534 -0.2759 -0.0535
10393SOL    HW133379   6.508   8.336   0.199  0.7346 -0.7242 -0.6632
10393SOL    HW233380   6.617   8.374   0.101  0.2028  0.9599 -0.6178
10394SOL     OW33381   9.516   7.025   3.404  0.3921 -0.5334  0.2084
10394SOL    HW133382   9.587   6.961   3.408  0.6634 -0.2022  0.7312
10394SOL    HW233383   9.556   7.108   3.427  0.0115 -0.1880 -0.3414
10395SOL     OW33384   5.154   8.565   7.579  0.0498 -0.7284  0.2334
10395SOL    HW133385   5.190   8.597   7.497 -1.0000  0.5792  0.2330
10395SOL    HW233386   5.085   8.504   7.554  1.0309 -1.8558  0.2043
10396SOL     OW33387   2.824   5.288   5.446  0.3533  0.0731  0.3060
10396SOL    HW133388   2.889   5.355   5.467 -0.7476  1.5761 -0.8545
10396SOL    HW233389   2.802   5.248   5.530  3.2202 -0.9724  0.6691
10397SOL     OW33390   8.635   8.713   4.359  0.4636 -0.4376 -0.1681
10397SOL    HW133391   8.720   8.702   4.401  1.6917 -0.6076 -2.5420
10397SOL    HW233392   8.641   8.796   4.312 -0.4600 -0.7128 -0.8181
10398SOL     OW33393   2.234   3.370   0.651  0.1052 -0.3573 -0.2639
10398SOL    HW133394   2.266   3.282   0.672  0.5459 -0.2243 -0.3864
10398SOL    HW233395   2.271   3.389   0.565 -0.6107 -0.3592 -0.5827
10399SOL     OW33396   3.816   7.724   8.010 -0.0216  0.0748 -0.0372
10399SOL    HW133397   3.840   7.817   8.002  0.4030 -0.1718 -2.0381
10399SOL    HW233398   3.723   7.726   8.034 -0.1805  1.0187 -0.6770
10400SOL     OW33399   2.098   3.966   8.363  0.1893  0.1410  0.1457
10400SOL    HW133400   2.161   3.970   8.435  0.0457 -1.7141  0.4272
10400SOL    HW233401   2.135   4.023   8.296  2.4042 -1.1124  0.1728
10401SOL     OW33402   0.854   0.852   5.620  0.1612 -0.1451  0.0898
10401SOL    HW133403   0.803   0.864   5.700 -2.2496  0.5304 -1.4101
10401SOL    HW233404   0.869   0.941   5.587  0.4650 -0.4294 -0.5648
10402SOL     OW33405   8.629   2.028   7.955  0.2318 -0.0839  0.1723
10402SOL    HW133406   8.586   2.078   7.885  0.2020  2.2205  1.6923
10402SOL    HW233407   8.710   1.995   7.916 -0.6067 -0.3632 -1.3973
10403SOL     OW33408   8.716   3.424   7.350  0.2964  0.3739  0.0654
10403SOL    HW133409   8.683   3.341   7.385  1.6686 -0.6852 -0.9866
10403SOL    HW233410   8.655   3.490   7.382  0.2068 -0.7767  2.5284
10404SOL     OW33411   5.790   5.118   3.018 -0.5026 -0.3878  0.2893
10404SOL    HW133412   5.749   5.078   2.941 -0.8671  1.8622 -0.7433
10404SOL    HW233413   5.717   5.130   3.080 -0.3107 -1.6599  0.7967
10405SOL     OW33414   6.657   0.474   5.158 -0.0550 -0.0895  0.0572
10405SOL    HW133415   6.695   0.387   5.145  0.5706  0.2368 -0.3511
10405SOL    HW233416   6.729   0.527   5.192 -0.8037 -0.0751  1.7272
10406SOL     OW33417   1.684   7.720   2.949  0.4040 -0.1859 -0.1945
10406SOL    HW133418   1.722   7.759   3.028 -0.0911 -0.7482  0.3373
10406SOL    HW233419   1.601   7.767   2.937 -0.6931 -1.6955  1.0407
10407SOL     OW33420   7.605   7.865   3.312  0.4487  0.2372 -0.4144
10407SOL    HW133421   7.626   7.806   3.239 -0.7006 -0.1389 -0.4646
10407SOL    HW233422   7.510   7.880   3.304  0.1059 -0.5742  1.5360
10408SOL     OW33423   3.446   5.921   3.658 -0.5836  0.2724 -0.3759
10408SOL    HW133424   3.462   5.887   3.746  1.0659  1.3136 -0.2405
10408SOL    HW233425   3.416   6.011   3.672 -2.0530 -0.1217 -0.8352
10409SOL     OW33426   8.414   1.633   0.799 -0.3600  0.4455  0.5085
10409SOL    HW133427   8.337   1.576   0.797 -0.1650  0.1988 -1.9222
10409SOL    HW233428   8.383   1.714   0.838 -1.9975  0.5270 -0.8845
10410SOL     OW33429   4.661   6.225   4.226 -0.0090  0.3409 -0.3199
10410SOL    HW133430   4.584   6.246   4.278 -0.5016  1.9289 -1.5675
10410SOL    HW233431   4.643   6.265   4.140  1.7509 -0.1375 -0.9612
10411SOL     OW33432   7.697   4.689   8.652 -0.0097 -0.2682 -0.0368
10411SOL    HW133433   7.695   4.710   8.558  0.4788  0.7933  0.1822
10411SOL    HW233434   7.762   4.748   8.689 -1.7566  0.8891  1.3551
10412SOL     OW33435   5.232   2.269   4.571 -0.5232  0.6455 -0.3992
10412SOL    HW133436   5.233   2.180   4.606  1.3174  0.2696 -1.2623
10412SOL    HW233437   5.223   2.325   4.648 -2.2012 -0.2561  0.1181
10413SOL     OW33438   2.480   7.878   2.259  0.3573 -0.3682  0.5003
10413SOL    HW133439   2.420   7.824   2.310  0.6586 -0.2303  1.0098
10413SOL    HW233440   2.514   7.820   2.191 -0.8919 -0.2556 -0.2394
10414SOL     OW33441   4.331   1.942   2.714  0.0221 -0.0175  0.1296
10414SOL    HW133442   4.238   1.964   2.723  0.1661  2.4979 -2.8930
10414SOL    HW233443   4.341   1.859   2.761 -3.3418  0.4601  1.9995
10415SOL     OW33444   1.745   6.458   3.777  0.1002 -0.3326 -0.0410
10415SOL    HW133445   1.727   6.541   3.822  1.2540  0.0797 -0.2954
10415SOL    HW233446   1.839   6.445   3.788 -0.4873 -3.4567  3.1164
10416SOL     OW33447   2.410   0.280   8.665 -0.6478 -0.3259  0.3293
10416SOL    HW133448   2.464   0.300   8.741 -2.8614  4.2367  1.0114
10416SOL    HW233449   2.461   0.312   8.590 -0.4469 -0.4180  0.4268
10417SOL     OW33450   9.481   7.695   6.920 -0.3616  0.2684  0.5795
10417SOL    HW133451   9.569   7.699   6.884 -0.3339  1.0526  0.7291
10417SOL    HW233452   9.476   7.767   6.983 -0.9811 -0.0083  0.8693
10418SOL     OW33453   6.876   8.056   1.336 -0.1752 -0.3218  0.1440
10418SOL    HW133454   6.785   8.076   1.358 -0.3640  0.7163 -1.4446
10418SOL    HW233455   6.914   8.141   1.313  0.9205 -0.8832 -0.1747
10419SOL     OW33456   6.962   3.441   2.132  0.3578 -0.3382 -0.7247
10419SOL    HW133457   7.048   3.456   2.172  0.1780 -0.4144 -0.2954
10419SOL    HW233458   6.901   3.448   2.206  0.0671 -1.0156 -0.8962
10420SOL     OW33459   5.586   2.124   2.544 -0.6096  0.5797  0.3709
10420SOL    HW133460   5.495   2.132   2.517 -0.5322 -1.7049 -0.7564
10420SOL    HW233461   5.636   2.134   2.463 -0.0640 -1.0869  0.4594
10421SOL     OW33462   0.043   2.073   6.480  0.2243  0.4289  0.2512
10421SOL    HW133463   0.086   2.106   6.558  3.2565  1.8163 -1.8167
10421SOL    HW233464  -0.010   2.146   6.448  1.4098  0.9848 -0.5445
10422SOL     OW33465   0.618   6.819   0.425  0.5909  0.1412 -0.0493
10422SOL    HW133466   0.626   6.913   0.409  0.3303  0.3269  0.8669
10422SOL    HW233467   0.524   6.801   0.417  0.8767 -0.5695 -2.9188
10423SOL     OW33468   6.810   8.354   2.649 -0.3772 -0.6069  0.1843
10423SOL    HW133469   6.773   8.273   2.615  0.4553 -0.9945  0.1698
10423SOL    HW233470   6.853   8.329   2.731 -2.0298  0.2472  1.3745
10424SOL     OW33471   4.025   4.848   8.442 -0.5529 -0.1916  0.1075
10424SOL    HW133472   4.039   4.924   8.498 -0.2185 -0.0954 -0.1080
10424SOL    HW233473   4.052   4.876   8.355 -0.6796 -0.4730 -0.0238
10425SOL     OW33474   5.161   0.812   9.012 -0.1894 -0.2069 -0.7230
10425SOL    HW133475   5.242   0.812   9.062  0.0413 -2.1095 -1.0183
10425SOL    HW233476   5.118   0.895   9.035  1.7591  0.7936 -0.4887
10426SOL     OW33477   3.672   8.761   7.627 -0.4362 -0.0332 -0.1310
10426SOL    HW133478   3.763   8.784   7.643 -0.6473  0.3693  0.5606
10426SOL    HW233479   3.675   8.694   7.559  0.3561  0.1610 -0.2936
10427SOL     OW33480   6.014   6.282   1.281  0.4514  0.1588  0.1696
10427SOL    HW133481   5.957   6.355   1.308 -1.2668 -1.0966  0.0858
10427SOL    HW233482   6.018   6.226   1.359  1.8680  0.3793  0.2714
10428SOL     OW33483   3.441   1.219   0.572 -0.1267  0.0387 -0.4004
10428SOL    HW133484   3.526   1.203   0.529 -0.4897  0.5461 -1.3351
10428SOL    HW233485   3.385   1.253   0.502 -0.8084  0.6811  0.4377
10429SOL     OW33486   8.510   4.796   5.404  0.9552 -0.0903  0.1312
10429SOL    HW133487   8.517   4.881   5.362 -1.3388  0.1580  0.1288
10429SOL    HW233488   8.490   4.735   5.332 -1.6346  0.1206  0.5607
10430SOL     OW33489   5.537   3.307   6.936  0.3885  0.0094  0.3016
10430SOL    HW133490   5.496   3.267   6.859 -1.2633  0.9959  0.6138
10430SOL    HW233491   5.629   3.319   6.910  0.6409 -2.5671 -0.3113
10431SOL     OW33492   2.435   4.740   0.983 -1.0518  0.0004  0.1251
10431SOL    HW133493   2.360   4.690   1.016 -1.1794 -0.4984 -0.8723
10431SOL    HW233494   2.508   4.679   0.989 -0.2875  1.0750  2.8344
10432SOL     OW33495   6.351   6.699   1.446 -0.7270  0.0412 -0.1367
10432SOL    HW133496   6.293   6.733   1.515 -0.8708  0.3459 -0.4030
10432SOL    HW233497   6.431   6.751   1.453  1.0023 -2.6566  2.5368
10433SOL     OW33498   8.508   4.173   3.307  0.1284  0.3245 -0.1691
10433SOL    HW133499   8.414   4.168   3.294  0.0971 -1.7780  0.4246
10433SOL    HW233500   8.537   4.246   3.253 -1.8874  1.2992  0.0044
10434SOL     OW33501   0.849   8.726   0.812 -0.3169 -0.3601 -0.7315
10434SOL    HW133502   0.775   8.666   0.824 -0.1471 -0.4025  0.1475
10434SOL    HW233503   0.924   8.668   0.795 -0.1954 -0.3880 -0.1038
10435SOL     OW33504   5.252   6.453   6.567  0.0069  0.2417 -0.8457
10435SOL    HW133505   5.343   6.445   6.539  0.6362  0.5171  1.0016
10435SOL    HW233506   5.253   6.525   6.631 -0.7039 -2.3369  2.3019
10436SOL     OW33507   0.881   5.696   9.445  0.4043 -0.2098 -0.3094
10436SOL    HW133508   0.912   5.654   9.525  2.9772  2.0926  0.0514
10436SOL    HW233509   0.955   5.689   9.384  0.0520  1.6173 -1.0163
10437SOL     OW33510   1.412   7.987   2.333  0.2321  0.6654  0.2437
10437SOL    HW133511   1.502   8.000   2.302  0.1773  1.1741  0.2838
10437SOL    HW233512   1.360   7.977   2.254  0.3356  0.2868  0.2227
10438SOL     OW33513   0.230   4.314   4.243 -0.7833  0.1764  0.8344
10438SOL    HW133514   0.206   4.223   4.224  2.1407 -0.5047 -0.1783
10438SOL    HW233515   0.289   4.309   4.318  1.3833  0.8557 -0.7157
10439SOL     OW33516   1.210   9.539   6.166 -0.8841 -0.0510 -0.2236
10439SOL    HW133517   1.135   9.490   6.198  0.0782 -1.1670  0.4168
10439SOL    HW233518   1.209   9.621   6.216 -0.2677 -1.1246  1.6769
10440SOL     OW33519   4.659   6.043   2.469 -0.1727 -0.3484 -0.4236
10440SOL    HW133520   4.615   6.099   2.533  0.9719  0.3028 -0.1949
10440SOL    HW233521   4.746   6.081   2.458  1.1226 -2.7431  0.6551
10441SOL     OW33522   9.080   6.440   1.448 -0.4217 -0.5189  0.1185
10441SOL    HW133523   8.997   6.464   1.488 -0.5877 -0.4257 -0.2798
10441SOL    HW233524   9.067   6.454   1.354 -0.6755 -2.5292 -0.1939
10442SOL     OW33525   7.436   0.805   1.322  0.1747 -0.1813 -0.2130
10442SOL    HW133526   7.528   0.832   1.316  0.2641 -0.5988 -0.7601
10442SOL    HW233527   7.400   0.824   1.235 -1.3646  3.8480  1.0604
10443SOL     OW33528   2.089   2.230   6.861  0.0135 -0.1061  0.1185
10443SOL    HW133529   2.050   2.316   6.851 -0.7161 -0.4722 -0.3222
10443SOL    HW233530   2.164   2.243   6.918  0.5183  0.9963 -0.7717
10444SOL     OW33531   1.140   8.578   3.097  0.2580  0.0154 -0.0876
10444SOL    HW133532   1.075   8.604   3.032 -0.3589 -0.4621  0.3262
10444SOL    HW233533   1.092   8.578   3.180  0.4673 -1.5368  0.0567
10445SOL     OW33534   3.123   7.671   6.339  0.1031 -0.6502  0.5006
10445SOL    HW133535   3.176   7.607   6.386  0.7062 -1.2464 -0.9319
10445SOL    HW233536   3.182   7.707   6.273 -0.7280  0.1267  0.1638
10446SOL     OW33537   2.240   1.008   6.285 -0.1914 -0.1505 -0.3052
10446SOL    HW133538   2.187   1.037   6.211 -2.1663 -0.3558  0.9553
10446SOL    HW233539   2.250   1.086   6.339  0.8615 -0.1122 -0.5216
10447SOL     OW33540   4.953   5.709   7.041  0.1516  0.2667  0.5955
10447SOL    HW133541   5.041   5.727   7.009 -0.0388 -0.3735 -0.3429
10447SOL    HW233542   4.898   5.718   6.963 -0.0351 -3.7212  0.0913
10448SOL     OW33543   3.750   1.775   8.236  0.1799  0.4950  0.1135
10448SOL    HW133544   3.763   1.707   8.302 -0.5895  0.0624 -0.1685
10448SOL    HW233545   3.831   1.825   8.236  1.2637 -1.1844 -0.5585
10449SOL     OW33546   6.198   6.612   9.538  0.1965  0.4165 -0.5866
10449SOL    HW133547   6.134   6.681   9.552  0.3291  0.3779  0.2814
10449SOL    HW233548   6.167   6.565   9.461 -0.3307  0.9463 -0.7035
10450SOL     OW33549   5.525   5.494   2.087 -0.2481  0.4380  0.5828
10450SOL    HW133550   5.601   5.474   2.141 -0.4362  0.6269  0.9145
10450SOL    HW233551   5.526   5.426   2.019 -2.7274 -2.9638  3.5352
10451SOL     OW33552   7.592   4.168   5.860  0.1929 -0.3432  0.3384
10451SOL    HW133553   7.657   4.105   5.891 -0.4916 -0.0830  2.4130
10451SOL    HW233554   7.542   4.119   5.795  1.9730 -0.7530 -0.7966
10452SOL     OW33555   7.185   5.273   5.705  0.5367  0.4070  0.2136
10452SOL    HW133556   7.221   5.203   5.759 -0.0824  0.3785  0.6017
10452SOL    HW233557   7.099   5.241   5.679 -0.1668  1.4105  1.2089
10453SOL     OW33558   5.820   3.394   0.984 -0.1713  0.1194  0.6223
10453SOL    HW133559   5.903   3.440   0.971  0.8268 -1.9604 -0.8726
10453SOL    HW233560   5.780   3.438   1.060  2.1998  1.2750  1.2921
10454SOL     OW33561   7.944   3.456   9.563  0.1996  0.2457  0.1096
10454SOL    HW133562   7.943   3.361   9.551 -2.1602  0.2464 -0.2492
10454SOL    HW233563   8.020   3.486   9.513 -0.6139 -1.2153 -2.1398
10455SOL     OW33564   6.271   6.537   6.808 -0.2517  0.3938 -0.5806
10455SOL    HW133565   6.256   6.475   6.879  1.8642  2.3722  1.7662
10455SOL    HW233566   6.189   6.586   6.800 -0.4641  0.2422  0.6082
10456SOL     OW33567   6.554   4.151   8.437 -0.1291  0.0170  0.1447
10456SOL    HW133568   6.482   4.142   8.500  0.1085  0.2957  0.4602
10456SOL    HW233569   6.633   4.131   8.488  0.0488  0.0779 -0.1070
10457SOL     OW33570   6.283   3.008   6.467  0.9638  0.1645 -0.3402
10457SOL    HW133571   6.228   3.086   6.456  0.4927  0.0839  1.2319
10457SOL    HW233572   6.226   2.944   6.510  1.6659 -0.6906 -0.6340
10458SOL     OW33573   3.163   2.653   0.937 -0.5424 -0.2374 -0.1973
10458SOL    HW133574   3.072   2.671   0.912 -0.2768  1.8821  0.1527
10458SOL    HW233575   3.172   2.690   1.024  0.3890 -1.3980  0.2238
10459SOL     OW33576   5.784   6.825   7.986  0.5175 -0.2249 -0.3995
10459SOL    HW133577   5.730   6.867   8.053  0.3617 -0.7849 -0.1668
10459SOL    HW233578   5.873   6.854   8.005  0.4161 -0.0341 -0.2172
10460SOL     OW33579   9.419   6.096   0.737  0.3263  0.0751 -0.2825
10460SOL    HW133580   9.352   6.049   0.787  0.1691 -0.2696 -0.8021
10460SOL    HW233581   9.494   6.037   0.737  1.7911  1.7275  2.9268
10461SOL     OW33582   0.308   3.895   7.853 -1.0580 -0.2777 -0.1512
10461SOL    HW133583   0.403   3.889   7.852 -0.9771  0.8700 -0.1080
10461SOL    HW233584   0.280   3.817   7.901 -0.0669  0.1956  1.2466
10462SOL     OW33585   8.090   7.443   6.336  0.1003  0.0221  0.0361
10462SOL    HW133586   8.183   7.457   6.356  0.3403 -0.0322 -0.9835
10462SOL    HW233587   8.044   7.507   6.390  0.6355 -0.7183  1.4329
10463SOL     OW33588   7.329   4.991   5.411  0.6724 -0.1750  0.1243
10463SOL    HW133589   7.406   4.975   5.356  0.8791 -0.1235  0.3974
10463SOL    HW233590   7.297   5.077   5.383  0.3314 -0.4771 -0.4355
10464SOL     OW33591   0.420   4.413   1.892 -0.2056  0.1278  0.1207
10464SOL    HW133592   0.453   4.381   1.976  3.0992 -0.0501 -1.0917
10464SOL    HW233593   0.359   4.484   1.915 -0.0339 -0.4588  2.6388
10465SOL     OW33594   9.569   2.867   5.005 -0.0010  0.9325  0.1932
10465SOL    HW133595   9.611   2.841   5.087  2.2326 -0.4097 -1.2690
10465SOL    HW233596   9.633   2.924   4.963  0.3404 -0.9473 -1.9997
10466SOL     OW33597   7.511   3.554   2.898  0.2649  0.3500 -0.5121
10466SOL    HW133598   7.524   3.475   2.950  1.1493  1.2100  0.6246
10466SOL    HW233599   7.419   3.577   2.911 -0.2631 -1.0085 -1.6404
10467SOL     OW33600   4.824   7.622   7.593  0.5054  0.3934 -0.1614
10467SOL    HW133601   4.774   7.544   7.616 -2.0487  1.9781  0.0416
10467SOL    HW233602   4.821   7.625   7.497  2.3941 -0.7975 -0.2978
10468SOL     OW33603   8.512   6.330   4.454 -0.2683 -0.7974  0.2271
10468SOL    HW133604   8.607   6.325   4.443 -0.2564 -0.4135  0.1501
10468SOL    HW233605   8.490   6.252   4.506 -0.1588 -1.8962 -1.2874
10469SOL     OW33606   5.275   5.368   2.189 -0.2613 -0.0224  0.6008
10469SOL    HW133607   5.210   5.394   2.123 -0.7962 -0.7425  0.8236
10469SOL    HW233608   5.348   5.428   2.177  0.5192 -1.3569 -1.9805
10470SOL     OW33609   5.008   7.413   7.127  0.3767 -0.2181 -0.0322
10470SOL    HW133610   4.981   7.466   7.201 -0.9192 -0.6165 -0.1905
10470SOL    HW233611   4.968   7.327   7.143 -0.8365 -0.0044 -1.7034
10471SOL     OW33612   9.028   6.916   8.996  0.3776  0.3760 -0.3378
10471SOL    HW133613   8.994   6.852   8.933  2.8711  0.7623 -2.2080
10471SOL    HW233614   9.120   6.892   9.006  0.4865  1.5106  1.7575
10472SOL     OW33615   6.757   4.767   7.387  0.7364 -0.0636  0.0218
10472SOL    HW133616   6.751   4.687   7.439  0.6828  0.2972  0.5780
10472SOL    HW233617   6.724   4.741   7.300 -0.1112 -0.4298  0.4371
10473SOL     OW33618   2.574   7.718   2.044  0.1435 -0.6450 -0.8080
10473SOL    HW133619   2.668   7.724   2.029 -0.1096  0.8398 -2.0982
10473SOL    HW233620   2.556   7.625   2.052  2.0182 -0.8829  1.7517
10474SOL     OW33621   8.107   2.413   0.848  0.0595 -0.1444  0.1742
10474SOL    HW133622   8.019   2.425   0.813 -0.7837  0.9227  2.4129
10474SOL    HW233623   8.093   2.395   0.941  2.2328  1.3065  0.8555
10475SOL     OW33624   9.274   2.819   2.518  0.7613  0.3989 -0.1335
10475SOL    HW133625   9.276   2.858   2.605 -1.2783  0.3350  0.0006
10475SOL    HW233626   9.298   2.727   2.531  0.8103  0.4739  0.2961
10476SOL     OW33627   8.612   9.425   5.858 -0.1694 -0.1599 -0.7313
10476SOL    HW133628   8.557   9.366   5.807 -2.0290 -0.5121  1.5278
10476SOL    HW233629   8.555   9.499   5.879  0.1908 -0.4429  1.5284
10477SOL     OW33630   5.124   5.961   3.748  0.5595 -0.1291  0.1232
10477SOL    HW133631   5.082   5.887   3.705 -0.8288  0.1966  0.8423
10477SOL    HW233632   5.195   5.923   3.800  0.5123 -0.8266 -0.3216
10478SOL     OW33633   6.158   1.880   2.893  0.3737 -0.5191  0.3916
10478SOL    HW133634   6.246   1.862   2.924  0.8420  0.9451  0.0077
10478SOL    HW233635   6.114   1.920   2.968  0.0976 -1.0668  0.5223
10479SOL     OW33636   7.005   6.743   3.003 -0.3421  0.1711 -0.2206
10479SOL    HW133637   7.035   6.799   2.932  1.9430  1.2785  1.4822
10479SOL    HW233638   7.061   6.665   2.997 -0.5219  0.0191  0.0496
10480SOL     OW33639   0.941   5.435   4.510  0.0068 -0.2496 -0.2970
10480SOL    HW133640   0.899   5.468   4.431 -1.7895  0.0725  0.7272
10480SOL    HW233641   1.022   5.485   4.518 -0.7319  1.0969 -0.9143
10481SOL     OW33642   3.445   1.473   1.245 -0.1035  0.6110  0.2726
10481SOL    HW133643   3.394   1.402   1.283  0.1852  0.1574 -0.1864
10481SOL    HW233644   3.424   1.549   1.300  0.0313  0.0518  1.1094
10482SOL     OW33645   3.508   2.672   9.561 -0.0159 -0.1095  0.2389
10482SOL    HW133646   3.423   2.649   9.599 -0.4987 -1.0411 -1.3037
10482SOL    HW233647   3.567   2.676   9.636 -0.8587 -2.1461  1.0992
10483SOL     OW33648   4.660   2.482   6.884  0.0362  0.2715 -0.4475
10483SOL    HW133649   4.705   2.459   6.966  0.4258  1.0768 -0.4203
10483SOL    HW233650   4.587   2.421   6.879 -0.2006  0.4293  0.6812
10484SOL     OW33651   7.333   1.924   1.540  0.5115 -0.4841 -0.3964
10484SOL    HW133652   7.299   1.838   1.565  1.4287 -0.8278 -0.2766
10484SOL    HW233653   7.262   1.984   1.558 -0.1287 -1.2123 -0.4312
10485SOL     OW33654   4.718   6.913   3.097  0.0998 -0.9113 -0.3349
10485SOL    HW133655   4.658   6.863   3.152 -0.2163  1.1529  1.3122
10485SOL    HW233656   4.663   6.983   3.061  1.5139  1.3696  1.6564
10486SOL     OW33657   8.047   8.049   8.228 -0.2367  0.7274  0.5441
10486SOL    HW133658   8.101   8.025   8.302  0.8774 -0.6579 -0.6629
10486SOL    HW233659   8.090   8.127   8.191 -0.6862  1.3033  1.2178
10487SOL     OW33660   5.639   3.081   3.558  0.0151  0.2572  0.3982
10487SOL    HW133661   5.585   3.146   3.603  1.0736  1.9002 -0.5721
10487SOL    HW233662   5.587   3.056   3.482  0.2976  1.3329 -0.1747
10488SOL     OW33663   9.180   3.589   5.125  0.5025  0.4183  0.0126
10488SOL    HW133664   9.227   3.625   5.200  1.0988 -1.7392  0.7581
10488SOL    HW233665   9.242   3.528   5.086 -0.8586 -0.7297 -0.4128
10489SOL     OW33666   9.466   9.015   6.411 -0.8505 -0.4210 -0.3862
10489SOL    HW133667   9.409   9.032   6.336 -0.5399 -1.4988 -0.8759
10489SOL    HW233668   9.516   8.937   6.387  0.8494  0.4856  0.0273
10490SOL     OW33669   1.620   8.705   0.645 -0.2508  0.0003 -0.3704
10490SOL    HW133670   1.636   8.614   0.618 -0.7049 -0.1551 -0.1219
10490SOL    HW233671   1.528   8.719   0.625  0.0584  0.7275 -1.3334
10491SOL     OW33672   4.961   5.717   2.467  0.2375 -0.1824 -0.1350
10491SOL    HW133673   4.866   5.705   2.471  0.4390 -1.8661  0.8825
10491SOL    HW233674   4.973   5.811   2.456 -1.5348  0.3330  1.6495
10492SOL     OW33675   6.176   7.070   2.608  0.5520 -0.0504  0.0159
10492SOL    HW133676   6.258   7.058   2.559  2.1129  1.4519  2.0572
10492SOL    HW233677   6.129   7.137   2.559  0.7987 -0.4964 -0.8642
10493SOL     OW33678   5.852   5.111   5.852 -0.4581  0.0898 -0.4259
10493SOL    HW133679   5.842   5.044   5.920 -0.3268  1.7528  1.3221
10493SOL    HW233680   5.929   5.085   5.803 -0.3126 -0.9446  0.3303
10494SOL     OW33681   7.245   7.654   3.159 -0.2550  0.0330  0.0667
10494SOL    HW133682   7.270   7.689   3.245  1.6891 -1.7743  0.2989
10494SOL    HW233683   7.320   7.603   3.130 -2.2196 -2.4567 -1.0686
10495SOL     OW33684   9.260   0.097   2.168  0.4159  0.1324  0.4354
10495SOL    HW133685   9.344   0.137   2.146 -0.1486  1.7226  0.9706
10495SOL    HW233686   9.195   0.158   2.131 -0.5014 -0.8856  0.3327
10496SOL     OW33687   7.116   1.086   4.763  0.0530  0.4282 -0.0393
10496SOL    HW133688   7.156   1.167   4.731  1.1403 -0.4737 -1.0778
10496SOL    HW233689   7.167   1.017   4.720 -1.4994 -0.7909  0.0356
10497SOL     OW33690   1.424   8.203   5.465  0.7061 -0.3773  0.3854
10497SOL    HW133691   1.361   8.132   5.457  0.2756 -0.1584  1.6845
10497SOL    HW233692   1.434   8.216   5.559  0.9699  1.1108  0.1748
10498SOL     OW33693   5.371   8.008   0.022 -0.2682  0.4107 -0.3392
10498SOL    HW133694   5.441   8.065  -0.010  0.2895  0.6559  1.2640
10498SOL    HW233695   5.291   8.054  -0.003  0.1525  0.8075 -0.9934
10499SOL     OW33696   2.191   5.856   7.057  0.0487  0.1937 -0.0476
10499SOL    HW133697   2.222   5.891   6.973 -0.3190 -1.7566 -1.0623
10499SOL    HW233698   2.155   5.770   7.035  1.5213 -1.1409  2.3751
10500SOL     OW33699   7.596   0.574   6.969  0.2176 -0.0964  0.1668
10500SOL    HW133700   7.509   0.541   6.993  0.2846  0.8187  1.8844
10500SOL    HW233701   7.608   0.549   6.878 -1.9717 -0.0139 -0.1885
10501SOL     OW33702   8.887   2.170   2.900 -0.0059 -0.3778  0.1443
10501SOL    HW133703   8.809   2.219   2.874 -0.2000 -1.3153 -1.0953
10501SOL    HW233704   8.957   2.202   2.843  0.4760  0.2652  1.0670
10502SOL     OW33705   5.664   6.734   8.962  1.0337 -0.1548 -0.7873
10502SOL    HW133706   5.668   6.681   9.041  0.3927  0.6708 -0.1822
10502SOL    HW233707   5.585   6.703   8.916  1.7640 -1.0848 -1.4557
10503SOL     OW33708   0.659   4.751   9.452 -0.2465  0.5700 -0.0436
10503SOL    HW133709   0.685   4.823   9.509  1.9370  0.3585 -0.6820
10503SOL    HW233710   0.711   4.677   9.482 -0.4159 -0.0197 -1.1671
10504SOL     OW33711   5.890   8.859   6.379  0.4834  0.0344 -0.0658
10504SOL    HW133712   5.848   8.874   6.464  0.4935  2.6828 -0.4296
10504SOL    HW233713   5.983   8.877   6.396  0.3240  1.7229 -0.8386
10505SOL     OW33714   7.094   3.036   4.122  0.1444 -0.0348  0.2829
10505SOL    HW133715   7.003   3.011   4.106 -0.6686  1.7886  1.5657
10505SOL    HW233716   7.114   3.000   4.209  0.6793 -0.4679 -0.0117
10506SOL     OW33717   7.358   9.066   2.905  0.9656  0.0240 -1.1218
10506SOL    HW133718   7.371   9.155   2.937 -0.4640 -0.4048  0.9119
10506SOL    HW233719   7.434   9.017   2.939 -0.7979 -0.5544  2.5777
10507SOL     OW33720   6.545   8.032   1.904 -0.2611  0.1676  0.1034
10507SOL    HW133721   6.508   8.053   1.819 -0.1913 -0.0608  0.0164
10507SOL    HW233722   6.534   7.937   1.913  2.4692 -0.3752 -1.0055
10508SOL     OW33723   6.354   5.556   8.002 -0.2854 -0.6236 -0.3833
10508SOL    HW133724   6.362   5.469   7.962  1.5795 -2.0093  2.6730
10508SOL    HW233725   6.435   5.601   7.977 -1.3021  0.3765 -2.0630
10509SOL     OW33726   9.203   4.492   2.294 -0.3776  0.0259  0.1033
10509SOL    HW133727   9.142   4.429   2.331 -0.6795  0.3857  0.2317
10509SOL    HW233728   9.147   4.554   2.246 -0.2046  0.8013  0.8649
10510SOL     OW33729   3.348   0.937   0.349 -0.1715  0.4176 -0.3202
10510SOL    HW133730   3.411   0.926   0.420  0.4252 -0.6805 -0.9762
10510SOL    HW233731   3.386   1.006   0.293  1.3306 -1.3031 -1.5554
10511SOL     OW33732   0.873   8.515   1.192 -0.0215  0.1443 -0.0554
10511SOL    HW133733   0.795   8.466   1.167 -0.0000  0.2325 -0.2961
10511SOL    HW233734   0.945   8.469   1.149 -0.1130  1.0450 -1.2347
10512SOL     OW33735   1.107   6.763   7.636 -0.2365 -0.2125  0.2506
10512SOL    HW133736   1.090   6.765   7.542  0.2855 -1.0721  0.1256
10512SOL    HW233737   1.020   6.754   7.676 -0.3946 -0.6534 -0.1840
10513SOL     OW33738   2.546   8.077   7.999 -0.3249 -0.3771 -0.2641
10513SOL    HW133739   2.567   8.023   7.923  0.1115 -1.3375  0.5063
10513SOL    HW233740   2.512   8.015   8.064 -0.4534  0.3755  0.4067
10514SOL     OW33741   6.751   1.648   8.051  0.0354 -0.0176  0.1302
10514SOL    HW133742   6.754   1.692   8.135 -1.5512  0.3486  0.0290
10514SOL    HW233743   6.813   1.696   7.996  0.5995  0.1395  0.8966
10515SOL     OW33744   2.707   8.654   9.462 -0.6490  0.0938 -0.3542
10515SOL    HW133745   2.730   8.746   9.462 -0.5270  0.2375 -4.4283
10515SOL    HW233746   2.620   8.651   9.502 -0.6387  1.9511 -0.1281
10516SOL     OW33747   1.496   0.123   7.664  0.0990  0.1192 -0.2014
10516SOL    HW133748   1.414   0.161   7.633 -0.2239 -0.4185 -0.0143
10516SOL    HW233749   1.479   0.029   7.669  0.4050  0.1022  0.8047
10517SOL     OW33750   7.956   6.375   4.342  0.0068 -0.2240  0.0273
10517SOL    HW133751   7.977   6.375   4.435 -0.7261  0.6840  0.2103
10517SOL    HW233752   7.882   6.314   4.334 -0.5179  0.3685  0.2051
10518SOL     OW33753   5.191   7.041   2.348  0.7886 -0.6288  0.5686
10518SOL    HW133754   5.258   7.004   2.290 -1.2231 -4.6490  0.4457
10518SOL    HW233755   5.222   7.020   2.436  0.0130 -2.1241  0.5245
10519SOL     OW33756   7.423   1.181   6.663 -0.3700  0.2830 -0.0092
10519SOL    HW133757   7.387   1.116   6.603 -0.3198 -0.6783  0.9644
10519SOL    HW233758   7.517   1.181   6.645 -0.3825  0.1432 -0.0715
10520SOL     OW33759   3.957   6.451   1.856  0.6380  0.6181 -0.9092
10520SOL    HW133760   4.041   6.406   1.845  0.1306 -0.7134  0.3259
10520SOL    HW233761   3.936   6.441   1.949 -1.1763  0.3789 -1.2973
10521SOL     OW33762   1.900   8.763   9.184  0.2840  0.1990  0.3280
10521SOL    HW133763   1.966   8.757   9.115  1.5879  1.7631  1.3521
10521SOL    HW233764   1.850   8.842   9.163 -2.3503 -1.7424 -1.2511
10522SOL     OW33765   8.814   5.699   6.929  0.3298  0.0119  0.5209
10522SOL    HW133766   8.902   5.737   6.935  0.3363 -0.0900  1.2238
10522SOL    HW233767   8.784   5.720   6.841  0.5468  1.1907  0.7096
10523SOL     OW33768   3.076   4.341   2.214  0.0385 -0.0330 -0.5526
10523SOL    HW133769   3.092   4.366   2.305  0.9158 -0.0093 -0.7045
10523SOL    HW233770   2.991   4.298   2.215 -1.3122  2.4548 -0.1803
10524SOL     OW33771   7.108   7.254   5.203  0.3491 -0.1898 -0.7686
10524SOL    HW133772   7.161   7.273   5.125  2.7773 -1.3846  0.4994
10524SOL    HW233773   7.115   7.333   5.257  0.3117 -0.1153 -0.8717
10525SOL     OW33774   3.398   6.383   4.931 -0.5640 -0.3954 -0.0453
10525SOL    HW133775   3.483   6.420   4.904 -0.5560 -0.7290 -0.4872
10525SOL    HW233776   3.352   6.457   4.970  0.7304 -0.6755  2.1385
10526SOL     OW33777   4.848   4.832   0.842 -0.5300  0.8828 -0.6495
10526SOL    HW133778   4.924   4.870   0.886  1.4300 -0.3444 -2.7775
10526SOL    HW233779   4.802   4.783   0.911  1.7000  0.0579  0.3369
10527SOL     OW33780   4.172   3.689   6.867 -0.4300  0.5210 -0.6690
10527SOL    HW133781   4.079   3.673   6.847 -0.2489  0.5970 -1.6548
10527SOL    HW233782   4.196   3.621   6.929 -0.5863 -0.8946 -2.0946
10528SOL     OW33783   0.657   7.984   2.195 -0.2203 -0.4340  0.0257
10528SOL    HW133784   0.565   7.985   2.169  0.1797  3.2777 -1.7721
10528SOL    HW233785   0.703   7.949   2.119  0.0930  0.8575 -0.3987
10529SOL     OW33786   5.711   0.326   4.668 -0.4066 -0.3824 -0.0855
10529SOL    HW133787   5.786   0.271   4.646 -0.6055 -0.4839 -0.5074
10529SOL    HW233788   5.741   0.379   4.743  0.6118  0.6832 -1.2052
10530SOL     OW33789   5.466   4.671   6.308 -0.1475 -0.6110  0.6563
10530SOL    HW133790   5.485   4.653   6.216  0.9644 -0.3146  0.8237
10530SOL    HW233791   5.403   4.603   6.333  0.7405 -1.6627  0.1043
10531SOL     OW33792   4.150   0.607   9.206 -0.4182 -0.2427  0.4657
10531SOL    HW133793   4.128   0.518   9.178  0.8527 -0.4602  0.0871
10531SOL    HW233794   4.077   0.633   9.262 -0.9922 -1.3808  0.2804
10532SOL     OW33795   4.812   1.590   5.539 -0.7438  0.4135  0.3870
10532SOL    HW133796   4.717   1.597   5.530 -0.6442  0.6450 -0.6027
10532SOL    HW233797   4.846   1.668   5.495 -0.1016  0.4790  0.9774
10533SOL     OW33798   2.415   0.984   5.902  0.5277 -0.3300  0.1824
10533SOL    HW133799   2.387   1.041   5.831  1.2183  1.5492  1.3560
10533SOL    HW233800   2.347   0.994   5.969  0.2068 -1.5985  0.0810
10534SOL     OW33801   5.692   1.852   0.388 -0.3272  0.3930 -0.3337
10534SOL    HW133802   5.622   1.912   0.361 -0.3993  0.9964  1.0969
10534SOL    HW233803   5.771   1.887   0.348 -0.3546  1.5440  0.5510
10535SOL     OW33804   1.570   6.988   1.066  0.7360  0.0265 -0.1817
10535SOL    HW133805   1.597   7.079   1.080 -1.0957  0.5396  0.2017
10535SOL    HW233806   1.644   6.949   1.018  2.1710  1.3063  0.8751
10536SOL     OW33807   9.369   7.923   0.879  0.0788 -0.1983  0.0570
10536SOL    HW133808   9.397   7.898   0.791 -0.7632  3.4030 -1.4008
10536SOL    HW233809   9.411   7.859   0.937  3.9430 -0.3510 -2.5920
10537SOL     OW33810   5.053   2.096   8.749 -0.7039 -0.2984 -0.0487
10537SOL    HW133811   5.098   2.162   8.802 -1.7602  0.4600 -0.0513
10537SOL    HW233812   5.029   2.028   8.812 -1.1937  0.1925  0.3128
10538SOL     OW33813   6.740   6.571   2.920  0.0254  0.1810 -0.8700
10538SOL    HW133814   6.834   6.568   2.938  0.2634  0.1749 -2.0866
10538SOL    HW233815   6.733   6.585   2.826 -1.1978  1.2775 -0.6464
10539SOL     OW33816   2.435   5.674   0.036 -0.1859  0.1287  0.1925
10539SOL    HW133817   2.434   5.714   0.123 -0.6793  0.5639 -0.0095
10539SOL    HW233818   2.461   5.584   0.051  0.4556  0.3919  0.7128
10540SOL     OW33819   2.749   0.050   8.044  0.2063  0.1882 -0.5958
10540SOL    HW133820   2.690   0.103   7.991  1.5385 -1.1681 -3.7581
10540SOL    HW233821   2.837   0.080   8.018  0.9269 -1.4588 -0.2088
10541SOL     OW33822   8.284   1.269   0.629  0.0262  0.5528 -0.1856
10541SOL    HW133823   8.283   1.273   0.724  0.2864  0.0135 -0.1604
10541SOL    HW233824   8.372   1.299   0.605  0.4573 -0.6483 -0.1860
10542SOL     OW33825   5.787   3.589   8.515 -0.1298 -0.1810  0.2575
10542SOL    HW133826   5.777   3.493   8.514  1.2298 -0.3820 -2.0393
10542SOL    HW233827   5.704   3.622   8.483  0.0985 -0.7568 -1.0147
10543SOL     OW33828   2.905   4.203   6.503  0.0100  0.3570  0.5426
10543SOL    HW133829   2.989   4.172   6.469 -0.3379  0.1965 -0.1790
10543SOL    HW233830   2.874   4.264   6.436 -0.8247 -0.1919  0.4251
10544SOL     OW33831   2.159   5.072   2.620 -0.2411 -0.3505  0.4374
10544SOL    HW133832   2.227   5.103   2.680 -0.5538 -0.7547  1.0061
10544SOL    HW233833   2.129   4.990   2.658 -1.9063  0.4202  0.8584
10545SOL     OW33834   8.784   4.905   7.258  0.6108  0.6757  0.1804
10545SOL    HW133835   8.863   4.866   7.221  0.2292 -0.3522  0.4108
10545SOL    HW233836   8.724   4.832   7.270  0.4869  1.0586  2.2583
10546SOL     OW33837   7.955   4.044   0.546  0.1345  0.1998  0.2756
10546SOL    HW133838   8.027   4.066   0.605  1.2946 -0.8166 -0.7004
10546SOL    HW233839   7.970   4.100   0.469  1.5418 -1.8974 -1.0866
10547SOL     OW33840   7.421   6.675   5.363 -0.1319 -0.6841 -0.5250
10547SOL    HW133841   7.418   6.737   5.436  0.7053  0.0801 -1.1209
10547SOL    HW233842   7.421   6.589   5.404  0.2907 -0.2609  0.3764
10548SOL     OW33843   2.365   1.061   2.141 -1.0434  0.1677 -0.5361
10548SOL    HW133844   2.333   1.070   2.230 -0.4452 -0.1727 -0.2786
10548SOL    HW233845   2.441   1.120   2.137  1.0206 -2.2309  0.2363
10549SOL     OW33846   7.342   1.577   5.509 -0.1551  0.3327  0.1917
10549SOL    HW133847   7.406   1.519   5.551 -1.3900 -0.0314  1.6516
10549SOL    HW233848   7.392   1.655   5.486  1.0999 -0.4826  0.0324
10550SOL     OW33849   3.297   2.144   0.329  0.2169 -0.6620 -0.0662
10550SOL    HW133850   3.364   2.190   0.380 -0.4141  0.1075  0.0819
10550SOL    HW233851   3.304   2.053   0.358 -0.4366 -0.1824  1.7885
10551SOL     OW33852   7.851   0.551   3.498 -0.1479 -0.1124 -0.1750
10551SOL    HW133853   7.880   0.460   3.496 -0.0820 -0.0810 -1.0072
10551SOL    HW233854   7.896   0.592   3.424  0.5217  0.8185  0.7168
10552SOL     OW33855   2.828   4.898   0.753 -0.2875 -0.2638 -0.1943
10552SOL    HW133856   2.829   4.867   0.843  1.8109 -2.3404 -0.8293
10552SOL    HW233857   2.853   4.990   0.759 -0.6083 -0.2610  1.3528
10553SOL     OW33858   4.580   1.891   0.274  0.0852 -0.4064 -0.0000
10553SOL    HW133859   4.577   1.830   0.201 -0.4743 -0.9937  0.4965
10553SOL    HW233860   4.577   1.978   0.234 -0.7014 -0.7208 -0.6487
10554SOL     OW33861   2.752   4.890   3.885  0.0974  0.2012 -0.1954
10554SOL    HW133862   2.828   4.907   3.830 -0.3083  1.0355 -0.5094
10554SOL    HW233863   2.681   4.872   3.824  0.4616 -2.7108  0.0898
10555SOL     OW33864   5.165   5.649   5.944  0.4787 -0.2264 -0.5624
10555SOL    HW133865   5.142   5.591   5.871  0.8951 -0.7032 -0.3234
10555SOL    HW233866   5.198   5.590   6.012 -1.3372  0.0320  0.6228
10556SOL     OW33867   5.185   9.153   6.614 -0.1763  0.0976 -0.7277
10556SOL    HW133868   5.218   9.195   6.534  0.7719  2.1147  0.6352
10556SOL    HW233869   5.132   9.220   6.656 -0.7889 -0.9947  0.2836
10557SOL     OW33870   5.212   5.009   3.453  0.2887 -0.4723 -0.2363
10557SOL    HW133871   5.235   4.921   3.480 -0.7399 -1.3505 -2.0725
10557SOL    HW233872   5.117   5.012   3.459  0.1726 -0.0875 -1.8395
10558SOL     OW33873   1.713   3.483   7.239 -0.1166  0.2036 -0.2470
10558SOL    HW133874   1.701   3.434   7.321  0.1894  1.0080  0.2800
10558SOL    HW233875   1.794   3.448   7.202  0.7800  1.1755  0.7567
10559SOL     OW33876   3.425   3.978   5.664 -0.4365  0.5207 -0.4967
10559SOL    HW133877   3.353   4.001   5.606  0.0805 -1.9534 -2.2761
10559SOL    HW233878   3.484   4.053   5.660 -0.1265  0.2429 -3.7627
10560SOL     OW33879   8.335   6.588   6.337 -0.1211 -0.1345 -0.0846
10560SOL    HW133880   8.271   6.658   6.328 -1.6009 -1.5814 -1.6842
10560SOL    HW233881   8.412   6.630   6.375 -1.3822  2.0491  0.2248
10561SOL     OW33882   9.269   6.854   0.704  0.0859 -0.3848  0.3926
10561SOL    HW133883   9.322   6.815   0.773  0.7221 -0.4519 -0.1312
10561SOL    HW233884   9.204   6.906   0.751  0.8610  0.0215  1.0438
10562SOL     OW33885   6.474   3.447   5.468 -0.1006  0.2264  0.4890
10562SOL    HW133886   6.443   3.458   5.378  1.3329  0.7989  0.0409
10562SOL    HW233887   6.518   3.362   5.467 -0.7266 -0.1136  0.8617
10563SOL     OW33888   0.215   0.814   0.461  0.1636 -0.4514  0.6502
10563SOL    HW133889   0.191   0.724   0.438  0.3342 -0.1675 -0.6937
10563SOL    HW233890   0.191   0.866   0.384  2.9477  0.1878  0.1051
10564SOL     OW33891   2.489   3.018   6.277  0.3138 -0.3880  0.0158
10564SOL    HW133892   2.540   3.094   6.306  0.4013 -1.2018  2.1501
10564SOL    HW233893   2.507   3.012   6.183  1.5589  1.2778  0.0994
10565SOL     OW33894   0.428   0.894   4.206 -0.3206 -0.3133 -0.3403
10565SOL    HW133895   0.407   0.850   4.123 -2.5779  1.0909 -0.6046
10565SOL    HW233896   0.420   0.826   4.272 -0.7355 -0.9685 -1.0459
10566SOL     OW33897   7.290   1.455   5.081 -0.9010 -0.0971 -0.1005
10566SOL    HW133898   7.257   1.367   5.062 -0.4571 -0.6083  1.3421
10566SOL    HW233899   7.220   1.498   5.129 -0.4302 -0.3263  0.8144
10567SOL     OW33900   3.039   9.449   8.825  0.3240  0.1946  0.3329
10567SOL    HW133901   3.091   9.437   8.905  1.1646 -0.5100 -0.2990
10567SOL    HW233902   3.044   9.364   8.781  0.2096  0.6997 -0.6655
10568SOL     OW33903   4.737   1.462   4.692 -0.3563 -0.6977  0.1737
10568SOL    HW133904   4.819   1.415   4.677 -0.4635 -1.1109  0.8497
10568SOL    HW233905   4.761   1.554   4.684  0.0733 -0.8305 -0.1269
10569SOL     OW33906   2.081   6.439   6.757  0.6167 -0.1492  0.0481
10569SOL    HW133907   2.088   6.377   6.829  1.5321  0.0647  0.1598
10569SOL    HW233908   1.987   6.444   6.738  0.4325 -0.7198  0.7655
10570SOL     OW33909   8.912   3.862   2.778 -0.0263 -0.3108 -0.1000
10570SOL    HW133910   9.003   3.834   2.768  0.2025  0.0671  0.8162
10570SOL    HW233911   8.909   3.948   2.737 -0.6662 -1.4883 -2.6706
10571SOL     OW33912   2.789   6.042   1.600  0.0059  0.2282  0.2053
10571SOL    HW133913   2.749   6.129   1.598 -0.1732  0.1877 -2.5847
10571SOL    HW233914   2.871   6.052   1.552  2.2253 -0.2775  3.5554
10572SOL     OW33915   1.598   2.672   4.428 -0.2245  0.1506  0.0735
10572SOL    HW133916   1.619   2.726   4.504  1.6639  1.4335 -1.2782
10572SOL    HW233917   1.636   2.719   4.354 -0.0407 -2.1724 -1.3940
10573SOL     OW33918   4.542   4.908   4.271 -0.4278  0.1338  0.0226
10573SOL    HW133919   4.492   4.975   4.318 -0.0711  1.3889 -1.2966
10573SOL    HW233920   4.563   4.843   4.337  0.1874  1.9014  1.6659
10574SOL     OW33921   9.474   0.192   9.143  0.5385 -0.0041 -0.2667
10574SOL    HW133922   9.486   0.282   9.173 -0.1034 -0.5123  1.7053
10574SOL    HW233923   9.478   0.140   9.223 -0.1960 -1.6239 -1.2327
10575SOL     OW33924   9.292   0.160   3.101  0.2926  0.0620 -0.0046
10575SOL    HW133925   9.292   0.078   3.051  1.3516  0.9036 -1.4489
10575SOL    HW233926   9.288   0.229   3.035  0.3189  1.2121  1.1479
10576SOL     OW33927   2.418   2.651   0.876 -0.3074 -0.0322  0.0700
10576SOL    HW133928   2.455   2.670   0.790 -0.6859 -0.0253 -0.0919
10576SOL    HW233929   2.491   2.667   0.937  0.4269 -1.5007 -0.3640
10577SOL     OW33930   8.145   5.986   3.414  0.2142  0.3171  0.2946
10577SOL    HW133931   8.134   6.061   3.355 -0.8711 -0.6166 -0.7535
10577SOL    HW233932   8.146   5.910   3.356 -1.7944 -0.7171  1.4887
10578SOL     OW33933   4.696   2.079   9.087 -0.2786 -0.0083  0.4949
10578SOL    HW133934   4.626   2.025   9.051 -1.0598  0.9126  0.6089
10578SOL    HW233935   4.676   2.168   9.058  2.9543 -0.1130 -2.8833
10579SOL     OW33936   4.698   6.474   6.475  0.3324 -0.0086 -0.2567
10579SOL    HW133937   4.605   6.456   6.462  0.5584 -0.6877 -1.0034
10579SOL    HW233938   4.743   6.412   6.416  1.2582  0.1241  0.2946
10580SOL     OW33939   6.790   5.401   6.570  0.1417 -0.4753  0.0685
10580SOL    HW133940   6.834   5.476   6.531  1.2581 -1.2900 -0.2877
10580SOL    HW233941   6.699   5.406   6.539  0.6014 -0.1669 -1.2485
10581SOL     OW33942   8.204   1.789   4.900  0.4468 -0.5636 -0.1811
10581SOL    HW133943   8.284   1.737   4.907  0.7906 -0.0608 -0.3489
10581SOL    HW233944   8.167   1.788   4.988  1.5369  0.6284  0.3133
10582SOL     OW33945   3.347   8.898   6.580 -0.0632  0.9623  0.1788
10582SOL    HW133946   3.406   8.824   6.567 -0.1932  0.7956  0.5123
10582SOL    HW233947   3.362   8.955   6.505 -0.8803 -0.0086 -0.7347
10583SOL     OW33948   7.179   3.554   0.534  0.3335 -0.1476  0.1669
10583SOL    HW133949   7.204   3.573   0.624 -0.0484 -0.5128  0.3562
10583SOL    HW233950   7.118   3.623   0.510  0.6568  0.1112  0.0895
10584SOL     OW33951   2.209   4.112   8.178  0.3781 -0.0684  0.8683
10584SOL    HW133952   2.304   4.120   8.183  0.4260 -0.9374  1.4720
10584SOL    HW233953   2.193   4.078   8.090  0.5561  0.9771  0.4217
10585SOL     OW33954   6.035   2.103   5.638 -0.9054 -0.7307 -0.3973
10585SOL    HW133955   6.048   2.021   5.686 -0.0661  0.3706  1.3715
10585SOL    HW233956   6.065   2.171   5.699  1.5716  0.6981 -2.9617
10586SOL     OW33957   7.512   0.897   8.506  0.6126  0.1478  0.0945
10586SOL    HW133958   7.441   0.839   8.532  0.0756  0.0223 -1.5764
10586SOL    HW233959   7.583   0.877   8.568  0.6239 -2.6250 -0.6769
10587SOL     OW33960   2.620   1.325   8.260  0.3396 -0.1567 -0.3021
10587SOL    HW133961   2.540   1.322   8.206 -0.8172  1.2367  1.2440
10587SOL    HW233962   2.679   1.382   8.211 -0.2656  0.2016 -0.6344
10588SOL     OW33963   8.545   3.951   5.739 -0.6557 -0.2681  0.6903
10588SOL    HW133964   8.509   4.038   5.758 -0.8249  0.0895 -1.1076
10588SOL    HW233965   8.484   3.890   5.781 -1.0866  0.4395  1.1186
10589SOL     OW33966   7.312   9.306   0.948 -0.0002  0.1729 -0.0953
10589SOL    HW133967   7.339   9.227   0.994 -0.7298  0.3058  0.5755
10589SOL    HW233968   7.354   9.378   0.996  0.4399  0.2224 -0.5391
10590SOL     OW33969   7.762   7.258   7.944  0.0955  0.3433 -0.0258
10590SOL    HW133970   7.834   7.222   7.894 -0.6089 -0.5250 -0.4501
10590SOL    HW233971   7.722   7.182   7.987  0.1331  0.9510  1.1414
10591SOL     OW33972   0.912   8.036   1.663  0.3150 -0.6023 -0.3857
10591SOL    HW133973   0.843   8.027   1.598 -0.6281  2.0878  0.1376
10591SOL    HW233974   0.968   8.106   1.630 -0.0510  0.6637  1.4880
10592SOL     OW33975   7.495   7.737   4.116 -0.1487  0.4081 -0.2398
10592SOL    HW133976   7.497   7.747   4.211 -1.1969 -0.5723 -0.0805
10592SOL    HW233977   7.483   7.643   4.102 -0.7868  0.6298 -1.3163
10593SOL     OW33978   7.311   9.049   6.829 -0.1694 -0.0143 -0.2548
10593SOL    HW133979   7.217   9.063   6.841 -0.1980 -0.0566 -0.4184
10593SOL    HW233980   7.320   9.025   6.737  0.1913  1.6206 -0.6841
10594SOL     OW33981   5.180   8.855   3.030  0.3386  0.2309  0.3284
10594SOL    HW133982   5.248   8.923   3.037  0.3028  0.1484  1.8870
10594SOL    HW233983   5.131   8.862   3.112  0.0873 -1.4121  0.3518
10595SOL     OW33984   7.220   1.768   0.722  0.3287 -0.1402 -0.0058
10595SOL    HW133985   7.144   1.711   0.716  1.2374 -1.3954  0.0287
10595SOL    HW233986   7.258   1.749   0.808  1.4593 -0.5828 -0.5788
10596SOL     OW33987   1.510   4.822   4.149  0.1027 -0.4579  0.3446
10596SOL    HW133988   1.549   4.905   4.121  0.0221 -0.5770 -0.1249
10596SOL    HW233989   1.509   4.828   4.244 -0.7331  0.4628  0.2989
10597SOL     OW33990   3.304   6.272   2.564 -0.2061  0.2503  0.0252
10597SOL    HW133991   3.294   6.356   2.608 -1.8071 -0.5737  1.3331
10597SOL    HW233992   3.393   6.274   2.528 -0.1452  2.3993  0.1803
10598SOL     OW33993   1.475   4.549   0.065  0.2481 -0.1569  0.1892
10598SOL    HW133994   1.414   4.525  -0.004  1.2240 -0.0994 -0.7178
10598SOL    HW233995   1.561   4.531   0.028  0.7853 -0.5973  1.5742
10599SOL     OW33996   3.459   1.606   8.479 -0.6194 -0.2034  0.0890
10599SOL    HW133997   3.553   1.600   8.496 -0.9847 -0.0022  2.5364
10599SOL    HW233998   3.426   1.517   8.493 -0.7142 -0.4994 -1.7302
10600SOL     OW33999   6.740   8.924   8.477  0.5111 -0.4135 -0.4970
10600SOL    HW134000   6.659   8.897   8.433  0.1069 -1.1355  0.6455
10600SOL    HW234001   6.785   8.842   8.497  0.4109 -0.1535  0.9102
10601SOL     OW34002   8.264   5.435   8.192 -0.3640 -0.2694 -0.4653
10601SOL    HW134003   8.182   5.482   8.175 -1.0961 -0.7375  1.4692
10601SOL    HW234004   8.254   5.352   8.146 -0.6374  0.0002 -0.8981
10602SOL     OW34005   5.556   5.960   4.718  0.1043  0.1634  0.1214
10602SOL    HW134006   5.490   5.959   4.649  1.2796  0.0417 -1.0517
10602SOL    HW234007   5.514   5.918   4.793 -1.3916  0.8040 -0.3260
10603SOL     OW34008   0.407   3.031   4.604  0.2861 -0.6650 -0.3243
10603SOL    HW134009   0.471   3.101   4.594  0.7386 -1.2176 -1.4349
10603SOL    HW234010   0.395   3.023   4.699 -2.5311  3.3498 -0.1327
10604SOL     OW34011   3.702   2.496   7.101 -0.4144 -0.2257 -0.2083
10604SOL    HW134012   3.733   2.489   7.010  1.9283 -1.3903  0.6154
10604SOL    HW234013   3.643   2.572   7.100  1.7237  1.5435 -2.1290
10605SOL     OW34014   6.105   0.111   8.486  0.2825  0.7470  0.2098
10605SOL    HW134015   6.050   0.127   8.563  1.9810  1.9926  1.2249
10605SOL    HW234016   6.043   0.089   8.417 -1.6151  3.1344  1.0212
10606SOL     OW34017   7.509   9.376   0.675  0.2530 -0.3757  0.3951
10606SOL    HW134018   7.578   9.346   0.733 -2.1056  0.0708  3.7525
10606SOL    HW234019   7.448   9.303   0.670 -0.2912  0.1125 -0.3352
10607SOL     OW34020   6.682   0.996   6.255 -0.4217  0.1693  0.7078
10607SOL    HW134021   6.626   0.924   6.285 -0.6418 -0.5909 -1.4267
10607SOL    HW234022   6.646   1.021   6.170  0.9889  1.3427  0.4191
10608SOL     OW34023   9.045   0.319   3.018 -0.8563 -0.2330  0.6998
10608SOL    HW134024   8.959   0.348   2.987 -2.3876 -1.5970  3.3466
10608SOL    HW234025   9.041   0.224   3.014  1.2346 -0.2995 -0.7634
10609SOL     OW34026   8.233   1.543   5.955  0.2249 -0.3267 -0.1447
10609SOL    HW134027   8.236   1.512   6.045 -0.3629  0.5178  0.1827
10609SOL    HW234028   8.154   1.597   5.951  1.6662  1.8741 -0.4198
10610SOL     OW34029   5.315   5.935   5.179  0.4378  0.3544  0.1224
10610SOL    HW134030   5.221   5.926   5.195  0.7481 -3.2417  0.7531
10610SOL    HW234031   5.346   5.986   5.254 -0.8353  0.5494  0.5505
10611SOL     OW34032   4.324   0.615   2.599 -0.3564  0.1403  0.5222
10611SOL    HW134033   4.267   0.671   2.651 -0.0847  0.9382 -0.0298
10611SOL    HW234034   4.399   0.670   2.577 -0.6312 -0.0607 -1.0179
10612SOL     OW34035   6.983   7.092   4.416  0.4156 -0.2112 -0.3327
10612SOL    HW134036   7.010   7.065   4.504  0.4975  2.3681  0.5323
10612SOL    HW234037   7.054   7.149   4.386 -1.3261  2.1401 -0.3450
10613SOL     OW34038   1.336   3.960   1.484  0.1734  0.2596  0.1221
10613SOL    HW134039   1.354   3.966   1.578 -1.6010 -0.6027  0.5670
10613SOL    HW234040   1.321   3.867   1.468  0.8243  0.3424 -1.1119
10614SOL     OW34041   4.261   4.128   2.666  0.1041 -0.1280  0.1139
10614SOL    HW134042   4.321   4.079   2.723 -1.5709 -3.7029 -0.9211
10614SOL    HW234043   4.174   4.107   2.699 -0.7806  1.3360 -1.1202
10615SOL     OW34044   1.340   7.167   6.170 -0.4372 -0.3779 -0.2653
10615SOL    HW134045   1.401   7.124   6.231 -0.4230 -0.6550 -0.4724
10615SOL    HW234046   1.369   7.138   6.084 -0.3557  0.1467 -0.4134
10616SOL     OW34047   4.678   2.886   1.901  0.1914  0.5562 -0.4876
10616SOL    HW134048   4.675   2.802   1.946 -0.5103  0.1564 -1.2601
10616SOL    HW234049   4.607   2.937   1.941  0.0912  0.4910 -0.5824
10617SOL     OW34050   1.059   1.506   3.910 -0.3201  0.3841  0.1377
10617SOL    HW134051   1.127   1.506   3.978 -1.6109 -0.4456  1.4786
10617SOL    HW234052   1.076   1.586   3.860  0.8762  0.8595  1.2364
10618SOL     OW34053   6.670   8.626   8.773  0.3943 -0.0597  0.2865
10618SOL    HW134054   6.613   8.650   8.699  0.0254  0.6446  0.7853
10618SOL    HW234055   6.613   8.632   8.849  0.4419 -1.9897  0.5148
10619SOL     OW34056   9.533   8.741   1.529 -0.1888 -0.2341  0.5021
10619SOL    HW134057   9.460   8.705   1.479 -0.2756 -0.3499  0.7118
10619SOL    HW234058   9.503   8.827   1.557  0.0453  0.0349 -0.0630
10620SOL     OW34059   7.237   5.753   1.468  0.3805  0.1232 -0.3539
10620SOL    HW134060   7.178   5.792   1.403 -0.0248 -0.7951 -0.5581
10620SOL    HW234061   7.193   5.770   1.552 -0.3230 -0.7734 -0.5238
10621SOL     OW34062   8.002   8.686   9.369  0.0721  0.3561 -0.0766
10621SOL    HW134063   7.924   8.633   9.382 -0.6322  1.1660 -0.8298
10621SOL    HW234064   8.038   8.656   9.286  0.7703 -0.2503  0.4338
10622SOL     OW34065   0.651   7.953   9.023 -0.2106 -0.1461 -0.4651
10622SOL    HW134066   0.610   7.885   9.076  0.3398  0.6358  1.0462
10622SOL    HW234067   0.645   8.032   9.077 -0.2863  0.8801 -1.9026
10623SOL     OW34068   1.288   3.108   6.038  0.1351 -0.2529  0.5226
10623SOL    HW134069   1.379   3.081   6.031  0.0658 -0.6282  1.0490
10623SOL    HW234070   1.245   3.037   6.085  0.2357  1.3469  3.2562
10624SOL     OW34071   3.485   3.983   2.712  0.5070 -0.3265 -0.5001
10624SOL    HW134072   3.471   3.893   2.681 -0.4639 -0.7898  1.0982
10624SOL    HW234073   3.404   4.004   2.759  0.4674  1.6381 -1.3534
10625SOL     OW34074   5.373   9.111   2.410 -0.0922 -0.0709 -0.2656
10625SOL    HW134075   5.367   9.040   2.474 -1.6258 -0.4158 -0.7671
10625SOL    HW234076   5.369   9.067   2.325  2.2251  0.3498 -0.6778
10626SOL     OW34077   5.510   6.390   7.867 -0.2130  0.2546 -0.5054
10626SOL    HW134078   5.551   6.477   7.871  0.6704 -0.2072  1.0456
10626SOL    HW234079   5.584   6.329   7.866 -0.8415 -0.5280  0.1070
10627SOL     OW34080   3.584   4.553   2.604 -0.4227  0.0006  0.0665
10627SOL    HW134081   3.498   4.595   2.606 -0.0912  0.7194 -0.2426
10627SOL    HW234082   3.565   4.459   2.600 -1.1845  0.0829  1.1841
10628SOL     OW34083   0.060   1.588   2.237 -0.3877 -0.3952  0.0695
10628SOL    HW134084   0.042   1.672   2.194  0.2137 -0.4793 -0.3652
10628SOL    HW234085   0.071   1.610   2.330 -2.0472 -0.2595  0.2568
10629SOL     OW34086   2.269   7.582   2.688 -0.2067 -0.3169  0.4534
10629SOL    HW134087   2.249   7.559   2.779 -0.5924  0.7977  0.6636
10629SOL    HW234088   2.221   7.518   2.636 -0.8714 -0.2941  1.0225
10630SOL     OW34089   7.358   7.909   0.151  0.2635  0.1302  0.6565
10630SOL    HW134090   7.388   7.823   0.124  1.2595  0.2919  1.2297
10630SOL    HW234091   7.399   7.970   0.089  0.8352  0.3176  1.2076
10631SOL     OW34092   3.675   5.545   0.173  0.0936 -0.0751  0.1927
10631SOL    HW134093   3.714   5.558   0.260 -1.0480  0.3019  0.6721
10631SOL    HW234094   3.605   5.610   0.169 -2.0618 -2.2615  0.3317
10632SOL     OW34095   3.973   4.257   6.337 -0.1744  0.0311  0.0868
10632SOL    HW134096   3.945   4.294   6.421 -0.9394  0.1346 -0.2041
10632SOL    HW234097   3.975   4.332   6.277  0.7639  0.0294  0.1010
10633SOL     OW34098   2.351   3.173   4.794  0.3361  0.2413  0.7794
10633SOL    HW134099   2.374   3.251   4.743  1.9693 -0.2152  0.7512
10633SOL    HW234100   2.374   3.197   4.884 -0.4267  0.2549  0.9757
10634SOL     OW34101   7.245   3.193   1.064 -0.0989 -0.7929  0.2871
10634SOL    HW134102   7.334   3.197   1.031 -0.5383 -0.6215 -0.9076
10634SOL    HW234103   7.255   3.200   1.159  1.0685  0.9139  0.0906
10635SOL     OW34104   8.920   0.120   2.494 -0.2683  0.0423 -0.2741
10635SOL    HW134105   8.892   0.083   2.411 -2.2011 -2.2703  1.2451
10635SOL    HW234106   8.838   0.141   2.540  0.5006 -2.1064  2.3733
10636SOL     OW34107   4.173   2.723   6.147 -0.4390 -0.5947 -0.1926
10636SOL    HW134108   4.250   2.680   6.110  0.8033 -0.2963  1.9156
10636SOL    HW234109   4.185   2.816   6.124 -0.6166 -0.6653 -0.5806
10637SOL     OW34110   9.261   6.856   4.123 -0.4777  0.2220  0.0023
10637SOL    HW134111   9.236   6.948   4.113 -0.0795  0.3253 -0.0657
10637SOL    HW234112   9.292   6.830   4.037 -0.5090  0.0477  0.0436
10638SOL     OW34113   8.383   5.944   5.772 -0.1810 -0.3512  0.2878
10638SOL    HW134114   8.423   5.975   5.853  0.2070 -0.2173  0.0458
10638SOL    HW234115   8.444   5.879   5.738 -0.0452  0.0229 -0.2017
10639SOL     OW34116   4.958   7.514   4.316 -0.0452 -0.6082  0.2040
10639SOL    HW134117   5.045   7.507   4.277 -0.2534  1.4395 -0.7787
10639SOL    HW234118   4.898   7.488   4.246 -0.2966  0.4453  0.0030
10640SOL     OW34119   8.669   0.244   5.984 -0.2398  0.3801 -0.0139
10640SOL    HW134120   8.684   0.166   6.037 -2.7022 -0.9498 -1.1475
10640SOL    HW234121   8.700   0.221   5.896 -2.8964 -0.1892 -0.8738
10641SOL     OW34122   1.142   1.714   5.935  0.5331 -0.2222 -0.3600
10641SOL    HW134123   1.073   1.647   5.942  0.4299 -0.0157  0.9450
10641SOL    HW234124   1.106   1.779   5.875  1.1787 -1.9275 -2.7413
10642SOL     OW34125   6.046   3.666   8.405 -0.0686  0.0701 -0.0347
10642SOL    HW134126   6.048   3.587   8.350 -1.9677 -0.9411  1.2276
10642SOL    HW234127   5.978   3.648   8.470  0.3188  2.2685  1.0728
10643SOL     OW34128   0.837   4.331   5.938 -0.3115 -0.4543  0.3260
10643SOL    HW134129   0.917   4.279   5.951 -0.1221 -0.8187 -1.8397
10643SOL    HW234130   0.869   4.418   5.916 -0.2465 -1.2775 -3.5585
10644SOL     OW34131   0.752   7.145   6.503  0.1833  0.0902  0.0866
10644SOL    HW134132   0.672   7.199   6.500 -1.0791 -1.5008  2.3164
10644SOL    HW234133   0.736   7.076   6.439  0.4600  0.6001 -0.5473
10645SOL     OW34134   0.853   5.860   5.420 -0.6186  0.6948  0.0282
10645SOL    HW134135   0.783   5.830   5.362 -0.3501 -1.1895  0.6063
10645SOL    HW234136   0.921   5.893   5.361 -0.8150 -0.1385 -0.6799
10646SOL     OW34137   8.663   3.327   8.186  0.3165 -0.2848 -0.1651
10646SOL    HW134138   8.716   3.338   8.107  0.5407  0.3549  0.0655
10646SOL    HW234139   8.658   3.415   8.224 -1.2719 -0.2482 -0.4030
10647SOL     OW34140   8.102   6.674   4.743 -0.1511 -0.5363  0.2918
10647SOL    HW134141   8.020   6.637   4.711 -0.1624 -0.2909  0.0302
10647SOL    HW234142   8.136   6.609   4.805 -1.4563  0.1883  1.8277
10648SOL     OW34143   1.430   5.668   9.182 -0.2848 -0.2579  0.6345
10648SOL    HW134144   1.381   5.746   9.156  1.0388  0.9615  1.6104
10648SOL    HW234145   1.441   5.677   9.276  1.7653 -0.4530  0.4602
10649SOL     OW34146   7.196   3.658   6.497 -0.1852  0.5003 -0.1830
10649SOL    HW134147   7.205   3.748   6.526  0.3926  0.8010 -1.2518
10649SOL    HW234148   7.165   3.665   6.407 -0.9298 -0.3846 -0.0139
10650SOL     OW34149   2.323   7.058   1.195 -0.2557  0.8441 -0.3810
10650SOL    HW134150   2.281   7.124   1.251 -0.3676 -0.2642  0.8835
10650SOL    HW234151   2.313   6.976   1.243  0.4189 -0.0057 -1.6427
10651SOL     OW34152   7.748   3.928   0.264  0.3497  0.0005  0.7293
10651SOL    HW134153   7.808   3.942   0.191 -2.8663 -0.6500 -2.3193
10651SOL    HW234154   7.735   4.015   0.302  1.3424  0.5185 -0.0761
10652SOL     OW34155   2.828   1.641   6.355  0.1885  0.0568  0.2961
10652SOL    HW134156   2.922   1.649   6.342  0.1773  0.3303  0.3635
10652SOL    HW234157   2.791   1.715   6.306  0.1075  0.8000  1.4267
10653SOL     OW34158   0.564   3.806   1.447  0.5921  0.3918 -0.5042
10653SOL    HW134159   0.565   3.789   1.542  1.2934  1.1778 -0.3615
10653SOL    HW234160   0.652   3.838   1.428  0.4959  0.0966 -1.4551
10654SOL     OW34161   6.010   5.468   4.613  0.6754 -0.0437 -0.6604
10654SOL    HW134162   6.001   5.509   4.526  0.0388 -0.9285 -1.0169
10654SOL    HW234163   6.099   5.434   4.614  0.4087 -0.7915 -1.3154
10655SOL     OW34164   2.592   1.862   1.753 -0.1742  0.4890  0.0318
10655SOL    HW134165   2.593   1.782   1.700 -0.6788 -0.0247  0.7756
10655SOL    HW234166   2.518   1.850   1.814  0.4268  1.0307  0.8931
10656SOL     OW34167   2.573   7.960   3.496 -0.4812  0.3625 -0.1589
10656SOL    HW134168   2.643   8.009   3.539  0.3146 -0.5174 -0.4174
10656SOL    HW234169   2.603   7.951   3.405  0.0260 -1.6636  0.1523
10657SOL     OW34170   0.403   8.936   8.840  0.4196 -0.4450  0.0650
10657SOL    HW134171   0.474   8.872   8.842  0.4522 -0.4668 -1.0232
10657SOL    HW234172   0.390   8.961   8.931 -0.6650 -3.1775  0.7635
10658SOL     OW34173   9.104   6.132   4.773 -0.0983  0.1222 -0.7312
10658SOL    HW134174   9.176   6.147   4.835  0.1429 -0.5724 -0.8308
10658SOL    HW234175   9.092   6.037   4.773 -0.4049  0.1557 -1.4103
10659SOL     OW34176   2.295   2.189   6.244 -0.1549  0.2167  0.8053
10659SOL    HW134177   2.309   2.261   6.305 -1.9328  0.7647  0.6112
10659SOL    HW234178   2.256   2.230   6.167 -0.4938 -0.8401  0.3928
10660SOL     OW34179   5.544   1.032   0.864 -0.7393  0.2182 -0.4585
10660SOL    HW134180   5.501   0.949   0.843  1.1906 -0.6767 -1.1867
10660SOL    HW234181   5.636   1.017   0.840 -0.1618  2.2563  0.3089
10661SOL     OW34182   7.634   7.891   7.541 -0.2761  0.6879  0.2388
10661SOL    HW134183   7.587   7.809   7.553  0.9243  0.1890  1.8835
10661SOL    HW234184   7.645   7.926   7.629  0.0670  2.1386 -0.3495
10662SOL     OW34185   4.925   0.480   1.108  0.4138 -0.0486 -0.0671
10662SOL    HW134186   4.955   0.393   1.133  2.0254  0.1067 -1.2496
10662SOL    HW234187   4.992   0.539   1.144  0.0335  0.5864 -0.3782
10663SOL     OW34188   5.985   1.313   7.378 -0.3632 -0.1802 -0.5288
10663SOL    HW134189   5.892   1.292   7.370 -0.6907  0.0586  1.9497
10663SOL    HW234190   5.999   1.326   7.472  2.0337  0.4838 -0.9087
10664SOL     OW34191   0.923   6.988   1.573  0.2332  0.4899 -0.5772
10664SOL    HW134192   0.838   6.963   1.609  0.9687  1.0759  1.7383
10664SOL    HW234193   0.944   7.072   1.614  1.0271  1.4150 -2.7038
10665SOL     OW34194   1.931   8.846   0.037 -0.0102  0.6415  0.0347
10665SOL    HW134195   2.005   8.837  -0.023  0.6083  0.8346  0.7574
10665SOL    HW234196   1.920   8.941   0.047  1.5747  0.6636  2.2334
10666SOL     OW34197   4.627   1.126   6.725  0.3055 -0.0146  0.4074
10666SOL    HW134198   4.617   1.118   6.630  0.8036  1.1733  0.2424
10666SOL    HW234199   4.562   1.065   6.760 -1.3748  1.0585 -0.6794
10667SOL     OW34200   4.113   8.873   2.550 -0.0726  0.2533  0.2185
10667SOL    HW134201   4.140   8.834   2.633 -2.1349 -0.4914  0.6095
10667SOL    HW234202   4.028   8.914   2.570  0.6070  2.3220 -0.9241
10668SOL     OW34203   0.614   8.766   8.804 -0.2316 -0.2068  0.1888
10668SOL    HW134204   0.646   8.690   8.756  1.1801  0.8164 -0.5699
10668SOL    HW234205   0.692   8.806   8.842 -1.0521  0.3353  1.4059
10669SOL     OW34206   2.368   6.066   8.980 -0.4483 -0.5280 -0.1371
10669SOL    HW134207   2.315   5.991   8.952  2.5371 -3.0945  0.5200
10669SOL    HW234208   2.391   6.110   8.898 -0.3927 -1.7368 -0.8046
10670SOL     OW34209   5.802   8.260   6.034 -0.4410  0.0404  0.3275
10670SOL    HW134210   5.895   8.278   6.019 -0.4997 -0.5298 -0.9116
10670SOL    HW234211   5.788   8.175   5.992 -1.3813 -0.2033  1.1024
10671SOL     OW34212   4.606   7.508   6.992  0.2934  0.2542 -0.2037
10671SOL    HW134213   4.573   7.515   7.081  0.7723  1.5995 -0.0986
10671SOL    HW234214   4.545   7.560   6.939  0.3537 -0.0290 -0.5598
10672SOL     OW34215   5.118   3.925   1.470  0.0737  0.0119  0.2126
10672SOL    HW134216   5.067   4.005   1.485  0.7969  0.3219  1.0792
10672SOL    HW234217   5.206   3.946   1.501  0.3712 -1.0009  0.0940
10673SOL     OW34218   2.472   0.572   1.155 -0.4038 -1.0193  0.5035
10673SOL    HW134219   2.376   0.572   1.151 -0.3856 -1.8146 -0.2456
10673SOL    HW234220   2.500   0.584   1.064  0.2019 -1.5306  0.6120
10674SOL     OW34221   7.125   8.114   3.065  0.3502  0.0232 -0.1833
10674SOL    HW134222   7.101   8.071   3.148 -0.3536  1.0585  0.1705
10674SOL    HW234223   7.051   8.171   3.046  1.4834  1.4892 -0.3562
10675SOL     OW34224   2.113   6.898   4.204  0.6036 -0.0234 -0.5183
10675SOL    HW134225   2.039   6.948   4.171 -1.6405 -2.1134  0.9771
10675SOL    HW234226   2.082   6.808   4.205  3.4876 -1.1057 -0.5262
10676SOL     OW34227   1.198   3.122   7.714 -0.2290 -0.3436  0.1738
10676SOL    HW134228   1.252   3.197   7.689  1.6361 -1.8371 -0.5496
10676SOL    HW234229   1.237   3.090   7.795 -0.0841 -1.3411 -0.2653
10677SOL     OW34230   2.465   5.080   7.541  0.3972  0.0825  0.2408
10677SOL    HW134231   2.473   5.137   7.464 -0.3744 -0.3514 -0.1615
10677SOL    HW234232   2.555   5.051   7.558  0.5948  0.3119 -0.3892
10678SOL     OW34233   7.784   6.954   8.355  0.1420 -0.0057 -0.4270
10678SOL    HW134234   7.745   7.002   8.281 -0.2156  0.3302 -0.0241
10678SOL    HW234235   7.816   6.873   8.316 -0.7706 -0.1992 -0.8044
10679SOL     OW34236   8.984   7.489   9.243  0.1968  0.0334  0.4423
10679SOL    HW134237   9.073   7.490   9.207  0.3384 -1.2170  0.7377
10679SOL    HW234238   8.968   7.580   9.269  1.2974  0.3172  0.1721
10680SOL     OW34239   7.819   3.746   8.363  0.0129  0.0511  0.3253
10680SOL    HW134240   7.865   3.685   8.306 -0.1309 -0.4143  0.6977
10680SOL    HW234241   7.804   3.823   8.309  0.3481 -0.1782 -0.1001
10681SOL     OW34242   5.655   5.774   7.668  0.5135 -0.3037  0.2983
10681SOL    HW134243   5.593   5.715   7.625  0.0280  0.0201  0.5446
10681SOL    HW234244   5.693   5.722   7.739 -0.3859 -0.1436  0.9224
10682SOL     OW34245   2.519   6.738   6.087 -0.7731  0.2732 -0.4594
10682SOL    HW134246   2.512   6.803   6.156 -1.4973  0.7335 -0.9476
10682SOL    HW234247   2.453   6.672   6.109 -1.0859  0.4801 -0.7636
10683SOL     OW34248   6.142   3.260   8.797  0.4331  0.6725 -0.3998
10683SOL    HW134249   6.218   3.315   8.781  0.0636  1.2084 -0.3514
10683SOL    HW234250   6.076   3.320   8.831  1.1206 -0.3452  3.1003
10684SOL     OW34251   0.763   2.117   4.793 -0.1844 -0.0126  0.4466
10684SOL    HW134252   0.721   2.191   4.838 -0.0720 -0.0970  0.6902
10684SOL    HW234253   0.754   2.138   4.700  2.1313  1.6076  0.5097
10685SOL     OW34254   4.366   2.732   3.024  0.8703 -0.3216  0.1405
10685SOL    HW134255   4.458   2.724   3.051  0.8557 -1.1892 -0.0341
10685SOL    HW234256   4.333   2.643   3.028 -0.9819  0.3227  3.6922
10686SOL     OW34257   5.264   3.016   9.319  0.0063 -0.5059 -0.3074
10686SOL    HW134258   5.220   3.101   9.308 -0.8882 -0.5045  2.3992
10686SOL    HW234259   5.274   2.982   9.231 -2.5461  0.9899 -1.2820
10687SOL     OW34260   7.232   3.224   1.342  0.4229 -0.4861  0.4547
10687SOL    HW134261   7.275   3.140   1.360  4.8188  1.2817 -0.4632
10687SOL    HW234262   7.245   3.274   1.422  2.6847  0.9418 -0.6928
10688SOL     OW34263   2.441   4.309   8.639 -0.2860 -0.0531 -0.0156
10688SOL    HW134264   2.362   4.291   8.689  1.0716 -0.7701  2.0043
10688SOL    HW234265   2.475   4.223   8.614  0.6237  0.1607  0.4264
10689SOL     OW34266   8.872   8.930   1.253  0.1456 -0.1037  0.0419
10689SOL    HW134267   8.885   8.881   1.334  1.3629  1.5254  0.8948
10689SOL    HW234268   8.814   9.002   1.277  1.3854  1.0217 -0.2312
10690SOL     OW34269   0.614   8.117   4.514 -0.0351 -0.0920 -0.1380
10690SOL    HW134270   0.575   8.144   4.597  0.1023 -1.1149  0.2748
10690SOL    HW234271   0.708   8.131   4.526 -0.1544  1.5138 -0.8078
10691SOL     OW34272   1.914   2.124   0.356 -0.3922 -0.0109 -0.5322
10691SOL    HW134273   1.923   2.032   0.384 -2.6681 -0.0356  0.3371
10691SOL    HW234274   1.830   2.127   0.311 -0.0529  1.5440 -1.1098
10692SOL     OW34275   9.031   2.231   5.104 -0.4944 -0.0811 -0.7255
10692SOL    HW134276   9.018   2.212   5.197  2.1496  2.4984  0.2832
10692SOL    HW234277   8.978   2.309   5.087 -1.1737 -0.6856 -1.5150
10693SOL     OW34278   1.064   7.069   1.336 -0.1798  0.0626 -0.3757
10693SOL    HW134279   0.998   7.051   1.403 -0.2109  0.1456 -0.3843
10693SOL    HW234280   1.141   7.096   1.385 -0.6853  1.6884 -0.4323
10694SOL     OW34281   8.708   9.224   0.188 -0.1842  0.0376  0.1473
10694SOL    HW134282   8.617   9.230   0.158 -0.2492 -0.3702  0.2489
10694SOL    HW234283   8.704   9.163   0.262 -0.8040  4.1915  3.9895
10695SOL     OW34284   4.416   8.920   0.192 -0.2294 -0.3696  0.2284
10695SOL    HW134285   4.367   8.995   0.226 -0.5574 -0.6840  0.4605
10695SOL    HW234286   4.397   8.920   0.098  1.1643  0.8647 -0.0970
10696SOL     OW34287   0.670   5.309   0.459 -0.2173  0.2821 -0.5289
10696SOL    HW134288   0.735   5.307   0.529  0.9901  0.6401 -1.6108
10696SOL    HW234289   0.682   5.393   0.416 -1.6716  0.5254 -0.5272
10697SOL     OW34290   3.291   9.110   4.913  0.7995  0.1279 -0.0020
10697SOL    HW134291   3.386   9.103   4.925  0.9445 -2.0767 -1.6786
10697SOL    HW234292   3.254   9.045   4.972  0.5162 -0.4400 -0.7762
10698SOL     OW34293   6.375   4.308   2.494  0.5943 -0.4961  0.2450
10698SOL    HW134294   6.366   4.326   2.400 -0.1787 -1.6429  0.0706
10698SOL    HW234295   6.321   4.230   2.508 -0.5324  0.5305  1.9503
10699SOL     OW34296   3.756   5.565   3.541  0.0223 -0.0610  0.4206
10699SOL    HW134297   3.850   5.545   3.541 -0.3021 -1.7957  1.5002
10699SOL    HW234298   3.718   5.500   3.482 -0.4819  0.8109 -0.2300
10700SOL     OW34299   5.942   5.219   1.584  0.1748 -0.5017  0.2228
10700SOL    HW134300   6.015   5.280   1.572 -0.3658  0.1247  0.0528
10700SOL    HW234301   5.876   5.271   1.631 -0.6322 -0.6951 -0.6875
10701SOL     OW34302   8.410   8.306   4.708 -0.2699 -0.3909 -0.5192
10701SOL    HW134303   8.490   8.311   4.656 -0.4071  0.2763 -0.6789
10701SOL    HW234304   8.347   8.261   4.651 -0.2753 -0.0998 -0.7420
10702SOL     OW34305   7.028   6.555   0.031  0.2443  0.0354 -0.6766
10702SOL    HW134306   7.088   6.498   0.080 -0.4862  2.0382  2.9816
10702SOL    HW234307   6.941   6.519   0.048 -0.0436  0.9324 -0.1509
10703SOL     OW34308   2.386   6.739   7.059 -0.3799 -0.1428  0.0380
10703SOL    HW134309   2.359   6.778   6.976 -1.0750  0.7797  0.6781
10703SOL    HW234310   2.337   6.656   7.062 -1.1451  0.2970 -0.0121
10704SOL     OW34311   2.606   1.397   9.251  0.2671 -0.0512 -0.0213
10704SOL    HW134312   2.522   1.442   9.244  0.5205  0.4805  0.2427
10704SOL    HW234313   2.652   1.445   9.320  0.6720 -0.5200  0.0375
10705SOL     OW34314   2.843   2.180   3.710 -0.1341  0.1529  0.2400
10705SOL    HW134315   2.783   2.179   3.785  1.3853 -0.6608  1.4910
10705SOL    HW234316   2.845   2.272   3.682 -0.1854  0.5948  1.6355
10706SOL     OW34317   2.385   8.359   4.149 -0.1465  0.0046  0.3204
10706SOL    HW134318   2.479   8.363   4.135 -0.0815 -2.2684 -0.2395
10706SOL    HW234319   2.375   8.319   4.236 -0.5335 -1.9583 -0.5705
10707SOL     OW34320   6.618   0.643   5.482  0.8437  0.3471 -0.1474
10707SOL    HW134321   6.528   0.665   5.505 -0.2372 -3.2030 -0.3844
10707SOL    HW234322   6.659   0.727   5.463 -2.1269  2.1840  0.8856
10708SOL     OW34323   9.413   1.482   6.718 -0.0555  0.5699 -0.1901
10708SOL    HW134324   9.332   1.438   6.692 -0.4844  0.8544  0.6019
10708SOL    HW234325   9.394   1.515   6.806  0.5481  1.5942 -0.4341
10709SOL     OW34326   9.527   0.576   3.081 -0.2444  0.8439 -0.0208
10709SOL    HW134327   9.528   0.482   3.061  2.4608  1.0867 -1.5403
10709SOL    HW234328   9.444   0.589   3.127 -1.2692 -2.0648 -0.7513
10710SOL     OW34329   5.436   4.451   1.404  0.4569 -0.1593 -0.5063
10710SOL    HW134330   5.408   4.362   1.384 -0.2669  0.1210 -0.7819
10710SOL    HW234331   5.514   4.440   1.458  0.9599 -0.9471 -1.3695
10711SOL     OW34332   0.098   9.439   2.220 -0.2354 -0.1937  0.2828
10711SOL    HW134333   0.091   9.412   2.129  0.2691  0.7846 -0.0563
10711SOL    HW234334   0.186   9.411   2.246 -0.6103 -1.0473  0.6762
10712SOL     OW34335   4.759   5.254   0.958 -0.0490  0.5513 -0.3246
10712SOL    HW134336   4.687   5.312   0.981 -1.2265 -1.3234  0.9872
10712SOL    HW234337   4.792   5.289   0.875 -2.5338  1.4246 -1.0299
10713SOL     OW34338   4.863   3.507   4.096  0.3059 -0.2820  0.4035
10713SOL    HW134339   4.857   3.412   4.096  2.5924 -0.4834  0.8130
10713SOL    HW234340   4.846   3.532   4.187  0.5588 -0.3770  0.4774
10714SOL     OW34341   6.711   5.379   4.634  0.4610 -0.1842 -0.3782
10714SOL    HW134342   6.729   5.285   4.638  0.6127 -0.1305  0.1802
10714SOL    HW234343   6.677   5.392   4.545  1.1850 -0.6390 -0.7349
10715SOL     OW34344   7.602   4.153   7.435  0.4287 -0.4310 -0.2671
10715SOL    HW134345   7.583   4.063   7.461 -0.7557 -0.1291 -0.0383
10715SOL    HW234346   7.573   4.206   7.509  0.9502  0.1471 -0.4787
10716SOL     OW34347   7.176   6.123   8.319  0.2961  0.0927 -0.5007
10716SOL    HW134348   7.145   6.173   8.394  1.6119  0.6476 -0.3084
10716SOL    HW234349   7.118   6.046   8.317 -0.3050  0.4878  0.5501
10717SOL     OW34350   5.175   6.337   4.916  0.0363  0.3950  0.1111
10717SOL    HW134351   5.121   6.291   4.852 -0.4721 -0.9715  1.4568
10717SOL    HW234352   5.234   6.269   4.950  1.8905  1.5931 -0.5222
10718SOL     OW34353   5.885   5.894   5.220  0.1154  0.7065  0.0318
10718SOL    HW134354   5.840   5.894   5.136 -0.2142 -0.3658  0.1854
10718SOL    HW234355   5.814   5.896   5.285  0.2471 -1.0205  0.2774
10719SOL     OW34356   8.381   3.802   2.155  0.1877  0.2046  0.1804
10719SOL    HW134357   8.421   3.728   2.201 -2.0976 -1.0807  0.2327
10719SOL    HW234358   8.453   3.840   2.105  1.6394 -1.4620  0.8758
10720SOL     OW34359   9.249   8.654   1.021  0.1946 -0.4684  0.1362
10720SOL    HW134360   9.257   8.677   1.114  3.9231  0.8807 -0.3387
10720SOL    HW234361   9.284   8.565   1.016  0.5329 -0.3295 -0.0169
10721SOL     OW34362   6.931   3.783   5.129 -0.0596 -0.4656  0.1883
10721SOL    HW134363   6.953   3.731   5.052  1.3715  0.6758 -0.2166
10721SOL    HW234364   6.861   3.841   5.099  1.3399  0.8405 -0.6667
10722SOL     OW34365   9.318   7.099   7.874 -0.9971  0.0673  0.4125
10722SOL    HW134366   9.372   7.106   7.796 -0.8528  1.3004  0.6089
10722SOL    HW234367   9.349   7.169   7.931 -2.1904  0.2101  0.9057
10723SOL     OW34368   6.810   0.144   5.344  0.0729 -0.2224  0.0846
10723SOL    HW134369   6.728   0.112   5.383 -1.0340  1.7867 -0.4536
10723SOL    HW234370   6.787   0.162   5.253  0.8104  1.3036  0.1685
10724SOL     OW34371   2.755   7.846   4.838  0.1501 -0.2923 -0.4065
10724SOL    HW134372   2.664   7.858   4.810 -0.3830  0.2208  1.3765
10724SOL    HW234373   2.799   7.928   4.814 -0.5568  0.5775  1.0654
10725SOL     OW34374   8.441   2.932   2.584 -0.1014 -0.1386  0.0582
10725SOL    HW134375   8.362   2.910   2.534  0.5340  1.3106 -1.6687
10725SOL    HW234376   8.409   2.949   2.673 -1.1966 -3.3074  0.4136
10726SOL     OW34377   6.852   3.366   7.956  1.1494 -0.1507 -0.7408
10726SOL    HW134378   6.894   3.451   7.970  0.2607  0.1741  0.0788
10726SOL    HW234379   6.759   3.387   7.943  1.0852 -0.9190 -1.5601
10727SOL     OW34380   7.347   3.279   4.182 -0.1169  0.0296  0.3420
10727SOL    HW134381   7.276   3.271   4.118  0.0091 -0.8140  0.2950
10727SOL    HW234382   7.420   3.315   4.131 -0.8513  2.1915  0.6743
10728SOL     OW34383   1.703   2.716   9.016  0.0370 -0.3053  0.6665
10728SOL    HW134384   1.642   2.664   9.069 -1.3107  0.3332 -0.1808
10728SOL    HW234385   1.670   2.706   8.927  1.1302  0.1530  0.2039
10729SOL     OW34386   9.475   8.632   5.013  0.5897 -0.4559  0.1756
10729SOL    HW134387   9.430   8.678   4.942  1.6998  0.1524 -0.1630
10729SOL    HW234388   9.449   8.678   5.093  0.9216  0.1510 -0.0595
10730SOL     OW34389   8.446   5.098   0.248  0.3689  0.3810  0.5397
10730SOL    HW134390   8.392   5.092   0.170 -0.5937  1.5372  1.1020
10730SOL    HW234391   8.518   5.156   0.223  2.1803 -2.1437 -0.6181
10731SOL     OW34392   1.536   8.058   0.091 -0.1443 -0.0796  0.0564
10731SOL    HW134393   1.482   7.979   0.078  0.3818 -0.2795 -1.0415
10731SOL    HW234394   1.613   8.043   0.036  0.4261  0.7699  0.6186
10732SOL     OW34395   0.033   7.251   2.171  0.2300 -0.0229 -0.0919
10732SOL    HW134396   0.050   7.333   2.125 -0.6639 -0.3824 -1.1209
10732SOL    HW234397   0.109   7.196   2.151 -0.8368 -0.7494 -2.5764
10733SOL     OW34398   7.234   1.474   1.544 -0.1707 -0.0266  0.8855
10733SOL    HW134399   7.274   1.397   1.583 -0.9976 -1.6267 -1.2357
10733SOL    HW234400   7.296   1.501   1.476 -0.5842  0.2506  0.6105
10734SOL     OW34401   1.840   5.303   4.756 -0.1510 -0.3762 -0.4987
10734SOL    HW134402   1.781   5.377   4.767  0.1017 -0.3812  1.0475
10734SOL    HW234403   1.783   5.227   4.747 -0.4241  0.0166 -2.5806
10735SOL     OW34404   4.771   8.129   1.283  0.0272 -0.1483  0.1998
10735SOL    HW134405   4.744   8.115   1.374  0.9170  0.2018  0.5249
10735SOL    HW234406   4.812   8.215   1.283  0.1306 -0.1935 -0.5173
10736SOL     OW34407   5.290   0.315   4.108 -0.3755  0.6996  0.2110
10736SOL    HW134408   5.299   0.396   4.059 -1.5877  2.4936  2.6914
10736SOL    HW234409   5.379   0.294   4.136 -0.0434  1.1896 -0.4606
10737SOL     OW34410   2.388   6.649   1.720 -0.1017  0.0442 -0.3261
10737SOL    HW134411   2.453   6.708   1.757  0.0003  1.2178 -2.2220
10737SOL    HW234412   2.306   6.671   1.765  0.8552 -2.2058  2.8892
10738SOL     OW34413   3.157   2.880   4.965 -0.2062  0.5669  0.0332
10738SOL    HW134414   3.108   2.941   5.020 -0.3018  1.0223 -0.5422
10738SOL    HW234415   3.242   2.922   4.953  0.6370 -0.5815  1.6616
10739SOL     OW34416   0.772   4.102   0.355 -0.1711 -0.1378 -0.1253
10739SOL    HW134417   0.692   4.147   0.330  0.7052  1.1274 -0.7158
10739SOL    HW234418   0.820   4.090   0.273  0.3565 -0.6715  0.2518
10740SOL     OW34419   7.918   5.557   9.320 -0.2104 -0.0155 -0.2320
10740SOL    HW134420   8.008   5.534   9.343 -0.5563 -2.0174 -0.7065
10740SOL    HW234421   7.878   5.582   9.403  0.1943 -1.3270  0.3933
10741SOL     OW34422   1.599   5.414   1.627 -0.0109 -0.7951  0.5770
10741SOL    HW134423   1.536   5.478   1.594  0.6805  1.0386  2.5349
10741SOL    HW234424   1.548   5.356   1.684 -0.2532 -0.4678  0.6947
10742SOL     OW34425   1.477   3.972   6.075  0.0015  0.3287  0.3210
10742SOL    HW134426   1.416   4.003   6.141 -0.2357  1.0983 -0.2449
10742SOL    HW234427   1.455   4.022   5.996  1.0707  0.3058 -0.0079
10743SOL     OW34428   4.985   4.165   7.636 -0.1127 -0.0570 -0.0683
10743SOL    HW134429   5.019   4.098   7.578  1.3049  0.5798 -0.0135
10743SOL    HW234430   4.918   4.121   7.688  0.8360 -1.4508  0.0167
10744SOL     OW34431   6.755   7.846   2.659 -0.4098 -0.5840 -0.1762
10744SOL    HW134432   6.795   7.786   2.596 -1.2153 -2.3643  0.9514
10744SOL    HW234433   6.690   7.794   2.705 -1.9804  1.4676  0.0738
10745SOL     OW34434   1.252   9.321   5.759  0.4610 -0.3193  0.0002
10745SOL    HW134435   1.219   9.410   5.744  0.6859 -0.2419 -0.0391
10745SOL    HW234436   1.268   9.317   5.854 -1.1110 -0.8639  0.2765
10746SOL     OW34437   8.133   9.041   0.769 -0.6970 -0.0106  0.1142
10746SOL    HW134438   8.144   8.959   0.816 -0.2871  0.6077  1.1179
10746SOL    HW234439   8.039   9.059   0.773 -0.6294  0.1801  0.9520
10747SOL     OW34440   1.909   3.181   0.004  0.1852  0.0734  0.3674
10747SOL    HW134441   1.906   3.178   0.100 -0.2519  1.7886  0.4376
10747SOL    HW234442   1.972   3.114  -0.020  1.1966  0.4095  1.9356
10748SOL     OW34443   6.052   8.952   3.595 -0.1107 -0.8862 -0.6146
10748SOL    HW134444   6.034   8.873   3.544 -0.1363 -0.3537 -1.4483
10748SOL    HW234445   5.993   8.945   3.670 -0.9811 -1.0949 -1.2911
10749SOL     OW34446   1.194   3.093   0.359 -0.3710 -0.4140  0.2322
10749SOL    HW134447   1.200   3.171   0.305  0.2352 -0.3977  0.3186
10749SOL    HW234448   1.280   3.052   0.353 -0.9839 -1.6506 -0.6608
10750SOL     OW34449   8.544   1.844   5.230  0.3034  0.5488  0.6700
10750SOL    HW134450   8.495   1.887   5.299 -1.4242  1.8471 -1.2542
10750SOL    HW234451   8.577   1.915   5.175  1.2591 -0.4434 -0.0953
10751SOL     OW34452   1.964   9.484   3.374 -0.1987 -0.0250  0.0445
10751SOL    HW134453   1.997   9.394   3.369  2.3459  0.8277  0.0334
10751SOL    HW234454   2.039   9.538   3.351 -1.6791  2.1313 -0.0032
10752SOL     OW34455   2.198   6.455   9.244 -0.5583 -0.1563  0.0110
10752SOL    HW134456   2.140   6.498   9.180 -1.6060 -0.7807  0.5045
10752SOL    HW234457   2.267   6.415   9.191 -0.8443  0.1991 -0.6398
10753SOL     OW34458   1.116   1.354   9.163  0.6229  0.0262 -0.1277
10753SOL    HW134459   1.054   1.338   9.233  0.1015 -3.7933 -1.2465
10753SOL    HW234460   1.176   1.279   9.165  1.5989  0.6053 -2.6977
10754SOL     OW34461   8.457   9.516   7.269  0.1245  0.3478  0.3514
10754SOL    HW134462   8.377   9.552   7.232  0.4537 -0.6927 -1.4966
10754SOL    HW234463   8.474   9.570   7.346 -1.0217  2.1477 -0.5783
10755SOL     OW34464   3.282   0.638   3.845  0.5600  0.3702  0.3273
10755SOL    HW134465   3.275   0.659   3.752  1.4004 -1.3649 -0.1708
10755SOL    HW234466   3.374   0.657   3.867  0.4127  0.5951  0.7701
10756SOL     OW34467   0.577   8.958   6.395  0.0420  0.1377 -0.5660
10756SOL    HW134468   0.645   8.986   6.456 -0.0745 -2.0906  0.6871
10756SOL    HW234469   0.496   8.994   6.431  0.3792  1.9753 -1.5289
10757SOL     OW34470   3.996   3.497   4.245  0.4870 -0.6079  0.6327
10757SOL    HW134471   3.978   3.403   4.254  2.1741 -0.9266  1.0025
10757SOL    HW234472   3.913   3.539   4.265 -0.1885 -2.0117  0.9136
10758SOL     OW34473   7.910   2.581   5.535 -0.0989  0.2982 -0.8100
10758SOL    HW134474   7.882   2.500   5.578 -3.7319  1.0863 -1.3234
10758SOL    HW234475   7.963   2.627   5.600  0.2820 -1.5389  0.2339
10759SOL     OW34476   1.039   7.093   5.964  0.0457  0.3600 -0.2716
10759SOL    HW134477   0.968   7.086   6.029 -0.3042  2.0465 -0.4462
10759SOL    HW234478   1.054   7.002   5.937 -3.0353  0.0295 -1.2910
10760SOL     OW34479   0.382   4.559   3.186 -0.3995 -0.1181 -0.1472
10760SOL    HW134480   0.405   4.639   3.139  1.4812 -0.9868 -0.8130
10760SOL    HW234481   0.431   4.490   3.141 -0.4762 -1.3605  1.5712
10761SOL     OW34482   7.307   1.815   4.540 -0.0430 -0.2400 -0.1553
10761SOL    HW134483   7.307   1.721   4.525  1.9491 -0.6304  1.7185
10761SOL    HW234484   7.379   1.848   4.485 -1.3245  0.3784 -1.5242
10762SOL     OW34485   4.993   6.478   8.029 -1.1668  0.3170  0.2663
10762SOL    HW134486   5.038   6.557   8.058 -1.4420  1.1320 -1.4754
10762SOL    HW234487   5.045   6.446   7.955 -2.1488 -0.0228 -0.2919
10763SOL     OW34488   2.253   0.008   3.932  0.4929 -0.0667 -0.0882
10763SOL    HW134489   2.293  -0.066   3.979  1.0919 -0.0741 -0.5973
10763SOL    HW234490   2.213  -0.032   3.855 -0.9422 -0.1266  0.6539
10764SOL     OW34491   7.263   9.039   5.108 -0.6689  0.5350  0.4342
10764SOL    HW134492   7.351   9.077   5.106 -1.3460  2.2059  0.6685
10764SOL    HW234493   7.205   9.113   5.126 -1.9414 -0.8594  2.4655
10765SOL     OW34494   0.989   8.162   8.894  0.4136  0.6013 -0.6309
10765SOL    HW134495   1.071   8.180   8.850  0.8183 -1.4604 -0.8124
10765SOL    HW234496   1.012   8.102   8.965 -0.8854  0.2051 -0.5104
10766SOL     OW34497   9.050   0.354   3.858 -0.3706  0.2137  0.1476
10766SOL    HW134498   9.050   0.258   3.856 -0.1909  0.1965  0.7821
10766SOL    HW234499   9.018   0.380   3.772 -0.6858 -0.4230  0.0669
10767SOL     OW34500   5.250   1.190   4.249  0.1780 -0.3950  0.6150
10767SOL    HW134501   5.270   1.103   4.282  2.4781 -0.9024 -1.7027
10767SOL    HW234502   5.165   1.212   4.287  0.3300 -2.8807  2.6528
10768SOL     OW34503   6.790   1.719   3.252 -0.4736  0.2929  0.2893
10768SOL    HW134504   6.846   1.795   3.271  1.4895 -1.4131  1.6997
10768SOL    HW234505   6.838   1.644   3.286 -1.0818 -1.9932 -3.3590
10769SOL     OW34506   0.586   7.214   0.056 -0.0796 -0.0902 -0.7081
10769SOL    HW134507   0.563   7.173  -0.028  0.2280 -0.6068 -0.5485
10769SOL    HW234508   0.636   7.146   0.102 -0.7636 -0.0362  0.1464
10770SOL     OW34509   4.933   8.540   4.161 -0.7258  0.0793 -0.3081
10770SOL    HW134510   4.998   8.582   4.217 -2.0572 -0.3914  1.6984
10770SOL    HW234511   4.978   8.464   4.124  0.4683  0.9400 -0.6784
10771SOL     OW34512   0.789   3.234   2.918  0.5284  0.7751 -0.0332
10771SOL    HW134513   0.751   3.248   3.005 -1.3930  2.0329 -1.0013
10771SOL    HW234514   0.715   3.212   2.863  1.1951  2.9292 -1.9446
10772SOL     OW34515   2.433   8.486   0.381  0.1478  0.2479 -0.3813
10772SOL    HW134516   2.383   8.416   0.424 -1.3297  0.3515 -1.8244
10772SOL    HW234517   2.506   8.440   0.339  0.1618 -0.1920  0.1106
10773SOL     OW34518   3.428   3.246   0.273 -0.3616 -0.3191 -0.0801
10773SOL    HW134519   3.389   3.233   0.186  0.2454 -1.0880 -0.2563
10773SOL    HW234520   3.384   3.181   0.328  1.3714 -1.9755 -0.5296
10774SOL     OW34521   7.076   4.918   3.807  0.7785  0.1147 -0.0316
10774SOL    HW134522   7.048   4.980   3.874  0.0909  0.5652 -0.7191
10774SOL    HW234523   6.995   4.883   3.771  1.1424 -1.7211  0.7959
10775SOL     OW34524   2.445   8.877   9.451  0.3992 -0.0241  0.0721
10775SOL    HW134525   2.517   8.935   9.426 -1.0978  0.4331 -4.0371
10775SOL    HW234526   2.453   8.802   9.391 -1.1887 -1.0809  1.1046
10776SOL     OW34527   1.797   2.879   2.754  0.2677 -0.5055  0.7955
10776SOL    HW134528   1.785   2.787   2.732  0.0906 -0.4555  0.6839
10776SOL    HW234529   1.710   2.909   2.780 -0.0211  0.0580 -0.7547
10777SOL     OW34530   4.677   1.138   7.253 -0.6408 -0.5727 -0.1323
10777SOL    HW134531   4.626   1.129   7.172 -0.5658  0.6017 -0.3196
10777SOL    HW234532   4.672   1.231   7.275 -0.4897 -0.8304  1.1124
10778SOL     OW34533   3.502   8.124   2.724  0.5753 -0.1797  0.0218
10778SOL    HW134534   3.513   8.172   2.642 -0.5058  0.5951  0.2954
10778SOL    HW234535   3.476   8.192   2.787 -1.3662 -1.1501  0.3407
10779SOL     OW34536   4.901   2.147   2.825 -0.5322  0.2554  0.0006
10779SOL    HW134537   4.924   2.215   2.762 -0.3642  0.4819  0.3045
10779SOL    HW234538   4.869   2.195   2.901 -0.6885 -0.0163  0.1089
10780SOL     OW34539   8.584   6.754   4.023  0.0208  0.2639 -0.3303
10780SOL    HW134540   8.512   6.716   3.973 -1.1946  0.6851  1.0299
10780SOL    HW234541   8.554   6.843   4.044  0.2689 -0.0560  1.5207
10781SOL     OW34542   2.620   8.722   9.078  0.2170 -0.2096  0.5928
10781SOL    HW134543   2.565   8.800   9.080 -0.4802 -0.6941  0.8984
10781SOL    HW234544   2.702   8.751   9.038 -1.4099 -0.2296 -3.1816
10782SOL     OW34545   3.645   1.445   6.855 -0.7533 -0.0481  0.6011
10782SOL    HW134546   3.603   1.362   6.879 -2.3154  0.6748  0.4836
10782SOL    HW234547   3.635   1.500   6.932  0.9628 -0.1671  0.9647
10783SOL     OW34548   9.126   0.085   0.499 -0.2062 -0.4781  0.7343
10783SOL    HW134549   9.030   0.074   0.495 -1.0038  4.3453  1.1245
10783SOL    HW234550   9.150   0.050   0.585 -1.5628 -1.7683  0.6366
10784SOL     OW34551   0.446   9.276   9.113 -0.2866 -0.5203 -0.3858
10784SOL    HW134552   0.417   9.234   9.195 -2.5925  2.1002  0.3096
10784SOL    HW234553   0.401   9.361   9.113  2.4225  1.0745 -2.6943
10785SOL     OW34554   8.876   1.557   8.091  0.1281  0.2323  0.7336
10785SOL    HW134555   8.785   1.583   8.076  0.4140  1.1313  0.5152
10785SOL    HW234556   8.927   1.636   8.074  0.9286 -0.1786  1.1648
10786SOL     OW34557   3.555   3.131   9.082 -0.1245 -0.5875 -0.4553
10786SOL    HW134558   3.580   3.221   9.059 -3.7209  1.7965  3.3628
10786SOL    HW234559   3.476   3.114   9.031 -0.9062 -0.4327  0.6574
10787SOL     OW34560   6.716   5.598   8.810  0.6413 -0.0857 -0.0353
10787SOL    HW134561   6.792   5.540   8.806  1.9319  1.5527 -1.1240
10787SOL    HW234562   6.731   5.651   8.889  0.7698  0.4011 -0.3828
10788SOL     OW34563   9.121   4.615   6.682 -0.2125  0.3769  0.7285
10788SOL    HW134564   9.139   4.632   6.590 -0.8761  0.2874  0.5797
10788SOL    HW234565   9.095   4.700   6.718  0.3611  0.4801  0.9139
10789SOL     OW34566   2.262   8.975   0.035  0.2584  0.3559 -0.0593
10789SOL    HW134567   2.328   8.942  -0.025 -0.0524 -0.3597 -0.0157
10789SOL    HW234568   2.224   9.050  -0.011  0.2472  0.0154 -0.6166
10790SOL     OW34569   3.542   6.090   2.140  0.5682 -0.0704  0.1923
10790SOL    HW134570   3.563   6.182   2.156 -2.0843  0.8118 -0.8122
10790SOL    HW234571   3.533   6.084   2.045 -1.0602 -0.8740  0.3624
10791SOL     OW34572   9.034   3.812   2.223  0.1961  0.4365  0.3309
10791SOL    HW134573   8.980   3.833   2.147  0.7194  0.0995 -0.1445
10791SOL    HW234574   9.123   3.804   2.188  0.3145 -0.5882  0.8265
10792SOL     OW34575   6.929   5.505   2.513 -0.2296 -0.6382  0.1530
10792SOL    HW134576   6.974   5.429   2.550  1.0887  0.3611  0.6732
10792SOL    HW234577   6.925   5.487   2.419  2.4039 -0.2569 -0.1092
10793SOL     OW34578   8.497   2.247   0.985  0.3230 -0.0823 -0.1663
10793SOL    HW134579   8.526   2.304   0.914  1.6851  1.0084  1.2073
10793SOL    HW234580   8.571   2.245   1.046 -1.4792  0.5657  2.1638
10794SOL     OW34581   3.466   6.049   8.263  0.2735  0.2893  0.2175
10794SOL    HW134582   3.493   5.985   8.329  0.6791  1.3666  1.1186
10794SOL    HW234583   3.381   6.018   8.233 -0.7140  0.6587  2.4729
10795SOL     OW34584   9.510   1.428   5.259  0.0687 -0.3342 -0.0446
10795SOL    HW134585   9.449   1.422   5.333 -0.8522 -0.9218 -0.8263
10795SOL    HW234586   9.595   1.406   5.296 -0.3074 -0.2065  0.9266
10796SOL     OW34587   7.329   1.872   1.230 -0.0091  0.0325  0.2696
10796SOL    HW134588   7.306   1.953   1.276  0.1645 -0.5953  1.5070
10796SOL    HW234589   7.425   1.871   1.231  0.0474 -1.7794  3.2782
10797SOL     OW34590   3.521   5.656   2.183 -0.6038 -0.5566 -0.0434
10797SOL    HW134591   3.580   5.585   2.209  0.8235  0.6571  0.1184
10797SOL    HW234592   3.457   5.613   2.126 -1.1411 -2.4155  1.8198
10798SOL     OW34593   6.933   6.006   1.551 -0.1735 -0.0848 -0.0322
10798SOL    HW134594   6.980   6.089   1.541  0.6949 -0.7165 -1.5005
10798SOL    HW234595   6.925   5.994   1.646 -0.7242  1.8837  0.2067
10799SOL     OW34596   0.195   0.455   4.507  0.0375  0.6790 -0.2782
10799SOL    HW134597   0.195   0.439   4.413  0.5046 -0.7608 -0.0577
10799SOL    HW234598   0.216   0.548   4.516  0.9287  0.6241 -1.5613
10800SOL     OW34599   8.964   4.927   6.487  0.0316  0.1154 -0.1284
10800SOL    HW134600   8.982   4.989   6.417  0.3817 -1.0069 -1.0601
10800SOL    HW234601   8.895   4.870   6.452  0.2965 -0.5337  0.3858
10801SOL     OW34602   4.715   3.721   9.168 -0.4630  0.4383 -0.1373
10801SOL    HW134603   4.621   3.706   9.161 -0.2471 -0.3651 -2.0481
10801SOL    HW234604   4.747   3.712   9.078  1.8777 -2.3516  0.8064
10802SOL     OW34605   8.256   4.116   4.019 -0.8478 -0.4773  0.1576
10802SOL    HW134606   8.284   4.034   3.979 -0.6645  0.0418 -0.7989
10802SOL    HW234607   8.299   4.184   3.968 -1.1060  0.2246  0.8538
10803SOL     OW34608   6.365   3.754   8.843  0.7308 -0.0029 -0.6170
10803SOL    HW134609   6.306   3.732   8.770  0.7306 -1.2664 -0.2624
10803SOL    HW234610   6.329   3.836   8.879  0.1921  0.1417 -1.4549
10804SOL     OW34611   2.385   9.283   3.834 -0.7723  0.0384 -0.2137
10804SOL    HW134612   2.400   9.318   3.922  0.5250  1.1653 -0.8429
10804SOL    HW234613   2.304   9.324   3.806 -1.0633 -0.1299  0.3507
10805SOL     OW34614   5.191   3.938   4.339  0.0758 -0.1645  0.3051
10805SOL    HW134615   5.118   3.886   4.306  0.0208 -0.7096  1.2469
10805SOL    HW234616   5.224   3.888   4.414  0.8115  0.5519  0.4757
10806SOL     OW34617   5.734   1.726   0.636  0.1556  0.6529 -0.1323
10806SOL    HW134618   5.793   1.651   0.632  1.7243  1.5879  2.8391
10806SOL    HW234619   5.742   1.767   0.550  3.2465  0.2660 -0.1358
10807SOL     OW34620   6.942   5.113   4.024  0.0437 -0.4475 -0.0946
10807SOL    HW134621   6.874   5.079   3.966  1.2347 -0.6629 -1.4356
10807SOL    HW234622   6.943   5.053   4.099 -1.3063 -0.3606  0.0118
10808SOL     OW34623   1.288   8.572   2.230 -0.5017 -0.4355 -0.7496
10808SOL    HW134624   1.331   8.498   2.272  0.1198  0.7486  0.7873
10808SOL    HW234625   1.195   8.559   2.248 -0.5306 -1.4290 -1.5076
10809SOL     OW34626   0.224   8.392   7.777  0.2004 -0.3562 -0.5055
10809SOL    HW134627   0.318   8.375   7.778  0.2525 -0.0677 -0.0643
10809SOL    HW234628   0.203   8.413   7.868 -0.3968 -0.9679 -0.4986
10810SOL     OW34629   3.761   8.701   3.084  0.4650  0.1983 -0.0881
10810SOL    HW134630   3.746   8.725   2.993  0.2468  2.3816  0.4613
10810SOL    HW234631   3.851   8.729   3.101  0.5890 -0.4269  0.3141
10811SOL     OW34632   3.787   7.045   9.043  0.0009  0.0429 -0.0740
10811SOL    HW134633   3.877   7.041   9.009  0.0530 -0.5705  0.1154
10811SOL    HW234634   3.739   7.096   8.978  0.6896  1.2182  0.3063
10812SOL     OW34635   5.773   1.572   2.456 -0.6556 -0.0411  0.4429
10812SOL    HW134636   5.781   1.528   2.541 -0.7803 -0.5942  0.1699
10812SOL    HW234637   5.833   1.524   2.399 -0.4074  0.4719  0.2724
10813SOL     OW34638   5.330   2.123   8.335 -0.5573  0.1816  0.5882
10813SOL    HW134639   5.305   2.088   8.249  0.9152  1.4933 -0.4410
10813SOL    HW234640   5.352   2.046   8.387  0.0298 -0.5818 -0.7386
10814SOL     OW34641   0.978   3.606   5.053  0.1780 -0.2274 -0.0694
10814SOL    HW134642   1.064   3.565   5.067  1.6852  2.3471 -0.9462
10814SOL    HW234643   0.915   3.536   5.069  2.4436 -2.3853  0.1275
10815SOL     OW34644   8.611   0.896   6.451 -0.5928  0.3557  0.3927
10815SOL    HW134645   8.598   0.875   6.543 -2.5543 -0.3193 -0.0047
10815SOL    HW234646   8.546   0.843   6.404  1.4491 -0.6266 -1.5516
10816SOL     OW34647   3.473   5.319   0.903 -0.2850 -0.3144  0.4956
10816SOL    HW134648   3.541   5.290   0.964 -0.9003 -0.1522  1.2953
10816SOL    HW234649   3.444   5.403   0.939 -0.7779 -0.2979  0.0726
10817SOL     OW34650   7.357   0.447   7.007 -0.5553 -0.2092  0.3189
10817SOL    HW134651   7.383   0.373   7.063 -1.1562  0.0924  1.0123
10817SOL    HW234652   7.262   0.437   6.997 -0.4366 -0.3487 -0.7949
10818SOL     OW34653   9.520   7.379   6.448  0.1247  0.3328 -0.2448
10818SOL    HW134654   9.458   7.316   6.412 -1.1101  1.2421  0.1775
10818SOL    HW234655   9.467   7.430   6.511  1.8229 -0.2877  1.8164
10819SOL     OW34656   8.329   4.012   4.715  0.1002  0.1416 -0.3339
10819SOL    HW134657   8.397   4.019   4.648  0.1920  1.1992 -0.1434
10819SOL    HW234658   8.249   4.040   4.672  0.1284  0.6642 -0.0491
10820SOL     OW34659   5.336   2.687   7.882 -0.3727 -0.0521  0.0883
10820SOL    HW134660   5.384   2.671   7.801  0.4482  0.4497  0.4621
10820SOL    HW234661   5.247   2.660   7.863  0.0618 -1.0339 -0.6117
10821SOL     OW34662   9.006   6.080   7.259  0.7847  0.3163 -0.0414
10821SOL    HW134663   9.012   6.110   7.168  0.4534  2.8026  0.6879
10821SOL    HW234664   9.059   6.142   7.309 -1.5683  0.9642  1.8359
10822SOL     OW34665   8.635   8.678   4.038 -0.6573  0.2503 -0.4551
10822SOL    HW134666   8.687   8.710   4.112 -0.4299  0.2665 -0.6208
10822SOL    HW234667   8.653   8.584   4.035 -3.2578 -0.4221  1.5980
10823SOL     OW34668   7.966   1.153   7.004 -0.7883 -0.1581 -0.1120
10823SOL    HW134669   7.940   1.124   7.092 -1.6957 -1.7523 -0.8539
10823SOL    HW234670   8.027   1.085   6.974  0.6453  1.1151 -0.2033
10824SOL     OW34671   2.421   7.245   7.343  0.0535 -0.3455  0.3597
10824SOL    HW134672   2.407   7.323   7.397  1.4722 -1.3537  2.2811
10824SOL    HW234673   2.347   7.245   7.282 -0.3117  2.1562  0.6798
10825SOL     OW34674   6.483   9.321   8.796  0.5360 -0.0361 -0.0345
10825SOL    HW134675   6.499   9.231   8.769  0.3750 -0.2042  0.4030
10825SOL    HW234676   6.487   9.372   8.716  0.1287 -0.5070 -0.3596
10826SOL     OW34677   8.557   8.335   6.860 -0.2561 -0.2598 -0.4034
10826SOL    HW134678   8.499   8.410   6.878  0.1266  0.3286 -1.5497
10826SOL    HW234679   8.643   8.374   6.846  0.7049 -1.2032  2.2515
10827SOL     OW34680   9.374   8.983   5.621  0.1629 -0.6414  0.0544
10827SOL    HW134681   9.420   9.020   5.697 -0.1410 -0.2811  0.0678
10827SOL    HW234682   9.414   8.897   5.609  0.1832 -0.7255  0.6538
10828SOL     OW34683   0.711   5.599   5.684  1.1706 -0.5894 -0.0007
10828SOL    HW134684   0.697   5.575   5.592 -0.1356 -0.9028  0.2702
10828SOL    HW234685   0.714   5.695   5.682  0.5698 -0.5702 -0.3024
10829SOL     OW34686   5.903   1.140   6.031 -0.1263  0.3444 -0.0712
10829SOL    HW134687   5.838   1.202   5.997  0.4008  0.6855 -0.4728
10829SOL    HW234688   5.852   1.064   6.056 -0.6324  0.3986 -0.8803
10830SOL     OW34689   6.472   3.834   0.230 -0.2270 -0.1732 -0.0974
10830SOL    HW134690   6.440   3.756   0.186 -1.1159  0.5358 -0.7508
10830SOL    HW234691   6.409   3.849   0.301  1.3649 -1.4964  1.7155
10831SOL     OW34692   6.878   6.341   8.032 -0.0210 -0.4454  0.3245
10831SOL    HW134693   6.870   6.405   7.961  1.0021  0.3696  0.9031
10831SOL    HW234694   6.798   6.289   8.027 -0.7622  0.7052 -0.3426
10832SOL     OW34695   3.492   7.063   6.190  0.0898 -0.1645 -0.1684
10832SOL    HW134696   3.481   7.158   6.188 -0.9781 -0.2846 -0.5567
10832SOL    HW234697   3.503   7.038   6.098  3.8952 -0.0890  0.1019
10833SOL     OW34698   0.573   8.018   3.277 -0.1276  0.5945 -0.6632
10833SOL    HW134699   0.512   8.089   3.299 -1.0944  0.2218 -2.0099
10833SOL    HW234700   0.648   8.062   3.237 -0.8817  0.8574 -1.8264
10834SOL     OW34701   5.403   8.628   8.899 -0.1097  0.0845 -0.6277
10834SOL    HW134702   5.403   8.546   8.948 -0.1913  0.5818  0.2097
10834SOL    HW234703   5.318   8.628   8.853 -0.3946  0.0069 -0.1073
10835SOL     OW34704   5.507   4.220   7.969  0.9117  0.3995 -0.5015
10835SOL    HW134705   5.573   4.222   8.038  0.8028  0.4269 -0.3965
10835SOL    HW234706   5.554   4.245   7.890  0.9942  0.5679 -0.4006
10836SOL     OW34707   6.572   3.917   7.647  0.5122  0.2149 -0.8181
10836SOL    HW134708   6.629   3.890   7.718  1.0528  2.2410 -0.4066
10836SOL    HW234709   6.561   3.839   7.593  0.7649 -1.1408  1.0128
10837SOL     OW34710   9.296   5.628   5.073  0.8645 -0.6157 -0.0262
10837SOL    HW134711   9.368   5.566   5.084 -0.1531 -1.8067  0.1397
10837SOL    HW234712   9.229   5.578   5.027 -0.2903  0.1159  0.8291
10838SOL     OW34713   7.917   1.759   4.646  0.8631  0.2398 -0.4139
10838SOL    HW134714   7.936   1.679   4.695  2.3586  0.4804 -0.5621
10838SOL    HW234715   7.840   1.738   4.594 -0.5858 -0.1305  1.7640
10839SOL     OW34716   5.618   7.824   0.811 -0.0951  0.3978 -0.1592
10839SOL    HW134717   5.671   7.896   0.843  0.6736  0.4848 -1.5538
10839SOL    HW234718   5.528   7.857   0.817  0.2309  1.4325 -0.6370
10840SOL     OW34719   8.325   5.780   4.970 -0.3619 -0.8854  0.0009
10840SOL    HW134720   8.289   5.697   5.001  1.2214 -1.4453  0.4429
10840SOL    HW234721   8.389   5.755   4.904 -0.7342  0.0773 -0.7505
10841SOL     OW34722   5.669   6.306   8.548 -0.2503 -0.1217 -0.1423
10841SOL    HW134723   5.744   6.356   8.517 -1.2048  0.3798 -1.7824
10841SOL    HW234724   5.697   6.214   8.543  0.1584  0.0417 -1.0250
10842SOL     OW34725   6.866   7.591   8.422  0.4447  0.3092 -0.0863
10842SOL    HW134726   6.914   7.647   8.482  1.0951 -0.2759 -0.0379
10842SOL    HW234727   6.788   7.563   8.471  0.6781  0.2942  0.2802
10843SOL     OW34728   2.907   5.097   5.286 -0.3054  0.6929  0.0908
10843SOL    HW134729   2.842   5.152   5.329 -0.7299  0.1805  0.1221
10843SOL    HW234730   2.970   5.075   5.355 -0.7708  0.1939  0.3674
10844SOL     OW34731   2.118   2.175   5.290  0.1375 -0.1133 -0.1113
10844SOL    HW134732   2.166   2.253   5.320 -0.0643 -0.0508  0.0538
10844SOL    HW234733   2.142   2.165   5.198 -0.5554  0.6930 -0.3937
10845SOL     OW34734   4.634   8.176   3.391 -0.1725  0.4434  0.4673
10845SOL    HW134735   4.619   8.084   3.373  1.5203 -0.4459  3.0874
10845SOL    HW234736   4.679   8.209   3.313 -3.5120  0.0161 -1.9041
10846SOL     OW34737   3.894   4.615   1.601  0.3206  0.0406 -0.4284
10846SOL    HW134738   3.864   4.640   1.514 -1.3401  2.8001  0.7867
10846SOL    HW234739   3.974   4.666   1.614 -0.7642  1.5963  0.4897
10847SOL     OW34740   2.789   6.804   6.332  0.3373 -0.3788 -0.1595
10847SOL    HW134741   2.695   6.821   6.324  0.2203 -1.4750 -1.7434
10847SOL    HW234742   2.821   6.873   6.390 -1.3556  0.3239  0.0185
10848SOL     OW34743   9.315   3.027   2.368  0.1256 -0.1817 -0.0246
10848SOL    HW134744   9.282   3.103   2.414 -0.0480  0.8385 -1.7655
10848SOL    HW234745   9.292   2.953   2.424 -0.5371  0.9497  1.2413
10849SOL     OW34746   0.241   7.374   3.577 -0.6035  0.4218 -0.1522
10849SOL    HW134747   0.180   7.332   3.516  1.0907 -0.2272 -1.4524
10849SOL    HW234748   0.275   7.450   3.529  0.6256  0.0041  0.0297
10850SOL     OW34749   0.628   5.277   7.037  0.3920 -0.3119  0.3167
10850SOL    HW134750   0.716   5.244   7.015  1.3163  1.5976  0.9684
10850SOL    HW234751   0.578   5.198   7.056  1.9294 -1.4671 -0.1845
10851SOL     OW34752   2.442   1.988   3.143  0.0572 -0.2311 -0.0364
10851SOL    HW134753   2.352   2.006   3.114  0.0124 -0.5643 -0.1126
10851SOL    HW234754   2.438   1.900   3.181  0.4334 -0.4252 -0.4263
10852SOL     OW34755   9.510   4.719   3.457 -0.3567 -0.9730 -0.1583
10852SOL    HW134756   9.455   4.788   3.496 -1.0054 -1.2776 -0.5278
10852SOL    HW234757   9.494   4.725   3.363  1.5506  0.0602 -0.4838
10853SOL     OW34758   0.230   2.982   7.971 -0.5417  0.0041  0.1952
10853SOL    HW134759   0.169   2.910   7.986  0.9030 -0.8789  2.5494
10853SOL    HW234760   0.314   2.939   7.957 -0.1929  1.2081 -1.6772
10854SOL     OW34761   5.134   3.784   3.220  0.8451  0.0043 -0.4058
10854SOL    HW134762   5.101   3.721   3.285  1.0962  0.1961 -0.0927
10854SOL    HW234763   5.105   3.748   3.136 -0.6300  0.4422 -0.1090
10855SOL     OW34764   6.631   0.885   5.289  0.1623 -0.3462 -0.0647
10855SOL    HW134765   6.584   0.814   5.247  2.7527 -1.1439 -1.8351
10855SOL    HW234766   6.620   0.960   5.231 -0.3823 -0.0261  0.4422
10856SOL     OW34767   8.969   3.919   8.455  0.3101  0.0650 -0.0399
10856SOL    HW134768   8.985   3.861   8.380  0.7465  0.5246 -0.3059
10856SOL    HW234769   8.966   3.860   8.530 -0.1849 -0.4068 -0.4236
10857SOL     OW34770   7.416   2.486   1.012  0.2314 -0.1878 -0.4110
10857SOL    HW134771   7.459   2.570   0.996  0.7421  0.0641  1.9325
10857SOL    HW234772   7.485   2.421   0.999  0.5406 -0.0194  0.3401
10858SOL     OW34773   0.922   9.212   5.917  0.2923 -0.0557  0.0615
10858SOL    HW134774   0.903   9.293   5.869 -1.4045 -0.4430 -0.0055
10858SOL    HW234775   0.924   9.144   5.850 -0.1753 -0.3280  0.3202
10859SOL     OW34776   1.336   0.082   2.326 -0.2978  0.5461  0.0795
10859SOL    HW134777   1.336   0.091   2.421  1.9130  1.6081  0.0305
10859SOL    HW234778   1.311   0.169   2.294 -0.2036  0.4255 -0.3279
10860SOL     OW34779   2.101   3.059   4.318  0.4599  0.0138  0.0064
10860SOL    HW134780   2.046   3.019   4.386  0.9494  0.8266  0.8999
10860SOL    HW234781   2.190   3.032   4.341  0.6756  0.6875 -0.0307
10861SOL     OW34782   5.801   8.730   7.546  0.5879  0.3631  0.0436
10861SOL    HW134783   5.772   8.656   7.493 -1.7638  1.6169 -0.5626
10861SOL    HW234784   5.865   8.775   7.491 -0.6341  0.7481 -1.0993
10862SOL     OW34785   1.269   2.546   2.859 -0.1122  0.2236  0.4090
10862SOL    HW134786   1.284   2.640   2.868 -1.8876  0.8705 -2.3675
10862SOL    HW234787   1.174   2.537   2.846  0.3050 -1.6506 -2.0385
10863SOL     OW34788   1.722   6.339   1.603 -0.8328  0.6456  0.4597
10863SOL    HW134789   1.790   6.406   1.605  0.9881 -1.0709 -0.7294
10863SOL    HW234790   1.768   6.257   1.621 -2.2571 -0.7895 -1.8976
10864SOL     OW34791   5.690   0.172   3.099 -0.2268  0.4128  0.2756
10864SOL    HW134792   5.718   0.256   3.135  0.9572  0.4537 -0.7149
10864SOL    HW234793   5.602   0.189   3.065  0.1700  1.3700 -0.3097
10865SOL     OW34794   4.148   3.166   8.066  0.1714  0.0966  0.3662
10865SOL    HW134795   4.064   3.121   8.062  0.0738  0.3400 -0.5138
10865SOL    HW234796   4.209   3.100   8.099  0.0842 -0.7977 -1.1680
10866SOL     OW34797   1.815   5.616   0.655  0.1543  0.3280  0.0410
10866SOL    HW134798   1.814   5.556   0.580  0.8647 -0.3973  0.5956
10866SOL    HW234799   1.866   5.691   0.624  0.2525  0.1359 -0.2766
10867SOL     OW34800   7.318   3.883   3.461  0.0133  0.0931 -0.2949
10867SOL    HW134801   7.350   3.960   3.414  0.1208 -0.5956 -1.3748
10867SOL    HW234802   7.223   3.886   3.451  0.1487 -1.1959 -2.4454
10868SOL     OW34803   6.928   1.964   3.238 -0.0790  0.1828  0.4081
10868SOL    HW134804   6.962   2.030   3.178  1.1901 -1.8664 -1.2324
10868SOL    HW234805   6.843   1.999   3.265  0.0828  1.9999 -1.1946
10869SOL     OW34806   7.188   8.955   4.166  0.2617 -0.0796 -0.7038
10869SOL    HW134807   7.183   8.860   4.151  0.1622 -0.0321 -0.9733
10869SOL    HW234808   7.126   8.993   4.104  0.1191  0.1471 -0.4248
10870SOL     OW34809   6.516   3.656   8.173 -0.3514  0.0075  0.1126
10870SOL    HW134810   6.602   3.679   8.139 -0.7962 -0.2223 -1.2165
10870SOL    HW234811   6.490   3.733   8.224 -0.4058  1.1304 -1.5471
10871SOL     OW34812   7.746   5.401   3.659 -0.0577  0.1271 -0.2041
10871SOL    HW134813   7.803   5.331   3.691 -2.4853 -1.3243  1.2854
10871SOL    HW234814   7.722   5.450   3.738 -1.9600 -0.2100 -0.5277
10872SOL     OW34815   0.136   8.889   0.058  0.3078  0.0466 -0.4373
10872SOL    HW134816   0.113   8.922   0.145  2.4293  0.1973  0.1166
10872SOL    HW234817   0.161   8.797   0.073  2.3783  0.5522 -0.5395
10873SOL     OW34818   0.029   0.965   2.378  0.1056  0.5080  0.6576
10873SOL    HW134819   0.057   0.874   2.391  1.2520  0.9549  1.4313
10873SOL    HW234820   0.106   1.009   2.342 -1.3089  0.5481 -2.7559
10874SOL     OW34821   2.148   6.264   4.851 -0.2860  0.1889  0.0121
10874SOL    HW134822   2.112   6.353   4.849 -0.0798  0.3165  1.2744
10874SOL    HW234823   2.190   6.257   4.937 -1.7420 -1.7024  0.6429
10875SOL     OW34824   4.286   4.545   2.115 -0.3420  0.2559 -0.3625
10875SOL    HW134825   4.191   4.540   2.121 -0.3949  0.7149 -0.8035
10875SOL    HW234826   4.315   4.556   2.206 -0.6891 -0.1891 -0.1982
10876SOL     OW34827   8.376   3.979   8.497  0.1858 -0.7802 -0.2075
10876SOL    HW134828   8.435   3.948   8.566 -0.9338 -0.4179  0.9437
10876SOL    HW234829   8.289   3.976   8.536 -0.1887  2.4050 -0.4893
10877SOL     OW34830   4.184   5.140   7.916  0.3636  0.2124 -0.3754
10877SOL    HW134831   4.268   5.179   7.893 -0.2625  2.1192  0.3250
10877SOL    HW234832   4.122   5.179   7.853 -0.1064 -0.7158 -0.5123
10878SOL     OW34833   4.631   2.933   9.150 -0.5596 -0.2110  0.1681
10878SOL    HW134834   4.604   3.024   9.135  2.2646  1.0150  1.7059
10878SOL    HW234835   4.624   2.891   9.064  0.1280  2.0946 -1.0848
10879SOL     OW34836   5.750   6.955   2.540  0.2364  0.5028  0.5296
10879SOL    HW134837   5.837   6.922   2.564  0.6394  0.2205 -1.1495
10879SOL    HW234838   5.737   6.924   2.450 -1.0868  1.5685  0.3223
10880SOL     OW34839   2.467   4.758   5.879  0.1526 -0.0108 -0.3265
10880SOL    HW134840   2.430   4.832   5.927  0.4334 -0.3535  0.4359
10880SOL    HW234841   2.483   4.691   5.946  2.0200  0.0742 -0.6325
10881SOL     OW34842   5.082   5.190   4.445 -0.7871  0.1198 -0.0291
10881SOL    HW134843   5.057   5.174   4.536 -0.4081 -0.5832 -0.0459
10881SOL    HW234844   5.002   5.223   4.404 -1.2067 -0.4180  0.3461
10882SOL     OW34845   8.142   6.080   7.000  0.0768  0.2561 -0.0815
10882SOL    HW134846   8.220   6.026   7.016 -0.4766 -1.2957 -2.1803
10882SOL    HW234847   8.176   6.159   6.960  0.6122 -0.4737 -1.1205
10883SOL     OW34848   8.296   1.653   8.275  0.4709  0.1372 -0.0863
10883SOL    HW134849   8.295   1.625   8.183 -2.1170 -2.1128  0.4820
10883SOL    HW234850   8.208   1.685   8.291  0.0178 -1.9229  2.1739
10884SOL     OW34851   6.563   3.193   0.401 -0.7252 -0.1660  0.1159
10884SOL    HW134852   6.633   3.139   0.437 -0.7174 -0.3870 -0.2314
10884SOL    HW234853   6.556   3.167   0.309 -1.4021 -0.3032  0.1965
10885SOL     OW34854   3.613   9.148   0.205 -0.5458 -0.0970 -0.7427
10885SOL    HW134855   3.589   9.109   0.289  1.1866 -1.1812 -0.7150
10885SOL    HW234856   3.553   9.108   0.142 -0.1493 -1.2544 -0.3971
10886SOL     OW34857   2.361   4.284   4.575 -0.1423  0.1620  0.2404
10886SOL    HW134858   2.404   4.351   4.627  1.9862 -1.0431  0.1296
10886SOL    HW234859   2.418   4.272   4.499  0.2521 -2.5866  0.8557
10887SOL     OW34860   8.318   8.362   3.378 -0.0934 -0.3798  0.2823
10887SOL    HW134861   8.266   8.304   3.322  3.0329 -1.3847 -1.8866
10887SOL    HW234862   8.330   8.441   3.325  0.0886  0.0930  1.0165
10888SOL     OW34863   7.311   3.283   2.016  0.1210  0.3421  0.3319
10888SOL    HW134864   7.382   3.254   1.960  1.6813 -1.5977  3.0622
10888SOL    HW234865   7.352   3.343   2.078 -1.6503  2.8999 -0.7988
10889SOL     OW34866   8.969   7.471   0.576 -0.2915 -0.5740 -0.5413
10889SOL    HW134867   8.901   7.503   0.516 -1.3071  0.9617  1.3121
10889SOL    HW234868   8.928   7.475   0.662  2.4471  1.3508  0.8051
10890SOL     OW34869   4.021   5.501   2.976 -0.1011 -0.0589 -0.3829
10890SOL    HW134870   4.075   5.425   2.999  1.5639  1.1492 -0.1256
10890SOL    HW234871   3.955   5.466   2.916  0.6146 -1.7046 -0.2710
10891SOL     OW34872   9.034   8.700   9.304  0.0688 -0.8764  0.2504
10891SOL    HW134873   9.046   8.609   9.277  2.4001 -1.2829  2.3350
10891SOL    HW234874   9.111   8.745   9.272 -1.1695  0.4822 -0.9521
10892SOL     OW34875   1.959   5.069   3.683 -0.5098  0.1050 -0.1037
10892SOL    HW134876   1.932   5.004   3.749 -1.8126 -2.3135 -2.7810
10892SOL    HW234877   1.880   5.120   3.667 -0.0951  0.9265  0.4217
10893SOL     OW34878   0.488   0.396   7.014 -0.3137  0.4454 -0.2013
10893SOL    HW134879   0.445   0.476   7.043 -1.2786 -0.3350  0.6081
10893SOL    HW234880   0.430   0.360   6.947  0.2437  0.5427 -0.7478
10894SOL     OW34881   8.409   3.142   3.543 -0.4463 -0.5343  0.2235
10894SOL    HW134882   8.314   3.141   3.556 -0.1753  1.1955  3.3602
10894SOL    HW234883   8.424   3.213   3.480 -1.1743  0.2258  0.8833
10895SOL     OW34884   0.879   2.770   2.236 -0.1285 -0.3331  0.1791
10895SOL    HW134885   0.919   2.818   2.309  0.1716 -1.5784  0.8667
10895SOL    HW234886   0.794   2.742   2.270  0.3065 -1.5338  0.3401
10896SOL     OW34887   1.496   1.615   3.821  0.1571  0.2906  0.5486
10896SOL    HW134888   1.452   1.654   3.746  1.5715 -1.1440 -1.1310
10896SOL    HW234889   1.585   1.650   3.818  1.1013 -1.9500 -0.2874
10897SOL     OW34890   0.102   6.771   8.010 -0.3964  0.0577  0.2810
10897SOL    HW134891   0.072   6.680   8.007 -0.7651  0.1842 -0.0221
10897SOL    HW234892   0.105   6.798   7.918 -0.9848  0.5712  0.4066
10898SOL     OW34893   8.646   8.096   1.474 -1.1410  0.0947 -0.2883
10898SOL    HW134894   8.642   8.191   1.460 -1.0252  0.6430  2.8373
10898SOL    HW234895   8.564   8.075   1.518 -1.0350 -1.2452 -0.6809
10899SOL     OW34896   6.046   8.967   5.108 -0.4150 -0.6733 -0.9218
10899SOL    HW134897   6.053   8.906   5.035  0.5922 -1.8218  0.0720
10899SOL    HW234898   5.957   9.002   5.103  0.6421  2.1105 -4.8083
10900SOL     OW34899   0.371   7.901   5.729 -0.5602 -0.1377  0.2310
10900SOL    HW134900   0.313   7.959   5.777  0.0509  0.0428  0.7664
10900SOL    HW234901   0.326   7.816   5.728 -0.7088 -0.0680  0.8684
10901SOL     OW34902   5.538   2.898   1.260  0.3556  0.7105  0.1130
10901SOL    HW134903   5.571   2.808   1.254  0.6543  0.8701 -0.8658
10901SOL    HW234904   5.442   2.889   1.255  0.3353  0.3847  0.9867
10902SOL     OW34905   1.114   8.831   6.808  0.1077 -0.3024 -0.2900
10902SOL    HW134906   1.184   8.804   6.867 -1.7260 -2.2968  1.1730
10902SOL    HW234907   1.158   8.877   6.737  2.6731  0.0548  1.4110
10903SOL     OW34908   7.003   2.196   6.751 -0.0684 -0.4473 -0.1534
10903SOL    HW134909   6.991   2.289   6.773 -2.1143 -0.8324  0.5932
10903SOL    HW234910   7.043   2.158   6.829  2.2892  0.0295 -1.0356
10904SOL     OW34911   0.654   2.457   5.878 -0.0132  0.1240 -0.0269
10904SOL    HW134912   0.743   2.481   5.853 -0.3026  1.4032  0.0897
10904SOL    HW234913   0.661   2.437   5.971  0.8293 -3.4615 -0.7130
10905SOL     OW34914   8.433   8.276   7.726  0.1544 -0.4260 -0.5561
10905SOL    HW134915   8.524   8.296   7.703  0.0250  0.8799 -0.0033
10905SOL    HW234916   8.387   8.274   7.642  0.2051  1.6091 -0.6894
10906SOL     OW34917   1.701   0.756   7.154  0.1416 -0.2429  0.2361
10906SOL    HW134918   1.766   0.770   7.086  0.6831  0.9472  0.9746
10906SOL    HW234919   1.617   0.771   7.111  0.5008  1.0093 -0.0625
10907SOL     OW34920   8.202   8.071   4.809 -0.4578 -0.4160 -0.5673
10907SOL    HW134921   8.172   8.140   4.868 -0.0373  0.3991 -1.2817
10907SOL    HW234922   8.128   8.010   4.804 -0.9784  0.1780 -0.2094
10908SOL     OW34923   7.597   6.019   1.136  0.5324  0.2675  0.7055
10908SOL    HW134924   7.628   6.096   1.183  0.7739  0.4981  0.1746
10908SOL    HW234925   7.656   5.949   1.164  0.4113  0.3035  1.0644
10909SOL     OW34926   8.859   3.435   0.915  0.2528  0.1858  0.5692
10909SOL    HW134927   8.777   3.483   0.923 -0.5508 -0.9994 -0.2154
10909SOL    HW234928   8.848   3.381   0.837  0.4443 -2.4806  2.2666
10910SOL     OW34929   1.946   3.577   6.659 -0.0117 -0.3576 -0.0565
10910SOL    HW134930   1.855   3.552   6.642  0.0648 -1.0000  0.4358
10910SOL    HW234931   1.943   3.617   6.746 -0.2005  1.7924 -0.9700
10911SOL     OW34932   6.887   2.176   5.488 -0.0469 -0.2438 -0.1796
10911SOL    HW134933   6.844   2.180   5.402  2.7898 -0.2927 -1.6903
10911SOL    HW234934   6.907   2.084   5.501 -0.7650 -0.2868  0.7578
10912SOL     OW34935   4.028   0.212   5.721 -0.4313  0.1568 -0.2759
10912SOL    HW134936   3.971   0.218   5.644 -1.3513 -0.9768  0.2673
10912SOL    HW234937   3.988   0.143   5.774  2.5149 -2.0980 -0.7256
10913SOL     OW34938   2.237   0.970   2.706 -0.0786 -0.0641  0.1778
10913SOL    HW134939   2.169   1.011   2.758 -0.0111 -0.2273  0.3961
10913SOL    HW234940   2.206   0.977   2.616  1.1642  2.9393 -0.1296
10914SOL     OW34941   2.155   0.322   0.413  0.5357  0.4890  0.5521
10914SOL    HW134942   2.188   0.356   0.329 -0.8099  0.4763 -0.0077
10914SOL    HW234943   2.208   0.244   0.429  0.4224  0.1531 -0.5887
10915SOL     OW34944   3.861   6.042   3.487 -0.3269 -0.0866  0.0469
10915SOL    HW134945   3.814   5.959   3.475  0.5531 -0.8788  1.7290
10915SOL    HW234946   3.936   6.035   3.428 -0.9316  0.1036 -0.7751
10916SOL     OW34947   7.209   9.515   4.976 -0.2381  0.3171  0.1388
10916SOL    HW134948   7.198   9.476   5.063  0.3280 -0.1167  0.0204
10916SOL    HW234949   7.195   9.442   4.916  1.9427  0.0125 -0.0600
10917SOL     OW34950   8.017   9.329   4.506 -0.6119  0.1370  0.4534
10917SOL    HW134951   8.085   9.394   4.523  0.0666 -0.2423 -0.7250
10917SOL    HW234952   7.937   9.381   4.493 -0.2442  0.6816  0.3263
10918SOL     OW34953   8.523   6.875   4.752  0.3490 -0.1053 -0.0102
10918SOL    HW134954   8.431   6.903   4.761  0.3301 -0.7078  1.8700
10918SOL    HW234955   8.520   6.780   4.760  0.9620 -0.3194 -1.8213
10919SOL     OW34956   4.509   3.332   3.000 -0.4448  0.3974 -0.2553
10919SOL    HW134957   4.455   3.297   3.071  0.9175 -1.4539 -0.0471
10919SOL    HW234958   4.599   3.313   3.027  0.1543  0.4442 -2.0872
10920SOL     OW34959   4.227   2.031   4.091 -0.7266  0.1078  0.3844
10920SOL    HW134960   4.210   2.045   3.997  1.1448  3.1566  0.3698
10920SOL    HW234961   4.269   1.945   4.095  1.4812  0.9340 -1.9986
10921SOL     OW34962   2.277   2.078   2.706 -0.1696 -0.4908 -0.0944
10921SOL    HW134963   2.197   2.121   2.675 -1.5393 -1.6852  1.5606
10921SOL    HW234964   2.307   2.025   2.632 -1.4183 -0.6868 -0.4798
10922SOL     OW34965   2.376   4.095   1.139  0.5209 -0.7940 -0.0785
10922SOL    HW134966   2.399   4.161   1.203  0.4824 -0.5556 -0.3088
10922SOL    HW234967   2.426   4.118   1.061 -2.4258  1.3239 -1.5143
10923SOL     OW34968   4.832   8.003   7.351 -0.5020  0.0428  0.3875
10923SOL    HW134969   4.834   7.939   7.422  2.5829  0.1358  0.5334
10923SOL    HW234970   4.924   8.028   7.339 -1.1655  1.6367 -2.2065
10924SOL     OW34971   4.274   3.753   1.634 -0.3166 -0.1040 -0.1062
10924SOL    HW134972   4.341   3.692   1.664 -0.5466 -0.9695 -1.3067
10924SOL    HW234973   4.197   3.698   1.618 -0.6987  0.5790 -0.6649
10925SOL     OW34974   2.827   3.763   5.663 -0.1674  0.3814 -0.2094
10925SOL    HW134975   2.767   3.824   5.706  0.1899  0.1729  0.6157
10925SOL    HW234976   2.795   3.756   5.573 -2.7179 -1.3926  0.7042
10926SOL     OW34977   7.818   9.325   4.160  0.0123  0.3102  0.5013
10926SOL    HW134978   7.752   9.394   4.159  1.3699  1.6690  0.6055
10926SOL    HW234979   7.830   9.303   4.252  1.2346  1.6456  0.6961
10927SOL     OW34980   4.327   3.527   2.439  0.0936  0.0606 -0.2952
10927SOL    HW134981   4.336   3.461   2.508  0.1260 -0.1188 -0.4690
10927SOL    HW234982   4.331   3.477   2.357  1.0205  0.3806 -0.4508
10928SOL     OW34983   7.849   4.315   2.815 -0.1824  0.1766 -0.0904
10928SOL    HW134984   7.865   4.396   2.863  0.7534  1.4261 -2.3639
10928SOL    HW234985   7.935   4.289   2.781 -1.0106  0.4266 -2.6227
10929SOL     OW34986   2.044   7.338   6.211 -0.4362 -0.4595 -0.0359
10929SOL    HW134987   2.131   7.304   6.234  1.3912  1.3626 -3.4955
10929SOL    HW234988   1.999   7.263   6.172  0.9796 -0.6665 -1.3946
10930SOL     OW34989   0.200   2.696   6.156 -0.0177 -0.0831 -0.4531
10930SOL    HW134990   0.221   2.631   6.090 -0.3906  0.4366 -1.0929
10930SOL    HW234991   0.108   2.718   6.141  0.4494  1.5884 -1.1532
10931SOL     OW34992   5.962   2.627   0.480 -0.5051  0.6469  0.2498
10931SOL    HW134993   5.896   2.594   0.420 -0.8997 -0.5699  1.2904
10931SOL    HW234994   6.025   2.673   0.425 -1.4714  0.5887 -0.9279
10932SOL     OW34995   1.804   6.325   8.420 -0.3182  0.3847 -0.0700
10932SOL    HW134996   1.756   6.339   8.502  0.2008 -2.0643  0.7463
10932SOL    HW234997   1.737   6.309   8.354 -0.7057  1.1413  0.1319
10933SOL     OW34998   2.929   0.926   3.205  0.1595 -0.1145 -0.2699
10933SOL    HW134999   2.841   0.894   3.226  0.6561 -2.0082 -0.8610
10933SOL    HW235000   2.925   0.948   3.112 -0.0887  1.3252  0.0607
10934SOL     OW35001   0.562   1.081   5.919 -0.1106  0.2789  0.5452
10934SOL    HW135002   0.559   1.140   5.843  1.8094  0.0843  0.2567
10934SOL    HW235003   0.535   1.136   5.992 -1.5155  0.6099 -0.1790
10935SOL     OW35004   8.978   4.566   7.055  0.1497 -0.2003  0.3156
10935SOL    HW135005   9.064   4.605   7.042  1.1726 -1.6842  2.1579
10935SOL    HW235006   8.931   4.630   7.109  0.4114  0.2147  0.0575
10936SOL     OW35007   1.561   3.076   4.821  0.3648 -0.2131 -0.1051
10936SOL    HW135008   1.532   3.088   4.912 -1.2841 -0.9937 -0.4826
10936SOL    HW235009   1.514   2.998   4.792  3.6434 -2.1956 -0.5363
10937SOL     OW35010   4.470   6.018   7.735  0.1381 -0.2576 -0.3203
10937SOL    HW135011   4.478   5.951   7.667  3.1046  0.0719 -0.4153
10937SOL    HW235012   4.412   6.084   7.697 -2.1501 -2.2308 -0.5673
10938SOL     OW35013   4.815   2.379   7.432 -0.7894  0.2702 -0.5293
10938SOL    HW135014   4.878   2.356   7.364  0.4687 -0.2929  0.8040
10938SOL    HW235015   4.775   2.461   7.400 -0.9850 -0.5015 -2.4150
10939SOL     OW35016   7.069   2.558   3.661 -0.0175 -0.3775 -0.4399
10939SOL    HW135017   7.138   2.493   3.675  0.0038 -0.1748  0.4494
10939SOL    HW235018   7.117   2.641   3.654 -0.0202 -0.4632 -1.8449
10940SOL     OW35019   5.845   3.333   8.799 -0.5108 -0.7676 -0.1409
10940SOL    HW135020   5.756   3.363   8.784 -0.0336  0.5552 -0.4226
10940SOL    HW235021   5.846   3.309   8.892 -1.4311 -1.8246 -0.3780
10941SOL     OW35022   6.211   0.834   2.401  0.0947 -0.0852  0.0350
10941SOL    HW135023   6.252   0.889   2.467 -0.8675  0.3085  0.3253
10941SOL    HW235024   6.138   0.792   2.446  0.8841 -1.7396 -0.1372
10942SOL     OW35025   3.932   9.351   4.816  0.6462 -0.4003 -0.6642
10942SOL    HW135026   3.906   9.294   4.888  1.6973 -0.8985 -0.6598
10942SOL    HW235027   3.997   9.410   4.854  0.5826 -0.0999 -1.0090
10943SOL     OW35028   5.007   4.642   2.762  0.1384 -0.0000  0.3217
10943SOL    HW135029   4.916   4.650   2.793  0.0138 -0.9698  0.2311
10943SOL    HW235030   5.060   4.651   2.841 -0.0691 -0.0429  0.4662
10944SOL     OW35031   2.333   8.223   4.384 -0.4601  0.0901 -0.6418
10944SOL    HW135032   2.391   8.234   4.460  1.5531 -0.4420 -2.0025
10944SOL    HW235033   2.246   8.210   4.421  0.6944 -1.8712  1.6781
10945SOL     OW35034   9.462   0.688   7.814  0.4419 -0.0499 -0.0236
10945SOL    HW135035   9.449   0.758   7.878  2.3113 -0.2376  0.6175
10945SOL    HW235036   9.462   0.607   7.865  1.0915 -0.2747 -0.3700
10946SOL     OW35037   7.372   8.526   1.881  0.3774  0.2390  0.2147
10946SOL    HW135038   7.396   8.555   1.793 -0.3504 -0.7866 -0.3402
10946SOL    HW235039   7.291   8.574   1.900  0.1774 -0.0325  0.0526
10947SOL     OW35040   4.001   9.433   9.232 -0.7551 -0.5202 -0.1415
10947SOL    HW135041   4.017   9.434   9.137 -0.1277 -0.6490 -0.0382
10947SOL    HW235042   3.922   9.380   9.242 -1.8409  0.9103 -0.7360
10948SOL     OW35043   4.141   9.443   4.988  0.0960  0.2704 -0.0424
10948SOL    HW135044   4.117   9.398   5.069 -0.4232 -1.9753 -1.3583
10948SOL    HW235045   4.215   9.393   4.954  0.2391  1.1217 -1.0049
10949SOL     OW35046   8.485   7.398   3.643 -0.2575  0.2230  0.0974
10949SOL    HW135047   8.486   7.311   3.681 -0.0486 -0.1098 -0.6592
10949SOL    HW235048   8.431   7.450   3.703 -2.7221 -1.0855 -0.8856
10950SOL     OW35049   1.369   4.025   9.565 -0.1663 -0.2275  0.5981
10950SOL    HW135050   1.424   3.946   9.570 -0.3270 -0.5023 -1.2938
10950SOL    HW235051   1.381   4.067   9.650 -0.1061 -2.3019  1.6870
10951SOL     OW35052   6.467   8.074   1.305  0.3892  1.2147  0.0852
10951SOL    HW135053   6.462   8.014   1.232 -1.6536  2.3776 -0.8137
10951SOL    HW235054   6.482   8.019   1.382  2.2447 -0.0480 -1.1100
10952SOL     OW35055   2.581   4.055   4.493  0.3586  0.0959  0.0628
10952SOL    HW135056   2.564   3.983   4.433 -1.3529  0.3232  0.2156
10952SOL    HW235057   2.665   4.034   4.534 -0.1880 -1.8937  0.2439
10953SOL     OW35058   7.108   7.191   3.786 -0.0476 -0.1446 -0.4714
10953SOL    HW135059   7.122   7.212   3.878  0.5214  2.3654 -1.0618
10953SOL    HW235060   7.196   7.179   3.751 -0.2497 -0.7637 -0.7868
10954SOL     OW35061   7.526   1.603   7.986  0.1291  1.1711  0.1226
10954SOL    HW135062   7.551   1.590   8.078 -2.9125  0.0573  0.9160
10954SOL    HW235063   7.558   1.525   7.941 -1.3197  0.0273  0.9902
10955SOL     OW35064   3.895   7.331   8.863  0.0410  0.4779 -0.2619
10955SOL    HW135065   3.854   7.416   8.850  0.1797  0.6717  0.5079
10955SOL    HW235066   3.844   7.271   8.808 -0.2184  1.0075 -0.6086
10956SOL     OW35067   8.825   5.642   8.072 -0.3710  0.2051 -0.5968
10956SOL    HW135068   8.743   5.645   8.121  0.8255  2.9122  1.5370
10956SOL    HW235069   8.809   5.699   7.996  0.1437  2.9491  1.1869
10957SOL     OW35070   4.204   0.418   2.885  0.1867  0.0147 -0.3259
10957SOL    HW135071   4.164   0.333   2.903  1.0113 -0.8194 -2.1437
10957SOL    HW235072   4.210   0.422   2.789  2.1743  1.1479 -0.2152
10958SOL     OW35073   1.585   0.495   1.676  0.3092  0.1809 -0.4371
10958SOL    HW135074   1.520   0.564   1.666 -0.7817 -1.1141 -3.0945
10958SOL    HW235075   1.657   0.522   1.619  1.6930  0.9965  1.5572
10959SOL     OW35076   0.606   4.073   1.974  0.7454 -0.8273  0.0887
10959SOL    HW135077   0.684   4.037   2.017 -0.4020 -1.6314  1.6134
10959SOL    HW235078   0.545   3.999   1.971  0.1800 -0.3217 -1.4595
10960SOL     OW35079   8.611   0.366   6.869 -0.2236 -0.7068 -0.0768
10960SOL    HW135080   8.692   0.346   6.916  0.4175 -0.0404 -0.8568
10960SOL    HW235081   8.597   0.289   6.813  0.6664 -0.2439 -0.9762
10961SOL     OW35082   7.756   8.369   2.558  0.1434 -0.4623 -0.0044
10961SOL    HW135083   7.787   8.458   2.540  1.0066 -0.6628  0.4640
10961SOL    HW235084   7.798   8.345   2.640 -0.3811 -1.1673  0.0666
10962SOL     OW35085   8.134   1.353   0.392 -0.1910  0.1299 -0.1444
10962SOL    HW135086   8.085   1.340   0.473 -1.6678 -0.0529 -1.0330
10962SOL    HW235087   8.191   1.276   0.386 -1.3625 -0.7515 -0.1662
10963SOL     OW35088   1.077   0.540   1.409 -0.0886 -0.0991 -0.6493
10963SOL    HW135089   1.029   0.504   1.335 -2.9230  0.0642  0.9809
10963SOL    HW235090   1.068   0.473   1.477  0.7495  0.6018  0.1763
10964SOL     OW35091   8.562   1.917   6.049  0.3290  0.5183  0.0681
10964SOL    HW135092   8.483   1.874   6.083  1.4362 -0.9915  0.8368
10964SOL    HW235093   8.557   1.904   5.954  1.0221 -2.1328  0.3228
10965SOL     OW35094   3.856   7.240   6.458 -0.5079  0.6186  0.3706
10965SOL    HW135095   3.815   7.232   6.372  2.1568  2.0526 -1.1482
10965SOL    HW235096   3.816   7.319   6.495  0.8012  2.0478 -1.1220
10966SOL     OW35097   6.321   8.193   6.983  0.1267 -0.0982 -0.8943
10966SOL    HW135098   6.304   8.254   6.911  0.2211  2.5842  1.1665
10966SOL    HW235099   6.416   8.183   6.984  0.1519  0.1224 -0.9766
10967SOL     OW35100   2.619   7.616   6.014  0.2662  0.1402  0.2685
10967SOL    HW135101   2.680   7.589   5.945  0.1987  0.9104 -0.1038
10967SOL    HW235102   2.611   7.539   6.070  2.0370  0.1772  0.6515
10968SOL     OW35103   6.340   4.011   4.851 -0.1922 -0.2704  0.1633
10968SOL    HW135104   6.335   3.920   4.821 -1.6786 -0.8373  1.9515
10968SOL    HW235105   6.251   4.034   4.875  0.4076  1.1235  1.2364
10969SOL     OW35106   8.952   8.272   6.546 -0.1375  0.4860  0.1095
10969SOL    HW135107   8.971   8.209   6.615 -0.0951  0.1763 -0.1816
10969SOL    HW235108   9.038   8.306   6.521 -0.0222 -0.2746 -0.6028
10970SOL     OW35109   8.568   7.062   0.634 -0.0677  0.2213 -0.0539
10970SOL    HW135110   8.499   7.038   0.696 -0.4473 -1.2448 -0.9809
10970SOL    HW235111   8.635   6.995   0.647  0.0835  0.2115 -0.8400
10971SOL     OW35112   2.737   6.433   1.255  0.0441  0.9012 -0.0292
10971SOL    HW135113   2.785   6.494   1.199  0.5557 -0.2824 -0.9239
10971SOL    HW235114   2.649   6.429   1.217  0.8860 -1.2829 -1.9549
10972SOL     OW35115   0.147   0.419   4.251  0.0365  0.4535  0.0385
10972SOL    HW135116   0.146   0.497   4.195  0.1310  0.3892 -0.0515
10972SOL    HW235117   0.059   0.382   4.241 -0.6832  1.6034  1.5520
10973SOL     OW35118   3.895   2.260   4.875 -0.3199  0.3707 -0.2537
10973SOL    HW135119   3.833   2.307   4.930 -0.5010 -0.6939  0.4971
10973SOL    HW235120   3.979   2.270   4.919 -0.6286 -1.2765  0.7803
10974SOL     OW35121   5.123   2.043   4.731 -0.2295  0.2308 -0.0689
10974SOL    HW135122   5.119   1.951   4.705 -1.7034 -0.0439  1.0014
10974SOL    HW235123   5.051   2.084   4.684  0.9265  1.0405 -1.1797
10975SOL     OW35124   7.889   2.503   6.535 -0.5230  0.3703  0.3266
10975SOL    HW135125   7.958   2.511   6.469 -0.0516  0.2937  0.8056
10975SOL    HW235126   7.840   2.425   6.508 -0.2407  0.2511  0.1541
10976SOL     OW35127   2.167   8.511   3.997  0.2101 -0.2540 -0.5122
10976SOL    HW135128   2.174   8.463   3.914  0.1039 -0.5894 -0.3265
10976SOL    HW235129   2.255   8.547   4.011  0.6849 -1.5620  0.0526
10977SOL     OW35130   3.406   8.867   7.964  0.0399  0.0335 -0.0152
10977SOL    HW135131   3.417   8.792   7.906 -1.2031 -0.3237  0.1818
10977SOL    HW235132   3.457   8.845   8.042  0.0214 -0.4086 -0.1265
10978SOL     OW35133   9.230   4.654   7.001  0.1883 -0.2884  0.3228
10978SOL    HW135134   9.282   4.580   6.970  0.0986 -0.1443 -0.1783
10978SOL    HW235135   9.271   4.731   6.960 -0.1498 -0.1317  0.2751
10979SOL     OW35136   4.347   3.571   0.454  0.6880 -0.1784 -0.5213
10979SOL    HW135137   4.337   3.477   0.445  0.7734 -0.1844 -0.5574
10979SOL    HW235138   4.441   3.584   0.472  0.7109 -0.0886 -0.6989
10980SOL     OW35139   8.918   4.101   4.258  0.7707 -0.0247 -0.0183
10980SOL    HW135140   8.947   4.174   4.205 -0.6100 -1.0312 -2.3304
10980SOL    HW235141   8.998   4.066   4.297  2.0469  0.1728 -2.2851
10981SOL     OW35142   5.322   4.342   9.499 -0.6388  0.0216 -0.5293
10981SOL    HW135143   5.307   4.436   9.487 -1.5103 -0.0220  0.0758
10981SOL    HW235144   5.295   4.325   9.589  0.0902 -0.7062 -0.4380
10982SOL     OW35145   7.079   1.575   5.219 -0.0995 -0.4836  0.3128
10982SOL    HW135146   7.075   1.655   5.271  0.2708 -1.2862  1.6372
10982SOL    HW235147   7.091   1.505   5.284 -2.8495 -1.8983 -0.5406
10983SOL     OW35148   3.348   6.992   8.727 -0.0029  0.2224 -0.0669
10983SOL    HW135149   3.430   6.944   8.727  0.8040  1.5131  1.3257
10983SOL    HW235150   3.282   6.927   8.753  0.9169 -0.3556  0.9011
10984SOL     OW35151   4.022   6.634   0.213  0.2380 -0.2386  0.1928
10984SOL    HW135152   4.099   6.643   0.158  0.4433 -0.2720  0.4729
10984SOL    HW235153   3.988   6.546   0.194  1.1023 -0.7988  1.1293
10985SOL     OW35154   2.597   0.889   4.936 -0.2623  0.9525 -0.0323
10985SOL    HW135155   2.641   0.932   4.863 -0.4037  2.3358  0.6668
10985SOL    HW235156   2.647   0.916   5.013 -0.7480  0.3746  0.4987
10986SOL     OW35157   8.565   2.819   3.066 -0.7202 -0.5448  0.5317
10986SOL    HW135158   8.482   2.868   3.070 -1.6275 -2.0878  4.0088
10986SOL    HW235159   8.598   2.821   3.156  3.2620  0.2099 -0.7714
10987SOL     OW35160   5.770   9.065   6.589 -0.5021 -0.1574  0.6723
10987SOL    HW135161   5.849   9.045   6.637  0.8972  1.9710 -0.5806
10987SOL    HW235162   5.801   9.102   6.506 -2.8085 -0.1575 -0.2669
10988SOL     OW35163   2.191   1.844   4.580 -0.0201  0.2053 -0.0524
10988SOL    HW135164   2.167   1.780   4.647  0.4444  0.2404  0.1439
10988SOL    HW235165   2.140   1.922   4.602  0.9406  0.5790  0.8907
10989SOL     OW35166   4.669   1.411   7.300 -0.2766  0.3126 -0.1657
10989SOL    HW135167   4.657   1.497   7.341  1.7908  0.1697  0.8986
10989SOL    HW235168   4.711   1.430   7.216 -0.6973  0.4015 -0.3538
10990SOL     OW35169   2.605   9.114   5.333 -0.1970  0.1221  0.1092
10990SOL    HW135170   2.516   9.143   5.314 -1.9342 -4.8257 -0.9682
10990SOL    HW235171   2.642   9.094   5.247  0.0713 -2.2277  0.6977
10991SOL     OW35172   6.406   8.778   1.587 -0.0318  0.4541  0.3972
10991SOL    HW135173   6.491   8.738   1.569  0.3092  1.3573 -0.0442
10991SOL    HW235174   6.361   8.715   1.644  0.1999 -0.8919 -0.8516
10992SOL     OW35175   3.493   8.410   1.516 -0.2573 -0.1265 -0.1658
10992SOL    HW135176   3.542   8.488   1.492 -0.8506 -0.2558 -1.9881
10992SOL    HW235177   3.556   8.356   1.563  0.4957  0.9366  0.0816
10993SOL     OW35178   6.415   6.596   0.236 -0.4574  0.2833 -0.0979
10993SOL    HW135179   6.410   6.681   0.192 -2.3150  0.3153  0.0764
10993SOL    HW235180   6.478   6.546   0.184 -0.1620  1.3983 -0.8587
10994SOL     OW35181   7.087   1.205   3.829 -0.2155  0.0239 -0.3505
10994SOL    HW135182   7.167   1.241   3.867 -0.1240  1.0960 -1.5072
10994SOL    HW235183   7.060   1.137   3.891 -1.2743  3.0625  2.8508
10995SOL     OW35184   8.197   6.777   8.285  0.6148 -0.0020  0.1285
10995SOL    HW135185   8.276   6.755   8.334  2.2988  0.8681 -1.9954
10995SOL    HW235186   8.217   6.862   8.245 -1.3961  0.2333 -0.4881
10996SOL     OW35187   7.669   9.194   4.697  0.1180 -0.2918  0.2409
10996SOL    HW135188   7.696   9.285   4.710  0.9490 -0.6824  1.4138
10996SOL    HW235189   7.743   9.154   4.650  0.3858 -0.6944  0.9909
10997SOL     OW35190   4.844   7.389   4.107  0.1355 -0.1508  0.1998
10997SOL    HW135191   4.750   7.390   4.089  0.2375  1.0057 -0.3081
10997SOL    HW235192   4.868   7.296   4.102 -0.4637 -0.2287 -2.4509
10998SOL     OW35193   7.630   9.212   3.578  0.0297 -0.1946 -0.0207
10998SOL    HW135194   7.542   9.227   3.545  0.6370 -0.8138 -2.1090
10998SOL    HW235195   7.687   9.239   3.506  1.5164 -0.6249  0.9436
10999SOL     OW35196   5.704   4.834   2.202 -0.3590 -0.1131  0.2223
10999SOL    HW135197   5.699   4.743   2.174 -3.3041 -1.2302  3.6432
10999SOL    HW235198   5.640   4.880   2.147 -0.5891 -0.6343  0.0470
11000SOL     OW35199   0.480   0.466   9.525  0.2215 -0.5068  0.4837
11000SOL    HW135200   0.398   0.493   9.483  1.2540 -0.0445 -1.3812
11000SOL    HW235201   0.480   0.513   9.608 -0.8591  0.4675 -0.0196
11001SOL     OW35202   2.621   1.044   8.395  0.0698 -0.7660 -0.1122
11001SOL    HW135203   2.543   0.994   8.418 -0.4154  0.3977  0.8999
11001SOL    HW235204   2.600   1.084   8.311 -0.3265 -0.6483  0.0418
11002SOL     OW35205   6.076   8.714   4.495  0.1823 -0.1493 -0.2344
11002SOL    HW135206   6.047   8.624   4.513  0.9098 -0.5369 -0.9591
11002SOL    HW235207   6.165   8.718   4.531  0.8690 -0.3094 -1.8238
11003SOL     OW35208   5.162   6.625   2.276  0.0266 -0.5407  0.5225
11003SOL    HW135209   5.204   6.580   2.203  2.2341  0.0355  1.3539
11003SOL    HW235210   5.112   6.696   2.235 -1.9227 -2.4669 -0.6497
11004SOL     OW35211   2.296   0.897   1.262 -0.1452 -0.1608  0.0437
11004SOL    HW135212   2.214   0.944   1.247  0.3960  0.6664 -0.4181
11004SOL    HW235213   2.328   0.876   1.174 -0.2237 -1.1393  0.2369
11005SOL     OW35214   0.851   7.127   6.210  0.2695  0.3031 -0.0718
11005SOL    HW135215   0.780   7.169   6.258  0.0144  0.3078 -0.4532
11005SOL    HW235216   0.815   7.042   6.185  0.4938  0.1957 -0.0283
11006SOL     OW35217   2.071   4.615   0.643  0.8746 -0.4377  0.6463
11006SOL    HW135218   2.078   4.569   0.560  0.4428  0.0246  0.3540
11006SOL    HW235219   2.154   4.663   0.651  0.6413  0.0410  0.1720
11007SOL     OW35220   8.334   9.403   8.256  0.1884 -0.0655 -0.1034
11007SOL    HW135221   8.335   9.457   8.177 -1.7509  1.7119  0.9935
11007SOL    HW235222   8.245   9.369   8.261  1.3022 -3.5637 -0.7351
11008SOL     OW35223   7.235   3.928   6.547 -0.1866  0.1845  0.2306
11008SOL    HW135224   7.228   4.024   6.550 -1.5584  0.0875  0.9352
11008SOL    HW235225   7.322   3.912   6.511  1.4453  1.7081  3.0939
11009SOL     OW35226   0.603   5.505   9.383  0.1438  0.5236 -0.6106
11009SOL    HW135227   0.668   5.539   9.444  0.3784  1.9373 -1.5901
11009SOL    HW235228   0.651   5.442   9.330 -0.0956 -0.8213  0.7064
11010SOL     OW35229   3.700   0.537   4.721  0.0095  0.5174 -0.1986
11010SOL    HW135230   3.648   0.470   4.766 -1.4755  1.4694 -0.4453
11010SOL    HW235231   3.782   0.539   4.770  0.1712 -1.5766 -0.2733
11011SOL     OW35232   1.341   5.299   1.803  0.0222 -0.4720  0.4793
11011SOL    HW135233   1.270   5.271   1.862 -2.3494  1.0289 -1.4739
11011SOL    HW235234   1.356   5.390   1.826  0.2470 -0.3503 -0.1520
11012SOL     OW35235   1.085   7.821   4.921 -0.5898  0.0743 -0.0423
11012SOL    HW135236   1.053   7.746   4.871  0.1153 -0.7736  0.7313
11012SOL    HW235237   1.072   7.795   5.013  1.1708  0.1893  0.2720
11013SOL     OW35238   0.810   2.199   1.675  0.5800  0.1161 -0.2090
11013SOL    HW135239   0.770   2.271   1.627 -0.4314 -1.2978 -1.6037
11013SOL    HW235240   0.769   2.120   1.639  1.9164 -1.1953  0.9734
11014SOL     OW35241   1.584   4.978   5.923 -0.2874  0.2152 -0.4018
11014SOL    HW135242   1.507   5.036   5.925 -0.2243  0.4270 -2.4133
11014SOL    HW235243   1.658   5.037   5.940 -0.5545 -0.1879  2.9093
11015SOL     OW35244   8.448   0.046   5.842  0.1694  0.4575  0.3168
11015SOL    HW135245   8.436   0.138   5.818  1.0765  0.5014 -0.0113
11015SOL    HW235246   8.359   0.009   5.839  0.0097  0.8917 -1.3464
11016SOL     OW35247   9.156   7.714   7.427 -0.1162  0.3842 -0.5297
11016SOL    HW135248   9.092   7.773   7.387 -1.0394 -0.9364 -1.0336
11016SOL    HW235249   9.140   7.722   7.521  0.4868  1.7132 -0.5114
11017SOL     OW35250   2.636   9.464   3.085  0.2188  0.4978 -0.1505
11017SOL    HW135251   2.679   9.549   3.076  0.4368  0.5781  1.3481
11017SOL    HW235252   2.682   9.407   3.024  0.8891  1.1654 -0.2814
11018SOL     OW35253   5.325   1.639   2.194 -0.1282  0.2839  0.2339
11018SOL    HW135254   5.416   1.657   2.217  0.4400 -1.7419 -0.2384
11018SOL    HW235255   5.299   1.712   2.137  1.0349  1.1071  0.7300
11019SOL     OW35256   2.489   9.316   8.882 -0.4792  0.4269 -0.3403
11019SOL    HW135257   2.472   9.381   8.949  0.1472 -0.1350  0.3763
11019SOL    HW235258   2.504   9.235   8.930 -0.6499 -0.1211 -1.1900
11020SOL     OW35259   6.211   9.518   3.567  0.3818  0.5050  0.3710
11020SOL    HW135260   6.163   9.459   3.626 -3.0429  0.4740 -2.1653
11020SOL    HW235261   6.246   9.461   3.499  0.9962  0.9476  0.3113
11021SOL     OW35262   8.827   8.418   6.817 -0.0357 -0.1429  0.0662
11021SOL    HW135263   8.888   8.346   6.834  2.3090  1.4734 -0.9076
11021SOL    HW235264   8.830   8.429   6.722 -1.2313  0.5380  0.0921
11022SOL     OW35265   5.085   5.260   9.071 -0.4006 -0.4719  0.2687
11022SOL    HW135266   5.167   5.282   9.027 -0.8640 -2.0217 -1.4842
11022SOL    HW235267   5.018   5.266   9.003 -1.5273 -0.7308  1.3068
11023SOL     OW35268   9.028   2.761   8.423  0.0027  0.4561 -0.5248
11023SOL    HW135269   9.091   2.739   8.491  0.1753  0.1266 -0.7897
11023SOL    HW235270   8.951   2.708   8.444  0.1757  0.1010 -0.7758
11024SOL     OW35271   6.427   4.514   7.027  0.4738  0.2541 -0.2808
11024SOL    HW135272   6.436   4.521   6.932 -2.1319  0.8386 -0.5722
11024SOL    HW235273   6.399   4.423   7.042 -0.4407  0.5366 -0.2321
11025SOL     OW35274   4.682   7.944   4.726  0.0393  0.5737  0.3613
11025SOL    HW135275   4.618   7.901   4.784 -0.2063  0.6564  0.1559
11025SOL    HW235276   4.631   8.014   4.684 -0.3446 -0.7608 -1.5266
11026SOL     OW35277   2.470   1.989   2.076 -0.2649  0.4541 -0.4786
11026SOL    HW135278   2.390   1.958   2.034  0.1744 -0.9019 -0.3726
11026SOL    HW235279   2.497   2.065   2.025 -0.3561 -0.4734 -1.9672
11027SOL     OW35280   4.453   8.248   3.085 -0.5789 -0.4594  0.4144
11027SOL    HW135281   4.518   8.181   3.107 -0.3014 -0.6122 -0.7827
11027SOL    HW235282   4.463   8.314   3.153 -0.1648 -1.1553  1.0583
11028SOL     OW35283   8.382   3.213   2.485 -0.1637  0.3762  0.0539
11028SOL    HW135284   8.438   3.204   2.562 -0.0663  1.4004  0.1267
11028SOL    HW235285   8.293   3.219   2.521 -0.0628  1.5341  0.1641
11029SOL     OW35286   7.176   0.818   6.531 -0.3281 -0.3453 -0.1884
11029SOL    HW135287   7.089   0.781   6.519 -0.8353  0.7680 -0.0797
11029SOL    HW235288   7.197   0.799   6.623  0.5178 -2.5604 -0.7764
11030SOL     OW35289   9.476   1.204   6.251  0.5316 -0.0145 -0.4344
11030SOL    HW135290   9.466   1.252   6.333  0.2465  2.9563 -2.0625
11030SOL    HW235291   9.566   1.222   6.223  0.4980 -0.6574 -0.9815
11031SOL     OW35292   6.557   3.705   2.188  0.1353  0.1338 -0.3809
11031SOL    HW135293   6.496   3.719   2.260  1.4460  0.5815  0.6906
11031SOL    HW235294   6.585   3.614   2.197  1.1127  0.4961  0.3543
11032SOL     OW35295   5.527   3.418   5.759 -0.6193 -0.1770  0.2383
11032SOL    HW135296   5.621   3.403   5.751 -0.4910 -1.1558  2.8230
11032SOL    HW235297   5.494   3.411   5.669  1.6041 -0.8640 -0.5866
11033SOL     OW35298   8.621   7.066   5.226 -0.2531 -0.2713  0.0178
11033SOL    HW135299   8.601   6.973   5.222  0.7513 -0.4794 -0.7410
11033SOL    HW235300   8.621   7.094   5.134 -1.0446  0.6013  0.2623
11034SOL     OW35301   3.189   4.034   4.083  0.5101  0.1626 -0.2817
11034SOL    HW135302   3.218   4.113   4.036 -1.7816  0.4548 -1.3559
11034SOL    HW235303   3.154   3.977   4.014  0.2602 -0.9161  0.7128
11035SOL     OW35304   4.604   3.413   4.952 -0.5623 -0.4284 -0.2072
11035SOL    HW135305   4.552   3.333   4.962 -0.8092 -0.3658 -0.9631
11035SOL    HW235306   4.605   3.430   4.858 -0.9411  0.7349 -0.0180
11036SOL     OW35307   9.226   4.738   7.280 -0.7953 -0.5692  0.1728
11036SOL    HW135308   9.131   4.753   7.272 -0.3911  2.9335  0.5037
11036SOL    HW235309   9.249   4.693   7.199 -2.4297  0.5955 -1.0221
11037SOL     OW35310   3.986   8.529   2.273  0.4925  0.0031  0.0628
11037SOL    HW135311   3.927   8.500   2.343  2.8820  0.0487  2.2208
11037SOL    HW235312   3.957   8.617   2.252 -0.5499 -0.1849  0.6552
11038SOL     OW35313   8.905   5.577   1.769 -0.5352 -0.0425  0.5942
11038SOL    HW135314   8.971   5.643   1.788  0.5631 -1.1002  0.5623
11038SOL    HW235315   8.830   5.627   1.737  0.5734  1.1304 -0.2842
11039SOL     OW35316   4.370   5.481   5.372  0.2426 -0.4491  0.8122
11039SOL    HW135317   4.317   5.559   5.385  0.6855  0.0155 -0.0523
11039SOL    HW235318   4.456   5.514   5.347  0.2337 -1.1967 -0.3226
11040SOL     OW35319   5.070   6.655   8.696  0.3574  0.0823 -0.1045
11040SOL    HW135320   5.009   6.601   8.647  1.1029 -0.0619 -0.9103
11040SOL    HW235321   5.127   6.593   8.741 -0.4099  0.2095  1.1031
11041SOL     OW35322   0.978   0.569   9.069  0.0374 -0.2892 -0.1213
11041SOL    HW135323   0.965   0.512   9.145 -0.3437 -0.2890 -0.1861
11041SOL    HW235324   0.902   0.628   9.070  0.6808  0.5544  0.2412
11042SOL     OW35325   6.182   0.719   8.556  0.3125  0.2960 -0.2825
11042SOL    HW135326   6.094   0.722   8.594  0.4077  1.3501 -0.1059
11042SOL    HW235327   6.171   0.673   8.473 -0.2769 -0.2055  0.0662
11043SOL     OW35328   7.168   1.115   5.459 -0.5297  0.3311  0.0821
11043SOL    HW135329   7.081   1.150   5.481 -0.2439  2.0809 -1.3931
11043SOL    HW235330   7.195   1.164   5.382  1.1276 -1.2915 -0.4374
11044SOL     OW35331   2.437   2.380   1.420 -0.5196  0.6725  0.3793
11044SOL    HW135332   2.425   2.457   1.365 -1.5044 -0.4335 -1.0155
11044SOL    HW235333   2.349   2.349   1.438 -0.1288 -0.3657  0.5624
11045SOL     OW35334   6.861   7.433   5.045  0.0413  0.2148  0.5774
11045SOL    HW135335   6.879   7.401   5.133  0.5915  0.7714  0.6754
11045SOL    HW235336   6.946   7.434   5.002 -0.2614 -0.3073 -0.0563
11046SOL     OW35337   1.809   3.010   5.333 -0.5406  0.0726  0.0448
11046SOL    HW135338   1.864   3.072   5.381 -1.7689  0.7273  0.6705
11046SOL    HW235339   1.861   2.930   5.329  0.3003  0.5487  0.9463
11047SOL     OW35340   9.138   4.026   6.684 -0.0949 -0.6298  0.1915
11047SOL    HW135341   9.085   4.106   6.691 -0.0594 -0.7119  1.8839
11047SOL    HW235342   9.078   3.961   6.646 -1.1038 -0.5984  1.6392
11048SOL     OW35343   9.226   3.631   0.309 -0.1642  0.1974  0.3009
11048SOL    HW135344   9.230   3.550   0.361 -0.6905 -0.1138 -0.1290
11048SOL    HW235345   9.309   3.633   0.263  0.3998  0.5852  1.2949
11049SOL     OW35346   8.397   8.586   1.493  0.4343  0.5113 -0.5468
11049SOL    HW135347   8.377   8.679   1.498 -0.9736  0.2236 -0.6513
11049SOL    HW235348   8.409   8.568   1.400 -0.6217  0.3287 -0.6555
11050SOL     OW35349   2.144   0.789   3.116 -0.2692  0.0177 -0.3732
11050SOL    HW135350   2.131   0.812   3.024  2.3621 -1.1314 -1.1197
11050SOL    HW235351   2.154   0.874   3.160  0.0497  0.5521 -1.4325
11051SOL     OW35352   4.378   7.334   0.334  0.4680 -0.6995 -0.0990
11051SOL    HW135353   4.419   7.324   0.248 -1.1829 -0.5002 -0.9415
11051SOL    HW235354   4.354   7.426   0.339 -0.8153 -1.0215 -0.0815
11052SOL     OW35355   1.590   5.270   6.652 -0.3974 -0.4786 -0.1984
11052SOL    HW135356   1.660   5.216   6.616  0.1497 -0.5023  0.8539
11052SOL    HW235357   1.513   5.214   6.649  0.3694 -1.7825  1.8368
11053SOL     OW35358   0.416   3.249   5.863  0.2094 -0.5833 -0.0498
11053SOL    HW135359   0.380   3.322   5.913 -0.5327 -2.0552  1.7091
11053SOL    HW235360   0.339   3.199   5.835  0.7149 -1.8131  0.6496
11054SOL     OW35361   7.259   2.478   4.137 -0.0516  0.5482  0.4198
11054SOL    HW135362   7.223   2.554   4.184  1.0881  1.0953  0.4491
11054SOL    HW235363   7.253   2.502   4.045 -2.3384 -0.5492  0.2313
11055SOL     OW35364   3.345   4.291   8.404  0.1874  0.5989  0.0994
11055SOL    HW135365   3.438   4.284   8.423 -0.0245 -0.6904  0.7763
11055SOL    HW235366   3.342   4.325   8.314  1.3127  0.3355 -0.0583
11056SOL     OW35367   0.655   9.114   3.489  0.8614  0.3405 -0.3804
11056SOL    HW135368   0.711   9.166   3.548 -0.2630  0.0253  1.0283
11056SOL    HW235369   0.678   9.023   3.508 -1.6251  0.0494  1.9795
11057SOL     OW35370   6.021   3.732   1.477  0.1246 -0.5989  0.1350
11057SOL    HW135371   6.098   3.680   1.499 -0.1250 -0.3250  1.8120
11057SOL    HW235372   6.053   3.800   1.419  0.9571 -1.0716  0.0280
11058SOL     OW35373   1.188   4.510   7.049  0.1683  0.1269  0.3914
11058SOL    HW135374   1.118   4.459   7.090  1.0352 -0.4217  1.2273
11058SOL    HW235375   1.166   4.601   7.067  0.3896 -0.0885  1.8786
11059SOL     OW35376   5.087   1.929   1.879 -0.1701 -0.0084 -0.0529
11059SOL    HW135377   5.052   1.856   1.828  0.5697  0.0994 -0.7362
11059SOL    HW235378   5.139   1.888   1.948 -0.7873 -0.1439  0.3414
11060SOL     OW35379   7.364   1.882   5.494  0.2619 -0.1452 -0.5870
11060SOL    HW135380   7.433   1.906   5.556 -0.0649 -0.8297  0.0538
11060SOL    HW235381   7.410   1.833   5.425  0.1530 -2.6291  0.9901
11061SOL     OW35382   8.725   0.218   8.723  0.5842  0.0201  0.0806
11061SOL    HW135383   8.721   0.277   8.648 -0.0089 -0.1060  0.0112
11061SOL    HW235384   8.744   0.276   8.798  1.1022  0.1538 -0.1439
11062SOL     OW35385   6.514   3.174   5.672  0.4067 -1.2518 -0.3922
11062SOL    HW135386   6.436   3.202   5.719  0.3952 -4.3565  1.7225
11062SOL    HW235387   6.587   3.204   5.726  0.6324 -0.3336 -1.1788
11063SOL     OW35388   2.350   7.641   6.345  0.2306  0.0141 -0.3192
11063SOL    HW135389   2.266   7.674   6.313  0.9995  0.8462 -1.5501
11063SOL    HW235390   2.396   7.719   6.375  0.1916 -0.5562  1.3590
11064SOL     OW35391   1.656   1.571   4.554  0.2908 -0.1659 -0.4734
11064SOL    HW135392   1.600   1.642   4.522  0.3465  0.8263  1.4804
11064SOL    HW235393   1.597   1.498   4.570  0.4099 -1.1674 -3.8360
11065SOL     OW35394   4.302   1.700   4.065  0.4259 -0.8444  0.4565
11065SOL    HW135395   4.242   1.647   4.012 -0.6256  0.3838  0.3888
11065SOL    HW235396   4.377   1.643   4.079 -0.0708 -1.8572 -0.8005
11066SOL     OW35397   6.858   1.151   5.833 -0.1606 -0.3908 -0.3203
11066SOL    HW135398   6.777   1.188   5.799 -0.4387 -0.9354 -0.2703
11066SOL    HW235399   6.865   1.065   5.791  1.1180  0.2079 -1.4130
11067SOL     OW35400   6.511   5.381   8.982 -0.0278  0.4514 -0.2328
11067SOL    HW135401   6.556   5.459   9.015  1.2986  0.0094 -0.9230
11067SOL    HW235402   6.506   5.322   9.057 -0.0170  0.7508  0.0065
11068SOL     OW35403   8.743   4.549   6.864 -0.4893 -0.2992 -0.0054
11068SOL    HW135404   8.754   4.479   6.800 -0.1624 -1.2853  1.0774
11068SOL    HW235405   8.830   4.559   6.904 -0.9781 -0.6413  1.1913
11069SOL     OW35406   0.106   3.097   3.052  0.3254 -0.1991  1.4915
11069SOL    HW135407   0.135   3.183   3.082  1.2787  0.1283 -0.2458
11069SOL    HW235408   0.027   3.113   3.001 -0.8422 -0.6681  3.0547
11070SOL     OW35409   4.820   0.254   3.608 -0.3327 -0.3235 -0.3076
11070SOL    HW135410   4.911   0.273   3.629 -0.7582 -0.5624  1.9980
11070SOL    HW235411   4.773   0.334   3.632 -0.9880 -1.0140  0.8121
11071SOL     OW35412   8.156   0.125   7.229  0.0256 -0.2366  0.2926
11071SOL    HW135413   8.191   0.209   7.201  1.0288  0.6119  3.6024
11071SOL    HW235414   8.067   0.144   7.260  0.0888 -0.4781  0.6338
11072SOL     OW35415   0.299   3.896   2.340  0.4975  0.3872  0.5578
11072SOL    HW135416   0.218   3.847   2.329 -0.1614  1.9194 -2.8237
11072SOL    HW235417   0.354   3.867   2.267  0.9149  3.0099 -0.2603
11073SOL     OW35418   3.521   7.129   7.898  0.4631 -0.0234  0.2725
11073SOL    HW135419   3.478   7.064   7.843  1.4883 -0.5186  0.0246
11073SOL    HW235420   3.482   7.117   7.985 -0.6830  0.3088 -0.1775
11074SOL     OW35421   2.428   4.296   6.378  0.1065 -0.4551  0.8824
11074SOL    HW135422   2.349   4.290   6.432  1.4647 -1.3021  2.8580
11074SOL    HW235423   2.476   4.371   6.413  0.9563 -0.9477  0.8078
11075SOL     OW35424   6.659   9.079   4.637  0.2291  0.1171  0.7216
11075SOL    HW135425   6.564   9.091   4.627  0.3837  2.1126  1.1613
11075SOL    HW235426   6.672   9.068   4.731  0.2327 -3.0770  0.4596
11076SOL     OW35427   6.099   6.739   3.662 -0.5027  0.3316  0.2532
11076SOL    HW135428   6.176   6.779   3.622  0.8611 -1.3498  1.0401
11076SOL    HW235429   6.032   6.807   3.662  0.6438  1.5050 -1.4381
11077SOL     OW35430   3.872   1.193   9.178  0.6482 -0.3824  0.0824
11077SOL    HW135431   3.874   1.257   9.249  0.3033 -1.2769  0.9299
11077SOL    HW235432   3.806   1.129   9.205  0.4553 -0.6978 -1.0899
11078SOL     OW35433   6.809   6.660   2.367  0.0827  0.0106 -0.0872
11078SOL    HW135434   6.775   6.622   2.286  1.2512 -1.4125  0.0405
11078SOL    HW235435   6.821   6.752   2.347 -0.2917 -0.1890 -1.3154
11079SOL     OW35436   6.106   0.360   3.129  0.3438  0.1792  0.0353
11079SOL    HW135437   6.185   0.414   3.128  0.7399 -0.3977 -0.7875
11079SOL    HW235438   6.137   0.272   3.110 -0.4718 -0.0944 -0.0651
11080SOL     OW35439   1.433   0.394   4.556  0.2600 -0.8549  0.1397
11080SOL    HW135440   1.370   0.347   4.611 -1.3514  1.2673  0.2487
11080SOL    HW235441   1.381   0.428   4.484  1.5217 -0.0112 -0.4081
11081SOL     OW35442   7.054   1.661   8.503 -0.2708  0.2173  0.0364
11081SOL    HW135443   7.041   1.566   8.496  0.2037  0.2471 -1.8477
11081SOL    HW235444   6.982   1.698   8.453  1.6544  0.6586 -2.6666
11082SOL     OW35445   8.974   6.000   1.552  0.3468 -0.9298  0.0223
11082SOL    HW135446   8.904   6.059   1.580 -1.6839 -2.4520 -1.6243
11082SOL    HW235447   9.019   6.048   1.482  0.6516 -0.1604  0.7292
11083SOL     OW35448   7.018   0.491   3.203  0.2038 -0.0429  0.4480
11083SOL    HW135449   7.001   0.421   3.267 -1.2615 -0.6374 -0.5444
11083SOL    HW235450   7.026   0.570   3.256  0.2310 -0.6976  1.4633
11084SOL     OW35451   5.480   4.470   0.178 -0.3045 -0.1916 -0.4372
11084SOL    HW135452   5.405   4.412   0.185 -0.5447  0.2291  0.8859
11084SOL    HW235453   5.479   4.521   0.260  1.6043 -0.4266 -0.1991
11085SOL     OW35454   0.689   4.069   7.769  0.8485  0.0358 -0.5389
11085SOL    HW135455   0.682   3.980   7.732 -0.7056 -0.3382  0.5513
11085SOL    HW235456   0.707   4.054   7.862  0.4999  0.8691 -0.3362
11086SOL     OW35457   4.543   2.804   7.184  0.3008 -0.2330 -0.0211
11086SOL    HW135458   4.580   2.893   7.182  1.8134 -0.7850  1.4709
11086SOL    HW235459   4.465   2.810   7.129  1.0436  1.7152 -0.9712
11087SOL     OW35460   0.745   0.316   0.259 -0.1341 -0.0905  0.9434
11087SOL    HW135461   0.708   0.403   0.247  0.1682  0.2122  2.1476
11087SOL    HW235462   0.702   0.281   0.337  2.3329  0.4535  2.6697
11088SOL     OW35463   4.032   6.309   4.971 -0.3461 -0.0650  1.2020
11088SOL    HW135464   4.015   6.371   5.042 -1.2478  0.3596  0.6331
11088SOL    HW235465   3.955   6.252   4.970  0.0714 -0.6400  1.1415
11089SOL     OW35466   1.485   0.762   9.170 -0.1419  0.5959 -0.3863
11089SOL    HW135467   1.511   0.820   9.242  1.2807 -0.5225  0.0532
11089SOL    HW235468   1.530   0.680   9.189 -2.4823 -0.8517 -0.7201
11090SOL     OW35469   1.921   0.783   5.524  0.4472  0.0113 -0.3035
11090SOL    HW135470   1.998   0.823   5.564  0.0296  0.4427  0.0897
11090SOL    HW235471   1.877   0.738   5.596 -0.3895  0.9181 -0.2088
11091SOL     OW35472   6.466   4.528   2.659  0.1727 -0.4274  0.3344
11091SOL    HW135473   6.445   4.453   2.603 -0.7908  0.2401 -0.2333
11091SOL    HW235474   6.544   4.501   2.708  0.8508 -1.1628 -1.0880
11092SOL     OW35475   0.302   2.890   0.456  0.3905  0.1296 -0.0086
11092SOL    HW135476   0.269   2.801   0.462  0.0901  0.1421 -1.1360
11092SOL    HW235477   0.316   2.904   0.362  1.4871  0.8950  0.2474
11093SOL     OW35478   7.524   0.690   0.462  0.2875  0.3166 -0.1604
11093SOL    HW135479   7.547   0.779   0.434  0.9335 -0.4195 -2.0951
11093SOL    HW235480   7.445   0.702   0.515 -0.4746  1.9079 -1.5702
11094SOL     OW35481   8.956   1.221   3.932  0.0347 -0.1227  0.3109
11094SOL    HW135482   8.885   1.166   3.900  0.0739  0.0865 -0.1636
11094SOL    HW235483   8.926   1.253   4.017  0.3899 -1.5678  1.0080
11095SOL     OW35484   4.111   5.224   5.038  0.5123 -0.7062  0.3325
11095SOL    HW135485   4.195   5.267   5.025 -0.2432  1.1476  1.3065
11095SOL    HW235486   4.101   5.218   5.133  0.2184 -2.3520  0.2336
11096SOL     OW35487   0.963   1.542   3.339 -0.1516  0.0666 -0.1992
11096SOL    HW135488   0.879   1.588   3.342 -0.8741 -1.1837 -0.5917
11096SOL    HW235489   0.970   1.500   3.425  0.4046  0.7018  0.0781
11097SOL     OW35490   4.004   6.355   7.635  0.1553  0.3653  0.3643
11097SOL    HW135491   4.043   6.398   7.559  1.5819  0.7316  1.2731
11097SOL    HW235492   3.916   6.330   7.606  0.6142  0.6440 -1.3338
11098SOL     OW35493   6.285   1.003   4.032 -0.0915  0.3284 -0.5092
11098SOL    HW135494   6.242   1.086   4.053  1.3404  0.6924  1.2452
11098SOL    HW235495   6.378   1.022   4.040  0.2834 -1.2662 -0.8268
11099SOL     OW35496   9.425   7.836   5.213  0.1481  0.4504  0.1533
11099SOL    HW135497   9.475   7.815   5.133  1.4859  1.9786  0.5382
11099SOL    HW235498   9.341   7.791   5.201 -0.1557  1.5726 -2.6528
11100SOL     OW35499   1.315   4.750   6.458  0.0542  0.1822 -0.5535
11100SOL    HW135500   1.398   4.717   6.423  0.0162  1.2949 -1.7993
11100SOL    HW235501   1.252   4.682   6.438  0.7506 -0.9862  1.0200
11101SOL     OW35502   0.822   0.550   7.446  0.4599 -0.0603  0.0176
11101SOL    HW135503   0.773   0.570   7.366  0.9313  2.4343  0.2832
11101SOL    HW235504   0.886   0.484   7.419  2.1135  2.3044 -2.3073
11102SOL     OW35505   9.451   4.750   0.781 -0.3025 -0.1686 -0.5663
11102SOL    HW135506   9.417   4.800   0.706  0.4170  3.3369  1.2215
11102SOL    HW235507   9.540   4.783   0.793 -0.4802 -0.4205  1.9482
11103SOL     OW35508   3.480   3.692   0.872  0.2624 -0.5668 -0.7261
11103SOL    HW135509   3.565   3.648   0.875  0.3841 -0.2735  1.0060
11103SOL    HW235510   3.430   3.641   0.808  1.4345 -1.3028 -1.0934
11104SOL     OW35511   6.475   2.290   9.201 -0.0814  0.3724  0.1407
11104SOL    HW135512   6.482   2.364   9.261  0.1231 -0.4031  1.0930
11104SOL    HW235513   6.526   2.220   9.243 -1.5402 -0.8129  0.0353
11105SOL     OW35514   7.496   2.004   5.170 -0.1339 -0.0293 -0.1850
11105SOL    HW135515   7.423   2.009   5.108 -0.8643 -0.5663  0.6224
11105SOL    HW235516   7.531   1.916   5.158 -0.2273 -0.1068  0.1057
11106SOL     OW35517   5.078   6.658   3.504  0.2826  0.5962 -0.4198
11106SOL    HW135518   5.096   6.569   3.473 -1.2291 -0.1968  0.8466
11106SOL    HW235519   5.014   6.692   3.441  2.6171  1.7724 -2.3295
11107SOL     OW35520   0.712   2.986   5.738  0.5392  0.1890 -0.2014
11107SOL    HW135521   0.619   2.970   5.727  0.2185  2.4580 -1.5359
11107SOL    HW235522   0.755   2.920   5.684 -0.3162 -0.3847 -0.1922
11108SOL     OW35523   4.385   4.181   6.749  0.5590 -0.6525  0.6698
11108SOL    HW135524   4.348   4.247   6.691  1.4847 -0.1863  0.5935
11108SOL    HW235525   4.397   4.226   6.833  0.0470 -1.0761  0.9807
11109SOL     OW35526   6.395   7.472   1.666  0.5769 -0.1561 -0.3338
11109SOL    HW135527   6.347   7.465   1.748  0.8211 -0.5810 -0.2231
11109SOL    HW235528   6.478   7.426   1.683  0.6483 -0.2024 -0.8013
11110SOL     OW35529   7.024   6.254   1.456 -0.2242 -0.1250  0.0054
11110SOL    HW135530   6.953   6.279   1.397 -0.2885 -0.4973 -0.0793
11110SOL    HW235531   7.098   6.238   1.398 -0.2051 -0.2031  0.0524
11111SOL     OW35532   5.382   7.250   9.138  0.3290 -0.6223  0.1049
11111SOL    HW135533   5.445   7.239   9.067 -1.2413 -3.3414 -0.9764
11111SOL    HW235534   5.354   7.162   9.160 -1.1734  0.3299  2.3747
11112SOL     OW35535   1.496   1.221   9.086  0.4507 -0.4380 -0.2857
11112SOL    HW135536   1.430   1.200   9.020 -1.3618 -0.5656  1.5020
11112SOL    HW235537   1.494   1.148   9.147  1.1342  0.3066  0.6617
11113SOL     OW35538   7.936   5.920   7.035  0.0473  0.4346  0.2950
11113SOL    HW135539   8.012   5.978   7.041  1.2679 -0.8284 -1.5584
11113SOL    HW235540   7.974   5.832   7.032 -1.6333 -0.3725  1.3459
11114SOL     OW35541   8.535   0.630   4.852 -0.1626  0.0714 -0.0277
11114SOL    HW135542   8.581   0.714   4.848  0.2108 -0.0398  1.3015
11114SOL    HW235543   8.590   0.570   4.802  1.1729 -0.0429  1.4795
11115SOL     OW35544   2.516   8.294   5.383 -0.2756 -0.6906  0.3725
11115SOL    HW135545   2.576   8.303   5.310 -0.8792 -0.7113 -0.1374
11115SOL    HW235546   2.560   8.235   5.444  0.6233  0.0411  0.4535
11116SOL     OW35547   2.464   7.312   7.780 -0.2348  0.4689 -0.6606
11116SOL    HW135548   2.487   7.302   7.872 -1.0565  0.9758 -0.3897
11116SOL    HW235549   2.536   7.270   7.733  1.0071  1.5534  0.1687
11117SOL     OW35550   5.444   0.439   1.595  0.3685  0.1046 -0.2282
11117SOL    HW135551   5.503   0.513   1.580  0.6749  0.1962  1.2889
11117SOL    HW235552   5.503   0.365   1.609  0.0644 -0.4520 -1.6939
11118SOL     OW35553   6.621   7.119   3.661 -0.1928  0.1335  0.2981
11118SOL    HW135554   6.621   7.089   3.570  0.5165  0.1237  0.2926
11118SOL    HW235555   6.578   7.204   3.659  1.0418  0.7615 -0.2719
11119SOL     OW35556   8.654   9.199   7.568 -0.1223  0.1190 -0.5460
11119SOL    HW135557   8.629   9.165   7.482 -0.1401 -0.1227 -0.4478
11119SOL    HW235558   8.742   9.165   7.582 -0.6428 -1.0267  0.1321
11120SOL     OW35559   5.145   5.306   2.419 -0.2993 -0.0560  0.1122
11120SOL    HW135560   5.061   5.314   2.374 -0.3401 -1.9305 -0.2384
11120SOL    HW235561   5.210   5.308   2.348 -0.4426 -4.7501 -0.4938
11121SOL     OW35562   2.212   3.722   2.644 -0.2198 -0.2898  0.1479
11121SOL    HW135563   2.240   3.722   2.736 -1.5516  0.2361  0.5843
11121SOL    HW235564   2.207   3.815   2.620 -4.3360 -0.0788  1.0613
11122SOL     OW35565   6.214   6.677   5.938  0.1540  0.4807 -0.1936
11122SOL    HW135566   6.182   6.621   5.867 -1.4359 -0.4064  1.1549
11122SOL    HW235567   6.268   6.619   5.992 -0.8329  0.4085  0.7594
11123SOL     OW35568   4.845   6.519   1.447  0.1111  0.5411  0.0564
11123SOL    HW135569   4.904   6.448   1.420 -1.2883 -0.0742 -1.5528
11123SOL    HW235570   4.802   6.486   1.526 -0.2425 -0.2731 -0.4590
11124SOL     OW35571   0.746   0.241   0.546 -0.3400 -0.2289  0.0308
11124SOL    HW135572   0.831   0.285   0.538 -0.0977 -0.5204  0.8649
11124SOL    HW235573   0.755   0.186   0.624 -1.1873 -0.5163 -0.0646
11125SOL     OW35574   3.386   8.650   7.817  0.0743  0.6033  0.7388
11125SOL    HW135575   3.394   8.675   7.726  0.6741 -1.0365  0.2969
11125SOL    HW235576   3.303   8.602   7.821  0.6733 -0.4619  0.7442
11126SOL     OW35577   7.776   7.562   2.612  0.5476  0.7719  0.4645
11126SOL    HW135578   7.805   7.637   2.559  0.2854  0.7030  0.2222
11126SOL    HW235579   7.683   7.577   2.625  0.8220  1.4027  1.9046
11127SOL     OW35580   5.530   5.212   5.291  0.3646  0.1701 -0.1535
11127SOL    HW135581   5.590   5.256   5.231  1.6423 -0.7748  0.3928
11127SOL    HW235582   5.557   5.120   5.289 -0.6088 -0.1507  0.6442
11128SOL     OW35583   5.503   4.116   8.611 -1.0048 -0.0967 -0.4782
11128SOL    HW135584   5.490   4.023   8.628 -0.2961  0.0749  1.2020
11128SOL    HW235585   5.525   4.154   8.696  1.7176  1.0860 -1.5754
11129SOL     OW35586   7.180   6.404   5.847 -0.0560  0.1103  0.4521
11129SOL    HW135587   7.187   6.494   5.880  0.6467 -0.4941  2.0668
11129SOL    HW235588   7.271   6.375   5.839 -0.2877 -0.5399  0.1571
11130SOL     OW35589   4.837   0.024   9.005  0.3889 -0.1415 -0.0616
11130SOL    HW135590   4.865   0.062   9.089  1.8612 -1.6260  0.1823
11130SOL    HW235591   4.805   0.098   8.955 -0.2117  0.8515  1.6873
11131SOL     OW35592   6.040   7.865   8.639 -0.9422  0.2460 -0.0798
11131SOL    HW135593   6.002   7.917   8.568  0.4440  1.5507  0.0834
11131SOL    HW235594   5.977   7.794   8.653 -1.3448  0.0319 -2.4949
11132SOL     OW35595   7.879   1.152   1.097 -0.4009  0.3407 -0.0174
11132SOL    HW135596   7.963   1.153   1.144  0.1217  1.1971 -0.9441
11132SOL    HW235597   7.819   1.200   1.154 -0.6458 -1.3993  1.2807
11133SOL     OW35598   2.392   0.332   5.594 -0.1176 -0.2819  0.1531
11133SOL    HW135599   2.317   0.392   5.592  1.0487  1.2617  0.2851
11133SOL    HW235600   2.368   0.266   5.659 -2.6299 -1.6702 -2.0030
11134SOL     OW35601   2.293   1.603   0.889  0.6061  0.3035 -0.3079
11134SOL    HW135602   2.217   1.562   0.931  0.1989  2.1068  0.8729
11134SOL    HW235603   2.293   1.693   0.923  3.5880  0.2335  0.1152
11135SOL     OW35604   5.493   8.164   4.807  0.2445 -0.5849  0.2197
11135SOL    HW135605   5.558   8.198   4.746  0.5805 -1.0704  0.3089
11135SOL    HW235606   5.513   8.071   4.816 -0.7051 -0.8287 -0.0530
11136SOL     OW35607   2.415   4.149   1.978  0.2120  0.2466 -0.2213
11136SOL    HW135608   2.419   4.056   1.957  3.0780  0.2082  0.1400
11136SOL    HW235609   2.402   4.152   2.072 -2.9397  0.3399 -0.5475
11137SOL     OW35610   4.666   0.297   6.622  0.3237  0.0638  0.9383
11137SOL    HW135611   4.597   0.279   6.686 -0.2604 -0.2476  0.2344
11137SOL    HW235612   4.635   0.255   6.541  0.8082  0.8761  0.3168
11138SOL     OW35613   1.548   5.660   2.156  0.4443 -0.2661  0.4799
11138SOL    HW135614   1.599   5.614   2.222  0.6610 -0.4200  0.2095
11138SOL    HW235615   1.469   5.688   2.202  1.0119  0.4595  1.0349
11139SOL     OW35616   6.765   4.303   4.852  0.4889 -0.2503 -0.0401
11139SOL    HW135617   6.796   4.330   4.938  0.3628  3.8545 -1.0535
11139SOL    HW235618   6.820   4.352   4.790 -0.6972 -1.5034 -2.2342
11140SOL     OW35619   7.908   4.463   4.611 -0.0057  0.2400 -0.0996
11140SOL    HW135620   7.871   4.517   4.680 -2.3146 -0.7208 -0.5087
11140SOL    HW235621   7.915   4.522   4.536  0.2881  0.6938  0.2801
11141SOL     OW35622   9.185   4.201   1.358  0.1359  0.0410  0.2723
11141SOL    HW135623   9.148   4.113   1.358 -0.3167  0.2168 -0.7384
11141SOL    HW235624   9.182   4.228   1.449  1.3627 -1.4205  0.8003
11142SOL     OW35625   5.620   3.048   1.677 -0.4158  0.7357  0.4652
11142SOL    HW135626   5.532   3.082   1.691 -0.4222  0.4625  1.1041
11142SOL    HW235627   5.674   3.092   1.742 -0.3669 -0.2250  1.0975
11143SOL     OW35628   0.957   2.527   5.143 -0.1104  0.3870  0.4556
11143SOL    HW135629   0.923   2.617   5.140 -3.5707 -0.7864  0.6599
11143SOL    HW235630   0.910   2.486   5.216  0.9610 -1.7830  0.0133
11144SOL     OW35631   6.805   0.885   3.997 -0.0855 -0.2889 -0.1172
11144SOL    HW135632   6.758   0.937   4.062 -1.1208  0.0580 -1.1117
11144SOL    HW235633   6.758   0.802   3.995  1.1676 -1.0768  0.9917
11145SOL     OW35634   2.729   2.846   4.847  0.2159  0.3760 -0.0432
11145SOL    HW135635   2.724   2.910   4.918 -2.3220  0.9661 -0.6715
11145SOL    HW235636   2.679   2.771   4.879  0.2654  0.0738 -0.6621
11146SOL     OW35637   2.611   2.854   0.409  0.5233  0.2376  0.2007
11146SOL    HW135638   2.558   2.903   0.346 -0.3936 -1.2147 -0.1990
11146SOL    HW235639   2.626   2.770   0.366  0.7540 -0.4094  1.5249
11147SOL     OW35640   6.008   6.439   1.888  0.4593  0.5651 -0.4994
11147SOL    HW135641   6.087   6.486   1.863  1.5775 -0.8630  0.2371
11147SOL    HW235642   6.016   6.427   1.982 -1.2099  1.3811 -0.2175
11148SOL     OW35643   8.035   8.380   2.228 -0.3666 -0.2079 -0.0216
11148SOL    HW135644   8.092   8.326   2.283 -0.0585 -0.2744 -0.4073
11148SOL    HW235645   8.057   8.470   2.253  0.9706 -0.1741 -1.2024
11149SOL     OW35646   4.548   3.694   4.977 -0.3767 -0.1482  0.3445
11149SOL    HW135647   4.478   3.696   4.912  1.0728  1.1695 -1.2773
11149SOL    HW235648   4.569   3.601   4.986 -0.1666 -0.3546 -1.6568
11150SOL     OW35649   6.638   4.217   2.591  0.4464  0.0897  0.2419
11150SOL    HW135650   6.653   4.235   2.498 -1.4127 -1.2571 -0.3764
11150SOL    HW235651   6.546   4.236   2.604  0.3045 -1.3009  1.4199
11151SOL     OW35652   9.280   9.303   4.637  0.0327 -0.6721  0.8800
11151SOL    HW135653   9.239   9.219   4.616 -0.3521 -0.1918 -0.4298
11151SOL    HW235654   9.229   9.337   4.710 -1.0606 -0.7212  0.1728
11152SOL     OW35655   0.994   9.106   7.927 -0.0033 -0.0870  0.0262
11152SOL    HW135656   1.011   9.012   7.917 -1.4637 -0.5974  1.7945
11152SOL    HW235657   1.042   9.130   8.006  1.0626  0.9056 -0.8774
11153SOL     OW35658   5.324   4.314   3.163  0.0260  0.1017 -0.1243
11153SOL    HW135659   5.387   4.352   3.101  0.0933  1.0155  0.4807
11153SOL    HW235660   5.362   4.229   3.186  0.7704  0.4034 -0.1943
11154SOL     OW35661   1.596   1.216   1.978 -0.1314 -0.2326 -0.3058
11154SOL    HW135662   1.571   1.176   2.062  0.1183 -1.4102 -0.7735
11154SOL    HW235663   1.586   1.145   1.914 -0.9750  0.8313 -1.3919
11155SOL     OW35664   6.584   4.721   8.964  0.4918 -0.2623  0.0576
11155SOL    HW135665   6.500   4.733   9.010  0.2444 -1.8988  0.1294
11155SOL    HW235666   6.599   4.803   8.918 -0.7883  0.3276  0.6392
11156SOL     OW35667   4.418   7.322   5.084 -0.9914 -0.2160  0.2972
11156SOL    HW135668   4.508   7.304   5.055 -0.0751  1.7394  1.6848
11156SOL    HW235669   4.411   7.278   5.169 -0.6064  1.2355  1.1243
11157SOL     OW35670   9.410   7.762   0.651  0.2346  0.3705 -0.1912
11157SOL    HW135671   9.455   7.677   0.648  0.1536  0.3415 -2.5322
11157SOL    HW235672   9.320   7.741   0.626 -0.8707  0.6334  3.0938
11158SOL     OW35673   5.899   5.218   3.932  0.2266 -0.0984  0.3228
11158SOL    HW135674   5.909   5.263   3.848  1.3428 -1.8309 -0.5517
11158SOL    HW235675   5.808   5.188   3.932  0.4924 -0.9833 -0.7954
11159SOL     OW35676   4.292   2.164   2.978 -0.1910  0.0936 -0.3597
11159SOL    HW135677   4.321   2.181   2.889  0.1879 -0.1881 -0.2905
11159SOL    HW235678   4.373   2.148   3.027 -0.5151 -2.1307 -0.4567
11160SOL     OW35679   5.204   3.242   2.129 -0.2655  0.1513  0.5031
11160SOL    HW135680   5.237   3.175   2.069 -0.4372 -1.6556  2.3328
11160SOL    HW235681   5.201   3.322   2.076  2.3006 -0.6860 -1.1191
11161SOL     OW35682   8.036   1.481   2.919  0.6565 -0.2263 -0.0503
11161SOL    HW135683   7.984   1.459   2.997  0.1984  0.2008 -0.2276
11161SOL    HW235684   8.057   1.396   2.880  0.7760 -0.4383  0.4675
11162SOL     OW35685   3.056   1.481   7.309 -0.0084 -0.5206 -0.0493
11162SOL    HW135686   3.104   1.435   7.241 -0.4060  0.0496 -0.7236
11162SOL    HW235687   3.113   1.477   7.386  0.5906 -0.8701 -0.5096
11163SOL     OW35688   9.387   1.534   5.660 -0.2180  0.3419 -0.5696
11163SOL    HW135689   9.451   1.605   5.670  1.6096 -1.0646 -1.6604
11163SOL    HW235690   9.362   1.512   5.749  1.6612  0.2303 -0.0221
11164SOL     OW35691   6.587   5.612   8.300 -0.4094  0.2257  0.9617
11164SOL    HW135692   6.534   5.540   8.335  0.8933 -2.1517 -1.5974
11164SOL    HW235693   6.597   5.592   8.207  1.7280  2.6433  0.5586
11165SOL     OW35694   9.279   1.260   9.197  0.1289 -0.2215  0.5594
11165SOL    HW135695   9.284   1.213   9.113  0.5508  3.4574 -1.6876
11165SOL    HW235696   9.196   1.308   9.193 -0.2927 -0.6676  2.7362
11166SOL     OW35697   5.573   8.231   5.112 -0.3105 -0.3811  0.2642
11166SOL    HW135698   5.590   8.220   5.019  0.0402  0.1603  0.2645
11166SOL    HW235699   5.492   8.282   5.116 -0.0366  0.0564  0.2528
11167SOL     OW35700   6.096   4.793   6.383 -0.2573 -0.4240 -0.2294
11167SOL    HW135701   6.186   4.769   6.364 -0.3652 -0.7317 -0.3653
11167SOL    HW235702   6.083   4.767   6.475  0.1089  0.5943  0.1216
11168SOL     OW35703   4.153   9.169   1.853  0.2855 -0.2895  0.0631
11168SOL    HW135704   4.099   9.213   1.918  0.4819  0.4587 -0.2667
11168SOL    HW235705   4.154   9.078   1.880 -2.0661 -0.5580 -0.5490
11169SOL     OW35706   8.408   4.719   7.535 -0.6141 -0.0745 -0.3224
11169SOL    HW135707   8.408   4.774   7.456 -0.0811  0.0631 -0.2341
11169SOL    HW235708   8.406   4.782   7.607 -1.8836 -0.2147 -0.2225
11170SOL     OW35709   9.449   8.388   5.977 -0.0965 -0.0672  0.0881
11170SOL    HW135710   9.465   8.475   5.941 -0.0892  0.0957  0.4770
11170SOL    HW235711   9.355   8.387   5.996  0.3189  0.8014  2.4910
11171SOL     OW35712   5.108   7.556   5.266 -0.4987 -0.2118  0.1686
11171SOL    HW135713   5.069   7.498   5.332 -0.1872 -1.9373 -1.0781
11171SOL    HW235714   5.179   7.504   5.227 -0.3616  0.9181 -1.1819
11172SOL     OW35715   9.484   5.125   0.318 -0.0722 -0.2602  0.0813
11172SOL    HW135716   9.429   5.148   0.243  0.4324 -1.5632 -0.7366
11172SOL    HW235717   9.423   5.111   0.389 -0.5093  1.7074  0.1348
11173SOL     OW35718   4.332   6.033   5.179  0.0002 -0.7391 -0.1914
11173SOL    HW135719   4.304   6.077   5.099 -0.4952  2.5685  1.6336
11173SOL    HW235720   4.422   6.061   5.192  0.1416 -1.3968  0.3172
11174SOL     OW35721   2.371   6.007   0.536  0.1090 -1.0206  0.1332
11174SOL    HW135722   2.448   5.967   0.576 -0.7232 -0.3122  2.6613
11174SOL    HW235723   2.325   6.048   0.609 -2.4516 -1.0327 -1.3594
11175SOL     OW35724   2.310   3.840   9.136 -0.6858 -0.1143  0.0519
11175SOL    HW135725   2.357   3.843   9.220 -1.3420  0.1882  0.4126
11175SOL    HW235726   2.318   3.749   9.108 -1.2597 -0.4457  0.9074
11176SOL     OW35727   4.735   4.327   4.743  0.3880 -0.3911  0.5550
11176SOL    HW135728   4.829   4.309   4.748  0.4699 -0.7656 -1.4526
11176SOL    HW235729   4.699   4.251   4.698 -0.4464  0.9518 -1.1402
11177SOL     OW35730   2.386   6.796   3.600  0.0562  0.4434 -0.1694
11177SOL    HW135731   2.325   6.765   3.667  0.5225 -1.7890 -0.7027
11177SOL    HW235732   2.455   6.841   3.650 -1.9065  3.0303  0.4352
11178SOL     OW35733   9.036   6.738   2.515  0.0234 -0.2397 -0.1512
11178SOL    HW135734   8.983   6.818   2.520  0.8113  0.2449  0.8741
11178SOL    HW235735   8.977   6.673   2.477 -0.6703  0.7924 -0.9229
11179SOL     OW35736   5.429   5.852   0.670  0.1659 -0.2632  0.4706
11179SOL    HW135737   5.473   5.893   0.744 -0.8136  1.8877 -0.0725
11179SOL    HW235738   5.424   5.920   0.604 -0.6132 -1.5901 -0.9010
11180SOL     OW35739   9.557   4.438   3.527 -0.1523 -1.0887  0.4800
11180SOL    HW135740   9.630   4.390   3.488 -1.7514 -1.6955 -1.9438
11180SOL    HW235741   9.549   4.517   3.473 -2.5028 -1.9960 -0.5980
11181SOL     OW35742   1.659   4.704   9.035  0.2284  0.7458 -0.2396
11181SOL    HW135743   1.711   4.664   9.105  1.5403  0.6063 -1.2601
11181SOL    HW235744   1.638   4.631   8.976  0.9971  1.2100 -1.1115
11182SOL     OW35745   3.388   4.019   8.358 -0.1770 -0.2331  0.2799
11182SOL    HW135746   3.378   4.089   8.424  0.2459  0.0051  0.0913
11182SOL    HW235747   3.336   3.946   8.393 -2.2023  0.7860 -0.3979
11183SOL     OW35748   4.144   7.465   5.107 -0.1149 -0.2989  0.1405
11183SOL    HW135749   4.203   7.394   5.082 -1.5196 -1.4699  0.0204
11183SOL    HW235750   4.133   7.517   5.028 -1.7618 -1.9515 -0.7759
11184SOL     OW35751   4.766   0.831   6.600 -0.3762 -0.2237 -0.3283
11184SOL    HW135752   4.809   0.853   6.683  2.5924  2.3203 -2.3431
11184SOL    HW235753   4.775   0.736   6.593  0.5370 -0.3338  1.6294
11185SOL     OW35754   5.931   8.913   3.825  0.0009  0.7514  0.8681
11185SOL    HW135755   6.022   8.893   3.846  0.1881  1.4100  0.7096
11185SOL    HW235756   5.880   8.870   3.894  0.4703  0.9311  1.3309
11186SOL     OW35757   1.581   3.920   1.314  0.2339  0.1413 -0.0826
11186SOL    HW135758   1.549   3.867   1.241  2.8607 -1.2946 -0.3031
11186SOL    HW235759   1.504   3.935   1.368 -1.2410 -1.0806 -1.7341
11187SOL     OW35760   0.144   5.734   7.060 -0.0520 -0.3990  0.0305
11187SOL    HW135761   0.140   5.826   7.034  0.2771 -0.3580  0.1200
11187SOL    HW235762   0.219   5.729   7.120 -0.7808 -0.5013  0.9601
11188SOL     OW35763   6.296   5.734   2.001  0.6160  0.5487 -0.0802
11188SOL    HW135764   6.376   5.760   1.956  0.7548  0.6947  0.2459
11188SOL    HW235765   6.249   5.681   1.937 -0.4559  2.9070 -1.3690
11189SOL     OW35766   0.459   1.347   2.347  0.2015  0.3882  0.4547
11189SOL    HW135767   0.502   1.329   2.431 -0.7548  2.2013  1.4032
11189SOL    HW235768   0.530   1.366   2.287  0.9088 -0.9395  0.8181
11190SOL     OW35769   2.780   4.033   0.977  0.0220  0.3801  0.2292
11190SOL    HW135770   2.804   4.029   1.070  0.4593 -1.1833  0.0941
11190SOL    HW235771   2.688   4.060   0.976 -1.0886 -2.7903  1.3982
11191SOL     OW35772   4.583   4.726   2.149  0.4223  0.1704 -0.3081
11191SOL    HW135773   4.554   4.814   2.125 -0.3233 -0.4989 -2.0496
11191SOL    HW235774   4.508   4.688   2.195  0.7755  0.4600  0.5202
11192SOL     OW35775   6.662   8.717   1.517  0.3289 -0.6023 -0.1435
11192SOL    HW135776   6.705   8.737   1.600 -0.4845  0.6937 -0.0091
11192SOL    HW235777   6.721   8.655   1.474  1.4054 -0.2881  0.8273
11193SOL     OW35778   6.238   8.362   7.263  0.3699 -0.0865  0.1040
11193SOL    HW135779   6.196   8.282   7.232 -0.6966  0.3888  0.2992
11193SOL    HW235780   6.180   8.395   7.331 -1.1316  2.7461 -2.3329
11194SOL     OW35781   8.335   2.759   3.608  0.2230  0.6568  0.5224
11194SOL    HW135782   8.401   2.707   3.654 -0.6854 -2.3403 -1.2746
11194SOL    HW235783   8.386   2.815   3.550  1.2259  0.3922  1.1127
11195SOL     OW35784   3.269   4.002   7.053 -1.1462  0.7150 -0.0253
11195SOL    HW135785   3.355   4.001   7.095  0.6736  2.1007 -3.3187
11195SOL    HW235786   3.246   3.909   7.043  0.9420  0.2212 -0.7851
11196SOL     OW35787   2.338   3.994   2.492  0.0773  0.1791  0.0599
11196SOL    HW135788   2.313   4.086   2.485 -1.7672 -0.2792  0.0388
11196SOL    HW235789   2.363   3.983   2.584 -0.9204  0.4391  0.3730
11197SOL     OW35790   8.715   4.078   7.656  0.8574 -0.2133 -0.1098
11197SOL    HW135791   8.720   4.131   7.736 -0.2455  0.8727 -0.7245
11197SOL    HW235792   8.801   4.088   7.616  0.8966  0.5446  0.1426
11198SOL     OW35793   6.820   1.498   0.239 -0.0772 -0.1785 -0.8050
11198SOL    HW135794   6.757   1.472   0.307  1.2269  0.9666  0.9361
11198SOL    HW235795   6.777   1.571   0.194 -0.7314 -0.5828 -0.8509
11199SOL     OW35796   0.967   2.341   1.368 -0.1779 -0.7961 -0.0365
11199SOL    HW135797   1.001   2.355   1.456  0.5126 -0.1788 -0.3912
11199SOL    HW235798   0.929   2.426   1.344 -1.3381 -1.2661  0.0711
11200SOL     OW35799   8.154   8.201   2.624 -0.2647 -0.3034 -0.4076
11200SOL    HW135800   8.140   8.247   2.707 -0.5673 -1.1840  0.0362
11200SOL    HW235801   8.084   8.136   2.620  0.1966 -0.7768 -0.9966
11201SOL     OW35802   5.357   6.257   9.073 -0.3927  0.3137 -0.1533
11201SOL    HW135803   5.265   6.251   9.049 -0.0995  0.4567 -1.3565
11201SOL    HW235804   5.387   6.166   9.079 -0.1030  0.2760 -1.8458
11202SOL     OW35805   6.353   6.687   3.261 -0.1922 -0.4924  0.3550
11202SOL    HW135806   6.444   6.658   3.252  0.3936  0.8155  1.6393
11202SOL    HW235807   6.314   6.622   3.320  0.3298 -0.2590  0.9764
11203SOL     OW35808   6.623   6.857   7.931  0.3179 -0.3897  0.9349
11203SOL    HW135809   6.617   6.867   7.836 -0.2630 -0.9524  0.9093
11203SOL    HW235810   6.563   6.923   7.966  1.0371  0.2807  0.9422
11204SOL     OW35811   4.565   1.111   8.506 -0.1300 -0.2450  0.3622
11204SOL    HW135812   4.506   1.136   8.435  2.7718  0.0244 -2.1776
11204SOL    HW235813   4.608   1.193   8.531  0.7427 -0.7447  0.5430
11205SOL     OW35814   5.196   9.515   0.443  0.3029  0.1651 -0.3999
11205SOL    HW135815   5.226   9.582   0.505  1.6057  0.3040 -1.1374
11205SOL    HW235816   5.170   9.441   0.498  0.5691  0.6188  0.3519
11206SOL     OW35817   2.858   7.623   8.488  0.8390  0.4824 -0.2491
11206SOL    HW135818   2.895   7.682   8.423 -1.8744  0.2468 -2.1708
11206SOL    HW235819   2.859   7.537   8.446 -0.3010  0.1883  0.2938
11207SOL     OW35820   4.117   5.988   3.335 -0.0548  0.4630  0.5911
11207SOL    HW135821   4.062   6.005   3.259  0.5406  0.6096  0.1890
11207SOL    HW235822   4.191   6.048   3.325 -0.4309  1.1662  1.7780
11208SOL     OW35823   4.770   0.353   0.365 -0.2302 -0.1963  0.2191
11208SOL    HW135824   4.695   0.300   0.390 -0.1963 -0.2063  0.3000
11208SOL    HW235825   4.741   0.443   0.374 -0.3029 -0.2020  0.0361
11209SOL     OW35826   5.624   3.220   3.287 -0.0216  0.0546 -0.1260
11209SOL    HW135827   5.534   3.190   3.277  0.3167 -1.2356  0.4120
11209SOL    HW235828   5.616   3.309   3.322 -1.0833 -0.0533 -0.0646
11210SOL     OW35829   1.186   5.691   7.117  0.1028 -0.5106  0.2539
11210SOL    HW135830   1.254   5.629   7.142 -1.4886 -2.3093  0.4009
11210SOL    HW235831   1.124   5.690   7.191  0.5617  2.1795  0.7915
11211SOL     OW35832   7.375   0.933   7.330  0.3049  0.5463 -0.0598
11211SOL    HW135833   7.441   0.890   7.274  0.0234  0.3686 -0.2562
11211SOL    HW235834   7.379   1.025   7.305  2.6014  1.1024  2.0075
11212SOL     OW35835   1.523   2.746   5.796  0.1196  0.6927 -0.1703
11212SOL    HW135836   1.549   2.720   5.708 -0.7904 -1.3040  0.1131
11212SOL    HW235837   1.432   2.717   5.804  0.0013  1.3783  1.2272
11213SOL     OW35838   5.629   6.742   4.917 -0.2023 -0.4829  0.3306
11213SOL    HW135839   5.689   6.745   4.991 -1.0729  1.5589  1.0215
11213SOL    HW235840   5.673   6.686   4.853  1.3637 -0.8848  1.6894
11214SOL     OW35841   8.105   5.862   5.143 -0.2863 -0.3293  0.2574
11214SOL    HW135842   8.193   5.850   5.108 -0.4415 -0.6019 -0.0338
11214SOL    HW235843   8.117   5.859   5.238  0.1498  0.5357  0.2480
11215SOL     OW35844   8.987   2.067   3.170 -0.4905  0.1612 -0.3370
11215SOL    HW135845   8.987   1.974   3.145  2.0971 -0.1242  0.4192
11215SOL    HW235846   8.946   2.112   3.096 -1.3190 -1.5135 -0.9541
11216SOL     OW35847   6.815   5.546   7.516 -0.3620 -0.4007 -0.2787
11216SOL    HW135848   6.785   5.609   7.582  1.0805 -0.7931  0.8029
11216SOL    HW235849   6.891   5.588   7.476 -0.3460 -0.7901 -0.6622
11217SOL     OW35850   5.833   6.577   5.116  0.0690 -0.0552 -0.2530
11217SOL    HW135851   5.887   6.643   5.160  1.6443  0.7179 -3.0943
11217SOL    HW235852   5.896   6.509   5.090 -0.5563  0.1014 -2.2780
11218SOL     OW35853   6.899   3.570   0.854  0.2093  0.1953  0.5086
11218SOL    HW135854   6.857   3.556   0.939 -1.7582 -1.5489 -0.6759
11218SOL    HW235855   6.929   3.483   0.827  0.5180  0.6677 -0.7436
11219SOL     OW35856   4.261   9.113   2.259  0.0760 -0.0836 -0.0171
11219SOL    HW135857   4.177   9.095   2.218  0.8737 -1.9328 -0.9574
11219SOL    HW235858   4.274   9.040   2.321  1.4130 -0.4102 -0.6288
11220SOL     OW35859   7.835   8.252   8.202 -0.7734  0.0337  0.4955
11220SOL    HW135860   7.781   8.216   8.272  0.2314 -1.5191  0.5305
11220SOL    HW235861   7.913   8.196   8.201  0.9870  2.3572  0.6537
11221SOL     OW35862   0.514   1.861   3.663 -0.0116  0.0051  0.1556
11221SOL    HW135863   0.541   1.789   3.720 -0.0220  1.2586  1.8079
11221SOL    HW235864   0.440   1.826   3.614 -0.6736 -0.8271  1.6677
11222SOL     OW35865   6.985   4.608   6.916  0.0024 -0.7134  0.1933
11222SOL    HW135866   6.970   4.604   6.822  0.2720  2.0158 -0.0399
11222SOL    HW235867   7.080   4.608   6.925  0.0240  0.7660  0.2836
11223SOL     OW35868   5.215   6.639   3.038  0.8607 -0.8193  0.1196
11223SOL    HW135869   5.152   6.710   3.048  0.3582 -0.9462 -1.8185
11223SOL    HW235870   5.260   6.635   3.122  0.7925  1.6739  0.3435
11224SOL     OW35871   9.403   5.785   4.625  0.1653 -0.2162  0.5529
11224SOL    HW135872   9.449   5.840   4.688  2.1288 -0.4239 -0.6029
11224SOL    HW235873   9.346   5.845   4.577 -1.6213 -0.1064  2.6369
11225SOL     OW35874   8.695   5.419   9.539 -0.1855  0.7375 -0.0726
11225SOL    HW135875   8.679   5.361   9.465 -1.6092 -0.4620  1.1202
11225SOL    HW235876   8.752   5.368   9.597 -1.4401  0.4991  0.9786
11226SOL     OW35877   3.116   6.964   0.329  0.8032 -0.6051 -0.4010
11226SOL    HW135878   3.143   7.051   0.300  1.2651 -0.8268 -0.6415
11226SOL    HW235879   3.169   6.947   0.406  2.1355 -1.4753 -1.4776
11227SOL     OW35880   9.559   1.048   3.326 -0.4949  0.0351  0.9251
11227SOL    HW135881   9.538   1.137   3.297  1.6409  0.7096  1.2726
11227SOL    HW235882   9.501   0.992   3.274  0.7073  1.4030 -2.0953
11228SOL     OW35883   3.091   4.304   7.634 -0.3760  0.3049 -0.4960
11228SOL    HW135884   3.053   4.227   7.676  0.5918 -0.4880 -1.0239
11228SOL    HW235885   3.172   4.272   7.594 -1.0306  1.0983 -2.6072
11229SOL     OW35886   2.862   7.260   7.639 -0.2845 -0.0139 -0.0512
11229SOL    HW135887   2.869   7.233   7.731  1.3227 -1.0968 -0.4517
11229SOL    HW235888   2.774   7.235   7.613 -0.7000  0.1491  1.1467
11230SOL     OW35889   3.894   6.106   2.551  0.2412  0.9096 -0.5098
11230SOL    HW135890   3.919   6.118   2.459 -0.5062  0.1903 -0.8199
11230SOL    HW235891   3.843   6.025   2.551  2.0145 -0.2590  0.8830
11231SOL     OW35892   7.388   1.245   1.807  0.1202  0.0506 -0.2054
11231SOL    HW135893   7.436   1.327   1.799 -0.5848  0.5190  0.3369
11231SOL    HW235894   7.428   1.201   1.883  1.7054 -0.9558 -1.5395
11232SOL     OW35895   7.760   5.396   0.164  0.0315  0.0326  0.6456
11232SOL    HW135896   7.788   5.411   0.254  1.2282  1.5788  0.0661
11232SOL    HW235897   7.826   5.441   0.111 -1.9475  1.2349 -0.9143
11233SOL     OW35898   5.734   3.933   7.901 -0.4237 -0.8935  0.2992
11233SOL    HW135899   5.694   3.972   7.823 -1.2246 -0.7325  0.7818
11233SOL    HW235900   5.781   4.005   7.942  0.1887 -1.0306 -0.1484
11234SOL     OW35901   7.396   6.424   4.957  0.3969  0.5344  0.2457
11234SOL    HW135902   7.432   6.498   5.005  1.0388  0.1962  0.2928
11234SOL    HW235903   7.407   6.448   4.865  2.5093 -0.3678  0.2154
11235SOL     OW35904   7.453   4.499   3.041 -0.6574 -0.0569  0.2089
11235SOL    HW135905   7.369   4.543   3.058 -0.7958  0.1077 -0.8177
11235SOL    HW235906   7.504   4.514   3.120 -1.2787  0.6151  0.5004
11236SOL     OW35907   9.239   0.292   0.895 -0.5228 -0.1452 -0.3239
11236SOL    HW135908   9.166   0.334   0.848 -0.3842  1.6481  0.9620
11236SOL    HW235909   9.197   0.244   0.966 -0.6065 -1.3705 -1.1788
11237SOL     OW35910   8.933   8.334   5.067 -0.0562 -0.6017 -0.2695
11237SOL    HW135911   8.879   8.268   5.112  0.1166 -0.4305  0.1962
11237SOL    HW235912   8.871   8.380   5.010 -0.2021 -1.0805 -0.5044
11238SOL     OW35913   2.103   4.300   9.019 -0.2164 -0.1538  0.8473
11238SOL    HW135914   2.016   4.314   9.057  0.6792  0.7382  2.6753
11238SOL    HW235915   2.128   4.212   9.049 -0.8251 -0.7846 -0.4293
11239SOL     OW35916   5.790   2.836   7.259 -0.1332 -0.3173 -0.3351
11239SOL    HW135917   5.755   2.774   7.194 -1.6507 -0.3044  0.4252
11239SOL    HW235918   5.713   2.880   7.294  0.8135  0.9695  0.1976
11240SOL     OW35919   8.559   3.789   0.032  0.3300 -0.3462  0.0065
11240SOL    HW135920   8.529   3.733   0.102 -0.4505  1.1085  0.8855
11240SOL    HW235921   8.641   3.750   0.003 -0.2763 -2.0095  0.4521
11241SOL     OW35922   7.103   5.160   3.546  0.3277  0.0030  0.1650
11241SOL    HW135923   7.028   5.206   3.582  0.3039 -0.1939  0.3677
11241SOL    HW235924   7.127   5.096   3.613 -0.9109 -1.7091 -0.9131
11242SOL     OW35925   2.544   3.709   2.985  0.1076 -0.7629  0.0542
11242SOL    HW135926   2.609   3.765   2.944 -0.1372  0.0169  0.7149
11242SOL    HW235927   2.589   3.670   3.059  0.1145 -1.0100 -0.0791
11243SOL     OW35928   0.122   3.819   7.677 -0.3320  0.0303  0.0053
11243SOL    HW135929   0.168   3.735   7.680  0.9566  0.6825 -0.6657
11243SOL    HW235930   0.177   3.878   7.727 -0.9440  0.6209 -0.0030
11244SOL     OW35931   2.522   4.622   4.988 -0.4311 -0.4932 -0.1762
11244SOL    HW135932   2.549   4.581   5.070 -4.2456 -1.4441  0.8199
11244SOL    HW235933   2.480   4.704   5.014 -0.1594  0.0451 -1.3627
11245SOL     OW35934   5.629   7.010   4.799  0.1288 -0.7024 -0.1751
11245SOL    HW135935   5.650   6.933   4.851  0.2688 -0.3114  0.3507
11245SOL    HW235936   5.651   6.985   4.709 -0.0304 -1.3469 -0.0361
11246SOL     OW35937   5.700   4.587   5.188  0.2716  0.1909 -0.3063
11246SOL    HW135938   5.634   4.653   5.168 -0.5058 -0.2279  0.7643
11246SOL    HW235939   5.661   4.505   5.157  1.4344  0.2604 -2.0712
11247SOL     OW35940   7.673   7.135   4.059 -0.2934 -0.3556 -0.3623
11247SOL    HW135941   7.654   7.052   4.103 -0.6320  0.4083  1.0023
11247SOL    HW235942   7.628   7.201   4.112 -0.5951  0.6468 -1.7915
11248SOL     OW35943   5.318   9.524   2.795  0.1972 -0.0812 -0.3447
11248SOL    HW135944   5.257   9.511   2.722  0.8797 -0.8599 -0.7926
11248SOL    HW235945   5.369   9.444   2.798  0.0356 -0.1617  1.1548
11249SOL     OW35946   6.438   5.756   6.805  0.0642 -0.7742  0.1082
11249SOL    HW135947   6.390   5.803   6.736  0.4192 -0.3712  0.1344
11249SOL    HW235948   6.471   5.678   6.761 -0.1352 -0.7681 -0.0555
11250SOL     OW35949   9.551   2.232   3.494 -0.0775  0.2546 -0.1305
11250SOL    HW135950   9.608   2.305   3.467  1.4788  0.2044  2.6950
11250SOL    HW235951   9.534   2.247   3.587 -4.4393 -0.0249 -0.6625
11251SOL     OW35952   9.052   4.940   7.675 -0.4263 -0.0181  0.0942
11251SOL    HW135953   9.093   5.009   7.623  0.0297 -0.1860  0.2270
11251SOL    HW235954   8.979   4.983   7.719  1.1350  0.9386  1.9093
11252SOL     OW35955   6.821   4.804   1.318  0.0907 -0.0120  0.2348
11252SOL    HW135956   6.809   4.717   1.280  0.5103 -0.3233  0.7949
11252SOL    HW235957   6.749   4.814   1.380  2.0099 -1.4998  2.9065
11253SOL     OW35958   7.241   5.921   0.300 -0.4956  0.0733  0.3920
11253SOL    HW135959   7.219   6.014   0.306 -0.6415 -0.0159  1.4092
11253SOL    HW235960   7.162   5.877   0.332 -0.8877 -0.4572 -1.2162
11254SOL     OW35961   8.630   0.390   7.715 -0.0852 -0.0563  0.8933
11254SOL    HW135962   8.657   0.304   7.682 -0.3440  0.2593 -0.1996
11254SOL    HW235963   8.582   0.371   7.796 -0.6092 -0.9917  0.3825
11255SOL     OW35964   2.882   4.169   1.284  0.0684  0.0053  0.0586
11255SOL    HW135965   2.812   4.117   1.324  0.1185  0.5665  0.8996
11255SOL    HW235966   2.913   4.226   1.355  0.0477  1.1471 -0.8284
11256SOL     OW35967   9.023   4.321   7.325 -0.7610  0.1280  0.4455
11256SOL    HW135968   9.092   4.381   7.352 -3.6127  4.0412 -0.2030
11256SOL    HW235969   9.037   4.309   7.231 -0.9276  0.9097  0.3146
11257SOL     OW35970   2.869   2.639   8.940  0.0242  0.5674 -0.1335
11257SOL    HW135971   2.862   2.719   8.888 -0.6261  0.6149  0.0198
11257SOL    HW235972   2.813   2.654   9.016 -1.7819 -0.7985 -1.1074
11258SOL     OW35973   7.541   8.273   8.743  0.3628 -0.3174  0.4982
11258SOL    HW135974   7.474   8.338   8.726  1.3023  0.5083 -0.1467
11258SOL    HW235975   7.507   8.221   8.816 -0.9642  0.0662  0.1663
11259SOL     OW35976   5.628   4.972   3.707 -0.1244 -0.2169 -0.0028
11259SOL    HW135977   5.693   5.012   3.764  1.5112 -1.6585 -0.7667
11259SOL    HW235978   5.575   4.917   3.765 -0.9497  1.2196  0.6737
11260SOL     OW35979   5.352   6.073   0.914  0.0152 -0.4853  0.6305
11260SOL    HW135980   5.420   6.008   0.898 -0.1921 -0.3120 -1.1948
11260SOL    HW235981   5.270   6.025   0.904 -0.1347 -0.3398  1.1458
11261SOL     OW35982   5.994   8.506   4.926  0.0489  0.0850 -0.1928
11261SOL    HW135983   6.021   8.439   4.988 -0.4086  0.0990  0.0292
11261SOL    HW235984   5.929   8.558   4.973  1.4143  1.5819  0.1351
11262SOL     OW35985   9.305   3.640   3.317 -0.8523  0.0553 -0.1592
11262SOL    HW135986   9.344   3.694   3.248  1.4599  0.5226  1.3838
11262SOL    HW235987   9.353   3.557   3.312 -0.8766 -0.0168  0.6906
11263SOL     OW35988   5.303   1.817   4.639  0.0727  0.6583  0.0436
11263SOL    HW135989   5.268   1.730   4.655 -0.7577  0.8169 -0.7974
11263SOL    HW235990   5.326   1.850   4.726 -2.1598  0.6579  0.6937
11264SOL     OW35991   1.916   4.910   7.266 -0.5457  0.1553 -0.3780
11264SOL    HW135992   1.903   4.946   7.354  1.8546  1.1227 -0.3282
11264SOL    HW235993   1.940   4.986   7.213  0.7501 -0.7967 -1.2094
11265SOL     OW35994   4.848   7.227   5.595 -0.5342  0.1834 -0.3158
11265SOL    HW135995   4.798   7.236   5.677  0.5362  1.7133  0.2209
11265SOL    HW235996   4.876   7.136   5.594 -2.7167 -0.5588 -0.3050
11266SOL     OW35997   6.899   4.855   0.313 -0.2684  0.0539  0.0696
11266SOL    HW135998   6.904   4.949   0.296  3.4275 -0.0528 -0.1358
11266SOL    HW235999   6.945   4.814   0.240  0.3795 -1.7135  1.3816
11267SOL     OW36000   8.690   0.970   9.476  0.0056 -0.2395 -0.0617
11267SOL    HW136001   8.655   0.972   9.387  0.5155 -0.5642 -0.2713
11267SOL    HW236002   8.703   1.063   9.498  2.0131 -0.1969 -1.1870
11268SOL     OW36003   5.644   8.530   5.712  0.6133 -0.0661  0.4172
11268SOL    HW136004   5.602   8.580   5.642 -0.6592 -1.6216  0.0152
11268SOL    HW236005   5.716   8.484   5.669 -0.4524 -1.3866 -0.0193
11269SOL     OW36006   5.635   1.473   4.812  0.4739 -0.1504 -0.0277
11269SOL    HW136007   5.598   1.560   4.799  2.1082  0.6014  0.1399
11269SOL    HW236008   5.730   1.487   4.818  0.7436 -1.8811  0.4600
11270SOL     OW36009   1.567   0.482   8.002  0.4537  0.4966  0.2949
11270SOL    HW136010   1.544   0.404   7.952 -0.1146  1.5937 -1.2302
11270SOL    HW236011   1.502   0.485   8.073  0.8779 -0.7296  0.7601
11271SOL     OW36012   0.246   6.255   2.708 -0.3472  0.1494  0.5848
11271SOL    HW136013   0.205   6.331   2.750  0.5898 -0.2562  2.3381
11271SOL    HW236014   0.219   6.180   2.761 -0.1555 -0.5838 -0.3162
11272SOL     OW36015   8.764   3.560   8.320  0.3498 -0.2644  0.3296
11272SOL    HW136016   8.854   3.592   8.318  0.9308 -1.8018 -0.2457
11272SOL    HW236017   8.710   3.638   8.305  1.5873  0.6509  0.4772
11273SOL     OW36018   7.039   2.685   1.884  0.7280 -0.4806 -0.1223
11273SOL    HW136019   7.130   2.696   1.858  0.9469  0.6609  1.0424
11273SOL    HW236020   7.043   2.640   1.969  0.1519 -1.3413 -0.5329
11274SOL     OW36021   3.019   7.176   5.523  0.1929 -0.0726  0.7277
11274SOL    HW136022   3.001   7.083   5.539  0.5368 -0.2913 -0.0858
11274SOL    HW236023   3.057   7.178   5.435 -1.8859  1.0781 -0.2238
11275SOL     OW36024   1.940   8.676   3.896 -0.0914 -0.3840  0.2845
11275SOL    HW136025   1.850   8.645   3.906 -0.5977 -0.3426 -3.0535
11275SOL    HW236026   1.995   8.600   3.916 -0.6838 -0.1537  3.3354
11276SOL     OW36027   5.697   3.462   3.791  0.2015  0.2539 -1.0363
11276SOL    HW136028   5.606   3.490   3.804 -0.2301 -0.9406 -1.3646
11276SOL    HW236029   5.750   3.536   3.821 -0.8638  0.4579  0.4176
11277SOL     OW36030   7.382   8.523   6.737 -0.5418 -0.5050  0.4460
11277SOL    HW136031   7.326   8.548   6.810 -0.3691  2.5418 -0.3048
11277SOL    HW236032   7.324   8.523   6.661  0.0884  1.2787 -0.1121
11278SOL     OW36033   7.478   5.042   8.088 -0.2773 -0.2436 -0.0689
11278SOL    HW136034   7.507   4.954   8.114  0.1798  0.2541  1.1840
11278SOL    HW236035   7.555   5.097   8.104 -1.2182  0.7442  1.2754
11279SOL     OW36036   4.187   8.630   1.063 -0.1898  0.5761  0.4325
11279SOL    HW136037   4.195   8.694   0.993 -0.2883  0.7816  0.6053
11279SOL    HW236038   4.275   8.623   1.100  0.0890 -0.3072 -0.3761
11280SOL     OW36039   8.117   6.965   1.959  0.0222  0.1476  0.1366
11280SOL    HW136040   8.191   6.942   1.902 -0.4405 -0.1483 -0.3498
11280SOL    HW236041   8.063   6.886   1.961  0.2416  0.0069  1.3309
11281SOL     OW36042   9.156   7.946   1.205 -0.2084 -0.1170 -0.3053
11281SOL    HW136043   9.247   7.964   1.229 -1.0081  3.6685  0.4275
11281SOL    HW236044   9.118   7.906   1.283 -0.1135  2.0898  0.9372
11282SOL     OW36045   5.211   5.468   3.060 -0.4998 -0.5433 -0.2368
11282SOL    HW136046   5.154   5.418   3.002 -1.0791 -1.5228  1.1257
11282SOL    HW236047   5.223   5.412   3.136 -0.3657  0.9898  0.9260
11283SOL     OW36048   0.550   6.263   9.195  0.4638 -0.0050 -0.1645
11283SOL    HW136049   0.557   6.257   9.290 -0.8078 -1.7615 -0.1343
11283SOL    HW236050   0.561   6.173   9.164 -2.0794  0.0290 -1.4117
11284SOL     OW36051   5.461   7.994   3.988  0.4137 -0.2446  0.5375
11284SOL    HW136052   5.533   7.982   4.051 -0.5413 -2.3212  1.3208
11284SOL    HW236053   5.463   7.915   3.935 -0.7484  0.0944 -0.0284
11285SOL     OW36054   4.880   0.167   9.243 -0.5530 -0.1574  0.0180
11285SOL    HW136055   4.800   0.167   9.297  1.1895  1.7464  2.8955
11285SOL    HW236056   4.892   0.259   9.219  0.5907 -0.4808 -0.6779
11286SOL     OW36057   2.579   1.298   7.604 -0.0869 -0.1155  0.7402
11286SOL    HW136058   2.605   1.248   7.527 -0.3621  0.6596  0.1318
11286SOL    HW236059   2.494   1.261   7.628 -0.6973  0.5986 -0.2264
11287SOL     OW36060   4.589   8.166   4.614  0.2435  0.0594  0.4774
11287SOL    HW136061   4.507   8.190   4.569  0.0124 -0.4586  0.6159
11287SOL    HW236062   4.588   8.217   4.694  0.2636  0.3772  0.2784
11288SOL     OW36063   4.011   1.303   7.870  0.3640  0.1734 -0.0713
11288SOL    HW136064   3.986   1.216   7.840  2.1828 -0.7897  1.0276
11288SOL    HW236065   4.044   1.347   7.792  0.2054 -0.4173 -0.4742
11289SOL     OW36066   7.822   2.225   6.415  0.0342 -0.2961  0.0054
11289SOL    HW136067   7.809   2.141   6.372 -2.4028 -0.1205  0.2387
11289SOL    HW236068   7.785   2.213   6.503  0.4515  0.7579  0.3413
11290SOL     OW36069   1.047   1.165   6.152 -0.1894 -0.0173 -0.6093
11290SOL    HW136070   1.032   1.071   6.160 -1.2954  0.0094 -1.9384
11290SOL    HW236071   1.138   1.173   6.124  0.7661 -0.5069  2.0580
11291SOL     OW36072   7.958   8.569   4.133  0.3692  0.0451  0.2023
11291SOL    HW136073   7.918   8.532   4.055  0.7197  0.5494 -0.2240
11291SOL    HW236074   7.968   8.662   4.113  0.4997  0.1684  0.8289
11292SOL     OW36075   9.339   8.937   1.488 -0.2046  0.6215  1.1413
11292SOL    HW136076   9.311   8.965   1.401  2.2508  0.5499  0.2498
11292SOL    HW236077   9.259   8.906   1.530 -1.2787 -0.6480 -1.5852
11293SOL     OW36078   6.530   7.966   8.060 -0.2327 -0.4671  0.1903
11293SOL    HW136079   6.513   7.966   8.155  1.2786 -1.8154  0.5151
11293SOL    HW236080   6.617   8.005   8.052 -1.1240  1.4156 -0.8713
11294SOL     OW36081   9.422   5.448   2.981  0.3148  0.3505 -0.2881
11294SOL    HW136082   9.425   5.525   2.924  1.1922  0.7794  0.3046
11294SOL    HW236083   9.437   5.483   3.069 -1.6030 -0.2188  0.3083
11295SOL     OW36084   2.396   3.217   3.707  0.1698 -0.2613  0.7378
11295SOL    HW136085   2.350   3.301   3.716  0.6524  0.0540  0.3302
11295SOL    HW236086   2.476   3.239   3.658  0.5527 -0.8695  1.0795
11296SOL     OW36087   5.203   4.099   8.807 -0.4653 -0.1136  0.5787
11296SOL    HW136088   5.261   4.168   8.837 -1.0213  0.4844  0.3066
11296SOL    HW236089   5.227   4.022   8.859  2.3008 -0.6452 -1.2655
11297SOL     OW36090   7.586   7.389   5.681  0.0005 -0.3389 -0.3711
11297SOL    HW136091   7.508   7.408   5.628  0.1239 -0.6161 -0.6596
11297SOL    HW236092   7.643   7.465   5.667 -0.0376 -0.3341 -0.5042
11298SOL     OW36093   1.168   4.674   8.896  0.1637 -0.3514 -0.0500
11298SOL    HW136094   1.107   4.601   8.889  0.2536 -0.3683 -0.7523
11298SOL    HW236095   1.150   4.728   8.819 -0.2615  0.6536  0.7409
11299SOL     OW36096   3.370   1.051   8.640 -0.1917 -0.0664 -0.0307
11299SOL    HW136097   3.373   1.093   8.726  1.7906 -0.1711  0.0101
11299SOL    HW236098   3.377   0.958   8.659 -0.4456 -0.1353 -0.2762
11300SOL     OW36099   6.450   7.702   6.750  0.1042 -0.5656 -0.4221
11300SOL    HW136100   6.430   7.716   6.657 -0.2001 -2.0867 -0.6153
11300SOL    HW236101   6.437   7.788   6.790  0.8767  0.2827 -1.8819
11301SOL     OW36102   5.417   3.528   9.533 -0.0449 -0.2165  0.0161
11301SOL    HW136103   5.399   3.443   9.492  0.2558 -0.6457  0.7494
11301SOL    HW236104   5.371   3.591   9.478  0.7125 -0.7207 -1.2383
11302SOL     OW36105   3.192   1.877   5.772  0.0384  0.5629  0.3980
11302SOL    HW136106   3.113   1.913   5.732  1.1919  2.1496 -0.5556
11302SOL    HW236107   3.195   1.916   5.859  1.1171  2.6938 -0.5161
11303SOL     OW36108   7.163   2.594   1.025 -0.4279 -0.0804  0.3241
11303SOL    HW136109   7.181   2.654   1.098 -1.9667  0.7430  0.0767
11303SOL    HW236110   7.246   2.550   1.009  0.7444  1.9173  0.5803
11304SOL     OW36111   7.678   6.980   3.410 -0.1089  0.1739  0.5399
11304SOL    HW136112   7.728   6.981   3.492 -1.8114 -2.5609  1.7436
11304SOL    HW236113   7.711   6.903   3.363 -2.4797 -1.2163  1.0076
11305SOL     OW36114   0.382   6.044   8.109  0.4638  0.0042  0.1733
11305SOL    HW136115   0.321   6.116   8.099  0.3094 -0.1873 -0.2902
11305SOL    HW236116   0.329   5.972   8.142  0.9692  0.6369  2.5730
11306SOL     OW36117   5.818   9.379   7.325 -0.2125 -0.3439 -0.3578
11306SOL    HW136118   5.817   9.432   7.245 -1.5754  0.0170 -0.1165
11306SOL    HW236119   5.849   9.439   7.393 -0.2779 -0.2923 -0.3739
11307SOL     OW36120   9.016   4.974   3.529  0.7098  0.3078 -0.3234
11307SOL    HW136121   8.925   4.945   3.526  0.9380 -0.8470  1.8495
11307SOL    HW236122   9.057   4.930   3.454 -0.2285 -0.2500 -0.5301
11308SOL     OW36123   3.269   1.228   1.123  0.2898 -0.1429 -0.2927
11308SOL    HW136124   3.279   1.190   1.035  0.6439 -0.2329 -0.2169
11308SOL    HW236125   3.355   1.217   1.163  0.5673  1.2058 -0.4603
11309SOL     OW36126   9.557   1.008   1.672 -0.1605 -0.8243 -0.1402
11309SOL    HW136127   9.649   0.983   1.665 -0.2453 -1.3924  0.6479
11309SOL    HW236128   9.544   1.028   1.765 -0.2138  1.7855 -0.6317
11310SOL     OW36129   1.522   9.396   3.727 -0.0267 -0.1961 -0.2068
11310SOL    HW136130   1.444   9.387   3.781  0.3527  0.5706  0.4907
11310SOL    HW236131   1.578   9.322   3.753 -0.8824 -1.3070 -1.3856
11311SOL     OW36132   7.898   2.098   0.498  0.4722  0.1465 -0.4912
11311SOL    HW136133   7.983   2.075   0.535  0.3645  0.5130 -0.0001
11311SOL    HW236134   7.866   2.017   0.458  1.0553  0.0134 -0.6883
11312SOL     OW36135   0.275   4.282   3.949  0.1594  0.4054  0.0983
11312SOL    HW136136   0.207   4.341   3.919  0.5326  1.4240  1.1740
11312SOL    HW236137   0.246   4.255   4.036  0.8129  0.3495  0.3022
11313SOL     OW36138   0.659   5.703   0.528  0.1205 -0.4427 -0.3078
11313SOL    HW136139   0.686   5.710   0.620  2.0370  0.8808 -0.9230
11313SOL    HW236140   0.563   5.700   0.532  0.1450 -0.3280  1.7200
11314SOL     OW36141   0.217   4.092   4.762  0.3793 -0.2147 -0.0333
11314SOL    HW136142   0.130   4.053   4.757  1.1784 -1.9865 -1.8883
11314SOL    HW236143   0.203   4.185   4.746 -1.3289 -0.1057  1.7510
11315SOL     OW36144   2.522   8.002   3.016 -0.0488 -0.0352  0.4995
11315SOL    HW136145   2.505   7.908   3.005  0.4308 -0.2626  1.5850
11315SOL    HW236146   2.482   8.042   2.939 -0.4187 -1.1113  0.1047
11316SOL     OW36147   9.019   7.329   6.596 -0.3064  0.2629  0.2351
11316SOL    HW136148   8.996   7.410   6.641 -0.5169  0.4262 -0.1587
11316SOL    HW236149   9.007   7.260   6.662 -2.8585  0.2189 -0.1944
11317SOL     OW36150   8.066   0.093   6.191 -0.2783 -0.0734  0.4704
11317SOL    HW136151   8.038   0.075   6.101 -0.1629 -0.7819  0.5662
11317SOL    HW236152   7.985   0.097   6.241 -0.3948  1.1037  0.2136
11318SOL     OW36153   7.675   2.171   7.346 -0.8437  0.1450 -0.2007
11318SOL    HW136154   7.589   2.204   7.374  0.2308  2.5776  0.4947
11318SOL    HW236155   7.681   2.196   7.253  0.0364  2.2365  0.3673
11319SOL     OW36156   0.970   0.732   8.553 -0.1062 -0.2473 -0.2338
11319SOL    HW136157   0.951   0.822   8.527  2.5014 -0.3463 -3.0196
11319SOL    HW236158   0.890   0.684   8.532 -0.9995  1.1341 -0.1585
11320SOL     OW36159   0.618   5.181   8.524 -0.1959 -0.2430 -0.5293
11320SOL    HW136160   0.526   5.203   8.539 -0.2759 -0.7951 -0.1878
11320SOL    HW236161   0.664   5.213   8.602 -0.0410  0.3552 -0.8597
11321SOL     OW36162   6.257   0.776   5.269 -1.0776 -0.1273 -0.5132
11321SOL    HW136163   6.345   0.771   5.232 -0.2571  0.8574  1.1702
11321SOL    HW236164   6.241   0.870   5.279 -1.9136 -0.3243  0.1304
11322SOL     OW36165   0.411   5.847   3.060  0.3249 -0.2767 -0.2599
11322SOL    HW136166   0.377   5.935   3.079  0.3891 -0.3708  0.3134
11322SOL    HW236167   0.364   5.790   3.120 -0.4110 -0.7753 -1.2906
11323SOL     OW36168   5.391   0.997   1.685  0.4078 -0.0414  0.3200
11323SOL    HW136169   5.364   1.076   1.638 -0.2332 -0.6501 -0.3663
11323SOL    HW236170   5.346   0.926   1.640  1.6132 -0.8949  0.4122
11324SOL     OW36171   8.446   1.784   7.866  0.4982 -0.5767  0.1058
11324SOL    HW136172   8.505   1.858   7.878  1.6051 -1.2368 -1.0258
11324SOL    HW236173   8.489   1.711   7.910 -0.5185 -0.6077  1.0953
11325SOL     OW36174   6.633   7.872   7.539 -0.0783 -0.3724 -0.1680
11325SOL    HW136175   6.657   7.791   7.494  0.4517 -0.0283 -0.5196
11325SOL    HW236176   6.702   7.934   7.515  0.3647 -0.2521  1.3114
11326SOL     OW36177   3.719   1.629   0.259 -0.4429  0.3174  0.4357
11326SOL    HW136178   3.811   1.630   0.231 -0.6117  0.2268 -0.1449
11326SOL    HW236179   3.720   1.580   0.341 -0.1018 -0.5804 -0.0806
11327SOL     OW36180   1.026   2.454   4.710 -0.1320 -0.5584 -0.7561
11327SOL    HW136181   1.060   2.419   4.628 -1.2261  0.6716 -1.7842
11327SOL    HW236182   1.078   2.411   4.778  0.7620 -1.6542 -2.0744
11328SOL     OW36183   8.155   0.611   1.839  0.2515  0.0289  0.5921
11328SOL    HW136184   8.157   0.534   1.897 -0.1214 -1.0434 -0.7697
11328SOL    HW236185   8.091   0.588   1.772 -0.4509  1.8726  0.5752
11329SOL     OW36186   8.986   6.210   1.817 -0.1475  0.1608  0.0752
11329SOL    HW136187   8.973   6.127   1.864 -2.1455 -0.4014 -1.3422
11329SOL    HW236188   9.081   6.223   1.818  0.0276 -0.6691  2.7292
11330SOL     OW36189   5.730   2.618   4.867 -0.3635  0.1337  0.4205
11330SOL    HW136190   5.770   2.590   4.785  1.4204  0.3842  1.1445
11330SOL    HW236191   5.656   2.559   4.879 -0.4889 -0.0868 -1.2100
11331SOL     OW36192   7.191   1.739   2.322 -0.3791  0.0580  0.2243
11331SOL    HW136193   7.238   1.746   2.239 -0.6753  3.0875  0.2123
11331SOL    HW236194   7.166   1.647   2.328 -0.9363 -0.1592 -3.3718
11332SOL     OW36195   8.667   8.469   1.894  0.0945 -0.3609  0.2402
11332SOL    HW136196   8.599   8.488   1.959  1.4516 -2.1136  2.3477
11332SOL    HW236197   8.688   8.554   1.855 -2.5180  0.3707  0.2771
11333SOL     OW36198   4.367   6.106   3.277  0.4240  0.2781  0.0160
11333SOL    HW136199   4.357   6.047   3.203 -3.3894  0.8034 -0.0565
11333SOL    HW236200   4.413   6.182   3.242  0.6967 -0.4310 -1.2109
11334SOL     OW36201   4.377   9.557   5.617 -0.4699 -0.2544  0.0274
11334SOL    HW136202   4.340   9.561   5.528 -0.5158  0.2262  0.0667
11334SOL    HW236203   4.303   9.577   5.674  0.0107  1.6129  0.0715
11335SOL     OW36204   2.133   0.727   0.724  0.0614  0.2218  1.0678
11335SOL    HW136205   2.201   0.794   0.715 -0.6385  0.6628 -1.7294
11335SOL    HW236206   2.053   0.769   0.693 -0.3882 -1.8741 -0.8249
11336SOL     OW36207   4.236   6.573   9.479  0.1908 -0.1090  0.0063
11336SOL    HW136208   4.239   6.568   9.384 -0.3291 -0.6205  0.0109
11336SOL    HW236209   4.261   6.663   9.499  1.4967 -0.3297 -0.5412
11337SOL     OW36210   2.128   7.967   4.483  0.2991  0.0927  0.1380
11337SOL    HW136211   2.099   8.056   4.500 -2.9006 -1.0120  1.2256
11337SOL    HW236212   2.190   7.947   4.553 -1.1707  0.5759  1.6314
11338SOL     OW36213   6.643   3.586   6.702 -0.3249  0.5496 -0.4230
11338SOL    HW136214   6.663   3.679   6.694 -0.0223  0.8957  3.0934
11338SOL    HW236215   6.702   3.554   6.769 -1.6307 -1.7868 -0.2951
11339SOL     OW36216   7.558   9.202   0.193 -0.9342 -0.3137  0.1111
11339SOL    HW136217   7.642   9.247   0.207 -1.1088  0.1225 -0.2366
11339SOL    HW236218   7.504   9.228   0.268 -0.6353 -0.9123  0.5500
11340SOL     OW36219   4.548   5.553   9.417  0.1211 -0.6700 -0.1205
11340SOL    HW136220   4.595   5.621   9.368 -0.7875 -0.0137 -0.1236
11340SOL    HW236221   4.457   5.581   9.414 -0.4350 -2.4431 -0.9885
11341SOL     OW36222   1.518   8.598   5.945  0.0786  0.2497 -0.0919
11341SOL    HW136223   1.559   8.659   6.006 -2.9220  1.5169  0.8015
11341SOL    HW236224   1.490   8.524   5.999 -0.4380  0.2401 -0.3744
11342SOL     OW36225   7.760   2.278   4.429 -0.0644  0.8369  0.1926
11342SOL    HW136226   7.851   2.301   4.410 -0.0746  0.6249 -0.1066
11342SOL    HW236227   7.750   2.296   4.523  0.4885  0.1981  0.3774
11343SOL     OW36228   1.619   1.071   4.292 -0.1974 -0.2812  0.0980
11343SOL    HW136229   1.664   1.155   4.288 -0.4911 -0.1495 -0.5790
11343SOL    HW236230   1.532   1.088   4.255 -0.9237 -0.4600  1.6259
11344SOL     OW36231   5.831   0.922   3.820 -0.5872  0.6342  0.0672
11344SOL    HW136232   5.748   0.932   3.772 -0.2803  0.9536 -0.4101
11344SOL    HW236233   5.890   0.882   3.757 -0.0957  1.3151  0.0890
11345SOL     OW36234   7.226   4.503   4.304 -0.2330 -0.3436  0.9698
11345SOL    HW136235   7.262   4.423   4.266  0.2775  0.3160  0.0220
11345SOL    HW236236   7.303   4.552   4.334 -0.2693  1.1121 -1.1379
11346SOL     OW36237   5.423   7.561   3.264  0.5162 -0.3719 -0.3757
11346SOL    HW136238   5.337   7.529   3.290  0.8413 -0.2177  0.9647
11346SOL    HW236239   5.423   7.653   3.289  0.9758 -0.2998 -0.6274
11347SOL     OW36240   1.894   4.039   0.720 -0.4751  0.4746  1.0577
11347SOL    HW136241   1.989   4.037   0.733 -0.5177 -3.2924  1.8454
11347SOL    HW236242   1.863   4.102   0.784  1.3271 -0.0104  2.5051
11348SOL     OW36243   2.875   5.370   8.838 -0.8228 -0.0657 -0.1687
11348SOL    HW136244   2.874   5.275   8.826 -2.4446 -0.5267  2.7020
11348SOL    HW236245   2.813   5.404   8.774 -0.9755 -1.0605 -0.5537
11349SOL     OW36246   8.227   0.473   7.687 -0.2890 -0.0411  0.2082
11349SOL    HW136247   8.192   0.479   7.599  0.5899  0.9611 -0.1033
11349SOL    HW236248   8.280   0.552   7.697  2.0997 -1.5686  0.5280
11350SOL     OW36249   5.249   1.429   7.157 -0.7910  0.3337  0.8267
11350SOL    HW136250   5.185   1.491   7.121 -1.1445 -0.2251  0.4871
11350SOL    HW236251   5.300   1.400   7.082 -1.7867 -1.1398  0.6734
11351SOL     OW36252   8.814   3.376   4.104  0.5533  1.0274  0.4290
11351SOL    HW136253   8.864   3.295   4.115 -1.5265 -0.7377 -1.7383
11351SOL    HW236254   8.861   3.424   4.036 -0.2432 -0.3404 -1.1718
11352SOL     OW36255   6.037   8.948   0.663 -0.3773 -0.2529  0.2628
11352SOL    HW136256   5.944   8.956   0.683 -0.8093 -3.0043 -0.2467
11352SOL    HW236257   6.044   8.973   0.570 -0.4978  0.5267  0.4613
11353SOL     OW36258   9.342   2.543   7.626 -0.2887  0.3488  0.0734
11353SOL    HW136259   9.389   2.626   7.617  0.0201  0.1144 -0.5364
11353SOL    HW236260   9.407   2.477   7.601 -0.4773 -0.0885  0.7269
11354SOL     OW36261   2.888   1.779   0.788  0.1750 -0.8348  0.0097
11354SOL    HW136262   2.810   1.727   0.767 -0.5074  0.5935 -1.2108
11354SOL    HW236263   2.872   1.812   0.876 -0.8159 -0.2306 -0.3758
11355SOL     OW36264   8.612   0.580   6.526  0.4482  0.2343  0.2109
11355SOL    HW136265   8.663   0.511   6.483  0.5849  0.4586  0.0108
11355SOL    HW236266   8.646   0.583   6.615 -0.6935 -1.1037  0.7400
11356SOL     OW36267   3.675   5.309   1.070 -0.0593  0.2595  0.0907
11356SOL    HW136268   3.722   5.246   1.125 -2.8374 -0.4661  1.8118
11356SOL    HW236269   3.688   5.393   1.114  1.6510  0.5540 -0.8806
11357SOL     OW36270   7.535   3.223   3.801  0.7011  0.3119  1.0807
11357SOL    HW136271   7.495   3.310   3.811  1.2120  0.7936 -0.6737
11357SOL    HW236272   7.584   3.229   3.719  0.1860 -1.8690  0.5717
11358SOL     OW36273   8.872   1.693   1.196  0.3020  0.2587 -0.3949
11358SOL    HW136274   8.848   1.786   1.201  3.0994  1.0657 -0.2580
11358SOL    HW236275   8.851   1.668   1.106  1.0739  1.5314 -0.9586
11359SOL     OW36276   3.061   4.051   6.687  0.0266 -0.0407  0.5848
11359SOL    HW136277   3.000   4.124   6.673 -0.7672 -0.8756 -0.4910
11359SOL    HW236278   3.145   4.093   6.705 -0.2722  1.1451 -0.6541
11360SOL     OW36279   0.896   6.460   3.411  0.0093  0.5831 -0.0712
11360SOL    HW136280   0.975   6.467   3.465  0.3846  2.6377 -0.7843
11360SOL    HW236281   0.926   6.419   3.330  0.1114  0.3445  0.0865
11361SOL     OW36282   5.335   7.084   5.911  0.4257 -0.1571 -0.3320
11361SOL    HW136283   5.353   7.164   5.960  0.9072 -0.4622  0.0071
11361SOL    HW236284   5.378   7.015   5.962  0.7150 -0.5201 -1.0465
11362SOL     OW36285   6.527   3.179   1.356  0.3836 -0.4972  0.1828
11362SOL    HW136286   6.604   3.152   1.306  1.1280 -1.4599  1.7779
11362SOL    HW236287   6.562   3.222   1.433 -0.6960 -0.2443  0.5510
11363SOL     OW36288   9.309   6.958   6.872  0.3678 -0.1448  0.3200
11363SOL    HW136289   9.301   7.035   6.928 -0.0490  0.1005 -0.0667
11363SOL    HW236290   9.245   6.973   6.802  0.2963 -0.8296  0.2301
11364SOL     OW36291   1.608   3.211   0.336  0.0234 -0.4482  0.5855
11364SOL    HW136292   1.598   3.260   0.418 -0.8198  2.9033 -1.3440
11364SOL    HW236293   1.703   3.205   0.324  0.2608  2.8025 -0.1134
11365SOL     OW36294   0.384   0.225   0.321 -0.7253  0.1020  0.5068
11365SOL    HW136295   0.451   0.287   0.294  0.7074 -0.5798  2.2285
11365SOL    HW236296   0.358   0.254   0.408 -1.8723 -0.2745  0.3016
11366SOL     OW36297   0.039   0.132   1.412 -0.1498 -0.6201  0.5944
11366SOL    HW136298   0.018   0.110   1.503  0.1655 -1.8914  0.3748
11366SOL    HW236299  -0.012   0.071   1.359  1.5937 -1.6483 -0.0127
11367SOL     OW36300   9.036   4.904   4.549 -0.6559 -0.2287  0.7788
11367SOL    HW136301   8.951   4.901   4.594 -0.5011  0.1834  1.1103
11367SOL    HW236302   9.099   4.880   4.617 -0.4780 -0.2240  0.6139
11368SOL     OW36303   7.425   9.460   5.650  0.3069  0.2717 -0.4506
11368SOL    HW136304   7.379   9.544   5.641 -1.3616 -0.3040  1.9450
11368SOL    HW236305   7.516   9.484   5.666 -0.1550  1.6453  0.2325
11369SOL     OW36306   4.686   5.543   4.529  0.1998  0.0766 -0.5414
11369SOL    HW136307   4.602   5.548   4.483  1.1987  3.2542 -2.3516
11369SOL    HW236308   4.665   5.568   4.619 -1.0738 -1.4063 -0.3856
11370SOL     OW36309   2.694   1.010   4.696  0.0059  0.4574 -0.1352
11370SOL    HW136310   2.668   0.949   4.627  0.0828  0.5155 -0.2147
11370SOL    HW236311   2.682   1.097   4.659  2.4197  0.5115 -0.9892
11371SOL     OW36312   1.311   9.300   6.024  0.1383  0.2850 -0.3913
11371SOL    HW136313   1.265   9.373   6.064 -0.4038 -0.0310 -0.4181
11371SOL    HW236314   1.321   9.236   6.094 -0.7744 -0.2510 -0.7296
11372SOL     OW36315   7.859   2.338   5.629  0.0306  0.4340  0.4810
11372SOL    HW136316   7.878   2.259   5.577 -2.2687 -0.2815  0.6411
11372SOL    HW236317   7.836   2.305   5.715  1.7997  1.5118  1.4312
11373SOL     OW36318   8.378   6.283   7.560  0.0620  0.0080 -0.1811
11373SOL    HW136319   8.391   6.245   7.647 -0.9828 -2.4445 -1.0103
11373SOL    HW236320   8.456   6.338   7.547  0.3041  0.3689  2.2105
11374SOL     OW36321   3.587   9.485   2.305  0.3298  0.1924  0.0414
11374SOL    HW136322   3.495   9.510   2.314  0.2522 -0.0032 -0.2072
11374SOL    HW236323   3.632   9.568   2.286  0.6938  0.8797  3.2982
11375SOL     OW36324   6.806   9.523   8.002  0.8599  0.6825 -0.5840
11375SOL    HW136325   6.747   9.506   8.075  0.4678  1.1419 -0.7910
11375SOL    HW236326   6.835   9.437   7.973  3.4587  0.4808  2.0753
11376SOL     OW36327   8.674   9.378   1.010 -0.5562 -0.2225  0.1206
11376SOL    HW136328   8.591   9.330   1.008 -1.5633  1.4961 -0.6224
11376SOL    HW236329   8.653   9.465   0.978  1.4374  0.4388  0.4672
11377SOL     OW36330   4.691   5.638   5.270 -0.0329 -0.2681  0.4616
11377SOL    HW136331   4.688   5.570   5.338  1.8471 -0.6259  0.2431
11377SOL    HW236332   4.725   5.715   5.315 -1.6748  0.3967  0.5906
11378SOL     OW36333   6.424   2.805   5.384  0.1962 -0.5750  0.1022
11378SOL    HW136334   6.499   2.864   5.377 -0.5886  0.3850 -0.4834
11378SOL    HW236335   6.362   2.837   5.318  0.3641 -2.9979 -1.3413
11379SOL     OW36336   2.744   7.624   3.421 -0.2208  0.0562 -0.0821
11379SOL    HW136337   2.658   7.617   3.464 -1.1461  1.2854 -1.6079
11379SOL    HW236338   2.728   7.594   3.332  1.3187 -1.1136  0.0058
11380SOL     OW36339   1.710   7.004   0.485  0.4248 -0.2659 -0.2509
11380SOL    HW136340   1.615   7.013   0.498  0.3094 -1.5771 -0.0571
11380SOL    HW236341   1.719   6.974   0.394  0.8345  2.3004 -1.1335
11381SOL     OW36342   4.999   2.848   5.616  0.0623  0.2457  0.3211
11381SOL    HW136343   4.996   2.765   5.569 -1.2735  0.1529  0.5553
11381SOL    HW236344   5.084   2.886   5.592  0.2599 -0.7285 -0.5588
11382SOL     OW36345   5.422   6.848   8.066  0.0063  0.2160 -0.2548
11382SOL    HW136346   5.491   6.910   8.089 -0.0289  0.2984 -0.3690
11382SOL    HW236347   5.367   6.896   8.004 -0.2953  0.2401  0.0260
11383SOL     OW36348   0.530   7.043   2.137 -0.8222  0.1331  0.0467
11383SOL    HW136349   0.545   7.086   2.053 -1.0703 -1.1423 -0.6808
11383SOL    HW236350   0.453   7.087   2.173  0.8953  2.5850  0.9651
11384SOL     OW36351   6.126   6.112   7.010  0.0166  0.3320  0.1422
11384SOL    HW136352   6.139   6.022   7.039  1.6669  0.6368  0.4333
11384SOL    HW236353   6.032   6.117   6.989 -0.2383 -1.2453  0.7641
11385SOL     OW36354   1.084   1.798   8.688  0.4063 -0.4662  0.4994
11385SOL    HW136355   1.137   1.765   8.614 -1.0511 -1.7143 -0.0314
11385SOL    HW236356   1.093   1.732   8.756  0.4131 -0.1309  0.8302
11386SOL     OW36357   4.386   1.820   9.505  0.3041  0.5110 -0.1014
11386SOL    HW136358   4.397   1.823   9.410  0.7241 -1.7280 -0.1945
11386SOL    HW236359   4.450   1.755   9.534 -0.6665  0.2399  1.5590
11387SOL     OW36360   2.958   9.380   8.337  0.0557  0.2497  0.3037
11387SOL    HW136361   2.919   9.430   8.408 -0.2737  0.5787 -0.0983
11387SOL    HW236362   2.890   9.379   8.269 -0.4439 -1.7872  0.7589
11388SOL     OW36363   7.422   0.177   5.677  0.2913  0.0329 -0.3104
11388SOL    HW136364   7.370   0.257   5.669  0.3595  0.0271 -0.8330
11388SOL    HW236365   7.501   0.194   5.626 -0.0483 -0.6541 -1.0989
11389SOL     OW36366   6.436   5.755   1.189  0.2620  0.6560  0.0697
11389SOL    HW136367   6.411   5.720   1.103 -0.2728 -2.1758  1.2563
11389SOL    HW236368   6.365   5.815   1.212 -0.6857 -0.1854 -0.5667
11390SOL     OW36369   9.170   5.486   3.435 -0.1165  0.4378  0.2664
11390SOL    HW136370   9.101   5.520   3.492 -0.7462  0.3901 -0.4469
11390SOL    HW236371   9.126   5.423   3.378  0.1659  1.5513 -1.2577
11391SOL     OW36372   3.546   0.895   0.540 -0.1542 -0.0607  0.1283
11391SOL    HW136373   3.499   0.862   0.617 -0.8156  1.7063  0.5473
11391SOL    HW236374   3.638   0.898   0.567 -0.0377 -1.6414  0.0069
11392SOL     OW36375   0.530   9.043   1.124  0.4012  0.4382  0.5238
11392SOL    HW136376   0.602   9.099   1.094  0.6321  0.3912  0.9871
11392SOL    HW236377   0.451   9.088   1.094  0.6544 -0.4915 -1.7198
11393SOL     OW36378   6.905   2.660   8.535  0.1534  0.0814  0.4661
11393SOL    HW136379   6.962   2.712   8.592  1.1118 -0.6230  0.1841
11393SOL    HW236380   6.907   2.707   8.451 -1.7431  1.4557  1.1168
11394SOL     OW36381   3.075   4.844   8.922  0.1995 -0.5717 -0.2656
11394SOL    HW136382   3.131   4.868   8.849 -0.1288 -0.8234 -0.6018
11394SOL    HW236383   3.118   4.883   8.999  0.2679  0.1459 -0.6534
11395SOL     OW36384   4.037   5.494   8.522 -0.4428  0.4550  0.1913
11395SOL    HW136385   4.072   5.522   8.437 -2.6625 -0.4058 -1.1165
11395SOL    HW236386   4.019   5.576   8.568 -0.2882  0.9958 -0.6775
11396SOL     OW36387   9.108   3.157   2.524 -0.3563 -0.1784 -0.2080
11396SOL    HW136388   9.140   3.201   2.602 -2.4005  0.5086  0.3073
11396SOL    HW236389   9.062   3.080   2.558  0.8646 -1.2730 -0.9357
11397SOL     OW36390   8.213   8.498   5.411  0.1133  0.2867  0.2575
11397SOL    HW136391   8.156   8.519   5.485 -0.3580  0.9036 -0.2597
11397SOL    HW236392   8.265   8.577   5.398  0.4656  0.0430  0.1628
11398SOL     OW36393   0.084   1.691   9.015  0.4367  0.6992  0.1158
11398SOL    HW136394   0.114   1.776   9.048 -0.7890  1.1742  0.0549
11398SOL    HW236395   0.111   1.691   8.923  2.0091  0.2542  0.5495
11399SOL     OW36396   3.183   0.126   4.413  0.2491 -0.2528  0.1864
11399SOL    HW136397   3.103   0.133   4.466 -1.4918 -0.0002 -2.3137
11399SOL    HW236398   3.205   0.033   4.416 -1.7735 -0.8537 -1.2111
11400SOL     OW36399   9.081   0.763   5.039 -0.1510 -0.5851  0.4221
11400SOL    HW136400   9.165   0.808   5.028 -0.6227  0.1296 -0.3838
11400SOL    HW236401   9.089   0.685   4.985  0.8904 -1.8479  2.2837
11401SOL     OW36402   1.798   8.078   7.691 -0.5221 -0.0097 -0.6886
11401SOL    HW136403   1.771   8.035   7.611  0.1049 -0.5504 -0.6164
11401SOL    HW236404   1.722   8.072   7.749 -1.0568  0.5890 -1.3130
11402SOL     OW36405   2.129   8.056   8.194  0.5904 -0.1921 -0.1831
11402SOL    HW136406   2.050   8.067   8.142 -0.6838 -1.1566  1.4249
11402SOL    HW236407   2.098   8.047   8.284  2.5942  0.1742  0.6175
11403SOL     OW36408   4.946   8.665   5.694 -0.1177  0.0520 -0.3710
11403SOL    HW136409   5.037   8.679   5.667 -0.1918  0.2812 -0.5056
11403SOL    HW236410   4.953   8.618   5.777  0.1314  0.2731 -0.2630
11404SOL     OW36411   0.262   6.288   7.609 -0.3634 -0.0849 -0.1512
11404SOL    HW136412   0.259   6.242   7.693  2.7214 -1.8959 -0.8537
11404SOL    HW236413   0.180   6.264   7.566 -1.1902 -0.5843  1.6029
11405SOL     OW36414   0.752   6.732   4.769 -0.5088  0.5430  0.6622
11405SOL    HW136415   0.741   6.825   4.788  0.3287  0.3271  2.4039
11405SOL    HW236416   0.726   6.687   4.850 -0.2582 -0.7065  0.0814
11406SOL     OW36417   2.675   0.174   4.019 -0.0276  0.2352  0.4973
11406SOL    HW136418   2.580   0.175   4.018 -0.1058 -0.2843  2.8278
11406SOL    HW236419   2.700   0.263   4.043  0.3129  1.4448 -3.5005
11407SOL     OW36420   4.519   7.850   3.496 -0.1037  0.2762  0.7498
11407SOL    HW136421   4.489   7.918   3.556  0.6109  2.9308 -1.7065
11407SOL    HW236422   4.444   7.831   3.440  1.1527  3.5122 -2.3576
11408SOL     OW36423   1.304   4.611   5.661 -0.0631  0.1358  0.1285
11408SOL    HW136424   1.241   4.659   5.608  0.2869 -0.3421 -0.7267
11408SOL    HW236425   1.381   4.668   5.664  0.2548 -0.2364 -0.6642
11409SOL     OW36426   3.794   2.822   6.899  0.3052 -0.4488 -0.6329
11409SOL    HW136427   3.849   2.753   6.862 -0.9078 -0.6633 -2.1138
11409SOL    HW236428   3.832   2.838   6.985  2.4342 -0.8450 -1.4370
11410SOL     OW36429   1.378   5.619   8.199 -0.0390 -0.7474 -0.2034
11410SOL    HW136430   1.320   5.591   8.270  0.4773 -1.6637 -0.1415
11410SOL    HW236431   1.340   5.581   8.121 -1.1186  0.9882 -0.5875
11411SOL     OW36432   1.142   1.043   7.519 -0.5769  0.4654 -0.6368
11411SOL    HW136433   1.174   0.966   7.471  2.6264  0.2516  1.4757
11411SOL    HW236434   1.125   1.011   7.607 -2.4073  1.6150 -0.5171
11412SOL     OW36435   0.451   2.153   6.447 -0.2654 -0.0886  0.0235
11412SOL    HW136436   0.379   2.119   6.394 -1.3216 -0.4278  1.6086
11412SOL    HW236437   0.438   2.248   6.447 -0.6019 -0.1340  0.1594
11413SOL     OW36438   9.066   8.580   5.125  0.0060  0.5762 -0.6339
11413SOL    HW136439   9.105   8.577   5.038  0.5420  1.5209 -0.4391
11413SOL    HW236440   9.044   8.489   5.145  2.5632 -0.0767 -0.5455
11414SOL     OW36441   5.354   7.672   4.987  0.4326 -0.0229  0.0333
11414SOL    HW136442   5.291   7.604   5.013 -0.5132  1.1688  0.9866
11414SOL    HW236443   5.327   7.696   4.898 -1.3714  1.3859  0.8852
11415SOL     OW36444   9.554   8.239   0.169  0.3199  0.3868 -0.1954
11415SOL    HW136445   9.614   8.272   0.236  0.8046  1.0143 -0.9134
11415SOL    HW236446   9.555   8.306   0.101  0.3421 -0.5254 -1.1265
11416SOL     OW36447   8.539   6.239   9.564 -0.1911  0.0094  0.7934
11416SOL    HW136448   8.472   6.278   9.620  0.1104  1.8843 -0.0687
11416SOL    HW236449   8.622   6.261   9.606  0.2228  3.8037 -1.5577
11417SOL     OW36450   5.226   5.659   6.951 -0.5408  0.2047 -0.0793
11417SOL    HW136451   5.297   5.633   7.010  0.8783  1.6885 -1.0519
11417SOL    HW236452   5.228   5.594   6.881 -1.0000 -0.4777  0.5231
11418SOL     OW36453   2.413   7.178   3.236  0.5020  0.0490 -0.0736
11418SOL    HW136454   2.402   7.089   3.269  1.6230  0.1505  0.6262
11418SOL    HW236455   2.446   7.228   3.310 -0.9446  1.2864 -0.2028
11419SOL     OW36456   5.019   0.731   2.168  0.8077  0.2588 -0.1419
11419SOL    HW136457   5.029   0.676   2.090 -0.9892 -0.1205 -0.1519
11419SOL    HW236458   5.073   0.690   2.235 -1.5384 -2.4381  0.2793
11420SOL     OW36459   7.581   9.272   3.206 -0.1597 -0.1966 -0.1759
11420SOL    HW136460   7.609   9.361   3.229  0.8812 -0.0212 -1.9391
11420SOL    HW236461   7.523   9.246   3.278  1.9271  0.7236  1.9752
11421SOL     OW36462   5.037   5.462   4.628 -0.0451 -0.3676 -0.7147
11421SOL    HW136463   4.958   5.445   4.680 -1.5738  0.0560 -2.7256
11421SOL    HW236464   5.103   5.403   4.663 -0.8580  0.1388  1.8686
11422SOL     OW36465   9.052   0.709   7.562 -0.0094  0.0533 -0.1275
11422SOL    HW136466   9.006   0.635   7.600  1.2918 -1.2557 -0.9904
11422SOL    HW236467   9.138   0.674   7.539  0.3390  1.6173 -1.3452
11423SOL     OW36468   5.525   0.323   3.942 -0.0813 -0.0788 -0.3255
11423SOL    HW136469   5.552   0.236   3.969 -1.7962 -0.5999 -0.1185
11423SOL    HW236470   5.574   0.383   3.999  1.3171 -0.8705 -0.6581
11424SOL     OW36471   8.196   6.057   2.912 -0.5785 -0.3796  0.2656
11424SOL    HW136472   8.229   6.120   2.848  0.6850  0.2148  1.4441
11424SOL    HW236473   8.269   6.046   2.974 -1.6848 -1.0711  1.4824
11425SOL     OW36474   2.423   6.300   1.734  0.1044  0.1293 -0.5827
11425SOL    HW136475   2.338   6.330   1.763  0.7524  0.8306  0.6608
11425SOL    HW236476   2.481   6.376   1.744  1.2651 -0.8375  0.3812
11426SOL     OW36477   7.749   0.512   9.154 -0.4407  0.7710  0.8643
11426SOL    HW136478   7.791   0.445   9.209  0.6614  0.1809 -0.6135
11426SOL    HW236479   7.811   0.585   9.154 -0.1801  0.5661  0.0370
11427SOL     OW36480   4.815   6.065   9.404 -0.2277  0.2055  0.8130
11427SOL    HW136481   4.882   6.026   9.461 -1.4128 -2.0278  0.8063
11427SOL    HW236482   4.794   6.149   9.444  0.3367 -0.4719  2.6004
11428SOL     OW36483   6.259   9.252   6.931  0.1651 -0.2223  0.0225
11428SOL    HW136484   6.207   9.238   7.010  0.2428 -2.4523 -0.2595
11428SOL    HW236485   6.350   9.252   6.961  0.1464  1.4891  0.2159
11429SOL     OW36486   9.048   9.319   5.664 -0.2871 -0.1874 -0.1356
11429SOL    HW136487   8.967   9.350   5.624 -0.0443  0.0368 -0.4641
11429SOL    HW236488   9.020   9.272   5.742 -0.6262  1.6612  0.9033
11430SOL     OW36489   6.561   4.884   7.593 -0.6185 -0.3882 -0.3895
11430SOL    HW136490   6.517   4.839   7.666 -2.0503  1.1115 -0.2645
11430SOL    HW236491   6.652   4.891   7.620 -1.0422 -0.2318  1.0779
11431SOL     OW36492   3.375   8.387   0.768 -0.3027 -0.3392 -0.3532
11431SOL    HW136493   3.374   8.424   0.856 -1.5585 -0.8139 -0.1535
11431SOL    HW236494   3.357   8.462   0.710 -0.5973 -0.2337 -0.1242
11432SOL     OW36495   9.230   2.617   3.785 -0.0698 -0.0062 -0.1911
11432SOL    HW136496   9.308   2.650   3.830  0.2488  0.7131 -1.2336
11432SOL    HW236497   9.236   2.653   3.697 -1.0307 -0.8309 -0.6151
11433SOL     OW36498   6.094   8.353   4.056  0.4669  0.0193 -0.0178
11433SOL    HW136499   6.034   8.418   4.019  0.3233  0.4464  0.9288
11433SOL    HW236500   6.158   8.405   4.105  2.3524 -0.3347 -1.9464
11434SOL     OW36501   3.040   1.266   7.876  0.5430  0.7414  0.0346
11434SOL    HW136502   3.046   1.314   7.958  0.4102 -0.7617  0.9627
11434SOL    HW236503   2.965   1.208   7.886 -1.1412  2.3428 -2.2014
11435SOL     OW36504   1.935   5.545   6.734  0.4216  0.1105 -0.0311
11435SOL    HW136505   1.986   5.480   6.686 -0.2943 -0.4004 -0.1076
11435SOL    HW236506   1.855   5.499   6.760  0.6543  0.4633  1.3832
11436SOL     OW36507   1.396   4.393   6.594  0.2653  0.0159 -0.4804
11436SOL    HW136508   1.382   4.413   6.687 -1.2423 -1.2358 -0.3942
11436SOL    HW236509   1.459   4.458   6.565  0.9336  0.3150  1.4715
11437SOL     OW36510   7.589   2.554   3.465 -0.3079 -0.6859 -0.3499
11437SOL    HW136511   7.501   2.530   3.495 -0.6334  0.3789 -0.4027
11437SOL    HW236512   7.637   2.573   3.545 -0.9521  1.4060 -0.4035
11438SOL     OW36513   5.649   6.976   0.725  0.2278 -0.4443  0.4703
11438SOL    HW136514   5.553   6.977   0.725  0.1994 -1.6884  1.0431
11438SOL    HW236515   5.672   6.894   0.681  1.0829  0.8920 -1.7479
11439SOL     OW36516   3.825   4.550   3.380  0.2292 -0.1285  0.4238
11439SOL    HW136517   3.917   4.544   3.406 -0.0450 -1.3059  1.1880
11439SOL    HW236518   3.779   4.580   3.458 -0.0109  0.7945 -0.0528
11440SOL     OW36519   1.305   7.176   9.087  0.1192  0.5317  0.3036
11440SOL    HW136520   1.355   7.173   9.006  1.6589  1.6832  1.1666
11440SOL    HW236521   1.214   7.184   9.059  0.6587  1.3590 -1.2977
11441SOL     OW36522   7.014   4.793   0.547  0.3058 -0.4161  0.4125
11441SOL    HW136523   6.960   4.745   0.611  0.7751 -1.7711 -0.1848
11441SOL    HW236524   6.964   4.789   0.466 -0.2685  1.2715  0.6325
11442SOL     OW36525   6.083   0.584   6.967  0.3445 -0.3673 -0.1183
11442SOL    HW136526   6.133   0.606   7.046 -0.3644  1.7114 -0.1863
11442SOL    HW236527   5.993   0.611   6.987 -0.0698 -0.8188 -1.2587
11443SOL     OW36528   2.072   1.679   8.315  0.8693  0.0022  0.1915
11443SOL    HW136529   2.117   1.743   8.370  1.0906  0.9884 -1.0793
11443SOL    HW236530   1.979   1.700   8.325  0.7146 -1.3538  1.9941
11444SOL     OW36531   8.689   7.239   8.299 -0.4002  0.5487  0.2011
11444SOL    HW136532   8.699   7.217   8.392 -0.6462  2.7438  0.8124
11444SOL    HW236533   8.710   7.159   8.252 -1.1145 -0.8602  2.1847
11445SOL     OW36534   4.329   6.653   0.698  0.1620  0.8940  0.2527
11445SOL    HW136535   4.325   6.724   0.635  0.2685 -0.1530 -0.9768
11445SOL    HW236536   4.256   6.596   0.676  2.0559 -1.2011 -1.1414
11446SOL     OW36537   3.930   1.386   5.547 -0.1065 -0.3039 -0.3491
11446SOL    HW136538   3.868   1.398   5.475  0.7907 -0.4721 -1.1741
11446SOL    HW236539   3.922   1.466   5.599 -0.2219  0.1667 -1.0690
11447SOL     OW36540   9.327   1.321   2.366  0.7291 -0.4015 -0.1735
11447SOL    HW136541   9.374   1.249   2.409  0.3412 -0.6396 -0.1414
11447SOL    HW236542   9.316   1.387   2.434  1.4831 -0.1086 -0.3164
11448SOL     OW36543   0.158   1.706   1.022 -0.2418 -0.0853  0.7584
11448SOL    HW136544   0.211   1.627   1.028  0.3487  0.3515  1.4736
11448SOL    HW236545   0.157   1.741   1.111 -2.1138 -0.3157  0.8648
11449SOL     OW36546   2.621   2.666   7.737  0.2259 -0.2791 -0.1473
11449SOL    HW136547   2.630   2.626   7.651  0.2268 -0.7534  0.0733
11449SOL    HW236548   2.618   2.593   7.798  1.1586  0.0782  0.3523
11450SOL     OW36549   3.945   5.026   8.686 -0.5182 -0.1163 -0.0458
11450SOL    HW136550   3.988   5.058   8.765 -1.9256  0.4110  0.5331
11450SOL    HW236551   3.994   5.067   8.614  0.4593 -0.2008  0.5563
11451SOL     OW36552   0.506   6.703   2.321 -0.2304  0.2710  0.0267
11451SOL    HW136553   0.535   6.751   2.243 -3.8154  0.7439 -1.2155
11451SOL    HW236554   0.471   6.621   2.286 -2.0897  0.5729  1.0636
11452SOL     OW36555   2.963   2.005   8.067  0.1589 -0.2034 -0.7010
11452SOL    HW136556   2.934   2.083   8.114  1.7661 -0.4387  0.7560
11452SOL    HW236557   3.021   2.038   7.998  0.2551 -0.0632 -0.5517
11453SOL     OW36558   3.708   8.515   5.046  0.0220 -0.0459 -0.7477
11453SOL    HW136559   3.788   8.463   5.045 -0.5538 -0.9520 -0.8906
11453SOL    HW236560   3.720   8.575   5.120  1.1506  0.3718 -1.2395
11454SOL     OW36561   7.913   6.600   2.094 -0.3978 -0.2184 -0.3407
11454SOL    HW136562   8.005   6.628   2.089 -0.4259 -0.1101 -0.2484
11454SOL    HW236563   7.905   6.532   2.027  0.2103 -1.4991  0.8407
11455SOL     OW36564   9.089   0.027   8.505 -0.1797  0.0116 -0.3910
11455SOL    HW136565   9.109   0.038   8.412 -0.3601  0.2626 -0.4010
11455SOL    HW236566   9.066   0.115   8.535  0.6534  0.0889  0.0710
11456SOL     OW36567   7.205   6.102   6.323  0.1788 -0.5221  0.2741
11456SOL    HW136568   7.180   6.037   6.258  0.5531  1.0772 -1.5666
11456SOL    HW236569   7.128   6.160   6.330 -0.0456 -0.9468  1.6605
11457SOL     OW36570   9.370   7.333   9.038  0.6088 -0.7023 -0.6753
11457SOL    HW136571   9.308   7.305   8.970 -0.0326  0.1642 -0.4675
11457SOL    HW236572   9.371   7.260   9.101 -0.1883 -0.7412 -0.6942
11458SOL     OW36573   7.433   1.572   4.499 -0.2532 -0.1989  0.4621
11458SOL    HW136574   7.510   1.616   4.464 -0.6626  0.6515  0.6055
11458SOL    HW236575   7.461   1.538   4.584  0.4134 -1.2825 -0.1729
11459SOL     OW36576   1.202   6.586   7.232  0.0240  0.0467 -0.3348
11459SOL    HW136577   1.192   6.536   7.151  0.3272  1.8381 -1.5554
11459SOL    HW236578   1.292   6.569   7.259  0.4632  0.7025 -1.3171
11460SOL     OW36579   9.432   2.686   2.970 -0.5063 -0.4679 -0.5559
11460SOL    HW136580   9.405   2.622   3.036 -0.3181 -0.4753 -0.4862
11460SOL    HW236581   9.523   2.706   2.991 -0.5033 -0.3265 -0.6972
11461SOL     OW36582   3.893   2.386   2.378  0.2144 -0.3073 -0.1393
11461SOL    HW136583   3.965   2.406   2.438  0.3110 -0.2188 -0.2857
11461SOL    HW236584   3.831   2.337   2.431  0.2371 -0.1101  0.0726
11462SOL     OW36585   4.216   8.083   3.722 -0.0386 -0.0937 -0.6610
11462SOL    HW136586   4.197   8.176   3.738 -1.2086 -0.6877  1.8115
11462SOL    HW236587   4.279   8.084   3.650 -1.3109  2.5297 -1.8773
11463SOL     OW36588   0.713   0.456   8.868  0.5336  0.0732 -0.0792
11463SOL    HW136589   0.807   0.456   8.851  0.0153 -0.7706 -4.0229
11463SOL    HW236590   0.681   0.378   8.822 -2.1157  0.3121  1.1671
11464SOL     OW36591   3.706   2.172   2.465 -0.2607  0.0625  0.1739
11464SOL    HW136592   3.626   2.166   2.412  0.1217 -2.0379 -0.2821
11464SOL    HW236593   3.675   2.179   2.555 -1.0174 -1.1554  0.0414
11465SOL     OW36594   2.568   2.883   3.402 -0.1390 -0.4330  0.2181
11465SOL    HW136595   2.593   2.816   3.338 -0.9961  0.7982 -1.5104
11465SOL    HW236596   2.649   2.932   3.418  0.1209 -0.8545  0.2285
11466SOL     OW36597   3.909   0.745   5.630  0.1474  0.2449 -0.1335
11466SOL    HW136598   3.964   0.795   5.690 -1.0150  0.5529  0.7151
11466SOL    HW236599   3.969   0.711   5.564  1.2071  1.3010  0.2702
11467SOL     OW36600   3.073   1.045   5.284  0.1285 -0.4387  0.7528
11467SOL    HW136601   3.060   1.063   5.377 -1.5299  1.4581  0.2271
11467SOL    HW236602   3.009   0.977   5.264 -2.1532  1.6660  0.3457
11468SOL     OW36603   8.614   6.569   6.636 -0.1436  0.3401 -0.1018
11468SOL    HW136604   8.585   6.479   6.654  1.3385 -0.8188 -2.8800
11468SOL    HW236605   8.533   6.619   6.628 -1.0831 -1.1686 -0.3860
11469SOL     OW36606   3.464   6.247   0.296  0.1646  0.3831 -0.3818
11469SOL    HW136607   3.536   6.210   0.348 -1.4347 -1.8295  0.4434
11469SOL    HW236608   3.480   6.216   0.207  1.9562  2.6961 -0.9358
11470SOL     OW36609   3.439   3.442   1.440  0.1164 -0.6388  0.4878
11470SOL    HW136610   3.420   3.536   1.442  0.9484 -0.4527  0.0154
11470SOL    HW236611   3.522   3.434   1.487  0.6547 -0.9769 -0.4927
11471SOL     OW36612   1.353   0.791   4.267  0.2912 -0.5072  0.0844
11471SOL    HW136613   1.269   0.822   4.299  0.6806  0.3701  0.2877
11471SOL    HW236614   1.406   0.779   4.347  1.2588  1.6630 -0.1380
11472SOL     OW36615   2.196   6.253   6.910 -0.2360 -0.1222 -0.5482
11472SOL    HW136616   2.149   6.246   6.994  1.1523  1.9250  0.4779
11472SOL    HW236617   2.206   6.162   6.881 -0.5900 -0.9142  1.5970
11473SOL     OW36618   0.366   0.744   6.492  0.1065 -0.9010 -0.5725
11473SOL    HW136619   0.279   0.780   6.510  0.4670  0.2502 -1.0693
11473SOL    HW236620   0.360   0.653   6.522 -0.7933 -0.4188  0.8598
11474SOL     OW36621   5.107   0.970   0.030 -0.3591 -0.0989 -0.3828
11474SOL    HW136622   5.139   0.880   0.038  2.2698  0.6814 -1.0477
11474SOL    HW236623   5.032   0.963  -0.029  0.3806 -1.7334 -1.1992
11475SOL     OW36624   1.697   3.742   4.413  0.0835 -0.0007  0.0679
11475SOL    HW136625   1.741   3.767   4.494  0.1569  1.6892 -0.4528
11475SOL    HW236626   1.766   3.747   4.346 -0.5213  1.1388 -0.4957
11476SOL     OW36627   8.833   2.020   7.408  0.1670  0.4155  0.1979
11476SOL    HW136628   8.874   2.076   7.342  0.0801 -1.6638 -1.7718
11476SOL    HW236629   8.906   1.973   7.447  0.1596  1.1868  1.1572
11477SOL     OW36630   8.540   1.714   2.720 -0.1638  0.0636 -0.3771
11477SOL    HW136631   8.580   1.782   2.773 -0.0558 -0.2782 -0.0130
11477SOL    HW236632   8.590   1.714   2.639  0.0234  0.2211 -0.2628
11478SOL     OW36633   1.663   8.297   1.531  0.3384  0.3645  0.2898
11478SOL    HW136634   1.637   8.263   1.617 -1.2103  1.1466  0.1654
11478SOL    HW236635   1.700   8.383   1.551 -0.5725  0.8043  0.1471
11479SOL     OW36636   2.130   2.372   3.925  0.4520  0.0360  0.8224
11479SOL    HW136637   2.158   2.464   3.928  0.4731  0.0094  2.1039
11479SOL    HW236638   2.036   2.375   3.946  0.6564 -0.2919  1.8694
11480SOL     OW36639   9.495   2.794   8.965  0.3207 -0.4008  0.0128
11480SOL    HW136640   9.544   2.842   9.032  0.6763 -0.3093 -0.3097
11480SOL    HW236641   9.448   2.863   8.917 -0.5978 -0.5281  0.6811
11481SOL     OW36642   9.290   4.431   1.817 -0.2450 -0.1495 -0.4545
11481SOL    HW136643   9.291   4.382   1.899 -0.0963 -1.6731 -1.3267
11481SOL    HW236644   9.379   4.465   1.809 -1.1157  3.2179  1.7562
11482SOL     OW36645   0.376   5.239   4.481 -0.4113  0.3219  0.1289
11482SOL    HW136646   0.346   5.169   4.425  0.2424  0.1110  0.0279
11482SOL    HW236647   0.437   5.289   4.426  2.1133 -1.2709  1.2973
11483SOL     OW36648   1.068   5.284   4.277  0.5157 -0.5239  0.3085
11483SOL    HW136649   1.060   5.315   4.367 -1.0268 -0.3801  0.1459
11483SOL    HW236650   0.982   5.250   4.256  0.7572 -0.2375 -1.2374
11484SOL     OW36651   9.024   1.108   6.266 -0.7142 -0.0140  0.3056
11484SOL    HW136652   8.964   1.034   6.261 -0.7186  0.0224 -0.1625
11484SOL    HW236653   9.070   1.108   6.182 -1.9573  1.5753 -0.4277
11485SOL     OW36654   9.034   6.399   3.593 -0.4867  0.3767 -0.1663
11485SOL    HW136655   9.106   6.386   3.655  2.7691  2.2040 -3.2037
11485SOL    HW236656   8.999   6.486   3.615 -0.5294  0.2802  0.1565
11486SOL     OW36657   7.142   0.562   5.891 -0.6333  0.2243  0.0927
11486SOL    HW136658   7.115   0.550   5.982 -0.8922 -0.0766 -0.0239
11486SOL    HW236659   7.212   0.627   5.896 -0.6128  0.1754  0.5133
11487SOL     OW36660   2.877   6.292   4.275  0.0637  0.1616 -0.0866
11487SOL    HW136661   2.960   6.261   4.312 -0.6708 -1.4666  0.2761
11487SOL    HW236662   2.835   6.213   4.241 -1.8643  0.7569  0.7723
11488SOL     OW36663   0.234   4.172   9.571 -0.1649  0.0215 -0.3633
11488SOL    HW136664   0.233   4.193   9.477 -0.1596  2.9217  0.1723
11488SOL    HW236665   0.324   4.191   9.598 -0.1087 -1.0161  0.1975
11489SOL     OW36666   2.544   9.550   8.503  0.1229  0.2200  0.7817
11489SOL    HW136667   2.598   9.621   8.470 -1.8562  0.5318 -2.1587
11489SOL    HW236668   2.528   9.494   8.427 -0.3838 -2.0746  2.4654
11490SOL     OW36669   1.590   2.482   2.516 -0.1277  0.6298 -0.6906
11490SOL    HW136670   1.666   2.515   2.564  0.8603  1.0748 -2.4551
11490SOL    HW236671   1.546   2.423   2.577  0.7412  1.5793  0.9127
11491SOL     OW36672   3.271   6.567   1.321 -0.0817 -0.8232 -0.1582
11491SOL    HW136673   3.262   6.534   1.411  1.1831  0.1223  0.3565
11491SOL    HW236674   3.230   6.653   1.323  5.2162  2.1338  1.3855
11492SOL     OW36675   7.171   7.651   9.117  0.0053  0.5017  0.0291
11492SOL    HW136676   7.215   7.664   9.201 -0.0871  2.3332 -0.1573
11492SOL    HW236677   7.236   7.676   9.052 -0.0158 -0.6382 -0.4466
11493SOL     OW36678   4.740   5.062   8.503 -0.2633  0.1436  0.2277
11493SOL    HW136679   4.685   5.078   8.426  0.4719 -2.0555 -0.8434
11493SOL    HW236680   4.829   5.079   8.472 -0.1001  1.2856  1.2466
11494SOL     OW36681   6.719   1.712   5.612 -0.2211  0.0581 -0.1247
11494SOL    HW136682   6.674   1.752   5.687 -0.5270  0.5868 -0.5881
11494SOL    HW236683   6.681   1.624   5.607  1.1716 -0.7092  1.5113
11495SOL     OW36684   9.129   5.005   5.885  0.1875 -0.2761  0.3914
11495SOL    HW136685   9.068   4.932   5.892  0.3932 -0.3815  1.1583
11495SOL    HW236686   9.213   4.965   5.860 -0.0646 -0.1180 -0.7890
11496SOL     OW36687   3.370   2.276   7.829  0.3236 -0.1612 -0.2093
11496SOL    HW136688   3.435   2.304   7.894 -1.5543  0.2605  1.5764
11496SOL    HW236689   3.371   2.345   7.763  0.3734  0.8098  0.7807
11497SOL     OW36690   5.581   7.767   2.852  0.0309  0.0169  0.2645
11497SOL    HW136691   5.589   7.843   2.909  1.4191 -1.7253  2.5742
11497SOL    HW236692   5.544   7.699   2.908 -1.4294 -1.0067 -1.7986
11498SOL     OW36693   6.371   3.384   6.963 -0.1486 -0.3050  0.3311
11498SOL    HW136694   6.319   3.303   6.954 -1.1108 -0.0416  2.8330
11498SOL    HW236695   6.456   3.362   6.926 -0.2567 -2.6341  1.2941
11499SOL     OW36696   0.919   8.433   4.698  0.3339  0.8898  0.1798
11499SOL    HW136697   0.869   8.502   4.654 -1.3644  0.2159  0.9372
11499SOL    HW236698   0.939   8.370   4.628  2.2168  2.2682 -0.5870
11500SOL     OW36699   7.652   8.928   1.504 -0.1013  0.1927  0.2386
11500SOL    HW136700   7.616   9.000   1.557 -0.1062 -1.3566  2.4923
11500SOL    HW236701   7.746   8.931   1.521 -0.1636 -0.6185  0.7668
11501SOL     OW36702   5.079   8.580   9.513 -0.1568  0.2384  1.0298
11501SOL    HW136703   5.060   8.486   9.522  0.9086 -0.4036 -2.0471
11501SOL    HW236704   5.000   8.617   9.474 -0.1989  0.4000  1.2692
11502SOL     OW36705   8.727   4.205   9.149 -0.1473 -0.4432  0.0792
11502SOL    HW136706   8.703   4.157   9.069 -1.2851  0.6031 -0.2475
11502SOL    HW236707   8.782   4.277   9.118  2.2943 -1.9394  0.6635
11503SOL     OW36708   5.690   3.765   1.342  0.1136 -0.0785  0.4905
11503SOL    HW136709   5.769   3.793   1.297  0.4922 -1.5036  0.1952
11503SOL    HW236710   5.618   3.803   1.291  0.5979  1.4386  0.9168
11504SOL     OW36711   0.675   4.625   3.457  0.3647 -0.5318 -0.0224
11504SOL    HW136712   0.699   4.594   3.370  1.9780 -0.7052  0.4539
11504SOL    HW236713   0.731   4.575   3.517  0.6066  0.8957  0.9899
11505SOL     OW36714   3.901   1.370   8.419 -0.7935  0.0207 -0.6857
11505SOL    HW136715   3.907   1.363   8.324  0.3357 -1.0305 -0.5634
11505SOL    HW236716   3.894   1.279   8.449 -0.5340  0.3013  0.2672
11506SOL     OW36717   0.361   6.478   3.031  0.4851 -0.5101  0.1089
11506SOL    HW136718   0.428   6.546   3.035  1.5280 -1.3770 -1.4899
11506SOL    HW236719   0.410   6.396   3.041 -0.2212 -1.1964 -1.6854
11507SOL     OW36720   3.478   1.910   0.820 -0.9609  0.7902 -0.1907
11507SOL    HW136721   3.385   1.912   0.798 -0.6514 -0.1074 -1.8284
11507SOL    HW236722   3.497   1.816   0.831 -0.6231  1.0821  2.0222
11508SOL     OW36723   2.253   5.487   6.799  0.0576 -0.0254  0.2367
11508SOL    HW136724   2.322   5.422   6.788  0.8722  0.8939 -0.2844
11508SOL    HW236725   2.183   5.459   6.740 -0.1353 -1.0998  0.9514
11509SOL     OW36726   5.199   5.067   7.895  0.2395 -0.4123 -0.0381
11509SOL    HW136727   5.108   5.083   7.872  0.1146 -0.4921  0.3781
11509SOL    HW236728   5.248   5.138   7.854 -0.1031  0.0598  0.3626
11510SOL     OW36729   1.713   2.454   5.826 -0.5751  0.0911 -0.3305
11510SOL    HW136730   1.633   2.433   5.778 -0.4442  1.2399 -1.0681
11510SOL    HW236731   1.768   2.501   5.763  0.0955  0.5560  0.5802
11511SOL     OW36732   3.993   3.480   3.442 -0.7430 -0.3906  0.8347
11511SOL    HW136733   3.902   3.508   3.435 -1.1444 -1.7445  0.4482
11511SOL    HW236734   4.031   3.498   3.356 -0.7006 -0.0440  0.9237
11512SOL     OW36735   3.569   8.287   0.377 -0.2159  0.4587  0.4112
11512SOL    HW136736   3.623   8.260   0.451 -0.9210  1.2927  1.2601
11512SOL    HW236737   3.556   8.381   0.390 -1.1154  0.4446 -0.2669
11513SOL     OW36738   4.734   8.852   2.287  0.5603 -0.1034 -0.3687
11513SOL    HW136739   4.781   8.774   2.314  1.5510  0.5313 -0.1860
11513SOL    HW236740   4.751   8.860   2.193  0.3723 -0.1569 -0.4091
11514SOL     OW36741   9.544   5.807   6.109  0.3740  0.3058 -0.1131
11514SOL    HW136742   9.637   5.826   6.123  0.7436 -2.1883  1.7165
11514SOL    HW236743   9.544   5.720   6.069 -1.1729  0.5590 -0.7058
11515SOL     OW36744   7.544   5.077   8.502 -0.1750  0.5688 -0.2547
11515SOL    HW136745   7.601   5.017   8.455  1.0725  1.7575 -0.2998
11515SOL    HW236746   7.601   5.121   8.565 -0.9312  2.0988 -0.5840
11516SOL     OW36747   0.558   2.312   0.328 -0.2312  0.1019  0.5819
11516SOL    HW136748   0.641   2.346   0.293 -0.5349  0.3959  0.1457
11516SOL    HW236749   0.490   2.355   0.277 -0.6607 -0.1447  0.9336
11517SOL     OW36750   6.305   3.428   7.651  0.7175 -0.1581  0.2480
11517SOL    HW136751   6.307   3.460   7.742 -0.1786 -0.4475  0.3862
11517SOL    HW236752   6.392   3.392   7.636  0.6500 -0.7902  1.2561
11518SOL     OW36753   7.458   2.263   5.791 -0.2722  0.3914 -0.0197
11518SOL    HW136754   7.551   2.244   5.785  0.0369  1.1180  1.7749
11518SOL    HW236755   7.449   2.312   5.873 -2.4084 -0.7382  0.4917
11519SOL     OW36756   4.649   3.444   8.906 -0.2559  0.2441 -0.5048
11519SOL    HW136757   4.566   3.396   8.910 -0.1093  0.0980  2.1223
11519SOL    HW236758   4.624   3.532   8.874 -0.9932 -0.5142 -2.1669
11520SOL     OW36759   8.120   8.419   5.143  0.3352  0.0317 -0.0127
11520SOL    HW136760   8.147   8.446   5.230  1.2867 -1.0526  0.0575
11520SOL    HW236761   8.136   8.495   5.087  0.0708  0.6067  0.6893
11521SOL     OW36762   1.414   3.180   2.716  0.0963  0.0607  0.0653
11521SOL    HW136763   1.482   3.218   2.773  0.5402  0.0838 -0.4714
11521SOL    HW236764   1.349   3.144   2.777  0.6649 -0.0957  0.5887
11522SOL     OW36765   0.345   1.295   7.803  0.5527  0.1168  0.0725
11522SOL    HW136766   0.379   1.274   7.716  1.5224  0.8666  0.2452
11522SOL    HW236767   0.255   1.263   7.803  0.3173  0.7344 -1.4471
11523SOL     OW36768   3.006   0.695   3.395  0.4323  0.1486 -0.1350
11523SOL    HW136769   3.005   0.774   3.341  0.7409  0.3360  0.1288
11523SOL    HW236770   2.962   0.629   3.342 -0.7643  0.7696  0.0623
11524SOL     OW36771   1.563   5.368   3.169 -0.1619  0.0269 -0.5742
11524SOL    HW136772   1.596   5.383   3.080  1.1533  0.5131 -0.0335
11524SOL    HW236773   1.520   5.282   3.164 -1.4889  0.7206 -2.0258
11525SOL     OW36774   8.791   2.117   5.787 -0.8702 -0.3161 -0.3438
11525SOL    HW136775   8.822   2.206   5.796 -0.5764 -0.5768  1.6287
11525SOL    HW236776   8.838   2.068   5.855 -3.6842 -1.2146  1.1076
11526SOL     OW36777   9.407   8.100   4.756  0.1295 -0.7267  0.3783
11526SOL    HW136778   9.489   8.088   4.804  0.3478  1.3335  0.6154
11526SOL    HW236779   9.348   8.141   4.820 -0.7805 -1.2881 -0.0805
11527SOL     OW36780   3.381   0.317   4.179 -0.5300 -0.2209 -0.0691
11527SOL    HW136781   3.337   0.398   4.201  0.5938  0.2285  0.6159
11527SOL    HW236782   3.436   0.340   4.104  2.4313  0.6578  2.1664
11528SOL     OW36783   6.158   4.594   5.735  0.0236 -0.1952  0.0994
11528SOL    HW136784   6.119   4.649   5.804  1.9683 -0.6208  1.6312
11528SOL    HW236785   6.240   4.562   5.774  1.1915 -0.4874 -2.4230
11529SOL     OW36786   3.148   2.143   7.869  0.3059  0.2681 -0.3237
11529SOL    HW136787   3.226   2.198   7.864 -0.6770  1.7044 -0.6779
11529SOL    HW236788   3.181   2.053   7.871  1.9930  0.8700  0.6607
11530SOL     OW36789   4.265   2.740   5.092  0.0183  0.2293  0.5436
11530SOL    HW136790   4.353   2.762   5.123 -0.5638  1.6745  1.2872
11530SOL    HW236791   4.231   2.822   5.057 -1.3919 -0.0434  1.1952
11531SOL     OW36792   2.564   0.118   5.403 -0.5539 -0.1028 -0.3662
11531SOL    HW136793   2.574   0.071   5.486 -0.3050 -0.9307 -0.8533
11531SOL    HW236794   2.653   0.146   5.380 -0.3885 -1.1635 -1.0805
11532SOL     OW36795   5.912   4.231   2.648 -0.1393 -0.0438 -0.2998
11532SOL    HW136796   5.971   4.304   2.666 -1.4636  1.3639 -1.3801
11532SOL    HW236797   5.831   4.272   2.618 -1.2521 -1.9448 -0.0679
11533SOL     OW36798   6.222   4.476   2.975  0.2864  0.2336  0.0167
11533SOL    HW136799   6.222   4.406   3.040  0.6819  0.5040  0.3117
11533SOL    HW236800   6.309   4.515   2.982 -0.7048  2.4097  1.6512
11534SOL     OW36801   3.381   1.343   8.440  0.1387 -0.2001 -0.3067
11534SOL    HW136802   3.389   1.341   8.536  2.3982  1.6708 -0.3513
11534SOL    HW236803   3.377   1.251   8.414  3.7255 -1.0047  1.4061
11535SOL     OW36804   1.229   4.598   4.722  0.4229 -0.0602 -0.5660
11535SOL    HW136805   1.155   4.547   4.689  0.3621 -0.4042  0.0921
11535SOL    HW236806   1.246   4.662   4.653 -1.9832  1.6004  0.2740
11536SOL     OW36807   3.142   3.379   7.168  0.4283  0.0831  0.7813
11536SOL    HW136808   3.148   3.359   7.075 -0.4275  1.7143  0.3362
11536SOL    HW236809   3.232   3.393   7.196  0.6482  0.1041  0.0758
11537SOL     OW36810   3.877   1.555   6.786 -0.2669 -0.6983 -0.0529
11537SOL    HW136811   3.786   1.525   6.780 -0.3036 -0.8758  1.1645
11537SOL    HW236812   3.925   1.479   6.819  0.3169 -0.5823 -0.6279
11538SOL     OW36813   0.025   3.593   4.823 -0.5307  0.3624  0.3626
11538SOL    HW136814  -0.017   3.614   4.907 -0.4070 -1.3463  0.9031
11538SOL    HW236815   0.119   3.601   4.841 -0.5114  0.2355  0.3198
11539SOL     OW36816   2.055   6.075   1.474  0.5005  0.1171  0.3272
11539SOL    HW136817   2.018   5.989   1.495 -1.1054  0.5973 -0.4243
11539SOL    HW236818   2.054   6.122   1.557 -0.8676  0.2064  0.2860
11540SOL     OW36819   1.387   4.821   6.743  0.1657 -0.2105  0.7515
11540SOL    HW136820   1.412   4.748   6.687 -1.3914 -0.8875  0.8892
11540SOL    HW236821   1.301   4.847   6.711  1.1191  2.3307 -0.0171
11541SOL     OW36822   9.201   4.869   9.056 -0.1179  0.0173  0.4796
11541SOL    HW136823   9.265   4.898   8.990 -0.1271  0.2665  0.5806
11541SOL    HW236824   9.178   4.949   9.104 -1.3366  0.1418 -0.2600
11542SOL     OW36825   2.916   8.086   4.747 -0.3932  0.5661  0.2231
11542SOL    HW136826   2.899   8.061   4.656  1.5423 -0.6491  0.1508
11542SOL    HW236827   2.974   8.018   4.780 -1.6322  0.5817  2.6302
11543SOL     OW36828   9.477   5.741   8.257  0.1146  0.1336  0.5252
11543SOL    HW136829   9.400   5.732   8.201  0.5272  0.1719 -0.0595
11543SOL    HW236830   9.482   5.835   8.276 -1.7393 -0.1931  3.1181
11544SOL     OW36831   4.458   1.226   2.798 -0.2932  0.2994 -0.7797
11544SOL    HW136832   4.407   1.198   2.722 -0.4548  2.6543 -1.6142
11544SOL    HW236833   4.392   1.258   2.860 -0.0012  2.2740 -1.4005
11545SOL     OW36834   8.597   0.649   0.992 -0.1701  0.0416 -0.1567
11545SOL    HW136835   8.626   0.605   0.912  0.9264 -0.1578  0.3349
11545SOL    HW236836   8.504   0.667   0.977 -0.0011 -0.0631 -1.4395
11546SOL     OW36837   6.462   1.326   9.491 -0.0801 -0.0261 -0.1919
11546SOL    HW136838   6.471   1.318   9.586  1.3935  0.9642 -0.2109
11546SOL    HW236839   6.465   1.236   9.459  0.3249 -0.3162  0.6336
11547SOL     OW36840   6.923   5.870   7.018 -0.6271 -0.4827  0.5913
11547SOL    HW136841   6.869   5.848   7.094  0.8220 -1.6749  1.3422
11547SOL    HW236842   6.929   5.965   7.020 -3.0613 -0.2467  0.1709
11548SOL     OW36843   4.292   7.401   3.807  0.4839 -0.0764 -0.1587
11548SOL    HW136844   4.316   7.492   3.788  2.6113 -0.4989  0.1951
11548SOL    HW236845   4.207   7.389   3.764  1.1523  1.4474 -2.0838
11549SOL     OW36846   8.531   6.803   6.362  0.5184 -0.0551 -0.1362
11549SOL    HW136847   8.508   6.831   6.450  1.1042 -1.2746  0.4288
11549SOL    HW236848   8.619   6.765   6.371  0.3032 -0.8244 -1.1052
11550SOL     OW36849   3.653   6.986   7.512  0.0480  0.3849 -0.7218
11550SOL    HW136850   3.601   6.958   7.587  0.8612 -1.4635 -0.7773
11550SOL    HW236851   3.680   7.075   7.533 -1.0039  0.4490  0.4634
11551SOL     OW36852   8.230   7.093   0.481  0.1699  0.0195 -0.4216
11551SOL    HW136853   8.244   7.020   0.541  0.4888  0.3011 -0.1505
11551SOL    HW236854   8.141   7.080   0.447  0.5728 -1.0389 -1.1293
11552SOL     OW36855   5.336   4.754   0.947 -0.2039  0.0390  0.6004
11552SOL    HW136856   5.326   4.661   0.930  0.1519 -0.1718  1.4394
11552SOL    HW236857   5.389   4.758   1.028 -1.0233  0.9454  1.1225
11553SOL     OW36858   3.165   0.209   6.716  0.4029 -0.3404 -0.1792
11553SOL    HW136859   3.194   0.181   6.803 -0.0118  0.3921  0.2008
11553SOL    HW236860   3.170   0.129   6.663  0.6515 -0.7975  0.5143
11554SOL     OW36861   1.268   2.393   4.229 -0.5010  0.2401  0.6543
11554SOL    HW136862   1.298   2.471   4.276  2.1219 -0.7495  0.7797
11554SOL    HW236863   1.260   2.326   4.296  0.1157 -0.3424  0.1551
11555SOL     OW36864   5.833   7.379   8.491 -0.3832 -0.0183 -0.0252
11555SOL    HW136865   5.865   7.459   8.532 -0.4542  0.0099 -0.0249
11555SOL    HW236866   5.794   7.408   8.408 -1.4940  0.1078  0.5212
11556SOL     OW36867   4.564   7.824   8.213  0.3011  0.0868  0.2328
11556SOL    HW136868   4.532   7.823   8.123 -0.9589  2.2924  0.5784
11556SOL    HW236869   4.630   7.756   8.216 -0.4430 -0.8278 -2.0502
11557SOL     OW36870   6.874   8.581   0.401  0.1542 -0.0043  0.4555
11557SOL    HW136871   6.885   8.488   0.384 -0.3936 -0.1057  0.6353
11557SOL    HW236872   6.825   8.615   0.326  0.7100  0.2219  0.1922
11558SOL     OW36873   1.545   9.293   2.745  0.0326 -0.1727 -0.0556
11558SOL    HW136874   1.482   9.227   2.716  0.1712 -0.5113  0.4052
11558SOL    HW236875   1.544   9.287   2.841 -0.9633  1.4330  0.0847
11559SOL     OW36876   0.960   1.885   7.685 -0.2615  0.1197  0.3908
11559SOL    HW136877   1.021   1.811   7.679  0.6236  0.8726 -0.3290
11559SOL    HW236878   0.903   1.863   7.759  0.8651 -0.6334  1.0773
11560SOL     OW36879   3.277   5.891   8.120  0.3085  0.0131  0.8235
11560SOL    HW136880   3.215   5.963   8.116 -0.3913 -0.5589  1.2593
11560SOL    HW236881   3.291   5.866   8.029  0.2984  0.4727  0.6951
11561SOL     OW36882   7.359   6.628   3.010  0.0470  0.0266 -0.1813
11561SOL    HW136883   7.357   6.538   2.977  0.7610  0.3123 -1.0370
11561SOL    HW236884   7.340   6.682   2.933 -1.8865  0.5657  0.6121
11562SOL     OW36885   2.999   6.381   6.146  0.8185  0.0489 -0.2185
11562SOL    HW136886   2.906   6.402   6.153  1.2034  1.5051  1.0431
11562SOL    HW236887   3.002   6.307   6.085 -1.0426  0.7046 -1.1868
11563SOL     OW36888   4.133   7.949   0.178 -0.3543 -0.4600  0.0919
11563SOL    HW136889   4.229   7.949   0.185 -0.3989 -1.9350  1.1924
11563SOL    HW236890   4.116   7.908   0.093 -0.0077 -1.1126  0.3288
11564SOL     OW36891   3.527   0.077   2.726  0.0022  0.5771  0.0583
11564SOL    HW136892   3.614   0.071   2.684 -0.5133 -0.4723 -0.9222
11564SOL    HW236893   3.472   0.019   2.674 -0.9044 -0.0744  1.6931
11565SOL     OW36894   2.115   5.590   5.403  0.2313  0.0290  0.1529
11565SOL    HW136895   2.051   5.602   5.333 -0.0405 -0.6848  0.2637
11565SOL    HW236896   2.117   5.674   5.448  2.1359  1.2800 -2.0870
11566SOL     OW36897   8.462   5.551   3.021  0.3755  0.1279 -0.1664
11566SOL    HW136898   8.459   5.579   2.929  0.0657 -0.2189 -0.2623
11566SOL    HW236899   8.506   5.623   3.066  1.6374 -0.2302 -0.7841
11567SOL     OW36900   5.002   1.347   2.014 -0.0029 -0.3786  0.7235
11567SOL    HW136901   4.994   1.441   2.032  2.4851 -0.1464  1.0016
11567SOL    HW236902   4.917   1.311   2.039 -1.0409  1.7844  0.6047
11568SOL     OW36903   7.410   7.116   3.899 -0.2267  0.1114 -0.6899
11568SOL    HW136904   7.500   7.129   3.930  0.8877 -0.9854 -3.1406
11568SOL    HW236905   7.418   7.116   3.803 -3.2116  2.2396 -1.0782
11569SOL     OW36906   6.148   5.087   4.409  0.4099  0.4470  0.3480
11569SOL    HW136907   6.090   5.128   4.344  0.9294  0.2868 -0.2257
11569SOL    HW236908   6.177   5.006   4.367  2.4851  1.3779 -0.1468
11570SOL     OW36909   7.914   7.029   5.146  0.7384  0.2355 -0.1548
11570SOL    HW136910   7.969   7.092   5.191  0.0142  2.1382 -1.7959
11570SOL    HW236911   7.827   7.070   5.144  0.3748 -0.5219 -1.7595
11571SOL     OW36912   3.157   6.881   2.334  0.1215 -0.3735 -0.2844
11571SOL    HW136913   3.224   6.949   2.342  0.9342 -1.2576  0.6844
11571SOL    HW236914   3.203   6.806   2.298 -0.6638 -0.5830 -0.8890
11572SOL     OW36915   7.506   7.026   2.138 -0.2935  0.3893 -0.0111
11572SOL    HW136916   7.473   6.946   2.098 -2.0877 -0.5811  3.0407
11572SOL    HW236917   7.598   7.006   2.158  0.2245  0.3914 -2.1802
11573SOL     OW36918   7.085   7.122   5.987  0.3568 -0.7012  0.0894
11573SOL    HW136919   7.012   7.184   5.992  0.8515 -0.1711  1.0054
11573SOL    HW236920   7.152   7.167   5.937  0.8087 -0.3897  0.9604
11574SOL     OW36921   0.445   1.449   1.376 -0.8111 -0.3607  0.6298
11574SOL    HW136922   0.376   1.399   1.332 -0.1310 -1.1534  0.4295
11574SOL    HW236923   0.399   1.519   1.421 -1.7179 -0.6990  0.2555
11575SOL     OW36924   1.640   2.562   6.529  0.5637 -0.4139 -0.1230
11575SOL    HW136925   1.584   2.571   6.452 -0.1562 -0.6614  0.3588
11575SOL    HW236926   1.729   2.565   6.495  0.2812  1.0606 -0.8012
11576SOL     OW36927   7.621   9.198   8.225  0.1773  0.0317  0.4697
11576SOL    HW136928   7.557   9.258   8.263  0.6667  1.9731 -1.4860
11576SOL    HW236929   7.575   9.157   8.151  0.1793 -1.2284  1.1463
11577SOL     OW36930   7.860   6.936   0.887  0.1039  0.2479  0.1363
11577SOL    HW136931   7.891   6.864   0.832 -0.4902  0.2169 -0.1693
11577SOL    HW236932   7.768   6.914   0.906 -0.0745  0.9031  0.0664
11578SOL     OW36933   9.175   3.213   1.450  0.2729  0.0424  0.2110
11578SOL    HW136934   9.109   3.283   1.451  0.0383 -0.1307 -1.1618
11578SOL    HW236935   9.135   3.142   1.499 -0.7190 -0.1722 -0.8650
11579SOL     OW36936   9.247   1.793   6.197  0.0057  0.2483 -0.5090
11579SOL    HW136937   9.308   1.722   6.216 -2.1605 -1.4782  0.4581
11579SOL    HW236938   9.223   1.828   6.282 -0.4874  0.7589 -0.8491
11580SOL     OW36939   3.483   5.031   9.260  0.0838  0.2414  0.0159
11580SOL    HW136940   3.457   5.117   9.295 -1.0900 -0.7762  1.7909
11580SOL    HW236941   3.401   4.990   9.235  0.5265 -0.8150  0.2650
11581SOL     OW36942   2.930   5.584   2.013  0.4047 -0.4248 -0.1771
11581SOL    HW136943   3.013   5.600   2.058  0.3609 -0.3148 -0.1325
11581SOL    HW236944   2.939   5.498   1.974  0.4367 -0.5285  0.0592
11582SOL     OW36945   0.619   8.084   5.691  0.0747  0.3710  0.1638
11582SOL    HW136946   0.533   8.109   5.724  0.3623 -0.2605  1.4232
11582SOL    HW236947   0.630   7.993   5.716  1.0408  0.3892 -0.1318
11583SOL     OW36948   0.823   8.861   8.952  0.3030 -0.2714  0.3248
11583SOL    HW136949   0.908   8.841   8.991  1.4172 -0.6294 -2.1011
11583SOL    HW236950   0.783   8.924   9.012  2.8039  0.8672  0.8985
11584SOL     OW36951   5.832   9.112   7.371  0.4929 -0.0025  0.1800
11584SOL    HW136952   5.753   9.083   7.326 -0.3946 -1.3163  2.4348
11584SOL    HW236953   5.828   9.208   7.368  0.0010 -0.0384 -1.6096
11585SOL     OW36954   4.980   8.425   3.680 -0.0296  0.0536  0.1459
11585SOL    HW136955   5.037   8.470   3.742  0.9839  0.2307 -0.8782
11585SOL    HW236956   5.006   8.333   3.685 -0.3414 -0.0234  0.3912
11586SOL     OW36957   7.476   6.201   9.197 -0.1265  0.1570  0.2291
11586SOL    HW136958   7.396   6.193   9.145  0.0967  0.9101 -0.2559
11586SOL    HW236959   7.544   6.222   9.133  0.3634  0.0116  0.6961
11587SOL     OW36960   1.515   9.221   2.384  0.0985  0.1931 -0.4738
11587SOL    HW136961   1.499   9.309   2.351  0.1314 -0.2832 -1.8063
11587SOL    HW236962   1.611   9.215   2.388  0.0901  0.4508  0.3042
11588SOL     OW36963   3.384   6.714   5.415 -0.1995  0.4218 -0.1453
11588SOL    HW136964   3.436   6.638   5.443  0.1304 -0.0707 -1.9460
11588SOL    HW236965   3.449   6.777   5.385 -0.5518  0.7218 -0.2797
11589SOL     OW36966   6.135   6.990   3.318  0.0508 -0.4603  0.6707
11589SOL    HW136967   6.171   6.996   3.230  0.3702  1.6411  0.8845
11589SOL    HW236968   6.054   6.940   3.308 -0.1218  0.0828 -0.8796
11590SOL     OW36969   1.760   5.291   8.022  0.4668  0.8539 -0.8094
11590SOL    HW136970   1.856   5.296   8.021  0.5277  0.5319  0.6358
11590SOL    HW236971   1.737   5.308   8.113 -0.6034 -2.7644 -0.2478
11591SOL     OW36972   1.863   7.844   9.576 -0.2920 -0.2100  0.2744
11591SOL    HW136973   1.946   7.832   9.623 -1.2340  0.6261  2.2922
11591SOL    HW236974   1.868   7.782   9.503  1.5902 -1.0671  1.0432
11592SOL     OW36975   5.015   1.487   1.071  0.0125 -0.6527 -0.6177
11592SOL    HW136976   5.049   1.398   1.083  0.3327 -0.6893 -1.7049
11592SOL    HW236977   5.093   1.541   1.056  0.0430  0.2422  2.2116
11593SOL     OW36978   6.552   2.090   0.898  0.3352 -0.4248 -0.3738
11593SOL    HW136979   6.464   2.055   0.885  0.0231  0.3756 -0.4962
11593SOL    HW236980   6.541   2.157   0.966  1.2563 -1.8439  1.2387
11594SOL     OW36981   3.412   6.355   2.022  0.1297 -0.2357  0.1141
11594SOL    HW136982   3.437   6.281   1.966  2.4904 -0.1478  0.9422
11594SOL    HW236983   3.454   6.336   2.106  1.0917  2.1830  0.2389
11595SOL     OW36984   3.066   5.617   4.885  0.5723 -0.2464 -0.0776
11595SOL    HW136985   3.158   5.606   4.858  0.6138  0.9329 -0.4638
11595SOL    HW236986   3.018   5.625   4.803  0.2849  0.3251  0.1456
11596SOL     OW36987   4.448   2.464   5.173  0.4738 -0.3485  0.1339
11596SOL    HW136988   4.538   2.445   5.147  0.7858  0.2827  0.7355
11596SOL    HW236989   4.400   2.383   5.156  0.9542 -0.3925 -1.0929
11597SOL     OW36990   5.701   5.631   2.938  0.1508  0.0831 -0.9674
11597SOL    HW136991   5.636   5.607   2.871 -1.1460 -0.4249  0.4051
11597SOL    HW236992   5.648   5.658   3.013  1.5216 -1.1797  0.5055
11598SOL     OW36993   1.201   0.194   1.978  0.6181  0.4129  0.1266
11598SOL    HW136994   1.253   0.114   1.987  0.6506  0.5448  1.3557
11598SOL    HW236995   1.224   0.246   2.056 -0.8864  0.7349  0.3843
11599SOL     OW36996   3.338   1.770   8.285  0.1836  0.4171  0.0308
11599SOL    HW136997   3.410   1.723   8.329  0.1864 -0.6298 -1.0370
11599SOL    HW236998   3.370   1.783   8.196 -0.6096  0.7330 -0.2068
11600SOL     OW36999   4.039   7.704   8.949  0.2561  0.0448  0.0134
11600SOL    HW137000   4.092   7.679   9.025 -0.1891 -3.3479 -0.6006
11600SOL    HW237001   4.100   7.704   8.875  0.1065  0.0158 -0.1112
11601SOL     OW37002   2.140   1.191   0.088  0.5421  0.4205  0.0318
11601SOL    HW137003   2.113   1.224   0.174  0.4891  1.1750 -0.2637
11601SOL    HW237004   2.197   1.118   0.107 -0.3094 -0.0916  0.7006
11602SOL     OW37005   6.383   2.540   3.337  0.0228  0.1969  0.0183
11602SOL    HW137006   6.409   2.632   3.333 -0.6517  0.3468 -1.4023
11602SOL    HW237007   6.288   2.543   3.351  0.0320 -0.2834  0.1858
11603SOL     OW37008   1.125   8.454   7.409 -0.1702  0.8448 -0.0834
11603SOL    HW137009   1.143   8.363   7.430 -0.4482  0.5801 -0.9729
11603SOL    HW237010   1.087   8.452   7.322 -1.0012  1.7360  0.2374
11604SOL     OW37011   0.093   1.604   5.874 -0.1999  0.2386  0.4864
11604SOL    HW137012   0.081   1.510   5.887 -3.1197  0.1777 -1.5995
11604SOL    HW237013   0.044   1.645   5.945  2.1180  0.3037  2.1496
11605SOL     OW37014   5.357   1.696   9.510 -0.0965  0.0318 -0.5933
11605SOL    HW137015   5.440   1.686   9.465 -0.5165 -0.2552 -1.3223
11605SOL    HW237016   5.362   1.782   9.552  1.0450 -0.5023  0.4007
11606SOL     OW37017   8.751   0.463   2.263 -0.1349  0.1197  0.2997
11606SOL    HW137018   8.710   0.455   2.349 -0.6128 -1.4387 -0.0365
11606SOL    HW237019   8.741   0.555   2.240  0.0829  0.5849  1.9359
11607SOL     OW37020   4.128   2.350   3.727 -0.5617 -0.2885 -0.5599
11607SOL    HW137021   4.094   2.438   3.710  0.0864  0.4465  1.6387
11607SOL    HW237022   4.108   2.334   3.819  2.2116 -1.1130 -0.0193
11608SOL     OW37023   0.697   6.903   8.147 -0.9034 -0.3621  0.0828
11608SOL    HW137024   0.695   6.920   8.241 -3.9598 -0.3615  0.1176
11608SOL    HW237025   0.683   6.989   8.107  1.7532 -0.1364 -0.4903
11609SOL     OW37026   0.926   4.189   3.890 -0.0584  0.2881 -0.2588
11609SOL    HW137027   0.934   4.284   3.897 -0.6058  0.2095  3.7849
11609SOL    HW237028   1.006   4.155   3.930 -0.2983 -0.9439 -0.7910
11610SOL     OW37029   7.652   0.489   5.027 -0.0477 -0.4380 -0.4857
11610SOL    HW137030   7.655   0.470   4.933  3.5024 -0.9427 -0.4294
11610SOL    HW237031   7.699   0.572   5.037 -0.1669 -0.4989  0.8605
11611SOL     OW37032   5.141   7.504   4.979 -0.0342 -0.4445 -0.1621
11611SOL    HW137033   5.051   7.521   5.006  0.3635 -0.0374  0.9363
11611SOL    HW237034   5.143   7.410   4.959 -0.2289 -0.8761  1.7249
11612SOL     OW37035   4.253   0.887   0.018  0.6208 -0.2800 -0.0384
11612SOL    HW137036   4.174   0.940   0.011  0.6892  0.0937  1.5342
11612SOL    HW237037   4.228   0.802  -0.018 -1.3418 -0.9721  2.5871
11613SOL     OW37038   6.081   3.089   1.799  0.0654 -0.2256  0.0795
11613SOL    HW137039   6.093   3.184   1.796 -0.7330 -0.0628  1.4529
11613SOL    HW237040   6.135   3.060   1.873 -1.3952 -0.5391  1.0547
11614SOL     OW37041   6.801   8.884   7.808  0.0453  0.0168  0.5270
11614SOL    HW137042   6.797   8.925   7.722 -0.7094 -0.2133  0.4446
11614SOL    HW237043   6.859   8.809   7.796  1.4234  1.0186  0.6778
11615SOL     OW37044   6.709   1.068   0.410 -0.1499  0.3809 -1.0178
11615SOL    HW137045   6.660   1.052   0.330  1.4443  1.1599 -2.2327
11615SOL    HW237046   6.774   1.134   0.385  0.4464  0.5988  0.9089
11616SOL     OW37047   9.349   1.531   3.404 -0.1829  0.3068 -0.6029
11616SOL    HW137048   9.280   1.585   3.442  1.5844  0.8047  2.1576
11616SOL    HW237049   9.340   1.446   3.447  0.0308 -0.0877 -1.3250
11617SOL     OW37050   0.694   3.841   5.539 -0.2907 -0.1572 -0.0095
11617SOL    HW137051   0.614   3.852   5.487 -0.9586  2.0162  1.3310
11617SOL    HW237052   0.765   3.849   5.475 -1.0947 -1.4724 -1.1260
11618SOL     OW37053   5.109   3.355   7.364 -0.0325  0.4065  0.4159
11618SOL    HW137054   5.192   3.357   7.317 -0.2497 -0.1436  0.0012
11618SOL    HW237055   5.071   3.270   7.342  0.0014  0.0012  1.8258
11619SOL     OW37056   2.027   2.511   8.581  0.1352 -0.2563 -0.2037
11619SOL    HW137057   2.079   2.588   8.604  0.8945 -1.2293  1.5006
11619SOL    HW237058   2.078   2.467   8.513 -1.2250  1.6502 -2.6725
11620SOL     OW37059   1.072   5.972   7.889 -0.1088 -0.4168  0.4528
11620SOL    HW137060   1.161   5.940   7.872 -0.2215 -1.0221  0.9602
11620SOL    HW237061   1.020   5.893   7.903 -1.3117 -0.2358 -2.3277
11621SOL     OW37062   8.265   6.491   8.744  0.5834  0.0449 -0.9853
11621SOL    HW137063   8.184   6.537   8.721 -1.0386 -1.7220  0.8499
11621SOL    HW237064   8.329   6.561   8.758 -0.6615  1.5030 -2.2124
11622SOL     OW37065   1.706   7.009   5.093 -0.3032  0.1254 -0.7163
11622SOL    HW137066   1.742   7.066   5.160  2.5619 -0.7139 -1.4112
11622SOL    HW237067   1.644   6.953   5.140  0.5104  0.5581  0.9470
11623SOL     OW37068   0.766   2.167   3.938  0.4750 -0.2695  0.6598
11623SOL    HW137069   0.850   2.212   3.945  0.4190  0.6062 -2.6524
11623SOL    HW237070   0.786   2.087   3.888 -0.4790 -0.6713  0.9072
11624SOL     OW37071   0.451   3.186   8.846 -0.1984 -0.5576  0.4703
11624SOL    HW137072   0.542   3.176   8.820  0.1665  1.0213  1.0425
11624SOL    HW237073   0.442   3.278   8.871 -2.1401 -0.4912 -0.2768
11625SOL     OW37074   5.270   7.357   7.578  0.3275  0.0885 -0.5164
11625SOL    HW137075   5.227   7.426   7.527 -0.4078 -0.5144 -0.7425
11625SOL    HW237076   5.312   7.403   7.650 -0.1283  0.7770 -0.6752
11626SOL     OW37077   0.554   8.839   3.328 -0.2438 -0.0404 -0.5054
11626SOL    HW137078   0.490   8.818   3.396 -1.8184 -1.9878 -2.4177
11626SOL    HW237079   0.623   8.774   3.340 -0.7037 -0.6234 -0.9662
11627SOL     OW37080   8.807   3.926   7.979 -0.1005  0.0368 -0.0828
11627SOL    HW137081   8.830   3.943   8.071 -2.5613  1.3511  0.3900
11627SOL    HW237082   8.765   4.007   7.950 -1.1817 -1.0566 -1.7444
11628SOL     OW37083   1.263   8.880   8.233  0.6190  0.3284  0.8119
11628SOL    HW137084   1.174   8.908   8.249  1.0312  1.9888  0.3226
11628SOL    HW237085   1.256   8.816   8.162 -0.0042  2.0193 -0.7201
11629SOL     OW37086   3.553   4.259   5.071 -0.2194  0.4771  0.1352
11629SOL    HW137087   3.514   4.185   5.118 -0.3552  1.3602  1.4706
11629SOL    HW237088   3.546   4.235   4.978  1.3795 -2.0213  0.5415
11630SOL     OW37089   1.572   3.578   1.793  0.2468  0.0510  0.0390
11630SOL    HW137090   1.528   3.494   1.782 -0.4888  0.4044  0.1649
11630SOL    HW237091   1.529   3.618   1.869  1.0707  0.2393  0.4122
11631SOL     OW37092   6.684   6.317   3.017 -0.3708 -0.2251 -0.2106
11631SOL    HW137093   6.629   6.349   3.089 -0.1654 -0.9213  0.2667
11631SOL    HW237094   6.694   6.392   2.959 -0.5929  0.3328  0.4600
11632SOL     OW37095   7.319   8.515   9.111 -0.4811 -0.0690  0.1113
11632SOL    HW137096   7.400   8.510   9.060  0.1724 -0.2939  1.1567
11632SOL    HW237097   7.328   8.595   9.162 -0.8368 -0.2066  0.3921
11633SOL     OW37098   1.009   0.748   5.881 -0.2498  0.2483  0.0972
11633SOL    HW137099   1.058   0.716   5.957  0.2543 -0.6733 -0.5916
11633SOL    HW237100   1.075   0.792   5.827 -0.0672 -1.2529 -0.9765
11634SOL     OW37101   4.925   9.306   3.598  0.2714  0.4113 -0.1389
11634SOL    HW137102   4.896   9.398   3.602 -0.9541  0.0245  0.4551
11634SOL    HW237103   4.851   9.256   3.631  1.1655 -0.7577  0.1820
11635SOL     OW37104   3.974   4.767   2.544 -0.5140 -0.4170 -0.4332
11635SOL    HW137105   3.935   4.850   2.517  1.3749  0.6771  0.0234
11635SOL    HW237106   3.926   4.743   2.623 -1.4232 -0.0343 -0.8552
11636SOL     OW37107   2.020   5.912   5.967 -0.0347 -0.5744  0.2564
11636SOL    HW137108   2.002   5.820   5.948  0.2750 -0.9941  1.8342
11636SOL    HW237109   2.006   5.919   6.061 -3.7391  1.8236 -0.2395
11637SOL     OW37110   0.645   6.430   3.318 -0.4065 -0.4793  0.4197
11637SOL    HW137111   0.670   6.428   3.226 -2.8009 -0.2775 -0.2973
11637SOL    HW237112   0.727   6.445   3.365  0.9530 -1.1173 -1.6198
11638SOL     OW37113   5.061   0.651   0.427  0.1890  0.0185 -0.6357
11638SOL    HW137114   5.088   0.739   0.454 -1.2049  0.5710 -0.9555
11638SOL    HW237115   5.126   0.593   0.468  1.2277  1.1849 -0.5369
11639SOL     OW37116   8.184   3.908   7.643 -0.6006 -0.6770 -0.1735
11639SOL    HW137117   8.267   3.942   7.611 -1.1783 -1.0663 -2.2268
11639SOL    HW237118   8.168   3.955   7.724  1.9937 -1.1741  0.7087
11640SOL     OW37119   1.262   3.206   4.525  0.1872 -0.2443  0.2410
11640SOL    HW137120   1.345   3.217   4.480  0.1415  1.2709  0.4934
11640SOL    HW237121   1.263   3.271   4.595 -1.4472  0.2129 -0.1072
11641SOL     OW37122   5.946   8.195   4.236 -0.1443 -0.0935 -0.1406
11641SOL    HW137123   5.996   8.126   4.193  1.9752 -0.3608  2.4497
11641SOL    HW237124   5.973   8.276   4.192  2.3822 -0.2847  0.8899
11642SOL     OW37125   9.490   4.214   0.524  0.1261  0.0170  0.6572
11642SOL    HW137126   9.501   4.269   0.446  2.1658 -0.6655  0.4229
11642SOL    HW237127   9.450   4.273   0.588 -3.4871  0.0900 -1.3922
11643SOL     OW37128   5.541   4.584   3.855  0.3634  0.5226 -0.1047
11643SOL    HW137129   5.477   4.649   3.885 -1.2146  0.0461 -2.1917
11643SOL    HW237130   5.537   4.514   3.920 -0.0563  1.2011  0.6206
11644SOL     OW37131   0.131   2.471   4.829  0.0227  0.0648  0.4248
11644SOL    HW137132   0.053   2.504   4.872  0.6136 -2.7409  4.2243
11644SOL    HW237133   0.180   2.549   4.803 -2.3672  1.9171  1.2235
11645SOL     OW37134   1.394   5.684   5.029  0.2972 -0.1167  0.4028
11645SOL    HW137135   1.468   5.625   5.017 -1.0572 -1.8377 -0.0438
11645SOL    HW237136   1.375   5.681   5.122  0.6703  0.1978  0.4916
11646SOL     OW37137   4.831   4.547   1.023 -0.0007 -0.3944 -0.0855
11646SOL    HW137138   4.916   4.583   0.996 -0.0517  0.6218  1.0333
11646SOL    HW237139   4.793   4.513   0.942  1.7387 -1.4495 -0.5012
11647SOL     OW37140   1.332   8.881   1.259  0.5893 -0.4102  0.3861
11647SOL    HW137141   1.276   8.829   1.317 -1.5746  2.0956  0.7598
11647SOL    HW237142   1.338   8.966   1.303  3.6909 -0.1357 -0.3501
11648SOL     OW37143   2.250   8.345   3.768 -0.2618  0.1708 -0.4118
11648SOL    HW137144   2.225   8.366   3.679  0.9110 -0.5248 -0.9333
11648SOL    HW237145   2.345   8.332   3.764 -0.3666 -1.1251  0.6716
11649SOL     OW37146   8.044   8.321   0.774 -0.2077 -0.7120 -0.7388
11649SOL    HW137147   8.118   8.340   0.717  0.4514 -1.1552 -0.0406
11649SOL    HW237148   8.046   8.390   0.841 -1.2267  0.0535 -1.4493
11650SOL     OW37149   4.958   2.092   2.038  0.5636  0.5056 -0.1776
11650SOL    HW137150   4.935   2.018   2.094  0.1078  0.8729  0.1357
11650SOL    HW237151   5.014   2.055   1.970  2.2793  0.2792  1.2811
11651SOL     OW37152   3.572   8.530   0.478  0.3698 -0.0532 -0.0869
11651SOL    HW137153   3.655   8.522   0.524  0.4602  0.1980 -0.2053
11651SOL    HW237154   3.518   8.585   0.535  0.9731  1.4858 -0.9362
11652SOL     OW37155   6.214   0.410   6.727  0.2849 -0.3310  0.0228
11652SOL    HW137156   6.222   0.316   6.712  0.8900 -0.2426 -0.2322
11652SOL    HW237157   6.260   0.426   6.810 -1.7470 -0.5850  1.2857
11653SOL     OW37158   3.763   2.452   2.711  0.2578  0.3498  0.2187
11653SOL    HW137159   3.841   2.411   2.747  0.1651  0.5894  0.7116
11653SOL    HW237160   3.699   2.381   2.706 -0.2456  0.6074  2.0880
11654SOL     OW37161   5.844   1.283   4.593 -0.8595  0.0470  0.2815
11654SOL    HW137162   5.862   1.365   4.641  0.6025 -0.6427  0.9911
11654SOL    HW237163   5.770   1.245   4.639 -0.4843  0.1761  1.0249
11655SOL     OW37164   7.572   3.531   0.722 -0.2104 -0.0067 -1.0042
11655SOL    HW137165   7.601   3.539   0.812  0.3743 -0.0387 -1.1843
11655SOL    HW237166   7.620   3.599   0.675  0.3618 -0.7279 -1.4916
11656SOL     OW37167   7.549   5.654   6.906 -0.2834  0.1006  0.3991
11656SOL    HW137168   7.626   5.667   6.851  0.3867  0.5493  1.4119
11656SOL    HW237169   7.565   5.571   6.951 -0.5746  0.0034  0.3267
11657SOL     OW37170   3.457   3.555   4.909 -0.6297  0.0151  0.2294
11657SOL    HW137171   3.455   3.508   4.992 -0.8764  0.5834  0.5512
11657SOL    HW237172   3.546   3.590   4.903  0.0916 -1.8229 -0.7869
11658SOL     OW37173   8.192   5.764   7.665  0.2754  0.5539 -0.1993
11658SOL    HW137174   8.140   5.834   7.625  1.2659  0.4081 -1.8280
11658SOL    HW237175   8.134   5.726   7.731 -1.3895  0.9129 -1.3944
11659SOL     OW37176   6.985   5.969   7.850  0.0644  0.2351 -0.0523
11659SOL    HW137177   6.928   5.922   7.911  0.2435  0.3250  0.1862
11659SOL    HW237178   6.947   5.953   7.764  0.8440 -1.4169 -0.1248
11660SOL     OW37179   1.827   9.354   5.853 -0.6313  0.4110  0.5396
11660SOL    HW137180   1.914   9.319   5.834 -0.5931  0.8569 -0.1776
11660SOL    HW237181   1.774   9.327   5.778 -0.9640  0.6256  0.6954
11661SOL     OW37182   3.254   2.070   2.935 -0.0058  0.3601 -0.0284
11661SOL    HW137183   3.283   2.025   2.856 -0.3553  0.2202 -0.0813
11661SOL    HW237184   3.172   2.027   2.958  0.3006  0.1310  0.6494
11662SOL     OW37185   6.249   0.152   3.782 -0.0160 -0.1353  0.0653
11662SOL    HW137186   6.162   0.123   3.809 -0.7450  0.0597 -1.9392
11662SOL    HW237187   6.270   0.097   3.707  1.0329  0.6932 -0.2672
11663SOL     OW37188   5.375   8.779   2.411 -0.0450 -0.2250 -0.6734
11663SOL    HW137189   5.295   8.813   2.373  0.5586  0.2572 -1.5546
11663SOL    HW237190   5.380   8.689   2.380 -0.7496 -0.5897  0.2217
11664SOL     OW37191   2.574   2.422   6.226  0.2342  0.2705  0.2616
11664SOL    HW137192   2.487   2.447   6.255  0.8066  2.1405  0.5322
11664SOL    HW237193   2.621   2.397   6.306 -0.2159 -1.4098  0.0383
11665SOL     OW37194   0.919   9.095   9.475 -0.2223  0.5276  0.3229
11665SOL    HW137195   0.957   9.066   9.392  0.4405 -1.4692  1.2599
11665SOL    HW237196   0.986   9.151   9.514  0.7251 -0.8558  0.7696
11666SOL     OW37197   6.396   6.328   9.263 -0.1260  0.3717  0.0206
11666SOL    HW137198   6.350   6.261   9.314 -0.6166  0.7922  0.1424
11666SOL    HW237199   6.420   6.283   9.182 -2.3761  0.5746 -0.8537
11667SOL     OW37200   6.101   9.230   7.135 -0.0443 -0.2841  0.6608
11667SOL    HW137201   6.024   9.202   7.085 -0.1400 -1.1146  1.2386
11667SOL    HW237202   6.065   9.267   7.215  0.1630 -2.2622  1.7193
11668SOL     OW37203   5.394   5.034   1.237 -0.0255 -0.2639 -0.1831
11668SOL    HW137204   5.404   4.941   1.217 -0.2734 -0.5449  0.9262
11668SOL    HW237205   5.341   5.035   1.317 -0.4166  0.8465 -0.4473
11669SOL     OW37206   5.624   7.803   3.268  0.0052 -0.2773  0.1928
11669SOL    HW137207   5.554   7.819   3.331  0.5304 -1.4064  1.0841
11669SOL    HW237208   5.702   7.788   3.321  1.1034  1.5408 -0.7729
11670SOL     OW37209   2.195   2.237   1.466  0.7812 -0.2364 -0.0171
11670SOL    HW137210   2.136   2.235   1.541 -1.0833 -1.2274 -1.4249
11670SOL    HW237211   2.253   2.162   1.480  0.3569 -0.4995  0.3789
11671SOL     OW37212   8.208   1.331   6.756  0.3950 -0.1715  0.0009
11671SOL    HW137213   8.243   1.373   6.835  0.2199  0.8607 -0.4530
11671SOL    HW237214   8.123   1.373   6.742 -0.0588 -1.1129 -0.1370
11672SOL     OW37215   5.523   9.291   7.839 -0.7375 -0.7740  0.2895
11672SOL    HW137216   5.516   9.267   7.747 -0.1287 -0.9752  0.2909
11672SOL    HW237217   5.600   9.348   7.844 -1.1960 -0.1651  0.5568
11673SOL     OW37218   2.573   1.658   0.939  0.5097 -0.8261  0.0699
11673SOL    HW137219   2.581   1.737   0.993 -0.7447 -2.3176  2.6567
11673SOL    HW237220   2.479   1.649   0.923  0.6908 -1.4953 -0.7051
11674SOL     OW37221   8.862   5.270   7.738  0.0747 -0.2139 -0.6190
11674SOL    HW137222   8.932   5.215   7.774  0.2180 -1.0018 -1.9933
11674SOL    HW237223   8.890   5.287   7.648 -0.4186  1.3777 -0.5075
11675SOL     OW37224   8.025   5.463   0.722  0.3637 -0.0849  0.3702
11675SOL    HW137225   7.938   5.424   0.714  0.4924 -0.8329  2.1558
11675SOL    HW237226   8.009   5.557   0.734 -0.2323 -0.2627  1.0448
11676SOL     OW37227   4.578   7.936   9.148  0.5306 -0.4114 -0.1934
11676SOL    HW137228   4.495   7.890   9.166  0.9326 -0.7153  0.9518
11676SOL    HW237229   4.629   7.926   9.229  1.0611  1.1314 -0.3025
11677SOL     OW37230   4.568   6.317   0.241 -0.3566 -0.7205  0.1188
11677SOL    HW137231   4.564   6.349   0.151  1.0347  0.7448  0.5158
11677SOL    HW237232   4.478   6.322   0.272 -0.7370 -0.5433 -0.9718
11678SOL     OW37233   7.053   4.932   5.902 -0.1589  0.0084 -0.0257
11678SOL    HW137234   6.997   4.919   5.978  0.1795  0.4458  0.3051
11678SOL    HW237235   6.994   4.962   5.833 -0.5607 -0.9472 -0.1132
11679SOL     OW37236   6.204   4.835   1.721 -0.8198 -0.5404  0.0535
11679SOL    HW137237   6.236   4.786   1.797  0.3700  1.9668  1.2761
11679SOL    HW237238   6.174   4.919   1.756  2.0755  1.7622 -2.3629
11680SOL     OW37239   3.302   5.528   4.757  0.1741 -0.0165  0.1396
11680SOL    HW137240   3.379   5.563   4.713 -0.3334  0.0831 -0.7002
11680SOL    HW237241   3.258   5.475   4.690  0.0504 -0.9122  0.9018
11681SOL     OW37242   8.120   7.137   2.341 -0.0381  0.4119 -0.1934
11681SOL    HW137243   8.126   7.211   2.402 -0.7330 -0.9174  1.5762
11681SOL    HW237244   8.026   7.125   2.327  0.0484 -0.4500 -0.0634
11682SOL     OW37245   9.568   5.436   0.866 -0.4636  0.0175  0.1267
11682SOL    HW137246   9.653   5.399   0.888 -1.1317 -0.9620  1.1817
11682SOL    HW237247   9.516   5.425   0.945 -1.7780 -0.0152 -0.7150
11683SOL     OW37248   5.577   3.206   5.001 -0.1399 -0.3351  0.2706
11683SOL    HW137249   5.605   3.268   4.934 -0.3273 -0.8417 -0.2946
11683SOL    HW237250   5.586   3.253   5.083  0.8822  0.0242 -0.0346
11684SOL     OW37251   3.937   5.298   1.481 -0.0071  0.5088  0.8921
11684SOL    HW137252   3.994   5.243   1.535  0.7061  1.3716  1.0472
11684SOL    HW237253   3.848   5.268   1.501  0.3424 -0.2514  1.3355
11685SOL     OW37254   0.499   6.076   7.536 -0.3110  0.3712  0.0482
11685SOL    HW137255   0.505   6.095   7.629 -1.5942  1.7958 -0.1244
11685SOL    HW237256   0.431   6.009   7.529  0.8517 -0.8758  0.2326
11686SOL     OW37257   2.470   9.524   4.408  0.0808  0.2801  0.2677
11686SOL    HW137258   2.410   9.455   4.379  1.9159 -1.8220  1.1633
11686SOL    HW237259   2.535   9.531   4.339  0.9201 -0.2311  0.9802
11687SOL     OW37260   3.026   6.352   1.784  0.4430  0.0358 -0.9239
11687SOL    HW137261   3.081   6.297   1.728 -0.6680  0.4262 -2.4711
11687SOL    HW237262   2.980   6.409   1.723 -1.7656 -0.3530  0.2803
11688SOL     OW37263   5.894   3.507   1.655 -0.5972 -0.4178 -0.3721
11688SOL    HW137264   5.867   3.424   1.616 -1.3707  0.3675 -1.5728
11688SOL    HW237265   5.913   3.564   1.580  0.4086  0.3441  0.4260
11689SOL     OW37266   4.167   2.420   5.511  0.8149 -0.2586  0.0277
11689SOL    HW137267   4.151   2.326   5.516 -0.2628 -0.1104 -0.3471
11689SOL    HW237268   4.196   2.444   5.599 -1.3678 -0.5265  0.8674
11690SOL     OW37269   5.057   8.228   1.130  0.3559  0.1766 -0.1464
11690SOL    HW137270   5.091   8.191   1.049  0.8616 -0.7645  0.4775
11690SOL    HW237271   4.980   8.278   1.103 -0.4363 -1.4304 -1.0213
11691SOL     OW37272   7.249   4.948   1.816  0.3055  0.3576 -0.3737
11691SOL    HW137273   7.288   4.993   1.890 -0.0393  0.8555 -0.4835
11691SOL    HW237274   7.275   4.857   1.825 -1.0193  0.0956  1.2337
11692SOL     OW37275   0.017   4.865   4.236 -0.8806 -0.5053  0.3723
11692SOL    HW137276   0.077   4.933   4.207  2.2245 -2.1913  2.3186
11692SOL    HW237277   0.071   4.806   4.289 -4.3050 -2.1597  2.3547
11693SOL     OW37278   5.186   2.210   5.703 -0.0748  0.1945 -0.0933
11693SOL    HW137279   5.163   2.276   5.769  1.3654  0.5412  0.0883
11693SOL    HW237280   5.106   2.200   5.651 -0.1532  2.6310 -0.5850
11694SOL     OW37281   5.800   7.481   0.203  0.0895  0.2890 -0.1199
11694SOL    HW137282   5.711   7.497   0.172  0.2041 -0.0413 -0.6291
11694SOL    HW237283   5.817   7.553   0.263 -0.9594 -0.2904  0.9319
11695SOL     OW37284   6.392   9.081   4.601 -0.1697 -0.1881  0.4060
11695SOL    HW137285   6.363   8.994   4.630 -1.8438  0.0527 -0.4162
11695SOL    HW237286   6.319   9.139   4.621 -0.1983  0.5229 -1.4851
11696SOL     OW37287   4.653   4.733   9.357 -0.3129  0.1112 -0.1555
11696SOL    HW137288   4.626   4.723   9.448  0.4341 -0.0219  0.0595
11696SOL    HW237289   4.742   4.696   9.354 -0.4984 -0.2991 -1.0317
11697SOL     OW37290   2.663   8.307   8.161  0.5210 -0.3542  0.0714
11697SOL    HW137291   2.641   8.233   8.105 -0.3615 -0.5882  0.7041
11697SOL    HW237292   2.614   8.292   8.241 -0.8964  1.6825 -0.3410
11698SOL     OW37293   1.999   8.972   0.541 -0.2330 -0.5744 -0.1249
11698SOL    HW137294   1.923   8.960   0.598  0.2448 -0.4463  0.5379
11698SOL    HW237295   1.982   9.054   0.496 -0.1809 -0.2123  0.5094
11699SOL     OW37296   3.465   6.746   1.223 -0.0150 -0.0345  0.0924
11699SOL    HW137297   3.543   6.778   1.268  0.4511  1.3604 -1.6084
11699SOL    HW237298   3.427   6.682   1.283  2.5909 -0.9787  0.8442
11700SOL     OW37299   8.923   8.699   0.159  0.1461 -0.1645  0.4614
11700SOL    HW137300   8.993   8.634   0.163 -0.2351 -0.5332  1.8152
11700SOL    HW237301   8.901   8.715   0.251 -0.3681  1.2309  0.1175
11701SOL     OW37302   2.106   8.635   6.756 -0.1408 -0.4405 -0.1039
11701SOL    HW137303   2.134   8.546   6.734 -1.1011 -0.5361 -1.0291
11701SOL    HW237304   2.123   8.686   6.677 -0.8136 -0.0900 -0.0315
11702SOL     OW37305   7.692   8.760   9.114 -0.3202 -0.4345 -0.1220
11702SOL    HW137306   7.776   8.738   9.074 -0.8032  0.3200 -1.6129
11702SOL    HW237307   7.713   8.775   9.206  1.1784 -0.2791 -0.4622
11703SOL     OW37308   3.161   0.631   2.023 -0.4168 -0.4606 -0.1876
11703SOL    HW137309   3.143   0.705   1.966 -1.1917  0.7718  1.5493
11703SOL    HW237310   3.076   0.608   2.060  0.0383 -1.2980  0.3709
11704SOL     OW37311   4.338   0.859   4.893  0.1043  0.4881 -0.2166
11704SOL    HW137312   4.344   0.764   4.896  0.2706  0.3320 -2.7650
11704SOL    HW237313   4.260   0.880   4.944  0.6773 -0.8869  1.2969
11705SOL     OW37314   2.499   6.452   0.600 -0.5476 -0.1577  0.2783
11705SOL    HW137315   2.413   6.430   0.635 -1.6964  0.9443 -1.6932
11705SOL    HW237316   2.550   6.371   0.610 -2.1348 -1.1884  0.4845
11706SOL     OW37317   6.540   0.236   6.202  0.1377 -0.2407  0.5195
11706SOL    HW137318   6.453   0.276   6.199 -0.0073 -0.4926  1.2172
11706SOL    HW237319   6.555   0.207   6.112 -1.0103 -1.2581  0.6235
11707SOL     OW37320   6.459   7.493   3.942  0.1930  0.4792 -0.5682
11707SOL    HW137321   6.452   7.562   3.876  1.1812  0.9623 -0.1918
11707SOL    HW237322   6.424   7.415   3.899  2.1646  0.4105 -2.2174
11708SOL     OW37323   1.644   3.249   6.704 -0.1916 -0.3818  0.6229
11708SOL    HW137324   1.707   3.239   6.775  0.4096  2.1448  0.5123
11708SOL    HW237325   1.692   3.221   6.625 -0.0270 -0.7432  0.8474
11709SOL     OW37326   4.136   6.451   6.586 -0.7489  0.1570 -0.0386
11709SOL    HW137327   4.049   6.451   6.624 -1.1460 -0.2296 -0.9207
11709SOL    HW237328   4.130   6.393   6.510 -0.1993  1.4998 -1.1677
11710SOL     OW37329   9.211   7.692   2.692  0.1680  0.7936  0.3436
11710SOL    HW137330   9.144   7.624   2.695  0.8748  0.1012  0.8249
11710SOL    HW237331   9.270   7.671   2.764  1.9012  0.3347 -1.1423
11711SOL     OW37332   7.290   1.181   0.367 -0.0296  0.2170 -0.0636
11711SOL    HW137333   7.242   1.121   0.424  2.0770  0.1222  1.7872
11711SOL    HW237334   7.344   1.123   0.312 -0.2909  0.3608 -0.4735
11712SOL     OW37335   7.700   3.020   4.238 -0.5916 -0.6610 -0.1649
11712SOL    HW137336   7.690   3.047   4.147 -0.8986 -2.7963 -0.8289
11712SOL    HW237337   7.765   3.080   4.274 -2.3646  1.8955 -1.0064
11713SOL     OW37338   7.114   6.329   0.185  0.2731 -0.2677 -0.7600
11713SOL    HW137339   7.185   6.311   0.248  0.0461 -0.9357 -0.6856
11713SOL    HW237340   7.034   6.312   0.234  0.0015  1.6410 -0.4848
11714SOL     OW37341   6.380   0.041   8.131 -0.1316  0.9479 -0.4071
11714SOL    HW137342   6.293   0.013   8.100  0.1774 -2.5178  1.3308
11714SOL    HW237343   6.438   0.025   8.056 -0.1878 -2.5210  0.0949
11715SOL     OW37344   5.638   3.953   8.965  0.1320 -0.4357 -0.1265
11715SOL    HW137345   5.676   3.944   8.878  1.0839  1.7587 -0.0003
11715SOL    HW237346   5.593   4.037   8.963 -2.8105 -1.8867  0.4810
11716SOL     OW37347   6.264   1.573   3.293 -0.6635 -0.1325  0.1133
11716SOL    HW137348   6.308   1.637   3.349 -2.3055  1.0892  0.0715
11716SOL    HW237349   6.192   1.538   3.346 -0.8363 -0.6696 -0.4517
11717SOL     OW37350   7.533   9.190   7.786  0.2841 -0.0033  0.2286
11717SOL    HW137351   7.537   9.277   7.826 -0.2513  0.1441 -0.0340
11717SOL    HW237352   7.512   9.208   7.694  1.4844 -0.3327 -0.1274
11718SOL     OW37353   3.053   9.482   3.069  0.3156 -0.0343  1.0205
11718SOL    HW137354   3.076   9.399   3.028  0.8087  1.6812 -2.5689
11718SOL    HW237355   3.136   9.529   3.075 -0.1249  0.6572  1.9568
11719SOL     OW37356   7.114   1.913   8.577 -0.1452  0.0844 -0.3461
11719SOL    HW137357   7.196   1.904   8.625  0.3088 -1.0807 -1.2715
11719SOL    HW237358   7.087   1.823   8.558 -1.0094  0.4762 -1.0981
11720SOL     OW37359   7.918   1.821   8.988 -0.0864  0.4610 -0.0459
11720SOL    HW137360   7.859   1.896   8.977  0.5217  1.1562  1.1610
11720SOL    HW237361   7.978   1.826   8.913 -1.7315 -0.4726 -1.4890
11721SOL     OW37362   2.353   8.544   2.388 -0.3139 -0.4275 -0.4458
11721SOL    HW137363   2.343   8.542   2.483  0.5736  0.5438 -0.3137
11721SOL    HW237364   2.362   8.637   2.367  1.0726 -0.7312 -1.3030
11722SOL     OW37365   8.697   4.740   9.002  0.0986 -0.0152  0.9021
11722SOL    HW137366   8.756   4.775   9.070  0.4537  1.2356 -0.0089
11722SOL    HW237367   8.756   4.704   8.936 -0.1891  0.3778  0.4295
11723SOL     OW37368   3.361   3.895   2.306 -0.5170  0.1562  0.8546
11723SOL    HW137369   3.429   3.945   2.352  0.9947  1.6474 -2.6314
11723SOL    HW237370   3.407   3.817   2.274 -0.6504  0.6606 -0.6455
11724SOL     OW37371   5.079   0.576   1.973  0.2696  0.0160 -0.1986
11724SOL    HW137372   5.115   0.607   1.890 -0.5779 -1.1546 -1.0221
11724SOL    HW237373   5.086   0.481   1.969  0.3447 -0.0573  1.1438
11725SOL     OW37374   8.215   5.831   5.389  0.3531  0.3155 -0.2728
11725SOL    HW137375   8.220   5.814   5.483  0.8068  1.2616 -0.1114
11725SOL    HW237376   8.306   5.836   5.361  0.2156  0.0693 -0.7576
11726SOL     OW37377   2.953   0.171   4.635  0.0954 -0.8633 -0.6886
11726SOL    HW137378   2.970   0.265   4.645  0.1931 -1.0407  1.2564
11726SOL    HW237379   3.002   0.131   4.707 -1.0869 -2.2618 -0.6198
11727SOL     OW37380   6.138   6.017   4.231  0.0077  0.6880 -0.2241
11727SOL    HW137381   6.104   6.055   4.313 -0.3536 -3.1211  1.6266
11727SOL    HW237382   6.067   5.961   4.200  1.6140 -1.1282 -0.7958
11728SOL     OW37383   0.579   1.819   1.577 -0.3356  0.3438 -0.3250
11728SOL    HW137384   0.531   1.902   1.578 -0.7027  0.1794 -2.2644
11728SOL    HW237385   0.519   1.756   1.537  0.3098 -0.6465  0.2091
11729SOL     OW37386   6.614   7.397   0.370  0.1093  0.2027 -0.0900
11729SOL    HW137387   6.668   7.464   0.411  1.3357 -0.7777 -0.0467
11729SOL    HW237388   6.636   7.403   0.276  0.2257 -0.1303 -0.0853
11730SOL     OW37389   3.580   4.399   9.278 -0.7573 -0.5477 -0.0730
11730SOL    HW137390   3.646   4.438   9.335 -0.2198 -0.2139 -0.9029
11730SOL    HW237391   3.562   4.314   9.318  1.1989 -1.2578 -0.5388
11731SOL     OW37392   7.863   4.812   7.229 -0.0155 -0.6987 -0.4439
11731SOL    HW137393   7.817   4.823   7.313  1.3742 -0.7531  0.3408
11731SOL    HW237394   7.838   4.725   7.200  0.4492 -1.1732  0.5321
11732SOL     OW37395   2.693   3.591   9.224  0.3249  0.1754 -0.1562
11732SOL    HW137396   2.786   3.567   9.226  0.7250  1.5950  2.1941
11732SOL    HW237397   2.686   3.662   9.288 -2.3067  0.4499 -0.6639
11733SOL     OW37398   9.398   3.698   6.694 -0.7437  0.4863 -0.5339
11733SOL    HW137399   9.347   3.644   6.634 -0.4956 -0.1660 -0.1608
11733SOL    HW237400   9.425   3.638   6.763  1.1871  0.6563 -1.1045
11734SOL     OW37401   8.927   3.121   0.837 -0.0757 -0.3429  0.4627
11734SOL    HW137402   8.959   3.070   0.911  0.7466  1.7776  1.6448
11734SOL    HW237403   8.833   3.101   0.834  0.3406 -2.5610  0.2917
11735SOL     OW37404   4.255   8.296   1.872 -0.3447 -0.2296 -0.4608
11735SOL    HW137405   4.247   8.384   1.835 -1.3811  0.3483  1.0411
11735SOL    HW237406   4.166   8.271   1.895  0.1699 -0.7534  1.1227
11736SOL     OW37407   2.868   9.412   4.046  0.1503 -0.7787  0.2890
11736SOL    HW137408   2.816   9.346   4.001 -0.8418  0.4436 -0.4180
11736SOL    HW237409   2.949   9.417   3.996 -0.0913 -0.9222 -0.1250
11737SOL     OW37410   0.440   1.062   8.173 -0.0872 -0.0709 -0.3849
11737SOL    HW137411   0.510   1.040   8.234  0.0358 -2.8080 -1.3666
11737SOL    HW237412   0.359   1.040   8.220 -0.0535 -0.8204 -0.6534
11738SOL     OW37413   7.847   1.389   2.414 -0.3851 -0.0442  0.1255
11738SOL    HW137414   7.913   1.447   2.375 -1.5784  1.6051  0.4063
11738SOL    HW237415   7.768   1.405   2.362 -0.4763 -2.3833 -0.5494
11739SOL     OW37416   8.741   4.283   3.769 -0.5699  0.3800  0.4337
11739SOL    HW137417   8.714   4.208   3.715 -0.3929  1.0627 -0.6502
11739SOL    HW237418   8.808   4.248   3.827 -0.9611 -0.4478  0.4043
11740SOL     OW37419   9.185   8.083   6.271 -0.1343 -0.0121  0.1108
11740SOL    HW137420   9.221   8.096   6.359 -2.0841 -0.5065  1.0349
11740SOL    HW237421   9.125   8.157   6.259 -0.0234 -0.0518 -0.7405
11741SOL     OW37422   0.394   6.965   3.061  0.3049 -0.1865 -0.2321
11741SOL    HW137423   0.426   6.951   2.971 -0.4439  2.2344 -0.9349
11741SOL    HW237424   0.390   7.060   3.071 -2.4339 -0.3704  1.3501
11742SOL     OW37425   8.422   3.761   6.958 -0.4406 -0.1497  0.3219
11742SOL    HW137426   8.341   3.813   6.956  0.6114  1.5637  0.4232
11742SOL    HW237427   8.431   3.735   7.050 -0.6272  0.0259  0.3909
11743SOL     OW37428   9.116   4.831   2.752  0.0699 -0.2062 -0.2574
11743SOL    HW137429   9.060   4.883   2.810 -0.0089  0.5319 -0.9797
11743SOL    HW237430   9.057   4.764   2.717  0.4018 -1.4919  1.4692
11744SOL     OW37431   7.284   3.661   3.000  0.1490  0.6806 -0.3189
11744SOL    HW137432   7.310   3.735   3.054  0.2359  1.3202 -1.2320
11744SOL    HW237433   7.231   3.606   3.059  0.8823  0.9671  0.6290
11745SOL     OW37434   3.444   2.049   4.779  0.4845  0.2490 -0.0334
11745SOL    HW137435   3.419   2.118   4.718  0.5962 -1.4103 -2.0936
11745SOL    HW237436   3.540   2.045   4.771  0.6793  1.0962  1.5470
11746SOL     OW37437   6.913   7.677   4.752  0.1855  0.8088 -0.0663
11746SOL    HW137438   6.918   7.756   4.697  0.1825 -0.2321 -1.6229
11746SOL    HW237439   6.822   7.650   4.748  0.3526  0.2542 -0.2438
11747SOL     OW37440   0.269   6.290   4.447 -0.4031 -0.4336  0.1280
11747SOL    HW137441   0.314   6.375   4.443 -0.5454 -0.4069 -1.2041
11747SOL    HW237442   0.215   6.296   4.526  0.4810  0.2561  0.7064
11748SOL     OW37443   2.399   6.285   9.127  0.3426 -0.2342 -0.3951
11748SOL    HW137444   2.372   6.202   9.087 -1.6134  0.1622 -0.0048
11748SOL    HW237445   2.459   6.259   9.197 -1.1181 -1.4629  0.4789
11749SOL     OW37446   9.299   8.962   6.195 -0.8080 -0.4067 -0.7411
11749SOL    HW137447   9.303   9.006   6.110  0.1224  0.2760 -0.3580
11749SOL    HW237448   9.321   8.871   6.176 -1.0043 -0.3465 -1.2841
11750SOL     OW37449   1.749   4.369   1.303  0.1483  0.4571 -0.4765
11750SOL    HW137450   1.722   4.298   1.244 -0.2085 -0.3747  0.6712
11750SOL    HW237451   1.731   4.449   1.253 -1.2708 -0.1823 -1.0328
11751SOL     OW37452   7.327   0.409   6.352  0.1224 -0.1050 -0.2008
11751SOL    HW137453   7.363   0.351   6.284 -1.1395 -2.5620  1.1032
11751SOL    HW237454   7.241   0.374   6.370 -1.8095  3.7010 -0.9764
11752SOL     OW37455   5.175   4.697   0.690 -0.4576  0.2493 -0.2708
11752SOL    HW137456   5.233   4.700   0.766 -1.5959  0.2423  0.6245
11752SOL    HW237457   5.153   4.789   0.673 -0.3506  0.2369 -0.4872
11753SOL     OW37458   2.165   7.681   8.714 -0.4511  0.0958  0.6389
11753SOL    HW137459   2.093   7.670   8.652  0.0860 -0.7285  0.1462
11753SOL    HW237460   2.237   7.632   8.676 -0.2802 -0.9366  2.2069
11754SOL     OW37461   0.235   5.142   0.054 -0.0237 -0.0248 -0.4718
11754SOL    HW137462   0.203   5.232   0.054  0.5616  0.1965 -1.4331
11754SOL    HW237463   0.301   5.140   0.123  1.3137  0.8075 -1.6705
11755SOL     OW37464   0.686   1.500   7.650  0.4888  0.2113  0.5294
11755SOL    HW137465   0.699   1.424   7.707 -0.0523 -0.9645 -0.8371
11755SOL    HW237466   0.669   1.573   7.709  0.3164 -0.8823  1.8613
11756SOL     OW37467   9.075   5.355   0.484 -0.2839 -0.8674  0.0673
11756SOL    HW137468   9.046   5.264   0.477  1.4633 -1.8575  3.3564
11756SOL    HW237469   9.165   5.349   0.516 -0.0725  2.0296  0.2918
11757SOL     OW37470   4.671   2.640   2.755  0.2072  0.0439  0.4554
11757SOL    HW137471   4.610   2.578   2.715  1.8291 -0.5999 -1.1366
11757SOL    HW237472   4.704   2.595   2.833 -1.3562  0.4385  1.3903
11758SOL     OW37473   4.488   1.735   2.528 -0.6625 -0.1363 -0.0849
11758SOL    HW137474   4.577   1.706   2.548 -0.1053  0.1607 -1.8774
11758SOL    HW237475   4.467   1.798   2.596  0.6719  0.0925  0.1467
11759SOL     OW37476   3.006   7.319   6.219  0.4744 -0.1107  0.3464
11759SOL    HW137477   3.045   7.233   6.231 -0.2152 -0.4620  0.1232
11759SOL    HW237478   2.981   7.347   6.307  1.4584  0.2426  0.5307
11760SOL     OW37479   1.057   3.141   8.949  0.4681  0.0101 -0.2292
11760SOL    HW137480   1.071   3.202   8.877 -0.3698  0.7786  0.2351
11760SOL    HW237481   1.116   3.172   9.018 -0.7352  0.9931  0.3984
11761SOL     OW37482   0.688   8.925   7.873  0.3873 -0.5693 -0.4939
11761SOL    HW137483   0.720   8.997   7.821 -0.9106  0.7276  0.4149
11761SOL    HW237484   0.601   8.953   7.903  0.5904 -1.7312  1.3763
11762SOL     OW37485   7.325   6.900   1.800  0.1191 -0.0707  0.3953
11762SOL    HW137486   7.268   6.869   1.729  0.0700  1.9938 -0.5497
11762SOL    HW237487   7.392   6.953   1.755  1.2031 -0.2672  1.7352
11763SOL     OW37488   3.129   1.005   9.482 -0.2795 -0.1806 -0.5138
11763SOL    HW137489   3.134   0.914   9.512  1.2697 -0.8403 -2.4911
11763SOL    HW237490   3.181   1.054   9.545  1.4325 -1.2267 -1.0383
11764SOL     OW37491   1.096   1.758   0.039  0.4239 -0.6388  0.3144
11764SOL    HW137492   1.022   1.782  -0.016  0.3117  0.0612  0.7529
11764SOL    HW237493   1.075   1.671   0.072  0.1457 -0.7507 -0.1406
11765SOL     OW37494   4.928   2.955   9.166  0.4545  0.0316  0.6186
11765SOL    HW137495   4.842   2.931   9.133  0.1959  1.1551  0.4332
11765SOL    HW237496   4.975   2.872   9.175 -0.7557 -0.6229  1.0539
11766SOL     OW37497   6.507   8.697   8.569 -0.3696  0.0398 -1.1968
11766SOL    HW137498   6.490   8.768   8.508 -0.8618  1.9370  1.0298
11766SOL    HW237499   6.421   8.677   8.607  0.3875  1.8970  1.8949
11767SOL     OW37500   8.162   3.914   8.686 -0.2341 -0.7043 -0.0116
11767SOL    HW137501   8.150   3.936   8.778  1.2142 -1.2312  0.3211
11767SOL    HW237502   8.189   3.823   8.686  0.6550 -0.4556 -0.8896
11768SOL     OW37503   3.727   7.621   3.764 -0.5567 -0.3012  0.1029
11768SOL    HW137504   3.748   7.683   3.694  0.3945 -1.0854 -0.3459
11768SOL    HW237505   3.704   7.540   3.717  0.5351 -0.9751  0.6686
11769SOL     OW37506   5.616   0.854   3.666  0.3010  0.8876 -0.6672
11769SOL    HW137507   5.535   0.860   3.717  1.6683 -1.0112  1.9115
11769SOL    HW237508   5.602   0.781   3.606  0.1422  0.4872 -0.1443
11770SOL     OW37509   5.793   4.998   7.349 -0.4777 -0.3241 -0.2105
11770SOL    HW137510   5.735   5.050   7.404 -1.1458 -0.9789 -0.2824
11770SOL    HW237511   5.772   5.023   7.259 -1.4319 -1.3307 -0.2923
11771SOL     OW37512   7.538   3.275   7.261  0.3470  0.6918  0.4353
11771SOL    HW137513   7.537   3.255   7.355  0.6296 -0.6249  0.1764
11771SOL    HW237514   7.618   3.326   7.248  1.8143 -1.4893  0.4821
11772SOL     OW37515   7.383   5.847   4.295 -0.2662 -0.0163 -0.2520
11772SOL    HW137516   7.465   5.893   4.316 -0.5838  0.6677 -0.4942
11772SOL    HW237517   7.400   5.808   4.209  0.0329 -0.4328 -0.0094
11773SOL     OW37518   2.537   3.654   2.592  0.0485 -0.3165  0.4632
11773SOL    HW137519   2.585   3.722   2.639 -2.5189  0.9112  1.4728
11773SOL    HW237520   2.481   3.614   2.658  0.0880 -2.1357 -0.5322
11774SOL     OW37521   7.774   1.513   6.366 -0.9146 -0.1074 -0.0467
11774SOL    HW137522   7.817   1.568   6.432 -0.4326  0.3648 -0.7470
11774SOL    HW237523   7.736   1.575   6.304 -3.5039 -0.4684  1.0524
11775SOL     OW37524   9.520   4.809   9.440 -0.2485  0.0190 -0.1652
11775SOL    HW137525   9.511   4.878   9.505 -0.6838  0.8528 -1.0880
11775SOL    HW237526   9.602   4.828   9.395  1.4508 -2.0408  1.7855
11776SOL     OW37527   7.686   2.175   0.193  0.6063 -0.2757  0.2972
11776SOL    HW137528   7.723   2.127   0.267 -0.4593 -0.7488  0.5429
11776SOL    HW237529   7.606   2.214   0.227 -0.7413 -1.8080 -0.9919
11777SOL     OW37530   3.594   2.001   8.934  0.7323  0.0784  0.4189
11777SOL    HW137531   3.650   1.955   8.871  1.1945 -0.6834  1.3506
11777SOL    HW237532   3.515   1.947   8.940  0.7707  0.0447  0.6309
11778SOL     OW37533   0.358   5.423   5.106  0.0361  0.0141  0.8202
11778SOL    HW137534   0.296   5.471   5.160 -0.2668 -0.1287  0.6027
11778SOL    HW237535   0.399   5.361   5.167 -1.3660 -1.1851  0.6240
11779SOL     OW37536   6.878   9.466   1.248 -0.3820  0.2246  0.8344
11779SOL    HW137537   6.965   9.467   1.288 -0.0021 -0.2279  0.0317
11779SOL    HW237538   6.874   9.546   1.196  0.4768 -0.8595 -1.0140
11780SOL     OW37539   9.317   4.193   2.371  0.3597 -0.3289 -0.1116
11780SOL    HW137540   9.337   4.280   2.406 -2.3392  0.9780 -1.4597
11780SOL    HW237541   9.300   4.139   2.448  3.4847 -0.1711  0.8238
11781SOL     OW37542   7.775   3.682   5.119 -0.2678 -0.2086 -0.1417
11781SOL    HW137543   7.696   3.701   5.169  1.0615  1.4219  1.5213
11781SOL    HW237544   7.802   3.595   5.149 -2.1733 -1.5009 -1.8905
11782SOL     OW37545   2.648   4.760   2.963  0.3248  0.0968 -0.5109
11782SOL    HW137546   2.626   4.846   2.998 -0.3868  0.0843 -0.9134
11782SOL    HW237547   2.591   4.699   3.008 -0.4797  0.0622 -1.5383
11783SOL     OW37548   5.298   7.127   6.879 -0.7908  0.2131 -0.0667
11783SOL    HW137549   5.393   7.135   6.884 -0.5403 -2.2718  4.1119
11783SOL    HW237550   5.265   7.205   6.923 -0.5487  0.0689  0.3799
11784SOL     OW37551   3.314   3.754   7.219  0.0061 -0.1264 -0.4942
11784SOL    HW137552   3.227   3.726   7.189  0.1478 -0.1848 -0.8444
11784SOL    HW237553   3.295   3.828   7.277 -0.1912  0.8223 -1.7343
11785SOL     OW37554   4.551   5.977   9.187 -0.1138  0.3277 -0.6793
11785SOL    HW137555   4.590   5.913   9.246  0.5198  0.1310 -1.2886
11785SOL    HW237556   4.469   5.938   9.159 -0.5140  0.5104  0.2140
11786SOL     OW37557   0.567   2.557   3.618 -0.3787 -0.4684  0.0596
11786SOL    HW137558   0.589   2.650   3.628 -0.7901 -0.4053  0.4240
11786SOL    HW237559   0.612   2.529   3.538 -0.0551 -0.0161  0.0830
11787SOL     OW37560   0.034   3.198   9.218 -0.1561  0.3920  0.1083
11787SOL    HW137561  -0.045   3.251   9.215 -1.1577 -0.9369  1.6417
11787SOL    HW237562   0.095   3.247   9.273 -0.3684  0.8421 -0.0585
11788SOL     OW37563   4.416   2.693   5.600  0.0063 -0.2369  0.5861
11788SOL    HW137564   4.372   2.767   5.641 -0.6304 -0.4439  0.2868
11788SOL    HW237565   4.379   2.616   5.642 -0.3040 -0.4327 -0.0325
11789SOL     OW37566   2.093   2.103   0.821 -0.1727  0.1268 -0.2036
11789SOL    HW137567   2.067   2.195   0.828 -0.7379 -0.1081  1.0015
11789SOL    HW237568   2.062   2.063   0.902  2.4631 -0.5636  0.5732
11790SOL     OW37569   6.627   3.911   5.450  0.1450  0.2983 -0.2553
11790SOL    HW137570   6.602   3.907   5.358 -1.9609  0.9886  0.2258
11790SOL    HW237571   6.632   4.005   5.469 -0.7318  0.1827  0.6247
11791SOL     OW37572   7.108   4.367   8.565 -0.1595  0.5075 -0.1262
11791SOL    HW137573   7.141   4.358   8.476  0.1179 -2.0439  0.1540
11791SOL    HW237574   7.186   4.370   8.620 -0.3315  0.8773  0.0961
11792SOL     OW37575   6.144   4.671   2.416 -0.2729 -0.0035  0.2124
11792SOL    HW137576   6.098   4.744   2.457  0.9943  0.7289  0.4155
11792SOL    HW237577   6.177   4.708   2.334  2.1533  0.3474  1.2506
11793SOL     OW37578   1.221   3.143   6.952 -0.0753 -0.2119  0.3051
11793SOL    HW137579   1.283   3.076   6.981  1.0401  0.1981 -1.0172
11793SOL    HW237580   1.191   3.184   7.033  2.6235  0.6247  0.9908
11794SOL     OW37581   2.671   1.553   0.373 -0.0136  0.2023  0.7742
11794SOL    HW137582   2.598   1.492   0.362 -0.1659  0.5728 -0.3616
11794SOL    HW237583   2.686   1.555   0.467 -0.1037 -1.4814  0.8554
11795SOL     OW37584   2.550   1.692   2.857  0.0845  0.5076 -0.0323
11795SOL    HW137585   2.584   1.770   2.812  1.3802 -0.3144 -0.5436
11795SOL    HW237586   2.593   1.694   2.942 -0.5083  0.7653  0.2690
11796SOL     OW37587   3.800   7.828   3.594 -0.5337  0.6436  0.0181
11796SOL    HW137588   3.859   7.856   3.664  0.9353  0.5744 -1.1372
11796SOL    HW237589   3.821   7.886   3.520  0.6971 -1.6792 -1.5757
11797SOL     OW37590   1.899   6.022   6.626 -0.1637 -0.4305  0.4212
11797SOL    HW137591   1.913   5.944   6.678 -0.4825  0.8843  2.5919
11797SOL    HW237592   1.844   6.078   6.680 -2.3221  0.1981 -2.1981
11798SOL     OW37593   3.969   2.228   0.063 -0.5484 -0.1585 -0.4595
11798SOL    HW137594   4.024   2.287   0.113  0.6079 -1.3780 -0.2568
11798SOL    HW237595   3.919   2.286   0.004  0.0311  1.0529  0.2076
11799SOL     OW37596   4.794   3.252   4.096  0.0488  0.5368 -0.1750
11799SOL    HW137597   4.826   3.207   4.175 -1.7139  0.0218  0.2945
11799SOL    HW237598   4.745   3.185   4.048 -0.6357  1.3637 -0.6640
11800SOL     OW37599   1.985   1.393   7.777 -0.3518  0.3729  0.0242
11800SOL    HW137600   1.907   1.448   7.776 -0.2132  0.8263  3.2734
11800SOL    HW237601   2.057   1.455   7.791  0.0178 -0.4220  1.8345
11801SOL     OW37602   1.120   9.340   7.611  0.5980  0.7127 -0.0170
11801SOL    HW137603   1.065   9.358   7.688  0.8823 -0.5629  0.5160
11801SOL    HW237604   1.062   9.353   7.536 -0.1712  0.2993  0.4967
11802SOL     OW37605   2.452   6.422   8.392 -0.4611  0.6070 -0.2215
11802SOL    HW137606   2.471   6.433   8.485  2.2187  0.4202 -0.6544
11802SOL    HW237607   2.500   6.494   8.349  1.4868 -1.3826 -1.6532
11803SOL     OW37608   0.101   4.594   2.918  0.4008 -0.1106 -0.0313
11803SOL    HW137609   0.060   4.654   2.980 -0.5887 -1.4409  0.6577
11803SOL    HW237610   0.100   4.510   2.962  0.5327 -0.9153 -1.4862
11804SOL     OW37611   9.162   2.552   9.294 -0.1062 -0.1023 -0.3032
11804SOL    HW137612   9.238   2.586   9.245  0.4444 -1.1209 -0.1727
11804SOL    HW237613   9.200   2.505   9.368 -0.7555 -2.5089 -1.4217
11805SOL     OW37614   1.150   9.387   7.947  0.4904 -0.0977 -0.0316
11805SOL    HW137615   1.140   9.322   8.016  2.5344  0.2318  0.6270
11805SOL    HW237616   1.069   9.380   7.896 -0.2147 -1.7040  1.2221
11806SOL     OW37617   0.399   0.814   2.804  0.0213 -0.1676 -0.0381
11806SOL    HW137618   0.400   0.772   2.890  1.8970  1.5747  0.8859
11806SOL    HW237619   0.329   0.880   2.810 -1.5450 -1.6723 -0.7901
11807SOL     OW37620   7.668   1.183   9.050  0.2411 -0.1331 -0.1833
11807SOL    HW137621   7.669   1.110   9.112 -0.4531 -2.2870 -2.5727
11807SOL    HW237622   7.640   1.145   8.967  1.8179  2.4728 -2.0713
11808SOL     OW37623   5.051   6.130   8.301  0.2611 -0.0281  0.6688
11808SOL    HW137624   4.990   6.203   8.297 -0.1761 -0.2521  2.2916
11808SOL    HW237625   5.107   6.141   8.225 -1.1176  0.7935 -0.2727
11809SOL     OW37626   5.047   1.934   1.085 -0.1307 -0.0071 -0.3831
11809SOL    HW137627   4.958   1.924   1.118 -0.2670  0.0579 -0.7303
11809SOL    HW237628   5.057   2.028   1.070  0.1111  0.0259 -0.0249
11810SOL     OW37629   7.504   3.806   7.224 -0.6504  0.3733 -0.1660
11810SOL    HW137630   7.500   3.775   7.315  1.7384  2.1074  0.6584
11810SOL    HW237631   7.566   3.746   7.181  1.7385  2.0667  0.6673
11811SOL     OW37632   4.939   5.507   0.037  0.1345  0.1173  0.4649
11811SOL    HW137633   4.930   5.460  -0.045  1.9080  0.1409  0.2175
11811SOL    HW237634   4.860   5.486   0.086 -0.8560 -0.0650 -1.1429
11812SOL     OW37635   7.509   1.392   2.820 -0.3157 -0.4269  0.1101
11812SOL    HW137636   7.454   1.405   2.897 -1.9905 -0.3750 -1.0419
11812SOL    HW237637   7.573   1.326   2.847 -0.5733 -0.0873  1.6648
11813SOL     OW37638   1.027   4.821   5.084 -0.2395 -0.3761 -0.2657
11813SOL    HW137639   1.018   4.802   5.177  0.8431  0.7532  0.0968
11813SOL    HW237640   1.017   4.916   5.078 -1.2844 -0.5376 -1.4456
11814SOL     OW37641   4.485   1.896   7.624 -0.8567 -0.3116  0.0423
11814SOL    HW137642   4.578   1.917   7.614 -1.1443  0.2951 -1.7499
11814SOL    HW237643   4.484   1.803   7.646  0.1805 -0.2871  0.2529
11815SOL     OW37644   4.507   4.032   6.308  0.0274 -0.2739 -0.5628
11815SOL    HW137645   4.444   4.102   6.295  0.5177 -0.1516 -2.7310
11815SOL    HW237646   4.465   3.955   6.270  0.4795 -0.5894 -0.4316
11816SOL     OW37647   5.654   2.037   7.819 -0.0566 -0.5819 -1.1196
11816SOL    HW137648   5.598   1.998   7.886 -1.0365  1.3489 -0.7510
11816SOL    HW237649   5.594   2.063   7.749  0.6439 -0.2904 -1.6259
11817SOL     OW37650   0.903   7.969   8.087  0.1276  0.8981 -0.1140
11817SOL    HW137651   0.944   7.996   8.005 -0.0254  1.2095 -0.0909
11817SOL    HW237652   0.817   8.011   8.085 -0.3615 -0.0874 -0.3610
11818SOL     OW37653   4.291   0.333   7.060 -0.4210  0.0853  0.3974
11818SOL    HW137654   4.364   0.369   7.110  1.4153 -1.9217 -0.6403
11818SOL    HW237655   4.249   0.272   7.120  0.4955 -0.7745  0.1993
11819SOL     OW37656   1.918   8.131   9.315  0.2879 -0.5142 -0.1705
11819SOL    HW137657   1.943   8.221   9.295 -1.9084  0.2172  0.0093
11819SOL    HW237658   1.874   8.137   9.400  0.7792 -1.9055  0.2084
11820SOL     OW37659   4.150   1.694   8.178  0.1115  0.4626  0.0426
11820SOL    HW137660   4.128   1.618   8.232  0.7258  1.5270  1.8944
11820SOL    HW237661   4.238   1.676   8.146 -0.3335 -0.2682 -0.7997
11821SOL     OW37662   6.292   5.379   5.310 -0.2183 -0.2053  0.6005
11821SOL    HW137663   6.222   5.407   5.369  0.1502 -0.1829  1.0256
11821SOL    HW237664   6.252   5.308   5.259 -1.5142  1.6755 -1.2082
11822SOL     OW37665   3.766   7.558   8.680  0.1219  0.1865 -0.8941
11822SOL    HW137666   3.785   7.621   8.610 -0.6555  1.7414  0.2374
11822SOL    HW237667   3.712   7.492   8.637  0.4550  0.5963 -1.9936
11823SOL     OW37668   7.873   4.293   3.464 -0.7518 -0.1740  0.3985
11823SOL    HW137669   7.939   4.361   3.447  1.0563 -1.8056  0.5115
11823SOL    HW237670   7.898   4.257   3.550 -0.4487 -2.2443 -0.4981
11824SOL     OW37671   6.049   8.795   4.898  0.1979  0.4012  0.2153
11824SOL    HW137672   6.080   8.704   4.901 -1.2725 -0.1964 -0.9854
11824SOL    HW237673   5.978   8.793   4.834  0.4311  2.5102 -0.1656
11825SOL     OW37674   2.307   1.603   1.609  0.1247 -1.0027 -0.5742
11825SOL    HW137675   2.296   1.537   1.541  0.1099 -1.2632 -0.3227
11825SOL    HW237676   2.399   1.631   1.601  0.7111 -2.4402  0.5380
11826SOL     OW37677   1.699   7.438   7.844 -0.5174  0.5311  0.1475
11826SOL    HW137678   1.765   7.371   7.860 -2.3439 -0.8928  2.2261
11826SOL    HW237679   1.705   7.497   7.919  1.0683  2.8466 -1.6457
11827SOL     OW37680   8.083   3.606   7.002  0.2708 -0.6847  0.1467
11827SOL    HW137681   8.163   3.624   7.053  0.1390 -2.6260  1.1339
11827SOL    HW237682   8.071   3.511   7.009 -1.2231 -0.6500 -1.3740
11828SOL     OW37683   4.669   5.816   8.550 -0.3521  0.1297  0.6221
11828SOL    HW137684   4.709   5.731   8.569 -1.2275 -0.1837  1.1176
11828SOL    HW237685   4.677   5.825   8.455 -0.4469 -0.6068  0.5371
11829SOL     OW37686   6.998   6.956   2.112  0.5948  0.3563  0.3647
11829SOL    HW137687   6.905   6.962   2.134  0.4981 -0.3970  0.1799
11829SOL    HW237688   7.027   7.047   2.107 -0.4584  0.6575 -0.9753
11830SOL     OW37689   0.647   9.235   2.652 -0.3016 -0.2542 -0.6040
11830SOL    HW137690   0.721   9.274   2.606  0.7689 -0.8013  0.5874
11830SOL    HW237691   0.676   9.147   2.674 -1.5033 -0.6498 -0.5236
11831SOL     OW37692   2.031   0.980   1.664  0.2925  0.3793 -0.7544
11831SOL    HW137693   1.989   1.027   1.736  2.1205 -0.3218  0.8780
11831SOL    HW237694   2.113   1.027   1.649  1.5796 -1.4641  0.0692
11832SOL     OW37695   9.519   7.177   3.686  0.7139 -0.2240 -0.4381
11832SOL    HW137696   9.575   7.236   3.635  1.9489 -0.9443  0.0247
11832SOL    HW237697   9.431   7.192   3.652  0.8560  2.3535  0.0846
11833SOL     OW37698   0.582   8.579   9.414 -0.4184 -0.4237 -0.5721
11833SOL    HW137699   0.646   8.593   9.345 -1.1544 -0.8741 -1.3613
11833SOL    HW237700   0.632   8.588   9.495  0.4774  0.0022 -1.1559
11834SOL     OW37701   8.208   7.825   5.382 -0.3230  0.0030 -0.4855
11834SOL    HW137702   8.178   7.914   5.397 -2.5510 -1.0512  2.0183
11834SOL    HW237703   8.303   7.832   5.375 -0.4952  2.5907 -0.9638
11835SOL     OW37704   2.417   8.120   0.348 -0.2347  0.2995 -0.0481
11835SOL    HW137705   2.430   8.179   0.273 -0.5860 -1.0602 -1.2084
11835SOL    HW237706   2.482   8.149   0.412  0.9058  0.7352 -1.3446
11836SOL     OW37707   8.449   9.127   5.942 -0.2535 -0.5371 -0.6038
11836SOL    HW137708   8.453   9.175   6.026  0.3207  1.0087 -1.4707
11836SOL    HW237709   8.541   9.112   5.920 -0.3622  0.0010 -1.4556
11837SOL     OW37710   7.607   5.911   2.954 -0.2101  0.7712 -0.0187
11837SOL    HW137711   7.523   5.943   2.921 -1.8478 -2.4310  0.7474
11837SOL    HW237712   7.609   5.937   3.046 -1.9736 -1.9189  0.8610
11838SOL     OW37713   3.094   1.669   4.313  0.3435  0.1327 -0.0914
11838SOL    HW137714   3.177   1.716   4.306 -0.0809  0.8054 -0.7563
11838SOL    HW237715   3.064   1.659   4.223 -0.2148 -0.2631  0.1304
11839SOL     OW37716   3.265   3.182   0.025 -0.0133  0.2562 -0.7775
11839SOL    HW137717   3.319   3.240  -0.030  0.7217  0.0698 -0.2658
11839SOL    HW237718   3.275   3.096  -0.016 -0.7557  0.4028 -1.2823
11840SOL     OW37719   0.078   8.963   2.426  0.4070  0.1770  0.3081
11840SOL    HW137720   0.001   8.943   2.373  0.5921 -3.3589  1.1057
11840SOL    HW237721   0.043   8.987   2.512  0.1311 -1.0535  0.5598
11841SOL     OW37722   7.502   1.063   8.864  0.3815  0.4068 -0.1301
11841SOL    HW137723   7.523   0.970   8.855  1.2822  0.4289  1.4749
11841SOL    HW237724   7.441   1.081   8.792 -1.2667 -1.8486  0.5983
11842SOL     OW37725   3.929   2.941   1.788 -0.0824  0.4950 -0.0823
11842SOL    HW137726   3.972   2.897   1.715 -1.0291  0.7086 -0.7962
11842SOL    HW237727   3.926   2.876   1.858  0.5168  0.1699 -0.3537
11843SOL     OW37728   3.108   4.985   8.265 -0.1186 -0.2583  0.5120
11843SOL    HW137729   3.187   5.004   8.316  0.8862  1.0354 -1.3903
11843SOL    HW237730   3.137   4.923   8.197 -0.4843  0.8939 -0.7440
11844SOL     OW37731   4.129   3.677   8.531  0.0274  0.0617 -0.1094
11844SOL    HW137732   4.108   3.762   8.570 -0.1062  0.4733 -1.0584
11844SOL    HW237733   4.192   3.696   8.463 -1.4617 -0.3120 -1.6638
11845SOL     OW37734   8.354   8.558   6.668 -0.3256  0.0260 -0.0285
11845SOL    HW137735   8.392   8.508   6.595  0.9476  0.2264  0.4636
11845SOL    HW237736   8.265   8.524   6.676  0.2952 -1.7436 -0.1045
11846SOL     OW37737   5.422   2.263   3.335  0.5049 -0.4567  0.0761
11846SOL    HW137738   5.489   2.272   3.268  0.9121 -0.1457  0.5131
11846SOL    HW237739   5.442   2.332   3.398 -0.5910  0.0393 -0.0910
11847SOL     OW37740   6.693   1.445   5.007  0.1799  0.0725  0.1704
11847SOL    HW137741   6.630   1.389   5.051  1.4354 -0.5588  1.2350
11847SOL    HW237742   6.773   1.437   5.059  1.0681  1.0413 -0.9831
11848SOL     OW37743   9.278   4.212   5.593  0.0854  0.4549  0.0559
11848SOL    HW137744   9.346   4.260   5.640  0.1681  0.6208 -0.2282
11848SOL    HW237745   9.251   4.143   5.653 -0.1427  0.9514  0.5292
11849SOL     OW37746   0.500   1.211   5.708 -0.3594 -0.1580  0.6561
11849SOL    HW137747   0.492   1.147   5.637  0.1648  1.8027 -1.3002
11849SOL    HW237748   0.416   1.257   5.708  0.0711  0.6471  0.4558
11850SOL     OW37749   3.796   3.233   6.792  0.6291 -0.1322 -0.2272
11850SOL    HW137750   3.738   3.157   6.797 -0.9917  1.0868  0.6532
11850SOL    HW237751   3.834   3.229   6.705 -0.5882 -1.1340 -0.7438
11851SOL     OW37752   9.381   5.151   8.094  0.0878  0.0175  0.2657
11851SOL    HW137753   9.468   5.179   8.066 -0.3052 -1.8155 -3.3830
11851SOL    HW237754   9.325   5.226   8.076  0.5347  0.3436  0.2173
11852SOL     OW37755   3.973   8.951   8.985 -0.2096  0.0905  0.2790
11852SOL    HW137756   3.879   8.936   8.981 -0.0086 -1.1775 -0.4492
11852SOL    HW237757   3.998   8.974   8.896  0.1995  0.1721  0.4120
11853SOL     OW37758   1.348   7.520   2.964  0.2122 -0.5114 -0.3156
11853SOL    HW137759   1.342   7.506   3.058  1.6480 -0.8217 -0.2570
11853SOL    HW237760   1.282   7.461   2.927  2.0068 -3.0730  0.2996
11854SOL     OW37761   1.472   6.841   5.094 -0.5418 -0.2644  0.1449
11854SOL    HW137762   1.401   6.803   5.145 -1.6909  0.6742 -0.6873
11854SOL    HW237763   1.503   6.769   5.038 -1.5951 -0.4154 -0.2673
11855SOL     OW37764   4.846   8.767   3.768 -0.0891  0.6874 -0.4907
11855SOL    HW137765   4.874   8.765   3.676 -0.4600  0.6026 -0.6022
11855SOL    HW237766   4.765   8.716   3.770 -0.3445  1.0989 -0.2048
11856SOL     OW37767   5.911   1.964   9.477  0.4139  0.1733 -0.1776
11856SOL    HW137768   5.823   1.927   9.469  0.3464  0.4343 -0.7085
11856SOL    HW237769   5.908   2.045   9.427  0.7275  0.6129  0.5062
11857SOL     OW37770   5.620   3.498   6.465  0.6065 -0.0269 -0.0058
11857SOL    HW137771   5.632   3.443   6.387 -2.4590 -1.6174  0.4950
11857SOL    HW237772   5.693   3.475   6.522  0.5220 -2.1306 -0.6555
11858SOL     OW37773   9.122   8.586   4.864  0.6365 -0.4804  0.4397
11858SOL    HW137774   9.069   8.549   4.793  0.7912  0.4128 -0.1513
11858SOL    HW237775   9.185   8.644   4.820  1.9220 -1.2735  1.1465
11859SOL     OW37776   2.895   4.628   5.110  0.1338 -0.2899 -0.2389
11859SOL    HW137777   2.908   4.691   5.039 -0.0523  0.5201  0.4328
11859SOL    HW237778   2.806   4.643   5.141  0.2282 -0.5912  0.2033
11860SOL     OW37779   2.702   0.815   0.827  0.5098 -0.0153 -0.2720
11860SOL    HW137780   2.778   0.761   0.848 -1.0310 -2.3966 -0.3437
11860SOL    HW237781   2.674   0.851   0.911  0.2978 -1.1614  0.1626
11861SOL     OW37782   4.969   4.333   8.175  0.0488  0.1519  0.2808
11861SOL    HW137783   4.926   4.408   8.216  1.1546  1.2013 -0.3957
11861SOL    HW237784   4.955   4.260   8.235  1.6057  1.6061  2.5494
11862SOL     OW37785   1.047   1.816   6.943  0.5523  0.1352 -0.6091
11862SOL    HW137786   1.013   1.899   6.909 -1.0665 -1.1477 -2.3340
11862SOL    HW237787   1.100   1.781   6.872  0.0942 -0.9302 -0.4413
11863SOL     OW37788   7.090   3.659   1.487 -0.1613  0.1164  0.2780
11863SOL    HW137789   7.171   3.697   1.524  0.1147  0.0130 -0.2155
11863SOL    HW237790   7.107   3.655   1.393 -0.4055 -0.7332  0.2718
11864SOL     OW37791   5.120   5.327   5.849  0.2544  0.2520 -0.0624
11864SOL    HW137792   5.185   5.366   5.790  1.2487  0.0781  0.8911
11864SOL    HW237793   5.133   5.233   5.840  0.5073  0.2271  0.5371
11865SOL     OW37794   5.113   5.221   1.506  0.5706  0.0189  0.7485
11865SOL    HW137795   5.205   5.247   1.510  0.8444 -0.5126 -1.0325
11865SOL    HW237796   5.066   5.289   1.555  1.7562  1.1864  0.3139
11866SOL     OW37797   8.237   9.412   6.684 -0.1011 -0.6034  0.1757
11866SOL    HW137798   8.184   9.393   6.607  1.2773  0.0014 -0.9557
11866SOL    HW237799   8.253   9.506   6.680  2.6398 -1.0309 -0.6241
11867SOL     OW37800   2.534   8.792   7.921  0.1914  0.2511  0.2042
11867SOL    HW137801   2.545   8.809   7.828  1.2142  0.3353  0.3207
11867SOL    HW237802   2.578   8.708   7.936 -0.9470 -0.3268  0.4215
11868SOL     OW37803   0.067   3.569   0.934 -0.0142 -0.1048 -0.5741
11868SOL    HW137804   0.065   3.622   1.014  0.0028 -0.7169 -0.1647
11868SOL    HW237805  -0.025   3.558   0.910 -0.1258 -1.3440  0.3228
11869SOL     OW37806   4.821   8.322   8.311  0.3521  0.0233  0.0668
11869SOL    HW137807   4.913   8.342   8.325 -0.0431  1.2238  1.0457
11869SOL    HW237808   4.821   8.264   8.234  1.8585  0.4945 -0.3209
11870SOL     OW37809   5.343   8.561   2.034 -0.1803 -0.1542  0.0782
11870SOL    HW137810   5.391   8.628   2.082  0.6244 -0.4393 -0.3151
11870SOL    HW237811   5.274   8.533   2.095  1.1138 -0.8607  1.2716
11871SOL     OW37812   2.182   8.430   1.652  0.2136 -0.5193 -0.1078
11871SOL    HW137813   2.222   8.477   1.725  0.9346 -1.2501 -0.0268
11871SOL    HW237814   2.097   8.401   1.686 -0.8767  1.8553 -0.5817
11872SOL     OW37815   0.677   5.213   5.563 -0.3838 -0.0743 -0.0532
11872SOL    HW137816   0.764   5.234   5.530  0.2387 -0.0010  1.5401
11872SOL    HW237817   0.691   5.139   5.622 -1.2572  0.4873  0.8836
11873SOL     OW37818   2.744   7.212   3.850  0.4444  0.6350  0.2879
11873SOL    HW137819   2.717   7.256   3.931  0.5494 -1.5138  1.5690
11873SOL    HW237820   2.834   7.184   3.868  0.6102  0.4836 -0.7512
11874SOL     OW37821   2.993   7.773   3.489  0.2710 -0.5611 -0.2208
11874SOL    HW137822   2.923   7.744   3.430 -0.7625 -0.4520  0.9123
11874SOL    HW237823   3.052   7.697   3.495  0.2031 -0.6947 -1.0942
11875SOL     OW37824   1.742   6.863   0.247  0.3305  0.1781  0.6478
11875SOL    HW137825   1.713   6.790   0.193  0.4513 -0.6362  1.6439
11875SOL    HW237826   1.821   6.896   0.203 -0.1674  0.2337 -0.2298
11876SOL     OW37827   1.937   3.271   6.079  0.4057  0.3952 -0.0219
11876SOL    HW137828   2.014   3.315   6.044 -0.4907  0.9520 -1.3942
11876SOL    HW237829   1.878   3.262   6.004 -1.1166  0.5271  1.0973
11877SOL     OW37830   8.183   8.385   6.050 -0.3061  0.3069  0.0541
11877SOL    HW137831   8.173   8.406   5.957  1.1899 -1.3222 -0.5558
11877SOL    HW237832   8.240   8.453   6.085  0.7527 -0.1327 -0.7515
11878SOL     OW37833   5.414   8.329   0.154 -0.3150 -0.0896 -0.7376
11878SOL    HW137834   5.478   8.273   0.111  1.1193 -0.3764  1.6059
11878SOL    HW237835   5.445   8.418   0.138  0.6763 -0.2259  0.3233
11879SOL     OW37836   6.810   3.672   4.205  0.7241  0.1780 -0.1303
11879SOL    HW137837   6.806   3.583   4.239  0.0698 -0.2511 -1.3126
11879SOL    HW237838   6.883   3.712   4.254  1.7112 -1.2995 -0.3229
11880SOL     OW37839   0.141   7.378   1.669  0.0013  0.2739  0.2465
11880SOL    HW137840   0.190   7.363   1.588 -2.3682 -0.6490 -1.1230
11880SOL    HW237841   0.098   7.462   1.656  1.8867  1.5798  1.8632
11881SOL     OW37842   8.834   8.092   0.798  0.3036  0.1364  0.1118
11881SOL    HW137843   8.815   8.166   0.857  0.4042  0.2569 -0.0051
11881SOL    HW237844   8.905   8.045   0.842 -0.2401 -0.2984  0.5348
11882SOL     OW37845   3.215   5.512   7.857  1.1107 -0.1176 -0.0112
11882SOL    HW137846   3.208   5.510   7.953  2.9188 -0.6720  0.1406
11882SOL    HW237847   3.205   5.421   7.830  2.1054 -0.1773 -0.2059
11883SOL     OW37848   7.075   9.519   0.209  0.2527 -0.2571  0.2342
11883SOL    HW137849   7.010   9.569   0.259 -1.0813  1.1655 -2.7050
11883SOL    HW237850   7.159   9.553   0.240 -0.5411  1.2842  0.8025
11884SOL     OW37851   6.859   7.259   1.643 -0.1117 -0.3013 -0.0090
11884SOL    HW137852   6.951   7.257   1.670 -0.6563  1.4711  2.2028
11884SOL    HW237853   6.862   7.286   1.551  1.5499  3.8914  1.0417
11885SOL     OW37854   7.996   0.448   5.614 -0.1435 -0.5474  0.6000
11885SOL    HW137855   7.974   0.355   5.618 -0.8317 -0.4878 -1.1367
11885SOL    HW237856   7.935   0.485   5.551  1.1427  0.7774  0.0816
11886SOL     OW37857   1.323   4.994   1.328  0.2664  0.2319  0.2910
11886SOL    HW137858   1.243   4.951   1.358 -0.6538  2.4819  1.2952
11886SOL    HW237859   1.292   5.061   1.266  1.5348  0.0768 -0.5318
11887SOL     OW37860   1.718   1.514   7.854 -0.6986  1.2893 -0.2225
11887SOL    HW137861   1.753   1.603   7.861  0.4490  0.8806 -0.5738
11887SOL    HW237862   1.686   1.495   7.942  0.4694  1.4911  0.2662
11888SOL     OW37863   7.474   3.881   1.883 -0.2560  0.3963 -0.0229
11888SOL    HW137864   7.422   3.810   1.920  0.0731  0.0388 -0.2343
11888SOL    HW237865   7.457   3.956   1.940  0.3335 -0.1738  0.9349
11889SOL     OW37866   3.315   0.275   9.183  0.3816 -0.3724 -0.1081
11889SOL    HW137867   3.293   0.259   9.091 -0.5418 -2.4392  0.4126
11889SOL    HW237868   3.408   0.255   9.189  1.0530  2.1658 -1.0403
11890SOL     OW37869   2.789   2.410   2.314 -0.2462 -0.1175  0.0110
11890SOL    HW137870   2.712   2.461   2.287 -0.9198 -1.0319  0.1890
11890SOL    HW237871   2.801   2.432   2.406 -1.4211 -1.3695  0.4855
11891SOL     OW37872   8.930   2.897   0.136  0.3929 -0.2394 -0.0237
11891SOL    HW137873   9.003   2.844   0.104  2.7707  2.2330  0.8954
11891SOL    HW237874   8.957   2.924   0.224 -1.9181  0.3494  0.5690
11892SOL     OW37875   4.405   8.892   2.047 -0.2017 -0.0508  0.2662
11892SOL    HW137876   4.399   8.863   2.138  2.5726  0.2811  0.6603
11892SOL    HW237877   4.429   8.984   2.053  0.8921 -0.2457 -0.7371
11893SOL     OW37878   5.555   8.671   3.728  0.1068 -0.7893 -0.4036
11893SOL    HW137879   5.552   8.576   3.736 -0.9242 -0.7223  0.1966
11893SOL    HW237880   5.483   8.702   3.783  0.1856  0.3166 -0.8932
11894SOL     OW37881   2.947   9.487   5.995  0.1082  0.7543 -0.0621
11894SOL    HW137882   2.855   9.491   6.020  0.1147  0.2753  0.0617
11894SOL    HW237883   2.978   9.577   6.000  0.1635  0.6655  1.8660
11895SOL     OW37884   4.866   7.043   8.194  0.4485 -0.0178 -0.4022
11895SOL    HW137885   4.866   7.074   8.285  0.9861 -0.0583 -0.3862
11895SOL    HW237886   4.913   6.960   8.197 -2.4743 -1.8054 -0.1466
11896SOL     OW37887   2.320   3.924   5.363 -0.0340  0.0761  0.1393
11896SOL    HW137888   2.391   3.869   5.329  0.4908  0.1165  1.1392
11896SOL    HW237889   2.299   3.886   5.448 -0.7043  0.5193  0.1780
11897SOL     OW37890   8.458   1.451   4.595 -0.7226 -0.2718  0.3655
11897SOL    HW137891   8.404   1.463   4.518  1.0357 -0.8722 -1.0303
11897SOL    HW237892   8.517   1.526   4.595 -0.1844 -0.6866  0.6607
11898SOL     OW37893   8.143   7.471   1.863 -0.4040 -0.0389  0.3064
11898SOL    HW137894   8.057   7.476   1.822 -0.2636 -3.7524 -0.7901
11898SOL    HW237895   8.124   7.451   1.955 -0.6539  1.1588  0.5394
11899SOL     OW37896   2.668   3.542   8.611  0.2026  0.0848  0.7018
11899SOL    HW137897   2.618   3.504   8.539 -1.2069 -0.2336  1.8096
11899SOL    HW237898   2.618   3.621   8.635  1.1050  0.6344  0.8098
11900SOL     OW37899   9.501   9.184   7.472  0.0617 -0.0721 -0.3859
11900SOL    HW137900   9.459   9.265   7.444 -3.1821 -1.8344 -1.0880
11900SOL    HW237901   9.516   9.136   7.391  1.2182 -0.5352  0.0797
11901SOL     OW37902   2.389   0.247   7.046  0.2001  0.0079 -0.5788
11901SOL    HW137903   2.361   0.338   7.039  1.8197  0.4981 -1.1060
11901SOL    HW237904   2.345   0.203   6.973  0.5553  0.6928 -1.2246
11902SOL     OW37905   1.640   2.346   1.054 -0.0405  0.3242  0.5395
11902SOL    HW137906   1.550   2.329   1.026  0.1897  0.9456 -0.6414
11902SOL    HW237907   1.669   2.419   0.999  0.6041  1.2996  2.1132
11903SOL     OW37908   7.954   0.327   4.040 -0.3768  0.2786 -0.1729
11903SOL    HW137909   7.947   0.233   4.058  0.1976 -0.1325 -1.9069
11903SOL    HW237910   7.935   0.369   4.124  0.4590 -1.4134  0.9246
11904SOL     OW37911   3.890   3.928   6.168 -0.5171  1.0231 -0.2446
11904SOL    HW137912   3.978   3.902   6.139 -0.3925  2.3137 -1.1220
11904SOL    HW237913   3.878   3.882   6.251  0.8898  0.6216 -0.2314
11905SOL     OW37914   1.768   5.833   5.763 -0.3211  0.4679 -0.4382
11905SOL    HW137915   1.839   5.774   5.790 -1.1468 -0.3023  0.1196
11905SOL    HW237916   1.804   5.921   5.775 -0.0609  0.1284  1.6353
11906SOL     OW37917   1.722   0.607   0.551  0.3970  0.2035  0.6802
11906SOL    HW137918   1.677   0.522   0.547 -1.8311  1.2030  2.3811
11906SOL    HW237919   1.705   0.646   0.465  0.8068 -0.7427  0.1510
11907SOL     OW37920   6.581   3.413   0.587 -0.4324 -0.0677  0.1903
11907SOL    HW137921   6.596   3.323   0.560 -1.2031 -0.2237  0.2620
11907SOL    HW237922   6.497   3.437   0.547 -0.7894  0.2341  1.0797
11908SOL     OW37923   1.787   7.112   9.465 -0.0794 -0.2897 -0.2622
11908SOL    HW137924   1.824   7.030   9.497 -2.4528 -0.0367  3.7655
11908SOL    HW237925   1.847   7.179   9.497 -0.6471 -0.2343  0.7200
11909SOL     OW37926   3.264   2.818   0.519  0.2140 -0.7251 -0.4310
11909SOL    HW137927   3.201   2.864   0.576  1.1087 -0.6396  0.5237
11909SOL    HW237928   3.221   2.814   0.434 -1.4859 -1.5104  0.4177
11910SOL     OW37929   0.991   0.497   2.200  0.6373  0.1997 -0.2343
11910SOL    HW137930   0.984   0.457   2.114 -2.3935 -1.5367  0.7040
11910SOL    HW237931   0.941   0.579   2.193 -0.1130 -0.2317  0.0076
11911SOL     OW37932   7.374   1.060   3.430 -0.3506 -0.1228 -0.5242
11911SOL    HW137933   7.338   1.081   3.517  0.5909  1.6392 -0.5086
11911SOL    HW237934   7.342   1.131   3.374 -0.1895 -0.7475 -1.4188
11912SOL     OW37935   8.390   3.295   8.637  0.6316  0.6718 -0.5837
11912SOL    HW137936   8.475   3.283   8.679  0.2824  0.6628  0.1444
11912SOL    HW237937   8.404   3.272   8.545  1.3811  0.5532 -0.4400
11913SOL     OW37938   3.454   1.596   0.460  0.5143  0.2228  0.1288
11913SOL    HW137939   3.549   1.585   0.467  0.3574 -1.5282 -0.0132
11913SOL    HW237940   3.428   1.535   0.391 -0.6591  1.0174 -0.1477
11914SOL     OW37941   9.400   5.228   5.766 -0.2325  0.0925 -0.1419
11914SOL    HW137942   9.401   5.136   5.790  0.4011  0.3278  0.7958
11914SOL    HW237943   9.365   5.230   5.677 -0.8006 -0.9908  0.0478
11915SOL     OW37944   1.530   3.005   6.098 -0.3580  0.2377 -0.0230
11915SOL    HW137945   1.535   3.014   6.193  0.3672 -2.1065  0.2304
11915SOL    HW237946   1.574   2.922   6.080  1.4848  1.6475 -2.6460
11916SOL     OW37947   0.105   8.224   7.212 -0.0358 -0.4914  0.1182
11916SOL    HW137948   0.118   8.299   7.154  2.0144 -0.8637  0.0252
11916SOL    HW237949   0.076   8.263   7.295 -1.8107  0.1298 -0.7503
11917SOL     OW37950   2.089   5.390   6.559 -0.2167  0.1851 -0.3306
11917SOL    HW137951   2.073   5.296   6.562 -0.0513  0.1332 -0.9323
11917SOL    HW237952   2.182   5.398   6.535 -0.9470  0.4823 -3.4987
11918SOL     OW37953   3.081   3.010   0.661  0.0184 -0.1727 -0.5908
11918SOL    HW137954   2.994   2.971   0.657 -1.4654  2.7929 -0.5304
11918SOL    HW237955   3.084   3.053   0.747  2.8649 -2.7580  0.7821
11919SOL     OW37956   7.674   5.605   3.139  0.1078  0.1203  0.4555
11919SOL    HW137957   7.616   5.559   3.200  2.7666 -1.4729  1.9896
11919SOL    HW237958   7.624   5.612   3.058 -1.9803 -1.6567  1.5046
11920SOL     OW37959   0.650   4.583   5.077  0.6515 -0.0237  0.3982
11920SOL    HW137960   0.709   4.507   5.074  1.1246  0.3337 -2.3093
11920SOL    HW237961   0.687   4.643   5.012 -1.0373  1.5273  0.8177
11921SOL     OW37962   8.682   0.698   2.148  0.1388  0.0264  0.6078
11921SOL    HW137963   8.714   0.788   2.137 -0.8845  0.3091 -0.1397
11921SOL    HW237964   8.592   0.700   2.117  0.2197 -1.3605  0.1998
11922SOL     OW37965   5.267   2.310   6.431 -0.9542 -0.7403  0.0237
11922SOL    HW137966   5.178   2.281   6.453 -0.6195 -1.9359 -0.1380
11922SOL    HW237967   5.324   2.260   6.489 -0.4242  1.0573  1.1522
11923SOL     OW37968   9.368   4.932   7.387 -0.0766 -0.0617  0.3414
11923SOL    HW137969   9.398   4.959   7.300 -1.1248  1.3056  0.3807
11923SOL    HW237970   9.333   4.844   7.374  2.4249 -1.1067 -0.0126
11924SOL     OW37971   7.105   2.151   2.517 -0.1478  0.3053 -0.5969
11924SOL    HW137972   7.141   2.143   2.606  1.8290  0.2561 -1.3429
11924SOL    HW237973   7.023   2.199   2.528  0.1435  0.4448  1.2274
11925SOL     OW37974   0.583   1.251   3.176  0.1913 -0.0127  0.3267
11925SOL    HW137975   0.603   1.214   3.262  0.7270 -3.3728 -1.0954
11925SOL    HW237976   0.661   1.303   3.154  0.0128  0.9536  1.8330
11926SOL     OW37977   1.561   2.300   9.113 -0.7009  0.3715  0.1790
11926SOL    HW137978   1.529   2.210   9.104  0.6442 -0.3745  2.2191
11926SOL    HW237979   1.569   2.313   9.208 -1.4128  2.8611 -0.0425
11927SOL     OW37980   5.766   8.300   6.286 -0.8065 -0.7148  0.1413
11927SOL    HW137981   5.672   8.311   6.301 -1.1961 -0.6950 -2.0572
11927SOL    HW237982   5.775   8.288   6.192  1.3121 -1.7589  0.4020
11928SOL     OW37983   4.835   3.462   5.484 -0.5746 -0.0345 -0.3038
11928SOL    HW137984   4.904   3.429   5.541  0.5563 -1.2599 -2.2441
11928SOL    HW237985   4.777   3.387   5.471 -1.2685  0.4620 -0.1225
11929SOL     OW37986   1.595   4.927   4.634  0.4105  0.0076  0.3989
11929SOL    HW137987   1.523   4.865   4.630 -1.0424  1.5238  1.6604
11929SOL    HW237988   1.567   5.001   4.581  1.5054  0.2074  0.0688
11930SOL     OW37989   3.712   9.138   3.927 -0.5972  0.7004 -0.5410
11930SOL    HW137990   3.629   9.186   3.920 -0.8013  1.1916  3.0891
11930SOL    HW237991   3.770   9.199   3.973  0.8763 -0.6451 -0.5675
11931SOL     OW37992   6.980   2.146   8.728  0.5493  0.3145  1.0782
11931SOL    HW137993   6.979   2.240   8.710  2.1924  0.0702 -0.6955
11931SOL    HW237994   6.951   2.106   8.646  0.5926 -0.7440  1.5624
11932SOL     OW37995   0.410   3.534   1.034  0.1425  0.8123  0.5780
11932SOL    HW137996   0.359   3.456   1.014 -1.3091  1.8071  0.1892
11932SOL    HW237997   0.416   3.536   1.130  1.0552 -0.2705  0.5620
11933SOL     OW37998   9.223   9.110   0.684 -0.0853 -0.1203 -0.3281
11933SOL    HW137999   9.231   9.029   0.735 -1.5201  0.7524  1.3984
11933SOL    HW238000   9.165   9.087   0.612  0.1031 -0.8007 -0.2756
11934SOL     OW38001   9.101   5.358   8.662 -0.3669  0.0144 -0.3114
11934SOL    HW138002   9.061   5.443   8.645  0.6071  0.4305 -0.5783
11934SOL    HW238003   9.182   5.378   8.708 -0.1995 -0.7799 -0.2435
11935SOL     OW38004   6.526   5.193   1.128 -0.4211  0.4384 -0.3087
11935SOL    HW138005   6.525   5.117   1.069 -1.1475  0.9825 -1.0145
11935SOL    HW238006   6.487   5.160   1.209 -0.5581 -0.0015 -0.5481
11936SOL     OW38007   6.531   1.512   8.135  0.5535 -0.2826  0.2599
11936SOL    HW138008   6.504   1.588   8.186  1.3019 -0.6036  1.1666
11936SOL    HW238009   6.599   1.545   8.076 -0.0862  0.0221 -0.3201
11937SOL     OW38010   9.330   1.615   9.275  0.3201 -0.2209 -0.1600
11937SOL    HW138011   9.417   1.574   9.270  0.9781  1.1499 -0.4165
11937SOL    HW238012   9.299   1.615   9.185  1.1052  1.4188 -0.4642
11938SOL     OW38013   5.727   9.241   5.309  0.5063 -0.1194 -0.1085
11938SOL    HW138014   5.755   9.165   5.359 -1.0924 -1.5478 -1.2497
11938SOL    HW238015   5.749   9.220   5.218 -0.2519  0.6318 -0.4814
11939SOL     OW38016   8.062   3.252   4.107  0.5631 -0.0703 -0.4133
11939SOL    HW138017   8.018   3.302   4.039  0.0684  1.5569  1.0348
11939SOL    HW238018   8.143   3.221   4.066  0.1837  0.6835 -1.7844
11940SOL     OW38019   9.448   5.908   5.775  0.0484  0.5671  0.3204
11940SOL    HW138020   9.380   5.976   5.782 -0.2927  0.5803 -2.3218
11940SOL    HW238021   9.400   5.828   5.753  0.5268 -0.4526  2.7207
11941SOL     OW38022   1.521   3.298   1.959 -0.4806 -0.0729 -0.0454
11941SOL    HW138023   1.483   3.298   2.047 -0.3947  0.0155 -0.0080
11941SOL    HW238024   1.448   3.317   1.901 -1.0765 -2.5530 -0.2336
11942SOL     OW38025   6.986   0.045   4.227 -0.7078  0.3693 -0.1811
11942SOL    HW138026   6.960  -0.038   4.268  1.4565 -0.2113  0.1136
11942SOL    HW238027   7.021   0.097   4.299  3.6894 -0.8793 -1.1594
11943SOL     OW38028   7.450   0.077   7.254 -0.3711 -0.3951  0.3455
11943SOL    HW138029   7.361   0.094   7.224  0.6387 -0.0463 -2.8278
11943SOL    HW238030   7.475  -0.004   7.209  1.5984  0.6580 -0.5614
11944SOL     OW38031   4.935   1.513   5.775 -0.0007  0.7797 -0.2826
11944SOL    HW138032   4.863   1.467   5.819  0.3067 -0.8604 -1.4095
11944SOL    HW238033   4.898   1.541   5.692 -0.2170  2.7745  0.4333
11945SOL     OW38034   6.970   3.709   0.500 -0.1838 -0.7594  0.3611
11945SOL    HW138035   6.904   3.661   0.451 -0.2548 -1.3904  1.0522
11945SOL    HW238036   6.920   3.768   0.556 -0.0898  0.4025 -0.7310
11946SOL     OW38037   9.254   1.690   3.188  0.2939  0.2164 -0.3247
11946SOL    HW138038   9.224   1.758   3.247 -0.1582 -0.7792  0.6316
11946SOL    HW238039   9.297   1.626   3.245  0.2288 -0.5588 -1.1190
11947SOL     OW38040   4.679   3.202   7.593  0.0218 -0.3879  0.0266
11947SOL    HW138041   4.611   3.142   7.623 -1.1104  0.8818  0.1346
11947SOL    HW238042   4.749   3.194   7.657 -0.9112 -0.2150  1.0940
11948SOL     OW38043   1.252   3.252   3.881 -0.3832  0.1122  0.4310
11948SOL    HW138044   1.205   3.307   3.943 -0.4754 -0.7720  1.1771
11948SOL    HW238045   1.282   3.178   3.934  1.9560  0.6974  0.0101
11949SOL     OW38046   5.270   1.962   0.064  0.3436  0.4081 -0.1241
11949SOL    HW138047   5.237   2.050   0.048  0.6431  0.5801  0.2107
11949SOL    HW238048   5.278   1.955   0.159 -2.1812 -0.8925  0.0810
11950SOL     OW38049   6.918   2.886   8.760 -0.4729  0.1624  0.2713
11950SOL    HW138050   6.837   2.906   8.713 -0.0286  0.2794 -0.4653
11950SOL    HW238051   6.890   2.837   8.837 -1.1899 -0.3043 -0.2761
11951SOL     OW38052   0.648   6.529   9.426 -0.0564 -0.1452  0.1374
11951SOL    HW138053   0.718   6.504   9.366  0.1853 -0.7372  0.6603
11951SOL    HW238054   0.686   6.598   9.480 -0.5585  1.0267 -0.9620
11952SOL     OW38055   8.480   5.569   8.021 -0.1993  0.2891  0.1508
11952SOL    HW138056   8.409   5.528   8.071 -0.7013  0.4512 -0.4153
11952SOL    HW238057   8.534   5.612   8.087 -0.1108 -0.5983  0.6831
11953SOL     OW38058   7.287   5.300   1.636 -0.2487  0.3983 -0.2938
11953SOL    HW138059   7.213   5.354   1.609  0.7279  2.0618  0.1981
11953SOL    HW238060   7.285   5.303   1.732  0.4653  0.5015 -0.2771
11954SOL     OW38061   2.228   7.961   1.066 -0.6993  0.2222  0.9668
11954SOL    HW138062   2.133   7.956   1.066 -0.7048  0.1741  0.2152
11954SOL    HW238063   2.249   8.036   1.010 -0.2445 -1.9252 -1.9387
11955SOL     OW38064   0.888   9.407   0.498  0.1804 -0.2412 -0.2765
11955SOL    HW138065   0.892   9.434   0.589 -0.3402 -2.3024  0.4017
11955SOL    HW238066   0.949   9.334   0.491 -1.0671 -1.2591 -1.1283
11956SOL     OW38067   2.002   7.919   3.732 -0.0257 -0.6657 -0.3679
11956SOL    HW138068   2.081   7.971   3.719 -0.4754 -0.1005 -0.9625
11956SOL    HW238069   2.011   7.881   3.819  0.2855  0.4770  0.1127
11957SOL     OW38070   5.082   3.308   6.420  0.2334 -0.1837  0.1123
11957SOL    HW138071   5.049   3.377   6.362 -0.4826 -0.7418 -0.1526
11957SOL    HW238072   5.047   3.330   6.506 -0.5231 -0.5654 -0.0945
11958SOL     OW38073   8.653   3.221   3.040 -0.0020 -0.0805 -0.1697
11958SOL    HW138074   8.635   3.266   2.958  1.1306 -2.2119 -1.6871
11958SOL    HW238075   8.572   3.174   3.060  0.2499 -0.9058 -1.0228
11959SOL     OW38076   7.891   3.576   8.145  0.0294  0.2412 -0.1657
11959SOL    HW138077   7.966   3.611   8.096 -0.7348  2.0078 -0.1370
11959SOL    HW238078   7.927   3.502   8.194  1.8435  1.2311  0.0870
11960SOL     OW38079   8.795   2.430   6.326  0.6538 -0.3284  0.3606
11960SOL    HW138080   8.784   2.340   6.296 -1.3833 -0.2840  0.8628
11960SOL    HW238081   8.710   2.471   6.313  1.1729  1.1646  1.3392
11961SOL     OW38082   6.753   4.662   0.931 -0.0306  0.3724  0.1065
11961SOL    HW138083   6.791   4.731   0.877  1.0995 -0.0538  0.3185
11961SOL    HW238084   6.659   4.665   0.913 -0.0410  2.1617  0.3429
11962SOL     OW38085   9.573   4.056   2.225  0.7035  0.4741 -0.0791
11962SOL    HW138086   9.508   4.036   2.293  0.0660  0.2273 -0.7499
11962SOL    HW238087   9.618   4.134   2.257 -0.9203  1.5350 -0.2885
11963SOL     OW38088   8.208   2.598   3.821 -0.7179  0.1348  0.0250
11963SOL    HW138089   8.294   2.611   3.861 -1.1692  0.9527  0.7619
11963SOL    HW238090   8.210   2.654   3.743  0.5633 -2.2882 -1.8052
11964SOL     OW38091   0.899   0.565   0.088 -0.4275  0.0765 -0.1860
11964SOL    HW138092   0.866   0.485   0.047  1.8627 -0.5842 -0.9276
11964SOL    HW238093   0.953   0.606   0.020 -2.0779  2.7023 -0.0752
11965SOL     OW38094   7.546   7.775   4.371 -0.3826 -0.2541  0.1152
11965SOL    HW138095   7.635   7.773   4.406 -0.3868 -2.0876  0.1205
11965SOL    HW238096   7.503   7.845   4.419  0.5374 -0.5931  1.4936
11966SOL     OW38097   0.235   4.219   0.356 -0.0870  0.5490  0.4768
11966SOL    HW138098   0.163   4.183   0.304 -1.0257  0.6167  1.6663
11966SOL    HW238099   0.240   4.162   0.433 -0.4189  1.8794  1.5284
11967SOL     OW38100   0.399   2.673   0.140  0.4811  0.1491  0.1176
11967SOL    HW138101   0.378   2.632   0.056  2.3144  0.6802 -0.6556
11967SOL    HW238102   0.380   2.605   0.205  1.0218 -1.0290 -0.9173
11968SOL     OW38103   4.085   2.277   4.391 -0.1371  0.2319  0.6243
11968SOL    HW138104   4.033   2.200   4.369 -1.7785  1.3591  0.4305
11968SOL    HW238105   4.163   2.241   4.434 -0.1183 -1.6065 -0.8120
11969SOL     OW38106   4.516   0.540   4.806 -0.5870 -0.1559 -0.0720
11969SOL    HW138107   4.430   0.531   4.847 -1.4014 -0.6301 -1.7948
11969SOL    HW238108   4.504   0.610   4.741 -0.8920 -2.7747 -3.1100
11970SOL     OW38109   7.468   0.981   1.093  0.9810  0.0793  0.3339
11970SOL    HW138110   7.457   1.045   1.163  1.0821 -2.4223  2.8239
11970SOL    HW238111   7.563   0.977   1.079  0.9127  1.1020 -0.5134
11971SOL     OW38112   7.044   0.771   5.653  0.0002  0.4970 -0.2146
11971SOL    HW138113   7.056   0.752   5.746 -0.0744 -0.7444 -0.4435
11971SOL    HW238114   7.017   0.863   5.650 -0.6515  0.3610  1.0392
11972SOL     OW38115   0.898   6.788   7.034 -0.4250 -0.2498  0.1404
11972SOL    HW138116   0.897   6.715   6.973 -1.1632 -0.1949  0.0730
11972SOL    HW238117   0.808   6.820   7.034 -0.0693  0.7947  0.0029
11973SOL     OW38118   0.410   1.032   8.637  0.1447 -0.2864 -0.1266
11973SOL    HW138119   0.471   1.099   8.670  0.3784  0.4263 -1.9013
11973SOL    HW238120   0.377   0.989   8.716  2.8483 -0.6286  0.9381
11974SOL     OW38121   0.238   4.615   5.514 -0.0403 -0.1216 -0.2624
11974SOL    HW138122   0.332   4.600   5.519 -0.0819 -0.1209  0.7379
11974SOL    HW238123   0.214   4.588   5.425  0.5233 -2.3147  0.1963
11975SOL     OW38124   8.705   7.042   8.064  0.3322 -0.6110  0.1622
11975SOL    HW138125   8.738   6.994   7.988  1.4637  0.7531 -0.2341
11975SOL    HW238126   8.699   6.976   8.133  0.4766 -1.6116 -0.7551
11976SOL     OW38127   1.539   4.382   5.935  0.4173  0.3155  0.2953
11976SOL    HW138128   1.522   4.346   5.848 -0.3827  0.8493  0.2256
11976SOL    HW238129   1.614   4.440   5.922 -0.0029  0.7731 -0.1437
11977SOL     OW38130   5.803   6.241   0.292  0.1372  0.1114  0.2867
11977SOL    HW138131   5.742   6.295   0.242 -0.8404 -1.2359 -0.0359
11977SOL    HW238132   5.889   6.257   0.251 -0.1171  1.4067  0.2225
11978SOL     OW38133   9.550   6.886   2.870 -0.6208 -0.0872  0.6183
11978SOL    HW138134   9.593   6.964   2.834 -0.8646 -0.2258  0.0207
11978SOL    HW238135   9.462   6.915   2.893 -0.2657  0.1724  1.7573
11979SOL     OW38136   8.616   8.311   4.533  0.3813 -0.0208 -0.2276
11979SOL    HW138137   8.603   8.363   4.454  0.4270  0.3825  0.0248
11979SOL    HW238138   8.611   8.220   4.504 -1.5159  0.0976 -0.3947
11980SOL     OW38139   3.215   0.385   3.335  0.7366 -0.1477 -0.2035
11980SOL    HW138140   3.202   0.478   3.316  1.7222  0.0947  0.2755
11980SOL    HW238141   3.305   0.378   3.365 -0.0654 -0.8149  2.3427
11981SOL     OW38142   4.652   4.858   8.656 -0.7614 -0.0715 -0.4516
11981SOL    HW138143   4.622   4.898   8.738  1.7877 -0.8278  0.9825
11981SOL    HW238144   4.651   4.930   8.593 -3.2004  0.4254  0.0693
11982SOL     OW38145   0.876   7.462   4.233 -0.0297  0.4277  0.1378
11982SOL    HW138146   0.950   7.427   4.184 -1.7287 -0.3013 -2.1136
11982SOL    HW238147   0.890   7.433   4.323  1.7282 -0.8258 -0.4965
11983SOL     OW38148   6.624   5.762   0.885  0.1038 -0.4284  0.0076
11983SOL    HW138149   6.549   5.820   0.900  0.1739  0.2939 -2.1029
11983SOL    HW238150   6.696   5.822   0.866  0.4291 -1.1598 -1.1514
11984SOL     OW38151   8.371   1.049   7.488 -0.2080  0.6524  0.4628
11984SOL    HW138152   8.388   1.083   7.575 -1.4007  0.9600  0.5919
11984SOL    HW238153   8.365   0.955   7.500 -0.2226  0.6809  0.6855
11985SOL     OW38154   8.712   6.599   4.176  0.1093 -0.5760  0.2894
11985SOL    HW138155   8.655   6.655   4.123  1.7481  0.5520 -0.3914
11985SOL    HW238156   8.724   6.648   4.257  0.7480 -0.3821  0.0889
11986SOL     OW38157   9.112   9.147   3.730  0.1662 -0.8383 -0.3575
11986SOL    HW138158   9.034   9.100   3.700  0.5494 -1.6961 -0.0358
11986SOL    HW238159   9.136   9.104   3.812 -0.3206  0.8770  0.7254
11987SOL     OW38160   7.706   8.233   9.104  0.6010  0.4699  0.8603
11987SOL    HW138161   7.629   8.183   9.075 -0.8876  2.8475  0.3729
11987SOL    HW238162   7.781   8.180   9.078 -0.8574 -1.3468  0.1581
11988SOL     OW38163   6.892   6.022   0.593  0.2545  0.4804 -0.0449
11988SOL    HW138164   6.862   5.990   0.508  2.2432 -3.3548  0.4670
11988SOL    HW238165   6.987   6.028   0.585  0.3851  1.1684  1.5758
11989SOL     OW38166   9.381   3.640   6.282 -0.7398 -0.2336 -0.3733
11989SOL    HW138167   9.333   3.592   6.350 -0.9061  0.3739 -0.0471
11989SOL    HW238168   9.443   3.577   6.246 -1.2443 -0.8055 -0.2464
11990SOL     OW38169   6.332   5.307   3.119 -0.2008 -0.1767 -0.2439
11990SOL    HW138170   6.237   5.318   3.108 -0.0415  1.5469 -0.1150
11990SOL    HW238171   6.340   5.233   3.179 -1.5787  1.1003  1.6314
11991SOL     OW38172   8.251   9.174   4.426 -0.1013  0.3715  0.4529
11991SOL    HW138173   8.173   9.229   4.423 -0.3498 -0.0063 -0.1365
11991SOL    HW238174   8.261   9.141   4.337 -0.4619 -1.2545  0.9944
11992SOL     OW38175   1.254   2.918   3.213 -0.2279 -0.4156  0.1924
11992SOL    HW138176   1.208   2.864   3.278 -1.0030  0.4740  0.4063
11992SOL    HW238177   1.244   3.007   3.245 -0.8543  0.0755 -1.2805
11993SOL     OW38178   1.801   0.510   2.605  0.0117 -0.2940  0.4080
11993SOL    HW138179   1.821   0.595   2.644 -1.0397 -0.5352  1.5376
11993SOL    HW238180   1.878   0.456   2.623  0.5680  0.3309 -0.0755
11994SOL     OW38181   6.937   0.168   7.977 -0.4817  0.5072  0.0496
11994SOL    HW138182   6.878   0.224   8.027 -1.2371 -1.1524  1.0938
11994SOL    HW238183   6.912   0.078   8.001 -0.2414 -0.3560 -2.5745
11995SOL     OW38184   7.165   6.974   2.825 -0.1412  0.5404 -0.1720
11995SOL    HW138185   7.229   6.904   2.841 -2.6098 -1.9089 -0.1841
11995SOL    HW238186   7.166   6.987   2.731 -0.0597  0.0942 -0.2337
11996SOL     OW38187   1.711   7.819   6.323 -0.0650 -0.1554  0.2652
11996SOL    HW138188   1.694   7.747   6.384  1.5667  0.5153  1.5905
11996SOL    HW238189   1.631   7.825   6.270 -0.8785 -1.8508  1.2145
11997SOL     OW38190   2.787   9.354   8.120 -0.5198  0.2835 -0.4722
11997SOL    HW138191   2.766   9.447   8.111 -0.0344  0.4866  0.4132
11997SOL    HW238192   2.715   9.309   8.075 -1.7722  1.0283  0.6901
11998SOL     OW38193   6.206   8.561   4.247  0.0211  0.3931 -0.1352
11998SOL    HW138194   6.276   8.524   4.301 -0.4375  0.2217  0.3545
11998SOL    HW238195   6.147   8.602   4.310  0.1297  1.3138 -0.6072
11999SOL     OW38196   2.918   7.261   5.194 -0.6198 -0.5442 -0.1115
11999SOL    HW138197   2.947   7.337   5.244 -1.5746 -0.2404 -0.0063
11999SOL    HW238198   2.870   7.297   5.120 -0.5244 -1.0336 -0.4169
12000SOL     OW38199   5.932   2.370   5.940 -1.1604  0.6437 -0.3795
12000SOL    HW138200   5.938   2.444   5.880 -1.1385  1.0352  0.0995
12000SOL    HW238201   6.022   2.337   5.946 -1.6858 -1.9380 -3.6655
12001SOL     OW38202   2.071   5.375   1.795 -0.5802  0.2456 -0.8360
12001SOL    HW138203   2.074   5.356   1.889 -1.4794  0.5389 -0.7297
12001SOL    HW238204   1.997   5.323   1.763 -0.0590 -0.1285 -1.4573
12002SOL     OW38205   4.483   7.632   0.684 -0.0670  0.0483 -0.0843
12002SOL    HW138206   4.462   7.710   0.633 -0.8577 -0.9564 -1.3745
12002SOL    HW238207   4.412   7.570   0.665 -0.4112 -0.3908  2.2973
12003SOL     OW38208   6.342   8.747   4.495 -0.2050 -0.3137  0.1414
12003SOL    HW138209   6.391   8.714   4.419  1.4312 -0.3743  1.1833
12003SOL    HW238210   6.409   8.777   4.556 -1.5285  1.9014  0.6383
12004SOL     OW38211   4.508   1.607   5.466 -0.0551  0.4431 -0.0901
12004SOL    HW138212   4.480   1.523   5.504  0.2747  0.5760  0.4621
12004SOL    HW238213   4.510   1.591   5.372  0.4572 -0.3123  0.0383
12005SOL     OW38214   3.727   0.778   6.344  0.3155  0.0134 -0.3093
12005SOL    HW138215   3.756   0.768   6.253  0.7434 -1.1165 -0.0653
12005SOL    HW238216   3.643   0.824   6.338 -0.0351 -0.7243 -1.3391
12006SOL     OW38217   9.411   9.448   9.024 -0.0739  0.3021 -0.0245
12006SOL    HW138218   9.344   9.492   8.971 -1.6136 -0.3439  1.2892
12006SOL    HW238219   9.494   9.486   8.995 -1.0516  1.5618 -1.3046
12007SOL     OW38220   6.563   0.914   9.158 -0.2866  0.0112  0.5395
12007SOL    HW138221   6.554   0.820   9.175 -1.4676  0.2699  1.5473
12007SOL    HW238222   6.529   0.926   9.070 -0.7053 -0.4316  0.6360
12008SOL     OW38223   2.190   8.699   0.131 -0.0444  0.1199 -0.4657
12008SOL    HW138224   2.214   8.783   0.092 -0.3440  0.0229 -0.8659
12008SOL    HW238225   2.228   8.702   0.219  0.9745  0.1768 -0.8975
12009SOL     OW38226   2.516   6.215   4.747 -0.2190 -0.4722  0.4824
12009SOL    HW138227   2.430   6.177   4.727 -0.1304 -1.0411  1.1481
12009SOL    HW238228   2.496   6.292   4.800 -0.4317  0.7925 -1.3521
12010SOL     OW38229   5.844   1.454   5.518  0.0633  0.3570  0.5864
12010SOL    HW138230   5.878   1.543   5.529  0.5233  0.2826 -0.2209
12010SOL    HW238231   5.780   1.444   5.589  0.9213  0.8867  1.4519
12011SOL     OW38232   3.857   0.783   1.522 -0.3302  0.9319  0.5010
12011SOL    HW138233   3.897   0.870   1.516  1.0616  0.3020  0.0664
12011SOL    HW238234   3.909   0.730   1.462 -0.1457 -0.5698  1.9412
12012SOL     OW38235   0.158   7.869   0.586 -0.1132  0.1042 -0.5000
12012SOL    HW138236   0.125   7.786   0.621  0.6276  0.3388  0.8540
12012SOL    HW238237   0.083   7.928   0.589 -0.5103 -0.3672 -0.9812
12013SOL     OW38238   7.976   5.056   3.941  0.2427  0.2229 -0.2488
12013SOL    HW138239   7.967   4.964   3.914  1.4868 -0.1555  0.5451
12013SOL    HW238240   7.908   5.068   4.008 -0.0038 -0.0733 -0.4420
12014SOL     OW38241   2.390   3.297   8.565  0.1982  0.0700  0.4748
12014SOL    HW138242   2.320   3.315   8.502 -0.8034 -1.8334  0.9705
12014SOL    HW238243   2.471   3.309   8.515 -0.5276  0.4434 -0.6404
12015SOL     OW38244   7.074   4.479   3.975  0.4438 -0.7388  0.6655
12015SOL    HW138245   7.126   4.405   4.008  0.8789 -0.8206 -0.1812
12015SOL    HW238246   6.990   4.440   3.950  0.1784 -0.7089  1.4660
12016SOL     OW38247   7.471   2.216   3.547  0.6300 -0.3199  0.0566
12016SOL    HW138248   7.560   2.228   3.512  0.1623  1.3896 -0.6784
12016SOL    HW238249   7.448   2.126   3.524  0.7682  0.3561 -3.2241
12017SOL     OW38250   2.316   8.191   7.410  0.4200 -0.1493 -0.5229
12017SOL    HW138251   2.349   8.243   7.483  0.1793  0.2000 -0.6600
12017SOL    HW238252   2.357   8.105   7.421 -1.7043 -1.0061  1.6281
12018SOL     OW38253   3.244   6.242   4.698  0.2166 -0.2800  0.3365
12018SOL    HW138254   3.251   6.322   4.749  0.3539 -0.1591  0.1285
12018SOL    HW238255   3.273   6.173   4.758 -3.1499 -0.6802  1.7379
12019SOL     OW38256   4.790   4.332   5.953  0.1473  0.2504  0.5506
12019SOL    HW138257   4.779   4.318   5.859 -0.1643  0.3821  0.5652
12019SOL    HW238258   4.745   4.258   5.994 -2.3964  1.7334  0.6496
12020SOL     OW38259   5.708   4.388   2.168  0.2143  0.4525 -0.6066
12020SOL    HW138260   5.764   4.447   2.219  0.2919  0.4103 -0.6416
12020SOL    HW238261   5.679   4.321   2.230 -0.3844  0.8792 -0.4210
12021SOL     OW38262   8.571   5.272   7.279 -0.4525 -0.5494 -0.1994
12021SOL    HW138263   8.523   5.236   7.354 -0.3636  0.2389  0.2485
12021SOL    HW238264   8.516   5.343   7.247  0.4858  0.5063  0.4510
12022SOL     OW38265   0.514   4.651   6.556 -1.0981  0.0133 -0.0176
12022SOL    HW138266   0.544   4.741   6.554 -3.0119  0.7301  0.8566
12022SOL    HW238267   0.584   4.603   6.598 -0.0030  1.0569 -0.5951
12023SOL     OW38268   6.200   1.029   3.654  0.3644 -0.4930  0.3113
12023SOL    HW138269   6.281   0.991   3.688  0.6552  0.6458  0.9565
12023SOL    HW238270   6.139   0.956   3.650  0.7756 -0.9781  1.9000
12024SOL     OW38271   0.817   2.494   3.835  0.2575 -0.4239 -0.3182
12024SOL    HW138272   0.739   2.497   3.890  0.9235 -2.0192  0.7852
12024SOL    HW238273   0.867   2.419   3.867  2.5364  0.8622 -0.5991
12025SOL     OW38274   9.014   7.588   6.723 -0.6452 -0.1028 -0.5648
12025SOL    HW138275   8.946   7.654   6.734 -0.7364 -0.4587  1.5587
12025SOL    HW238276   9.096   7.637   6.723 -0.8227  0.2366 -2.0861
12026SOL     OW38277   0.123   3.747   5.720  0.5626 -0.2572 -0.3700
12026SOL    HW138278   0.186   3.777   5.785  0.0259  3.3984 -1.3357
12026SOL    HW238279   0.038   3.772   5.756 -0.0054 -1.2015 -1.0163
12027SOL     OW38280   4.705   5.276   5.747 -0.6983 -0.3977 -0.3268
12027SOL    HW138281   4.734   5.265   5.838 -2.1776 -0.9891  0.1013
12027SOL    HW238282   4.647   5.352   5.750  0.0762  0.2342 -0.9992
12028SOL     OW38283   5.534   7.526   9.289  0.7222  0.0157  0.4715
12028SOL    HW138284   5.627   7.515   9.269  0.8124  1.2387  0.1307
12028SOL    HW238285   5.520   7.621   9.287 -0.6779 -0.1714 -0.2084
12029SOL     OW38286   1.241   4.878   4.770  0.2528 -0.1412 -0.5706
12029SOL    HW138287   1.287   4.872   4.687 -1.0158 -1.2960 -1.2279
12029SOL    HW238288   1.151   4.852   4.750 -0.3006  0.4559  0.9808
12030SOL     OW38289   8.128   5.960   0.926 -0.1047 -0.3214  0.1540
12030SOL    HW138290   8.107   5.900   0.854  0.1821  0.9289 -1.0253
12030SOL    HW238291   8.124   5.906   1.005  1.4338 -2.1972 -0.9675
12031SOL     OW38292   5.514   8.427   2.893  0.3679 -0.1037 -0.2787
12031SOL    HW138293   5.483   8.477   2.817 -0.3784 -1.1153 -0.6593
12031SOL    HW238294   5.435   8.408   2.943  0.7610 -0.1399  0.3427
12032SOL     OW38295   1.762   3.848   5.439 -0.0540  0.1430  0.1217
12032SOL    HW138296   1.697   3.917   5.450  0.7211  0.6494  1.7951
12032SOL    HW238297   1.762   3.801   5.522 -0.2580 -1.6631 -0.8218
12033SOL     OW38298   9.090   2.069   3.947 -0.0720  0.5132  0.5607
12033SOL    HW138299   9.184   2.054   3.939 -0.1417  0.6058 -0.6901
12033SOL    HW238300   9.063   2.095   3.859 -1.2017  0.8783  0.9983
12034SOL     OW38301   5.654   8.056   5.293  0.4027  0.0454  0.1847
12034SOL    HW138302   5.612   8.112   5.228 -0.6305 -0.7628  0.1290
12034SOL    HW238303   5.723   8.111   5.331 -1.4962  1.8871  1.1890
12035SOL     OW38304   2.053   9.229   6.525 -0.2802 -0.1622 -0.1993
12035SOL    HW138305   2.054   9.319   6.494  1.5948  0.2834  1.0049
12035SOL    HW238306   2.116   9.227   6.597 -1.2149 -2.1520  0.6454
12036SOL     OW38307   7.179   5.644   0.040  0.9003 -0.4096 -0.3751
12036SOL    HW138308   7.154   5.717  -0.016 -1.3045  0.4173  1.5302
12036SOL    HW238309   7.249   5.679   0.095  0.4864 -0.0278 -0.0909
12037SOL     OW38310   3.881   6.462   0.465  0.3362  0.1428  0.3689
12037SOL    HW138311   3.967   6.492   0.495  0.3538  1.7514 -1.1298
12037SOL    HW238312   3.899   6.417   0.383 -0.1820 -0.1607  0.4222
12038SOL     OW38313   1.357   1.069   4.176 -0.3348 -0.3172  0.0515
12038SOL    HW138314   1.370   1.054   4.082  0.1485 -0.5253  0.1475
12038SOL    HW238315   1.308   0.992   4.206 -0.5824 -0.2006 -0.0460
12039SOL     OW38316   3.193   2.239   1.061 -0.2431 -0.2997 -0.2282
12039SOL    HW138317   3.138   2.287   1.123  0.9757 -0.3760  0.9675
12039SOL    HW238318   3.172   2.147   1.076  0.0963 -0.3218  0.1418
12040SOL     OW38319   8.145   3.884   6.098  0.4356  0.0967 -0.4083
12040SOL    HW138320   8.150   3.966   6.147  0.0736 -0.0621 -0.0967
12040SOL    HW238321   8.208   3.827   6.141  0.8059  0.2608 -0.7275
12041SOL     OW38322   8.059   0.993   0.009 -0.1222  0.6615  0.0933
12041SOL    HW138323   8.136   1.049   0.005  0.3819  0.0380  0.9183
12041SOL    HW238324   8.023   0.995  -0.080  1.3382  0.2652 -0.5253
12042SOL     OW38325   2.186   5.737   4.177 -0.4238 -0.0724 -0.1217
12042SOL    HW138326   2.166   5.714   4.268 -2.0444  0.0379 -0.4181
12042SOL    HW238327   2.195   5.652   4.133  0.0885 -0.1255  0.0778
12043SOL     OW38328   7.059   7.689   5.683 -0.1514 -0.4701  0.1399
12043SOL    HW138329   7.110   7.770   5.691 -0.7595 -0.0345 -0.2644
12043SOL    HW238330   7.047   7.658   5.772 -2.1125  1.2877  0.5712
12044SOL     OW38331   1.184   2.868   3.926 -0.6146  0.0057 -0.1626
12044SOL    HW138332   1.235   2.796   3.890 -0.4660  1.3975 -3.0616
12044SOL    HW238333   1.250   2.928   3.962 -0.6669 -0.7112  1.2019
12045SOL     OW38334   5.033   0.477   4.461 -0.6210 -0.4859 -0.1807
12045SOL    HW138335   5.128   0.472   4.454 -0.5905 -1.4293  0.6447
12045SOL    HW238336   5.015   0.458   4.553 -1.4750  1.9205  0.2191
12046SOL     OW38337   3.402   6.275   0.025 -0.1860 -0.4525 -0.0445
12046SOL    HW138338   3.455   6.353   0.010  0.4916 -1.1023 -1.2368
12046SOL    HW238339   3.342   6.299   0.095 -1.1947  1.7481 -1.5377
12047SOL     OW38340   2.522   7.107   0.301  0.4667 -0.2191 -0.1020
12047SOL    HW138341   2.452   7.104   0.236  0.4751  0.7764 -0.1678
12047SOL    HW238342   2.594   7.058   0.260  0.0786 -0.5773 -0.3598
12048SOL     OW38343   8.020   7.444   3.523 -0.5526 -0.6054  0.1047
12048SOL    HW138344   7.964   7.399   3.459  0.7850 -1.4319 -0.5190
12048SOL    HW238345   8.104   7.454   3.479 -0.1697  0.5720  1.0522
12049SOL     OW38346   4.998   5.169   2.083 -0.2115 -0.5216 -0.1800
12049SOL    HW138347   4.955   5.200   2.163 -0.3561 -0.3057 -0.3377
12049SOL    HW238348   5.025   5.250   2.039 -0.3892 -0.6313 -0.4876
12050SOL     OW38349   9.402   7.571   1.915  0.1801 -0.5076  0.0479
12050SOL    HW138350   9.472   7.625   1.952 -0.2853  0.4272 -0.3920
12050SOL    HW238351   9.322   7.603   1.958 -0.1091 -0.7835 -0.2829
12051SOL     OW38352   2.175   4.218   1.514 -0.3523  0.5361 -0.4732
12051SOL    HW138353   2.177   4.225   1.610  0.0252  0.7080 -0.4912
12051SOL    HW238354   2.151   4.127   1.497  3.1723 -0.6242 -0.1682
12052SOL     OW38355   5.762   7.322   1.989 -0.3134 -0.2777 -0.7571
12052SOL    HW138356   5.746   7.237   2.029  2.1555 -0.0610  0.8846
12052SOL    HW238357   5.683   7.373   2.009 -1.7051 -2.0330 -1.5263
12053SOL     OW38358   6.112   6.121   6.160 -0.3949 -0.6356 -0.0384
12053SOL    HW138359   6.167   6.173   6.218  1.0085 -2.0211 -0.0698
12053SOL    HW238360   6.046   6.083   6.218 -1.4148  1.0686 -0.0088
12054SOL     OW38361   9.497   0.934   7.683  0.2612  0.3928  0.0529
12054SOL    HW138362   9.589   0.917   7.662 -0.6595 -1.6104 -3.1349
12054SOL    HW238363   9.461   0.847   7.704 -1.6364  0.3785 -2.6827
12055SOL     OW38364   7.228   5.546   2.146 -0.2178 -0.2647 -0.3322
12055SOL    HW138365   7.298   5.506   2.197  0.3740  1.1421 -0.0110
12055SOL    HW238366   7.184   5.472   2.105  0.0633 -1.3354  1.2127
12056SOL     OW38367   1.931   8.789   8.328  0.2837 -0.3499  0.0515
12056SOL    HW138368   1.925   8.775   8.234  0.7115 -0.1150 -0.0128
12056SOL    HW238369   1.886   8.714   8.366 -0.3569 -0.1726 -0.3457
12057SOL     OW38370   3.246   1.096   7.050 -0.0949 -0.0334  0.2681
12057SOL    HW138371   3.321   1.037   7.049 -0.0620 -0.0713 -2.0693
12057SOL    HW238372   3.178   1.049   7.002 -0.8505  0.8972  0.3932
12058SOL     OW38373   2.798   6.334   8.330  0.6552  0.4008 -0.1507
12058SOL    HW138374   2.867   6.296   8.385 -0.0111  0.9209  1.0616
12058SOL    HW238375   2.793   6.426   8.356 -2.1175 -0.1265  1.5316
12059SOL     OW38376   8.085   1.264   9.230 -0.2452 -0.0942  0.4398
12059SOL    HW138377   8.064   1.334   9.291  1.1279 -0.4437  1.3488
12059SOL    HW238378   8.177   1.278   9.208 -0.4464 -0.5659 -0.7756
12060SOL     OW38379   1.569   7.500   3.603  0.1242  0.3055 -0.0632
12060SOL    HW138380   1.647   7.551   3.583  0.1073  0.4241  0.1695
12060SOL    HW238381   1.503   7.533   3.542 -0.1662  1.2628  0.7295
12061SOL     OW38382   7.197   7.369   3.070 -0.3567 -0.1747  0.0808
12061SOL    HW138383   7.255   7.415   3.010  0.5436 -0.9130  0.3581
12061SOL    HW238384   7.197   7.423   3.150 -1.9640  1.0833 -0.7079
12062SOL     OW38385   5.918   7.460   2.789 -0.2794  0.0442 -0.0850
12062SOL    HW138386   5.994   7.512   2.817  0.2152 -1.8855  2.4720
12062SOL    HW238387   5.854   7.525   2.761  2.1313  1.7703 -2.1275
12063SOL     OW38388   6.667   7.243   0.593  0.1359  0.2651  0.1397
12063SOL    HW138389   6.658   7.315   0.530 -2.3765  0.3205  0.4523
12063SOL    HW238390   6.669   7.164   0.539 -0.7480  0.3909 -0.1009
12064SOL     OW38391   9.261   3.694   8.253 -0.5181  0.4790 -0.5110
12064SOL    HW138392   9.354   3.701   8.233 -0.1450  0.3726  0.9985
12064SOL    HW238393   9.259   3.658   8.342 -1.9999  0.5109 -0.5067
12065SOL     OW38394   8.653   7.531   4.505  0.1155 -0.1471  0.1493
12065SOL    HW138395   8.737   7.521   4.549 -0.6395 -2.8018  1.2042
12065SOL    HW238396   8.596   7.573   4.569 -0.3459 -1.8802  0.9385
12066SOL     OW38397   1.109   7.440   1.825 -0.1601  0.2367 -0.3451
12066SOL    HW138398   1.113   7.455   1.730 -0.8467  0.8454 -0.2863
12066SOL    HW238399   1.030   7.486   1.853 -0.8349 -1.2774  0.2938
12067SOL     OW38400   2.867   8.308   3.800  0.0317  0.0749 -0.5355
12067SOL    HW138401   2.956   8.314   3.833 -0.6717  1.2141  1.2918
12067SOL    HW238402   2.812   8.301   3.878 -1.8077  3.7221 -1.2722
12068SOL     OW38403   9.102   9.543   0.795  0.1409  0.4366  0.2413
12068SOL    HW138404   9.035   9.571   0.858  2.6177  2.9681  2.0095
12068SOL    HW238405   9.133   9.459   0.830  0.0049  0.7528  1.1481
12069SOL     OW38406   5.092   0.187   5.763  0.1609 -0.1866  0.6094
12069SOL    HW138407   5.064   0.122   5.698  0.0598  0.9782 -0.5569
12069SOL    HW238408   5.085   0.271   5.717 -1.5814  0.8877  2.6278
12070SOL     OW38409   7.699   0.829   6.169 -1.0315  0.2396 -0.0433
12070SOL    HW138410   7.672   0.753   6.219 -0.0962 -1.4127 -1.8954
12070SOL    HW238411   7.743   0.886   6.233 -3.5702  0.2979  1.8044
12071SOL     OW38412   0.335   8.536   6.180 -0.2308 -0.4843 -0.4030
12071SOL    HW138413   0.342   8.453   6.227  0.7047  0.1759  0.6926
12071SOL    HW238414   0.329   8.602   6.250 -3.3654  0.2465 -1.1965
12072SOL     OW38415   9.339   3.346   5.076 -0.0519  0.3021 -0.0195
12072SOL    HW138416   9.347   3.370   5.169 -0.4105  1.1882 -0.2062
12072SOL    HW238417   9.329   3.251   5.077 -1.7314  0.4470  0.9679
12073SOL     OW38418   1.955   6.582   7.069  0.3735  0.4597 -0.6018
12073SOL    HW138419   1.867   6.545   7.072 -0.2863  1.9491  1.7108
12073SOL    HW238420   2.013   6.506   7.061 -1.0480 -0.7575  0.0835
12074SOL     OW38421   9.243   7.675   2.404  0.1047  0.4211  0.5587
12074SOL    HW138422   9.317   7.621   2.377  2.7263  3.2990  1.4898
12074SOL    HW238423   9.234   7.657   2.498  1.9679  2.4689  1.2201
12075SOL     OW38424   0.347   9.514   6.546 -0.5150  0.1048 -0.1759
12075SOL    HW138425   0.367   9.449   6.613 -0.2165  0.1669 -0.2041
12075SOL    HW238426   0.423   9.513   6.488 -0.2017  0.9913  0.2180
12076SOL     OW38427   8.638   2.712   3.991 -0.4152 -0.0508 -0.2065
12076SOL    HW138428   8.715   2.704   4.047 -0.1813  0.5658 -0.4375
12076SOL    HW238429   8.631   2.805   3.973 -1.3013 -0.0837 -0.0736
12077SOL     OW38430   0.023   1.537   9.251  0.2081  0.3844 -0.1401
12077SOL    HW138431   0.054   1.571   9.167  1.9555 -0.0804  0.2773
12077SOL    HW238432   0.103   1.523   9.303 -0.8006  0.2904  1.4615
12078SOL     OW38433   8.892   0.817   7.355  0.0656 -0.1096 -0.1054
12078SOL    HW138434   8.948   0.874   7.303  0.3400 -0.1064  0.1851
12078SOL    HW238435   8.950   0.786   7.426 -0.4199  0.2571  0.4648
12079SOL     OW38436   7.741   0.955   7.935  0.1316 -0.1524  0.1613
12079SOL    HW138437   7.729   1.021   8.004 -0.5666  1.0283 -1.0243
12079SOL    HW238438   7.830   0.969   7.905  0.7054 -1.1948  1.3180
12080SOL     OW38439   4.187   5.448   4.000 -0.0450 -0.4277  0.1193
12080SOL    HW138440   4.271   5.409   3.976 -0.0771 -0.6095  0.3007
12080SOL    HW238441   4.137   5.448   3.919  0.3380  0.2172 -0.1258
12081SOL     OW38442   0.225   7.811   8.961 -0.2610 -0.2304  0.1470
12081SOL    HW138443   0.167   7.809   9.038 -0.0739 -3.6784  0.3283
12081SOL    HW238444   0.311   7.785   8.995  0.2453 -0.0315 -0.9482
12082SOL     OW38445   6.663   8.923   7.103 -0.2598 -0.3186  0.0968
12082SOL    HW138446   6.718   9.001   7.089 -0.8208 -0.2371 -1.9687
12082SOL    HW238447   6.726   8.851   7.114  0.2851  0.0377 -0.5662
12083SOL     OW38448   7.153   2.829   5.158  0.1450 -0.2911  0.4309
12083SOL    HW138449   7.228   2.849   5.102 -0.5230  2.1043  0.2945
12083SOL    HW238450   7.182   2.755   5.211  2.9901  1.0989  1.0271
12084SOL     OW38451   2.566   7.780   0.631  0.3674 -0.5866  0.1671
12084SOL    HW138452   2.642   7.755   0.579  0.7531  3.9379 -1.9228
12084SOL    HW238453   2.492   7.741   0.586  0.9124  1.3089 -2.6331
12085SOL     OW38454   8.195   5.921   9.079 -0.4144  0.4332  0.2871
12085SOL    HW138455   8.104   5.916   9.106 -0.4587 -3.0945 -0.0775
12085SOL    HW238456   8.195   5.983   9.006 -2.5401  0.4392  0.2238
12086SOL     OW38457   5.832   0.137   4.358 -0.1836 -1.0864 -0.5052
12086SOL    HW138458   5.872   0.165   4.441 -0.5295  1.1572 -1.0139
12086SOL    HW238459   5.864   0.048   4.344  1.8325 -0.6320  0.8248
12087SOL     OW38460   6.818   7.037   3.834  0.0293 -0.3049  0.0007
12087SOL    HW138461   6.891   7.086   3.797  0.6501 -0.7145  0.6461
12087SOL    HW238462   6.740   7.081   3.801  0.5571 -0.1847 -1.1439
12088SOL     OW38463   6.675   1.913   7.864 -0.0915 -0.5332  0.1168
12088SOL    HW138464   6.679   1.910   7.959 -2.5394  0.0268  0.2880
12088SOL    HW238465   6.735   1.843   7.836  1.9576  0.3601  1.9573
12089SOL     OW38466   0.144   4.649   2.226 -0.1101 -0.2286  0.4063
12089SOL    HW138467   0.234   4.681   2.236  0.0037  0.3117 -1.8937
12089SOL    HW238468   0.142   4.567   2.275  2.3287 -1.4625 -1.3940
12090SOL     OW38469   8.312   2.686   6.722  0.4598  0.1411 -0.8989
12090SOL    HW138470   8.270   2.762   6.681  0.8291  0.9289  0.1456
12090SOL    HW238471   8.239   2.633   6.754  0.2095  1.0356  0.0719
12091SOL     OW38472   4.786   6.849   7.669  0.4108  0.1455  0.0587
12091SOL    HW138473   4.786   6.842   7.573 -0.8975  0.6950  0.0086
12091SOL    HW238474   4.877   6.831   7.693  0.4999 -1.3447 -1.1813
12092SOL     OW38475   5.646   2.233   4.795 -0.2061 -0.9183 -0.0409
12092SOL    HW138476   5.569   2.251   4.848  1.4089  2.0373  1.5790
12092SOL    HW238477   5.717   2.224   4.858  1.3913  0.2450 -1.5552
12093SOL     OW38478   0.493   5.745   5.981  0.2873 -0.0383 -0.0622
12093SOL    HW138479   0.463   5.672   5.927  1.3063 -0.0995 -0.5736
12093SOL    HW238480   0.575   5.714   6.021  0.4664  0.6372  0.1090
12094SOL     OW38481   5.972   8.007   2.509 -0.5971 -0.0890 -0.1882
12094SOL    HW138482   5.909   8.055   2.563 -1.0772 -0.0376 -0.7823
12094SOL    HW238483   5.955   7.915   2.530 -0.4656 -0.0484  0.0956
12095SOL     OW38484   9.375   6.046   3.852  0.4233  0.3211  0.5674
12095SOL    HW138485   9.350   6.084   3.768 -0.2703  0.5118  0.8557
12095SOL    HW238486   9.471   6.041   3.849  0.3446 -1.0477 -0.8278
12096SOL     OW38487   1.027   3.418   1.370  0.1247 -0.0974 -0.4156
12096SOL    HW138488   1.067   3.474   1.303  0.0393  1.9496  1.1355
12096SOL    HW238489   1.009   3.335   1.325 -0.4373  1.3539 -3.0683
12097SOL     OW38490   8.574   8.869   7.091  0.0728  0.1123 -0.2396
12097SOL    HW138491   8.559   8.837   7.002 -1.1220 -0.9700  0.3116
12097SOL    HW238492   8.549   8.961   7.089 -1.6857 -0.3307 -0.6488
12098SOL     OW38493   9.012   8.146   2.560 -0.2262  0.1625 -0.0236
12098SOL    HW138494   8.959   8.067   2.577  0.3544  0.1834  2.1871
12098SOL    HW238495   9.097   8.127   2.600  0.2281  1.5601 -0.2742
12099SOL     OW38496   3.071   1.232   5.850  0.5517  0.2541  0.0991
12099SOL    HW138497   3.124   1.274   5.783  2.1024 -0.8236  0.5781
12099SOL    HW238498   3.132   1.215   5.922 -0.1008 -2.1355  0.2059
12100SOL     OW38499   5.912   5.861   8.825 -1.0647 -0.4733 -0.5663
12100SOL    HW138500   5.901   5.795   8.756 -0.7631 -1.1175 -0.0099
12100SOL    HW238501   5.923   5.810   8.905  1.9555  0.1294 -0.4677
12101SOL     OW38502   6.726   9.278   7.818  0.7758 -0.0949 -0.3243
12101SOL    HW138503   6.665   9.253   7.888  1.6927  1.6136  1.1556
12101SOL    HW238504   6.791   9.208   7.818 -0.3853 -1.2331 -0.9997
12102SOL     OW38505   7.643   3.714   3.153  0.0787  0.0615 -0.0931
12102SOL    HW138506   7.560   3.676   3.182  1.4302 -3.0632  0.1657
12102SOL    HW238507   7.670   3.658   3.080  2.9042 -0.4593  1.1794
12103SOL     OW38508   1.503   4.885   8.618  0.0924  0.2571  0.0954
12103SOL    HW138509   1.529   4.802   8.659  0.4028  0.3768  0.1414
12103SOL    HW238510   1.488   4.862   8.526  0.5674  0.2252  0.0220
12104SOL     OW38511   2.642   0.855   5.814 -0.6109  0.0308  0.0104
12104SOL    HW138512   2.565   0.896   5.855 -1.1930 -0.3264 -0.7096
12104SOL    HW238513   2.709   0.923   5.817 -0.5609 -0.0557  1.7482
12105SOL     OW38514   8.019   4.493   3.243 -0.1902 -0.1424  0.3915
12105SOL    HW138515   8.020   4.398   3.231 -0.3599 -0.3014  1.5226
12105SOL    HW238516   8.108   4.521   3.222 -0.0500 -0.5987  0.3745
12106SOL     OW38517   5.343   8.667   7.356 -0.1494  0.7180  0.0453
12106SOL    HW138518   5.339   8.616   7.275  0.0760 -1.3180  1.2193
12106SOL    HW238519   5.429   8.709   7.354 -0.7462  1.9475 -1.4250
12107SOL     OW38520   1.904   7.278   7.615  0.5981  0.0061 -0.0316
12107SOL    HW138521   1.953   7.360   7.612 -0.1755  0.4637 -0.1869
12107SOL    HW238522   1.931   7.237   7.697 -1.2452  1.8156  1.5657
12108SOL     OW38523   4.993   0.328   6.622 -0.0833 -0.6470 -0.2195
12108SOL    HW138524   5.048   0.374   6.559  0.2066 -1.9110 -0.9263
12108SOL    HW238525   4.917   0.300   6.572 -0.3406 -0.7751  0.2347
12109SOL     OW38526   4.259   3.216   5.283  0.8207  0.2501 -0.6023
12109SOL    HW138527   4.210   3.204   5.364  1.5559 -1.4346 -0.3681
12109SOL    HW238528   4.339   3.263   5.309  1.2905 -0.7305 -0.2496
12110SOL     OW38529   5.327   2.205   1.030  0.2159 -0.4067 -0.1785
12110SOL    HW138530   5.381   2.283   1.048  1.3287 -0.8570 -1.4129
12110SOL    HW238531   5.245   2.241   0.997  1.0956  0.2693 -1.7475
12111SOL     OW38532   0.538   3.460   6.631 -0.6075 -0.2057 -0.3432
12111SOL    HW138533   0.603   3.499   6.689 -0.3041  1.1794 -1.5516
12111SOL    HW238534   0.528   3.523   6.560 -0.5979 -2.0165 -2.0619
12112SOL     OW38535   3.083   0.905   7.264  0.5918  0.3715 -0.1624
12112SOL    HW138536   3.021   0.950   7.206 -0.8358 -1.0085  0.2238
12112SOL    HW238537   3.124   0.839   7.207 -0.6076 -0.7952  0.2591
12113SOL     OW38538   5.390   1.272   4.564  0.1510  0.3019  0.1501
12113SOL    HW138539   5.398   1.343   4.628 -0.4192  0.6186 -0.1255
12113SOL    HW238540   5.337   1.206   4.608 -1.7609  1.2665 -0.5983
12114SOL     OW38541   8.445   5.528   7.268  0.0495 -0.3822 -0.5505
12114SOL    HW138542   8.359   5.550   7.231 -0.4474  0.3169  0.9417
12114SOL    HW238543   8.445   5.569   7.354  2.2023  0.3033 -0.8157
12115SOL     OW38544   8.618   6.192   5.460  0.2247 -0.2887 -0.0336
12115SOL    HW138545   8.610   6.098   5.479  1.3926 -0.7649 -1.6412
12115SOL    HW238546   8.552   6.208   5.393  0.2454 -0.0362  0.0068
12116SOL     OW38547   4.844   2.518   5.855  0.2177 -0.2662 -0.2634
12116SOL    HW138548   4.804   2.445   5.807  1.7259 -2.5659  1.7185
12116SOL    HW238549   4.769   2.569   5.887 -1.0142 -1.9994 -0.2184
12117SOL     OW38550   7.447   4.092   4.342 -0.4606  0.5608 -0.8181
12117SOL    HW138551   7.507   4.031   4.385  0.0430  0.7203 -1.2758
12117SOL    HW238552   7.503   4.166   4.317 -0.6440  0.2750 -2.1418
12118SOL     OW38553   6.760   5.880   8.640  0.1472  0.1389 -0.7654
12118SOL    HW138554   6.767   5.792   8.678  1.3931  1.4650  2.4747
12118SOL    HW238555   6.684   5.919   8.684 -0.9108  0.4557 -2.7948
12119SOL     OW38556   7.208   9.446   6.835 -0.2792  0.2754 -0.2476
12119SOL    HW138557   7.170   9.501   6.766  0.4082  0.7773 -0.2432
12119SOL    HW238558   7.152   9.369   6.838 -0.3845  0.2974 -1.2898
12120SOL     OW38559   2.666   7.269   9.203 -0.0102  0.0545 -0.0615
12120SOL    HW138560   2.650   7.222   9.121  1.5464  0.5141 -0.6689
12120SOL    HW238561   2.757   7.250   9.224 -0.5758 -0.6635  2.0011
12121SOL     OW38562   0.816   7.810   4.269  0.3426  0.3422  0.1673
12121SOL    HW138563   0.722   7.826   4.257  0.3111  0.6930  0.8438
12121SOL    HW238564   0.842   7.761   4.191 -0.3461  0.4775 -0.1549
12122SOL     OW38565   1.917   5.651   4.412 -0.1322 -0.2102 -0.4294
12122SOL    HW138566   1.918   5.714   4.340  0.0713  0.3149  0.0282
12122SOL    HW238567   1.883   5.570   4.372 -1.2036  0.4138 -0.8362
12123SOL     OW38568   9.448   8.872   3.680 -0.1112  0.1215  0.3159
12123SOL    HW138569   9.400   8.825   3.748  0.4776  0.4658  0.9827
12123SOL    HW238570   9.438   8.964   3.703  0.6838  0.2073  0.3555
12124SOL     OW38571   8.785   1.960   1.776 -0.4571 -0.3751 -0.7996
12124SOL    HW138572   8.694   1.988   1.790 -0.5452 -1.1572  0.3197
12124SOL    HW238573   8.784   1.917   1.691 -1.3866 -1.3681 -0.3056
12125SOL     OW38574   1.771   2.150   5.441 -0.2555 -0.8732  0.2447
12125SOL    HW138575   1.833   2.080   5.461  1.0105 -0.7560 -2.7428
12125SOL    HW238576   1.689   2.105   5.424 -0.0414 -1.4063  0.5900
12126SOL     OW38577   4.300   6.498   6.204 -0.1397 -0.0140  0.0699
12126SOL    HW138578   4.373   6.559   6.210  0.5994 -0.9996  1.6988
12126SOL    HW238579   4.322   6.442   6.130  1.2452 -0.8794  1.0963
12127SOL     OW38580   2.778   6.228   6.727  0.3649  0.1719  0.3756
12127SOL    HW138581   2.781   6.165   6.799 -0.5449 -0.5944 -0.2316
12127SOL    HW238582   2.756   6.311   6.769  0.0197 -0.2305  1.0047
12128SOL     OW38583   3.281   2.355   2.831  0.5160 -0.0221 -0.3627
12128SOL    HW138584   3.329   2.339   2.912 -0.6148  0.0937  0.3610
12128SOL    HW238585   3.235   2.272   2.815 -1.4515  0.8024  0.6722
12129SOL     OW38586   1.380   5.913   6.432 -0.0821  0.2783 -0.2979
12129SOL    HW138587   1.297   5.950   6.463  0.1993  0.6383  0.0471
12129SOL    HW238588   1.389   5.945   6.342 -1.4443 -1.6747 -1.2049
12130SOL     OW38589   2.347   0.272   3.924  0.3167 -0.1675 -0.3967
12130SOL    HW138590   2.302   0.339   3.976  1.4654 -0.0068  0.4288
12130SOL    HW238591   2.304   0.190   3.948 -0.1638  0.0937 -0.3523
12131SOL     OW38592   9.383   9.522   3.656  0.0958 -0.1440  0.3421
12131SOL    HW138593   9.477   9.540   3.652  0.1656 -0.5854 -0.1541
12131SOL    HW238594   9.362   9.522   3.750  0.9067 -1.5744  0.5448
12132SOL     OW38595   7.036   9.435   5.454 -0.1681  0.3652  0.1026
12132SOL    HW138596   6.946   9.443   5.485 -0.2430  1.7649 -0.4525
12132SOL    HW238597   7.084   9.503   5.501  0.6562 -0.4670  0.5119
12133SOL     OW38598   5.459   5.766   2.033 -0.0843 -0.5064  0.3604
12133SOL    HW138599   5.528   5.831   2.044  0.2515 -0.4563 -1.6817
12133SOL    HW238600   5.496   5.686   2.071  1.9452 -0.9770 -2.3155
12134SOL     OW38601   5.502   6.243   1.600 -0.2343 -0.2768 -0.4943
12134SOL    HW138602   5.412   6.272   1.614 -1.1270 -2.6751 -0.7045
12134SOL    HW238603   5.498   6.148   1.613  2.2971 -0.4316 -0.4365
12135SOL     OW38604   0.880   8.013   4.870  0.2367  0.2371 -0.0052
12135SOL    HW138605   0.846   8.076   4.933  0.0501  0.7069 -0.5647
12135SOL    HW238606   0.952   7.969   4.916 -1.2090 -0.9059  1.2615
12136SOL     OW38607   5.904   8.140   5.397  0.4850  0.2533 -0.0109
12136SOL    HW138608   5.999   8.138   5.391  0.4713  1.2465 -0.7157
12136SOL    HW238609   5.886   8.132   5.491  1.2090 -0.9912  0.0461
12137SOL     OW38610   8.899   7.312   3.099  0.1052 -0.3167  0.2941
12137SOL    HW138611   8.943   7.366   3.033 -0.9330  0.8092  0.4793
12137SOL    HW238612   8.871   7.374   3.166  0.5848 -1.3686  1.4903
12138SOL     OW38613   2.184   4.561   8.961  0.4651  0.0570 -0.2681
12138SOL    HW138614   2.181   4.467   8.977  2.4024  0.2229  1.5284
12138SOL    HW238615   2.226   4.597   9.039  1.3000  2.2249 -1.6205
12139SOL     OW38616   7.229   4.374   6.791 -0.7927 -0.1727 -0.4585
12139SOL    HW138617   7.154   4.345   6.739 -0.7393  0.4726 -0.9114
12139SOL    HW238618   7.241   4.466   6.767  0.0107 -0.2086 -0.2329
12140SOL     OW38619   2.218   8.699   1.793  0.4543  0.5423 -0.3453
12140SOL    HW138620   2.252   8.716   1.881  1.0475  1.9852 -0.8119
12140SOL    HW238621   2.243   8.777   1.743 -2.0776  0.9000 -1.1679
12141SOL     OW38622   7.882   5.781   6.256  0.3290  0.1141  0.3340
12141SOL    HW138623   7.924   5.741   6.180  2.3003 -0.7612  1.7943
12141SOL    HW238624   7.807   5.724   6.275  0.9182 -0.7544  0.1360
12142SOL     OW38625   5.563   6.956   9.273  0.0585  0.2693  0.3290
12142SOL    HW138626   5.506   7.030   9.294  0.5806  0.1170  2.4314
12142SOL    HW238627   5.636   6.996   9.224 -0.2354  0.9506  0.4302
12143SOL     OW38628   7.211   2.289   0.949  0.1855  0.0980 -0.5524
12143SOL    HW138629   7.254   2.203   0.946  1.0768  0.5690 -2.4026
12143SOL    HW238630   7.261   2.339   1.013 -0.4574 -0.7859  0.6853
12144SOL     OW38631   4.847   9.316   0.952 -0.0627  0.5036  0.3092
12144SOL    HW138632   4.829   9.278   1.039  0.0481 -0.1713  0.0467
12144SOL    HW238633   4.925   9.269   0.922 -0.7111 -0.0210 -0.6001
12145SOL     OW38634   3.245   6.099   8.557  0.1262  0.0514  0.3012
12145SOL    HW138635   3.294   6.182   8.564  0.8064 -0.1563 -1.5477
12145SOL    HW238636   3.204   6.103   8.471  0.6393 -1.7829 -0.0542
12146SOL     OW38637   1.748   2.531   3.702 -0.4647 -0.4366  0.1603
12146SOL    HW138638   1.813   2.475   3.659 -0.2238  0.4151 -0.6049
12146SOL    HW238639   1.730   2.600   3.639 -0.6782  0.4216  1.1305
12147SOL     OW38640   4.490   7.161   2.562 -0.9571 -0.3323  0.0736
12147SOL    HW138641   4.559   7.206   2.514 -0.9006  2.2861  2.3928
12147SOL    HW238642   4.412   7.213   2.547 -1.5639 -1.0550  0.6081
12148SOL     OW38643   6.107   7.376   6.732 -0.1188 -0.0958 -0.0329
12148SOL    HW138644   6.040   7.445   6.737 -0.9071 -0.8695  0.3543
12148SOL    HW238645   6.110   7.352   6.640 -2.5182 -2.0650  0.2970
12149SOL     OW38646   5.690   6.969   5.698  0.2025 -0.0754  0.0170
12149SOL    HW138647   5.649   7.022   5.629 -0.2135  0.9264  1.0024
12149SOL    HW238648   5.729   7.033   5.758 -1.6143 -0.7541  2.0618
12150SOL     OW38649   1.812   6.288   7.991  0.2336 -0.4341  0.6818
12150SOL    HW138650   1.871   6.257   8.060 -2.3242 -0.1056  3.2016
12150SOL    HW238651   1.802   6.213   7.932  1.9380 -0.9608  1.0064
12151SOL     OW38652   8.259   9.517   2.800 -0.1484  0.2075 -0.2057
12151SOL    HW138653   8.168   9.499   2.824 -0.9234  2.8085 -0.8510
12151SOL    HW238654   8.303   9.535   2.882 -0.4932  0.0398  0.0183
12152SOL     OW38655   2.002   7.154   2.354 -0.0164 -0.3015 -0.2271
12152SOL    HW138656   2.022   7.105   2.434  1.9204  1.3493  0.3707
12152SOL    HW238657   1.972   7.088   2.292 -0.8647 -1.7327  1.6042
12153SOL     OW38658   5.180   8.086   8.394  0.1314  0.3977 -0.1335
12153SOL    HW138659   5.123   8.028   8.445  0.5921  1.1795  1.3328
12153SOL    HW238660   5.121   8.132   8.335 -0.3156 -1.1175 -0.9081
12154SOL     OW38661   6.548   4.743   2.509  0.0118  0.4714 -0.0061
12154SOL    HW138662   6.527   4.667   2.563 -0.2769  0.2119 -0.4763
12154SOL    HW238663   6.573   4.811   2.571  2.9660 -0.7826  0.3541
12155SOL     OW38664   0.613   3.319   1.184  0.3989 -0.5620 -0.1045
12155SOL    HW138665   0.572   3.403   1.206  0.8248 -0.7931  1.7941
12155SOL    HW238666   0.696   3.343   1.142  0.4688 -0.0009  0.3366
12156SOL     OW38667   3.397   7.411   3.057  0.1214 -0.2607 -0.1608
12156SOL    HW138668   3.459   7.342   3.033  0.5355  0.3800 -0.9772
12156SOL    HW238669   3.408   7.478   2.990  0.5053  1.0990  1.2120
12157SOL     OW38670   5.383   0.263   3.694 -0.1873 -0.1763  0.0208
12157SOL    HW138671   5.378   0.287   3.787 -0.5709 -0.7092  0.1442
12157SOL    HW238672   5.475   0.241   3.679 -0.0736  0.1587  0.2067
12158SOL     OW38673   3.752   4.734   5.126  0.1235  0.1030 -1.0007
12158SOL    HW138674   3.795   4.742   5.211  0.9269 -2.3200 -1.0844
12158SOL    HW238675   3.823   4.747   5.063  0.0124 -0.3564 -1.2256
12159SOL     OW38676   7.967   7.404   9.459 -0.3144 -0.2359 -0.1793
12159SOL    HW138677   7.983   7.481   9.514 -4.3626 -0.2137  1.3116
12159SOL    HW238678   7.932   7.439   9.378  2.5751 -0.4523 -1.6777
12160SOL     OW38679   4.848   3.366   5.783 -0.0050  0.2484 -0.6736
12160SOL    HW138680   4.933   3.338   5.749  0.5946  0.5163  0.5747
12160SOL    HW238681   4.817   3.292   5.834 -0.0367  0.5531 -0.2514
12161SOL     OW38682   0.692   1.152   1.104 -0.3006  0.0546  0.2243
12161SOL    HW138683   0.703   1.227   1.162  1.9436  0.0306 -0.1056
12161SOL    HW238684   0.637   1.091   1.155  0.4313  0.6199  1.7679
12162SOL     OW38685   3.752   2.368   5.860 -0.2501  0.0263  0.1359
12162SOL    HW138686   3.665   2.399   5.834 -0.5095 -1.2376 -0.5912
12162SOL    HW238687   3.762   2.395   5.951 -2.5824 -2.2434  1.1591
12163SOL     OW38688   0.436   8.525   4.506  0.3003 -0.3740 -0.2004
12163SOL    HW138689   0.354   8.476   4.498  0.9638 -2.3784  3.1769
12163SOL    HW238690   0.418   8.594   4.570  0.7991  0.3226 -0.7921
12164SOL     OW38691   9.358   1.534   2.551  0.0468 -0.3682  0.0060
12164SOL    HW138692   9.358   1.461   2.613 -0.7647  0.1971  0.6994
12164SOL    HW238693   9.388   1.609   2.603 -0.0913  0.0002 -0.4420
12165SOL     OW38694   6.019   2.080   4.483  0.5991  0.1814 -0.7276
12165SOL    HW138695   6.111   2.075   4.506  0.8907  0.5707 -1.7542
12165SOL    HW238696   5.981   1.999   4.517  0.9482  0.7754  1.2096
12166SOL     OW38697   4.600   8.992   8.064 -0.5684 -0.7930  0.0175
12166SOL    HW138698   4.578   9.009   8.156 -0.2317 -1.8724  0.3019
12166SOL    HW238699   4.695   8.993   8.062 -0.5690  0.6327 -0.6065
12167SOL     OW38700   3.625   7.284   5.603 -0.7851  0.0466 -0.1523
12167SOL    HW138701   3.606   7.208   5.548 -2.2285 -1.0584  1.7499
12167SOL    HW238702   3.539   7.315   5.631 -0.1273  0.3595  1.6964
12168SOL     OW38703   0.699   5.907   6.846  0.0865  0.0917 -0.5694
12168SOL    HW138704   0.712   5.996   6.815  0.3378  0.3576  0.2587
12168SOL    HW238705   0.784   5.865   6.836  0.5428  0.5859  0.9824
12169SOL     OW38706   0.437   2.525   7.304  0.6398 -0.2358 -0.0116
12169SOL    HW138707   0.481   2.608   7.284 -0.0644 -0.2552 -1.8909
12169SOL    HW238708   0.508   2.464   7.326  1.3094  0.4121 -0.3538
12170SOL     OW38709   3.254   6.977   1.027  0.1869  0.5168 -0.2186
12170SOL    HW138710   3.201   6.897   1.017  2.1576 -1.1877  1.8794
12170SOL    HW238711   3.246   6.999   1.119  2.3991  0.6809 -0.0123
12171SOL     OW38712   9.272   6.529   7.407 -0.3403 -0.4987 -0.0086
12171SOL    HW138713   9.189   6.536   7.456  0.4250 -0.3594  1.3128
12171SOL    HW238714   9.301   6.439   7.420 -0.0572 -0.4215 -0.0944
12172SOL     OW38715   1.074   4.642   3.660  0.4087 -0.4387 -0.3017
12172SOL    HW138716   1.116   4.645   3.746 -0.3308 -2.0770  0.1483
12172SOL    HW238717   1.001   4.581   3.671 -0.4788  0.3050 -1.7633
12173SOL     OW38718   1.752   0.709   3.300  0.9186  0.0240 -0.2879
12173SOL    HW138719   1.671   0.681   3.344  0.6094  0.5000 -0.5430
12173SOL    HW238720   1.771   0.640   3.237  0.7677 -0.1383 -0.1565
12174SOL     OW38721   5.885   7.687   9.127  0.5478  0.3216 -0.6052
12174SOL    HW138722   5.891   7.779   9.102  2.1360  0.4897  0.2797
12174SOL    HW238723   5.973   7.652   9.113  0.3218 -0.7064  0.3937
12175SOL     OW38724   2.235   6.794   5.543  0.4021 -0.0811 -0.2301
12175SOL    HW138725   2.183   6.713   5.552  1.5297 -0.7547  0.4968
12175SOL    HW238726   2.236   6.811   5.449  0.2339 -0.9755 -0.4059
12176SOL     OW38727   3.344   1.134   3.781  0.3694 -0.1553  0.5691
12176SOL    HW138728   3.317   1.192   3.852  1.3006  0.4772  0.4321
12176SOL    HW238729   3.282   1.151   3.711  0.4114  0.4140  0.6646
12177SOL     OW38730   8.676   2.644   8.267  0.2221 -0.0502 -0.1746
12177SOL    HW138731   8.739   2.597   8.322  2.5324  0.0412 -2.5350
12177SOL    HW238732   8.729   2.707   8.218 -2.1881  2.1917 -0.1328
12178SOL     OW38733   1.717   5.283   2.077  0.3062  0.3443  0.1295
12178SOL    HW138734   1.771   5.285   1.998  0.9447 -0.9158  0.5012
12178SOL    HW238735   1.670   5.199   2.072  0.9886 -0.1455  1.4802
12179SOL     OW38736   0.899   1.161   7.442 -0.0073 -0.3076 -0.5418
12179SOL    HW138737   0.984   1.128   7.471  0.8402  0.4015 -2.1435
12179SOL    HW238738   0.902   1.255   7.457 -0.2254 -0.1753 -1.2938
12180SOL     OW38739   2.617   8.415   1.846  0.0914  0.0530 -0.2335
12180SOL    HW138740   2.594   8.482   1.910 -1.0717  0.8323 -1.4051
12180SOL    HW238741   2.539   8.360   1.839  0.5511 -0.6008 -0.2819
12181SOL     OW38742   5.575   4.852   1.738  0.2473 -0.1704 -0.5382
12181SOL    HW138743   5.525   4.853   1.820 -0.4918 -3.8442 -0.7572
12181SOL    HW238744   5.510   4.872   1.670 -0.0530 -0.9253 -0.4885
12182SOL     OW38745   0.072   6.480   2.736  0.0746 -0.3120 -0.2633
12182SOL    HW138746   0.022   6.403   2.763  0.6396 -0.9430 -0.9886
12182SOL    HW238747   0.033   6.552   2.786 -2.9145 -0.4044 -2.2052
12183SOL     OW38748   4.580   0.096   0.689 -0.1825 -0.4389  0.5789
12183SOL    HW138749   4.542   0.081   0.776  0.3003  0.2092  0.9047
12183SOL    HW238750   4.667   0.130   0.706 -0.3020  0.2630 -0.1629
12184SOL     OW38751   8.987   8.670   0.844 -0.1227  0.3619 -0.2650
12184SOL    HW138752   8.971   8.630   0.930  1.0440  0.1460 -0.1317
12184SOL    HW238753   8.985   8.764   0.862 -0.4631  0.3319 -0.1233
12185SOL     OW38754   7.688   0.401   7.437  0.9627 -0.2932  0.1976
12185SOL    HW138755   7.664   0.313   7.466  1.4396 -0.8759 -1.0768
12185SOL    HW238756   7.704   0.450   7.518 -1.8513 -0.5939  1.0247
12186SOL     OW38757   5.593   2.188   0.725 -0.1625 -0.2488  0.2675
12186SOL    HW138758   5.648   2.203   0.803  2.1535 -0.8131 -1.1584
12186SOL    HW238759   5.596   2.093   0.713 -0.5953 -0.1712 -0.4394
12187SOL     OW38760   2.825   3.750   2.002  0.1718  0.1658 -0.0371
12187SOL    HW138761   2.827   3.655   1.987 -2.0183  0.2747 -1.5799
12187SOL    HW238762   2.745   3.764   2.052  0.9045  1.1482  0.8899
12188SOL     OW38763   5.956   0.838   6.054 -0.2147  0.3259 -0.1981
12188SOL    HW138764   5.862   0.850   6.071 -0.0225  1.6959  0.0070
12188SOL    HW238765   5.997   0.844   6.140  0.3361  2.9831 -0.5492
12189SOL     OW38766   3.774   8.440   0.153  0.2672 -0.2458  0.1160
12189SOL    HW138767   3.787   8.347   0.168 -0.9712 -0.2350  1.5231
12189SOL    HW238768   3.703   8.444   0.088  1.2244 -0.2674 -0.9548
12190SOL     OW38769   5.952   7.653   8.001 -0.2697 -0.3689  0.1415
12190SOL    HW138770   5.907   7.593   8.059 -2.1047 -0.3544 -1.1836
12190SOL    HW238771   6.017   7.599   7.956 -1.6666 -1.3321 -0.7878
12191SOL     OW38772   6.769   4.128   6.258 -0.4107  0.3184  0.6397
12191SOL    HW138773   6.761   4.035   6.237  1.9820 -0.5496  3.0441
12191SOL    HW238774   6.776   4.171   6.173  1.5239 -2.0881 -0.5484
12192SOL     OW38775   9.234   9.156   4.994  0.2069  0.4654  0.0424
12192SOL    HW138776   9.323   9.190   5.005  0.1094  0.8545 -0.3557
12192SOL    HW238777   9.178   9.224   5.031  0.0758  0.2074  0.3168
12193SOL     OW38778   1.863   9.095   3.322 -0.2681 -0.6550 -0.5205
12193SOL    HW138779   1.818   9.044   3.389  1.0568 -0.7734  0.3132
12193SOL    HW238780   1.914   9.160   3.370 -1.5116  1.1593 -1.5372
12194SOL     OW38781   0.633   3.671   4.945 -0.0361 -0.3466 -0.2052
12194SOL    HW138782   0.644   3.608   4.874 -1.3010 -0.5617 -0.2239
12194SOL    HW238783   0.611   3.618   5.022  2.1861 -0.2086  0.6314
12195SOL     OW38784   2.942   5.435   6.829  0.0438  0.0636  0.4241
12195SOL    HW138785   2.946   5.474   6.742 -0.7742 -2.1138 -0.6572
12195SOL    HW238786   3.028   5.396   6.842 -0.5789 -1.6962 -0.4883
12196SOL     OW38787   1.445   0.896   2.021 -0.4266 -0.2547  0.1121
12196SOL    HW138788   1.385   0.833   2.059 -0.6594 -1.2356 -1.7313
12196SOL    HW238789   1.457   0.963   2.088 -2.1102 -0.9948  1.1992
12197SOL     OW38790   3.304   1.424   7.637 -0.1062 -0.2354 -0.5321
12197SOL    HW138791   3.341   1.336   7.646 -0.9876 -0.6414 -0.7602
12197SOL    HW238792   3.309   1.442   7.543 -2.9560 -1.4485 -1.0256
12198SOL     OW38793   2.495   7.951   4.920 -0.0285 -0.3514 -0.4464
12198SOL    HW138794   2.429   7.883   4.931  0.3602 -0.7277 -0.4172
12198SOL    HW238795   2.496   7.998   5.003  0.2692 -0.8249 -0.1792
12199SOL     OW38796   8.306   1.497   6.973 -0.4130  0.2549 -0.5273
12199SOL    HW138797   8.401   1.484   6.973 -0.1539  1.7646 -2.0692
12199SOL    HW238798   8.278   1.471   7.060  1.6345  1.1116  0.4551
12200SOL     OW38799   0.024   8.693   0.400 -0.1161 -0.0379  0.1926
12200SOL    HW138800   0.080   8.617   0.411  1.3745  1.1916  1.6527
12200SOL    HW238801  -0.044   8.665   0.338  1.7791 -1.7510 -1.2171
12201SOL     OW38802   7.937   2.400   0.393 -0.0049  0.6671 -0.0310
12201SOL    HW138803   7.880   2.477   0.394 -0.8635  0.0892 -1.0763
12201SOL    HW238804   7.904   2.345   0.464  0.7336  1.3270  0.8431
12202SOL     OW38805   2.257   9.007   1.753  0.3078  0.5043 -0.7963
12202SOL    HW138806   2.323   9.039   1.815  0.5155  1.9905 -1.7216
12202SOL    HW238807   2.308   8.985   1.674  0.0537 -1.3755 -0.4650
12203SOL     OW38808   6.481   4.208   0.362 -0.0172  0.6990  0.0449
12203SOL    HW138809   6.553   4.148   0.341 -1.0358 -1.1507  1.4472
12203SOL    HW238810   6.411   4.184   0.301 -0.5914  0.0695  0.9155
12204SOL     OW38811   2.405   1.353   8.077  0.9917 -0.4104 -0.4225
12204SOL    HW138812   2.341   1.408   8.121  0.4142 -1.6346  0.3388
12204SOL    HW238813   2.353   1.296   8.020  1.4761 -0.7786 -0.5101
12205SOL     OW38814   5.608   3.281   6.295  0.3784 -0.2646 -0.6475
12205SOL    HW138815   5.633   3.211   6.235 -1.6063  0.6284 -2.6773
12205SOL    HW238816   5.513   3.290   6.284  0.0402  0.4676  2.1221
12206SOL     OW38817   3.134   8.311   1.519  0.0976  0.4359 -0.4101
12206SOL    HW138818   3.132   8.226   1.475 -1.5498  0.7559 -1.0368
12206SOL    HW238819   3.146   8.374   1.447 -1.3343  0.8789 -0.2950
12207SOL     OW38820   6.725   0.169   4.292 -0.6797 -0.2878 -0.2305
12207SOL    HW138821   6.801   0.176   4.234 -0.3997  1.1689  0.2694
12207SOL    HW238822   6.701   0.077   4.289  1.7507 -1.0150  0.4006
12208SOL     OW38823   9.145   0.720   8.742  0.5208  0.0533 -0.3805
12208SOL    HW138824   9.110   0.769   8.817 -2.3629 -0.7077 -1.1120
12208SOL    HW238825   9.117   0.630   8.757  1.4097 -0.4438 -1.5328
12209SOL     OW38826   9.517   8.779   3.435 -0.1040 -0.4654 -0.9456
12209SOL    HW138827   9.492   8.845   3.499  0.0626 -0.1991 -1.1529
12209SOL    HW238828   9.483   8.697   3.470  0.8014 -0.4717 -0.0399
12210SOL     OW38829   8.670   7.600   4.982 -0.4562  0.1909  0.4576
12210SOL    HW138830   8.683   7.505   4.980 -1.1057  0.0647  1.6352
12210SOL    HW238831   8.579   7.612   5.009 -1.1869  1.1460 -2.1154
12211SOL     OW38832   6.361   0.507   3.029  0.1058  0.3389 -0.0996
12211SOL    HW138833   6.330   0.586   2.986  1.9060 -0.0103 -2.2471
12211SOL    HW238834   6.430   0.537   3.088 -1.4014  0.6516  1.6131
12212SOL     OW38835   5.725   1.289   2.981  0.0592  0.4421  0.0941
12212SOL    HW138836   5.740   1.318   3.071 -1.9327 -0.9871  0.9388
12212SOL    HW238837   5.635   1.316   2.962 -0.0843 -0.6815 -0.9015
12213SOL     OW38838   1.759   7.117   8.488 -0.2756 -0.2723  0.2809
12213SOL    HW138839   1.761   7.024   8.509  2.2964 -0.4574 -0.3478
12213SOL    HW238840   1.762   7.120   8.393  0.5438  0.4105  0.3147
12214SOL     OW38841   7.120   7.662   7.204 -0.0281  0.1147 -0.3638
12214SOL    HW138842   7.178   7.667   7.128 -0.9277 -2.1202 -1.2786
12214SOL    HW238843   7.169   7.610   7.268 -0.4435 -0.6035 -0.6143
12215SOL     OW38844   1.233   1.109   9.076 -0.1777 -0.1443  0.0241
12215SOL    HW138845   1.162   1.047   9.091  1.0715 -1.8408 -0.6904
12215SOL    HW238846   1.222   1.137   8.985 -0.5597  0.4556  0.2511
12216SOL     OW38847   1.846   1.725   2.986 -0.1448  0.1633  0.1628
12216SOL    HW138848   1.934   1.692   2.968 -0.5849 -0.7954 -0.2993
12216SOL    HW238849   1.808   1.662   3.047 -0.9293 -0.1223 -0.5897
12217SOL     OW38850   2.795   3.272   2.476  0.0071  0.3395 -0.3212
12217SOL    HW138851   2.821   3.309   2.560 -1.9903  2.6641 -0.6002
12217SOL    HW238852   2.704   3.247   2.488  0.2092 -0.9363 -1.3146
12218SOL     OW38853   3.119   2.848   0.306 -0.3389  0.3312  0.5866
12218SOL    HW138854   3.042   2.800   0.338 -0.0610  0.5437  1.6290
12218SOL    HW238855   3.083   2.926   0.265 -0.6609  1.4838  2.8816
12219SOL     OW38856   5.077   1.552   6.981 -0.8021  0.2289  0.2023
12219SOL    HW138857   5.072   1.496   6.905 -0.3502  0.5633 -0.0823
12219SOL    HW238858   4.997   1.535   7.030 -0.3598 -1.1548  0.4698
12220SOL     OW38859   3.745   9.099   1.993 -0.7454 -0.4396 -0.2393
12220SOL    HW138860   3.673   9.036   1.991 -0.4040 -0.8272 -0.6396
12220SOL    HW238861   3.703   9.184   2.007 -1.0688 -0.9410  2.1161
12221SOL     OW38862   5.980   6.273   3.893 -0.0955  0.0683 -0.1854
12221SOL    HW138863   5.892   6.303   3.869 -0.6194  0.5853  2.0896
12221SOL    HW238864   6.035   6.351   3.884 -0.1054  0.0384 -0.5116
12222SOL     OW38865   5.766   4.009   0.464  0.4027  0.0761  0.3204
12222SOL    HW138866   5.761   4.085   0.521 -0.1256  2.1051 -2.2347
12222SOL    HW238867   5.699   4.025   0.397  1.5415 -1.7047 -1.3548
12223SOL     OW38868   5.607   5.783   6.799  0.1192 -0.2347  0.0683
12223SOL    HW138869   5.583   5.711   6.856 -1.3310 -0.1771 -0.4280
12223SOL    HW238870   5.572   5.861   6.842  0.1432 -0.0385 -0.2625
12224SOL     OW38871   7.556   7.184   1.933  0.0811 -0.5296 -0.3181
12224SOL    HW138872   7.531   7.118   1.997  0.8529  0.1954  0.7583
12224SOL    HW238873   7.522   7.266   1.967  0.0533 -0.2008 -1.1046
12225SOL     OW38874   4.523   0.442   1.598  0.9726  0.3183 -0.0466
12225SOL    HW138875   4.573   0.388   1.537  1.5152  0.1297  0.5509
12225SOL    HW238876   4.432   0.418   1.582  1.2845 -3.0184  2.1957
12226SOL     OW38877   7.626   8.275   3.470 -0.1195  0.1849  0.5968
12226SOL    HW138878   7.719   8.295   3.483 -0.6128  3.1157  0.2958
12226SOL    HW238879   7.584   8.310   3.548 -1.1306  0.4041 -0.0393
12227SOL     OW38880   0.204   5.175   1.912  0.5000  0.4282  0.8618
12227SOL    HW138881   0.235   5.089   1.940  0.2530 -0.2456 -0.8084
12227SOL    HW238882   0.152   5.207   1.986  1.3750 -0.4258  1.8792
12228SOL     OW38883   0.773   1.773   4.002  0.0776  0.0506 -0.0112
12228SOL    HW138884   0.832   1.775   4.078 -0.1772  2.1672  0.2130
12228SOL    HW238885   0.788   1.857   3.959 -2.2880  0.3851 -0.3157
12229SOL     OW38886   4.805   9.345   6.873 -0.1834  0.2644  0.5226
12229SOL    HW138887   4.823   9.255   6.845 -1.5518  0.4278 -1.0712
12229SOL    HW238888   4.862   9.359   6.949  0.4787 -1.7400  0.4501
12230SOL     OW38889   6.004   0.864   0.653  0.1489  0.6958 -0.0738
12230SOL    HW138890   6.069   0.890   0.589 -1.5209  0.9997 -1.7551
12230SOL    HW238891   5.962   0.787   0.614 -1.0719  1.0358  0.5078
12231SOL     OW38892   4.072   7.272   5.723 -0.2164 -0.9047  0.4270
12231SOL    HW138893   4.101   7.325   5.798 -3.1533  1.4182  0.0927
12231SOL    HW238894   4.033   7.194   5.763  1.0663 -1.2340  1.1053
12232SOL     OW38895   8.168   1.857   5.743 -0.1626  0.3349 -0.1786
12232SOL    HW138896   8.104   1.806   5.693 -1.4020 -0.7310  2.3152
12232SOL    HW238897   8.166   1.943   5.702 -1.5422 -0.3070 -1.5885
12233SOL     OW38898   7.750   1.309   4.029  0.1076 -0.3464 -0.6186
12233SOL    HW138899   7.681   1.375   4.026  1.6083  1.3035 -1.0945
12233SOL    HW238900   7.752   1.272   3.940 -1.9257 -2.4214  0.1164
12234SOL     OW38901   0.260   4.434   0.560  0.0431 -0.1425  0.5977
12234SOL    HW138902   0.283   4.396   0.475  0.0395 -0.2655  0.6519
12234SOL    HW238903   0.212   4.514   0.538  1.2557  0.5724  0.4759
12235SOL     OW38904   6.864   0.138   6.450 -0.0781 -0.5730  0.0449
12235SOL    HW138905   6.795   0.073   6.457 -0.7003  0.2331  2.5278
12235SOL    HW238906   6.851   0.179   6.364 -2.7965 -0.3519  0.4836
12236SOL     OW38907   6.215   5.629   7.235  0.3797  0.5482  0.5345
12236SOL    HW138908   6.226   5.584   7.319 -0.0580 -1.7022 -0.5247
12236SOL    HW238909   6.121   5.648   7.231 -0.6785 -3.7821 -1.3546
12237SOL     OW38910   5.086   0.114   1.766 -0.6585 -0.0491  0.2073
12237SOL    HW138911   5.014   0.103   1.704 -1.3160  3.4086  0.1409
12237SOL    HW238912   5.165   0.098   1.714 -1.2726 -2.0374 -0.1864
12238SOL     OW38913   0.687   5.041   4.101 -0.5246 -0.1033  0.4152
12238SOL    HW138914   0.688   5.045   4.006 -0.6159 -1.0301  0.3612
12238SOL    HW238915   0.615   4.981   4.122  0.6718 -1.4014  0.9762
12239SOL     OW38916   9.033   9.239   5.325  0.4620 -0.6944  0.2063
12239SOL    HW138917   8.965   9.216   5.389  1.0872  0.2044  1.2199
12239SOL    HW238918   9.115   9.215   5.367  0.9494  0.8060  0.1540
12240SOL     OW38919   8.886   3.486   6.401  0.4613  0.7133 -0.2075
12240SOL    HW138920   8.898   3.397   6.433 -1.0336  0.3864 -0.4557
12240SOL    HW238921   8.968   3.508   6.358  1.3601 -0.0136  1.0486
12241SOL     OW38922   7.484   8.109   8.957 -0.2437  0.0709  0.9039
12241SOL    HW138923   7.421   8.060   8.905 -0.8907  2.0663 -0.2882
12241SOL    HW238924   7.430   8.159   9.019 -0.1918  3.5377 -1.5862
12242SOL     OW38925   1.877   0.768   1.222 -0.0185 -0.7353  0.4071
12242SOL    HW138926   1.831   0.756   1.305 -1.1523 -0.1875 -0.1191
12242SOL    HW238927   1.810   0.801   1.161  1.1851  0.6517 -0.2484
12243SOL     OW38928   6.724   8.259   3.295  0.1449 -0.5287  0.4303
12243SOL    HW138929   6.658   8.324   3.318  0.7937  0.0325  0.7463
12243SOL    HW238930   6.807   8.305   3.305  0.5811 -1.1867 -0.0802
12244SOL     OW38931   5.852   9.118   5.840 -0.3220 -0.6228  0.1378
12244SOL    HW138932   5.876   9.026   5.847  1.2633 -0.2511 -0.2237
12244SOL    HW238933   5.812   9.138   5.924 -0.9593 -1.7044  0.1141
12245SOL     OW38934   6.958   9.425   1.960 -0.4291  0.2421  0.1433
12245SOL    HW138935   7.021   9.355   1.941 -0.8374 -0.0934  0.0138
12245SOL    HW238936   6.961   9.433   2.055  0.0380  0.4422  0.1140
12246SOL     OW38937   5.698   4.627   0.624 -0.6418 -0.1974  0.4918
12246SOL    HW138938   5.684   4.547   0.674  0.2553 -0.4404  0.3561
12246SOL    HW238939   5.673   4.697   0.684  0.2887 -0.4873  1.2373
12247SOL     OW38940   6.562   0.645   2.572 -0.3685  0.1413  0.0807
12247SOL    HW138941   6.584   0.737   2.558 -0.6765 -0.0184 -1.7749
12247SOL    HW238942   6.627   0.613   2.635  0.0046  1.5153  0.4136
12248SOL     OW38943   7.466   8.619   3.667  0.3291  0.0652 -0.3481
12248SOL    HW138944   7.533   8.628   3.735 -0.5891  1.0266  0.4744
12248SOL    HW238945   7.412   8.697   3.677 -1.4794 -1.1346 -0.3327
12249SOL     OW38946   3.010   0.267   5.134  0.6113 -0.0325 -0.7337
12249SOL    HW138947   3.005   0.259   5.039  1.9540 -1.0421 -0.7370
12249SOL    HW238948   2.948   0.337   5.155 -1.7168 -1.5368 -2.0815
12250SOL     OW38949   4.200   3.656   4.174  0.7465  0.0564  0.1712
12250SOL    HW138950   4.185   3.743   4.211  3.1265 -0.3551  2.2953
12250SOL    HW238951   4.123   3.606   4.201 -0.3487  1.2720 -0.5368
12251SOL     OW38952   7.018   2.563   6.567 -0.3546 -0.0261 -0.1244
12251SOL    HW138953   6.972   2.521   6.639 -1.0425 -0.7449 -0.9597
12251SOL    HW238954   6.949   2.604   6.515  0.2927  2.1240  0.6325
12252SOL     OW38955   8.928   1.516   2.984 -0.0223 -0.2084  0.1173
12252SOL    HW138956   8.961   1.499   2.896  3.1672 -0.3919  1.1972
12252SOL    HW238957   8.833   1.518   2.975  0.1818 -0.5589 -3.2300
12253SOL     OW38958   0.071   6.326   4.682  0.0800 -0.0067 -0.2261
12253SOL    HW138959  -0.008   6.286   4.720  0.6652 -0.4254  0.5805
12253SOL    HW238960   0.133   6.328   4.754  0.3795  1.5462 -0.4928
12254SOL     OW38961   0.316   1.709   7.577 -0.1391 -0.6386  0.1503
12254SOL    HW138962   0.273   1.768   7.515 -0.0154 -0.9686 -0.2548
12254SOL    HW238963   0.290   1.621   7.549  0.8308 -0.8468 -0.1318
12255SOL     OW38964   5.001   7.131   7.890  0.2689  0.1574  0.2300
12255SOL    HW138965   4.916   7.105   7.925  1.1607 -1.8636  1.0506
12255SOL    HW238966   5.004   7.092   7.803 -0.5908  2.3260 -0.8239
12256SOL     OW38967   6.323   2.246   8.237 -0.5781 -0.2776  0.2682
12256SOL    HW138968   6.284   2.333   8.244 -2.0870 -1.0236  1.7239
12256SOL    HW238969   6.352   2.240   8.146  1.0491  2.3248  0.4936
12257SOL     OW38970   2.799   7.317   0.128  0.5732  0.1630 -0.2366
12257SOL    HW138971   2.707   7.339   0.116  0.6626  0.2898 -0.7283
12257SOL    HW238972   2.825   7.365   0.207 -0.0826 -0.8463  0.6166
12258SOL     OW38973   1.324   4.819   4.518  0.0784 -0.0587  0.1839
12258SOL    HW138974   1.360   4.749   4.463 -0.3443 -0.7924  0.8191
12258SOL    HW238975   1.256   4.858   4.463 -1.0899 -1.4952  0.5352
12259SOL     OW38976   0.458   7.996   8.449 -0.5040  0.2188 -0.3222
12259SOL    HW138977   0.388   7.932   8.438  0.0577 -0.4725  0.0644
12259SOL    HW238978   0.412   8.079   8.465 -1.2477 -0.4554  1.2600
12260SOL     OW38979   1.859   2.440   7.274 -0.0190  0.2149  0.0316
12260SOL    HW138980   1.935   2.483   7.233 -0.5558  0.2224 -0.9831
12260SOL    HW238981   1.785   2.495   7.250 -0.6766 -1.0479 -0.9849
12261SOL     OW38982   5.897   1.165   8.911  0.1757  0.5111  0.2690
12261SOL    HW138983   5.875   1.074   8.892  0.3205  0.6678 -0.7203
12261SOL    HW238984   5.992   1.165   8.926  0.0369  0.3605  1.2354
12262SOL     OW38985   0.457   4.486   5.436 -0.5182  0.4885 -0.0556
12262SOL    HW138986   0.542   4.523   5.461  0.2707 -0.1281 -1.6496
12262SOL    HW238987   0.479   4.404   5.392 -2.0418 -0.3359  0.6304
12263SOL     OW38988   4.366   9.305   4.927  0.5215  0.1277 -0.6578
12263SOL    HW138989   4.452   9.313   4.969  0.5724  0.9925 -0.9016
12263SOL    HW238990   4.386   9.284   4.836  0.4009 -2.5548 -0.1602
12264SOL     OW38991   0.857   6.222   4.571 -0.4524  0.6185 -0.0771
12264SOL    HW138992   0.879   6.261   4.656 -1.3389  0.6945  0.1193
12264SOL    HW238993   0.919   6.262   4.510  0.0396  0.7328  0.4924
12265SOL     OW38994   4.772   8.573   6.747 -0.1507  0.5931  0.3111
12265SOL    HW138995   4.715   8.516   6.696  0.4860 -0.5913  0.8924
12265SOL    HW238996   4.774   8.656   6.698  0.1248 -0.3694 -1.3677
12266SOL     OW38997   4.722   8.364   4.930 -0.2293  0.1760  0.4778
12266SOL    HW138998   4.759   8.299   4.989 -0.0033  0.7926  1.0333
12266SOL    HW238999   4.631   8.336   4.917  0.4505 -1.4703 -1.0686
12267SOL     OW39000   4.252   6.885   4.979 -0.2439  0.6525 -0.0155
12267SOL    HW139001   4.226   6.969   5.018  0.7648  0.0699  2.0811
12267SOL    HW239002   4.169   6.839   4.966 -0.6224  0.5104  2.4566
12268SOL     OW39003   4.209   1.730   4.633 -0.2479 -0.5358 -0.3992
12268SOL    HW139004   4.141   1.720   4.566 -0.1383 -0.6176 -0.5001
12268SOL    HW239005   4.166   1.775   4.705 -0.5915 -1.1808 -0.1966
12269SOL     OW39006   1.041   6.866   4.872  0.1284 -1.0015  0.3950
12269SOL    HW139007   0.986   6.802   4.916 -0.9887 -0.0084  0.5067
12269SOL    HW239008   1.055   6.829   4.784 -3.6750  0.1975 -0.9127
12270SOL     OW39009   5.233   8.520   4.079  0.8744 -0.0883  0.7724
12270SOL    HW139010   5.226   8.488   4.169 -1.1863  0.0030  0.6878
12270SOL    HW239011   5.251   8.441   4.027  1.1717 -0.2763  1.1505
12271SOL     OW39012   8.363   5.044   6.391  0.4946  0.5760  0.1099
12271SOL    HW139013   8.268   5.050   6.381  0.4266 -0.5277  0.0379
12271SOL    HW239014   8.392   5.136   6.394 -0.5532  0.9242  0.0366
12272SOL     OW39015   3.614   3.512   1.971 -0.2889  0.2973  0.1329
12272SOL    HW139016   3.587   3.603   1.957 -1.2923  0.0641  0.4811
12272SOL    HW239017   3.574   3.488   2.054 -1.9031 -1.1505 -1.0109
12273SOL     OW39018   5.629   7.237   7.400 -0.2205 -0.0855  0.5233
12273SOL    HW139019   5.715   7.278   7.396 -0.2123 -0.1257  0.2997
12273SOL    HW239020   5.625   7.199   7.488 -0.5772  1.1522  1.0534
12274SOL     OW39021   6.834   1.299   3.799  0.2721  0.2396  0.6592
12274SOL    HW139022   6.925   1.291   3.827  0.0722 -1.1803  1.0133
12274SOL    HW239023   6.838   1.349   3.717  1.2552  1.0952  1.2136
12275SOL     OW39024   6.867   3.423   2.486 -0.1536  0.4987 -0.3492
12275SOL    HW139025   6.822   3.507   2.483 -0.5789  0.3719  1.3856
12275SOL    HW239026   6.938   3.436   2.549 -0.3633 -0.4856  0.1143
12276SOL     OW39027   3.398   9.187   0.728 -0.3147 -0.0568  0.3329
12276SOL    HW139028   3.342   9.197   0.805 -0.3724 -2.4737  0.6822
12276SOL    HW239029   3.361   9.112   0.681  1.2464 -0.2498 -0.6631
12277SOL     OW39030   6.212   2.524   2.825  0.2975 -0.0297 -0.7432
12277SOL    HW139031   6.117   2.520   2.813  0.1356 -0.6422  0.5457
12277SOL    HW239032   6.225   2.599   2.883  0.5699 -0.1403 -0.6618
12278SOL     OW39033   0.497   9.005   3.738 -0.6109 -0.0681  0.1186
12278SOL    HW139034   0.442   8.945   3.687 -1.4672  0.7970 -0.0043
12278SOL    HW239035   0.440   9.080   3.757  0.3606  0.6053  0.4661
12279SOL     OW39036   9.069   5.872   0.162  0.5278 -0.1469 -0.3392
12279SOL    HW139037   9.134   5.855   0.094  0.0498 -1.4486 -0.4987
12279SOL    HW239038   8.990   5.896   0.113  0.9723  1.9218 -0.1386
12280SOL     OW39039   8.313   1.356   0.892 -0.1858  0.1401 -0.5382
12280SOL    HW139040   8.318   1.405   0.974 -0.5282  0.2209 -0.5604
12280SOL    HW239041   8.245   1.290   0.908 -0.3201  0.2175 -0.7830
12281SOL     OW39042   8.707   8.163   8.053  0.0990  0.6754  0.2245
12281SOL    HW139043   8.693   8.162   8.148  2.1275  0.0546  0.5568
12281SOL    HW239044   8.778   8.101   8.039 -0.8573 -0.0293 -1.8474
12282SOL     OW39045   2.604   5.187   7.203  0.2340  0.4464  0.5421
12282SOL    HW139046   2.572   5.098   7.189 -0.5636  0.5638  1.5109
12282SOL    HW239047   2.666   5.202   7.131 -0.7997 -0.3155 -0.5485
12283SOL     OW39048   1.072   7.592   7.446 -0.0156 -0.3857 -0.4779
12283SOL    HW139049   1.167   7.594   7.458 -0.1759  0.7293  0.9678
12283SOL    HW239050   1.044   7.683   7.461 -1.3433 -0.7619 -0.5350
12284SOL     OW39051   5.514   7.640   4.417  0.1477  0.4269  0.1489
12284SOL    HW139052   5.448   7.709   4.425  0.7728  1.0496  0.0467
12284SOL    HW239053   5.480   7.582   4.349  0.5298  1.7177 -1.1908
12285SOL     OW39054   4.547   6.695   1.537  0.1348  0.6760  0.1222
12285SOL    HW139055   4.572   6.665   1.625  0.2639  1.3896  0.3325
12285SOL    HW239056   4.491   6.771   1.553 -0.6145  0.2416 -0.3951
12286SOL     OW39057   0.093   4.093   5.641 -0.2066  0.3188 -0.0922
12286SOL    HW139058   0.068   4.056   5.726 -0.2281  0.0831 -0.2002
12286SOL    HW239059   0.069   4.025   5.577  1.5509 -0.3042 -0.1324
12287SOL     OW39060   5.905   9.282   8.033 -0.1903 -0.6415 -0.5902
12287SOL    HW139061   5.885   9.294   7.940 -0.5551  0.3276 -0.4004
12287SOL    HW239062   5.931   9.369   8.063 -0.2111 -0.9161  0.2469
12288SOL     OW39063   4.206   4.413   6.980  0.3849 -0.1911  0.3555
12288SOL    HW139064   4.129   4.470   6.985  0.4484  0.0669 -1.3216
12288SOL    HW239065   4.197   4.355   7.056  0.3292  2.0152  2.1413
12289SOL     OW39066   7.110   9.338   7.186 -0.1993 -0.1483 -0.2973
12289SOL    HW139067   7.089   9.295   7.103 -0.9069  0.1714 -0.2844
12289SOL    HW239068   7.034   9.392   7.206  0.7152  1.2509 -0.3949
12290SOL     OW39069   0.636   8.576   1.411  0.5185  0.4092  0.2602
12290SOL    HW139070   0.561   8.600   1.357  0.6205  0.4619  0.1409
12290SOL    HW239071   0.621   8.485   1.434 -0.3919  0.8478  1.5638
12291SOL     OW39072   2.848   2.836   1.380 -0.8776  0.2107 -0.4759
12291SOL    HW139073   2.785   2.778   1.337 -1.6047  1.1608 -0.7145
12291SOL    HW239074   2.794   2.894   1.434 -0.1872  0.8884 -0.5048
12292SOL     OW39075   8.971   3.700   5.325  0.0587  0.0366  0.0086
12292SOL    HW139076   9.012   3.661   5.248 -2.1036 -0.9273 -0.7519
12292SOL    HW239077   8.965   3.794   5.305  0.1283 -0.1095 -0.7012
12293SOL     OW39078   5.114   0.705   7.254 -0.4739  0.4717 -0.5524
12293SOL    HW139079   5.116   0.610   7.267  2.4091  0.2473 -2.0282
12293SOL    HW239080   5.022   0.724   7.235 -1.1739 -1.9687 -0.0142
12294SOL     OW39081   7.996   6.735   9.547 -0.4453 -0.4650 -0.2526
12294SOL    HW139082   8.000   6.644   9.517 -0.8336 -0.2315 -1.0479
12294SOL    HW239083   7.978   6.785   9.467 -1.3370  0.1934  0.3431
12295SOL     OW39084   0.673   7.802   3.115 -0.0559  0.6828  0.5393
12295SOL    HW139085   0.706   7.852   3.041 -2.3296 -0.9910 -1.7407
12295SOL    HW239086   0.728   7.723   3.118 -0.8029  0.1169 -0.2665
12296SOL     OW39087   0.348   6.109   3.179  0.0231 -0.0512  0.2451
12296SOL    HW139088   0.401   6.179   3.143  0.0004  0.0154  0.3399
12296SOL    HW239089   0.391   6.087   3.262 -0.8460  0.9134  0.9755
12297SOL     OW39090   4.755   5.621   5.860 -0.2070 -0.3316  0.0814
12297SOL    HW139091   4.669   5.581   5.869 -0.4965 -0.0123 -1.1867
12297SOL    HW239092   4.816   5.553   5.889 -0.8161 -0.9604 -0.0898
12298SOL     OW39093   2.641   5.313   3.033  0.3568  0.2835  0.4095
12298SOL    HW139094   2.657   5.384   2.970  1.2411 -0.2835 -0.0349
12298SOL    HW239095   2.568   5.344   3.086  0.5594  1.4241  0.0642
12299SOL     OW39096   5.837   8.841   1.854  0.1843 -0.0713 -0.2839
12299SOL    HW139097   5.794   8.796   1.782  2.1356 -0.2216 -1.4127
12299SOL    HW239098   5.832   8.780   1.928 -1.0270 -0.2844 -0.5267
12300SOL     OW39099   7.477   4.233   0.093 -0.1028  0.3362  0.2537
12300SOL    HW139100   7.555   4.279   0.064 -0.4425  0.7025 -0.0937
12300SOL    HW239101   7.415   4.242   0.021 -0.9764  1.2995  1.0819
12301SOL     OW39102   6.645   3.549   3.291 -0.5675 -0.5430 -0.0647
12301SOL    HW139103   6.634   3.530   3.384 -1.6843 -0.2041 -0.1077
12301SOL    HW239104   6.643   3.644   3.285 -0.4383 -0.5605 -0.4262
12302SOL     OW39105   4.483   2.209   6.168 -0.7364 -0.8690 -0.5505
12302SOL    HW139106   4.535   2.168   6.237  0.6606  1.7054  0.0764
12302SOL    HW239107   4.528   2.292   6.150 -1.7204 -0.8780 -3.7423
12303SOL     OW39108   0.397   3.667   3.269  0.6784  0.0679 -0.2422
12303SOL    HW139109   0.375   3.578   3.295 -0.6415  0.3688 -0.2477
12303SOL    HW239110   0.384   3.667   3.174 -1.1171  0.7041 -0.0409
12304SOL     OW39111   1.403   7.237   7.243 -0.4331  0.0595 -0.1518
12304SOL    HW139112   1.488   7.195   7.250 -0.2961  0.2542 -0.6330
12304SOL    HW239113   1.422   7.326   7.213 -0.8235  0.0178 -0.5425
12305SOL     OW39114   2.216   2.912   8.109 -0.0573 -0.0087  0.2167
12305SOL    HW139115   2.129   2.897   8.147 -0.4724  0.1532 -0.6408
12305SOL    HW239116   2.252   2.985   8.159  0.3715 -1.2692  1.8220
12306SOL     OW39117   5.850   2.238   2.849  0.0820 -0.3285 -0.1858
12306SOL    HW139118   5.795   2.160   2.842  0.4550 -0.9016  2.1709
12306SOL    HW239119   5.789   2.312   2.844 -0.8413 -0.9227  1.4855
12307SOL     OW39120   6.631   3.535   6.340  0.1364 -0.6488 -0.2030
12307SOL    HW139121   6.538   3.535   6.363  0.2233  0.3619  0.1833
12307SOL    HW239122   6.671   3.477   6.405 -0.0509 -0.1102  0.4042
12308SOL     OW39123   3.107   2.362   8.123 -0.3870  0.2587  0.3300
12308SOL    HW139124   3.172   2.314   8.174 -0.7695 -0.4332  0.1785
12308SOL    HW239125   3.088   2.306   8.048  0.2528  1.3114 -0.6588
12309SOL     OW39126   0.338   0.643   1.431  0.1341 -0.1940  0.2720
12309SOL    HW139127   0.299   0.702   1.496  0.7847  0.2534  0.2711
12309SOL    HW239128   0.356   0.563   1.480  1.2953  0.3922  0.8631
12310SOL     OW39129   6.893   6.092   2.097 -0.0173 -0.4337 -0.3112
12310SOL    HW139130   6.862   6.004   2.121 -0.8888 -0.2023 -0.5538
12310SOL    HW239131   6.918   6.131   2.180  0.7628 -1.0459 -0.2419
12311SOL     OW39132   3.294   4.233   3.899  0.4969 -0.1281 -0.5646
12311SOL    HW139133   3.371   4.273   3.938  1.6815  0.2722 -3.1228
12311SOL    HW239134   3.221   4.284   3.932  1.4744  0.6282  0.5042
12312SOL     OW39135   4.075   7.524   0.409  0.1328 -0.0878  0.8206
12312SOL    HW139136   4.048   7.435   0.387 -1.3088  0.4831  0.1760
12312SOL    HW239137   3.994   7.574   0.410  1.1384  1.7343 -1.2729
12313SOL     OW39138   2.716   2.694   4.228 -0.2410 -0.4830 -0.2873
12313SOL    HW139139   2.778   2.627   4.257  0.0185 -0.2229 -0.2417
12313SOL    HW239140   2.644   2.690   4.291  0.7265  0.6810  0.9288
12314SOL     OW39141   2.614   8.435   4.920  0.3166 -0.0403 -0.6621
12314SOL    HW139142   2.678   8.503   4.941 -0.3743  0.7941 -1.2100
12314SOL    HW239143   2.567   8.469   4.844 -1.4837 -0.1437  0.3478
12315SOL     OW39144   1.211   4.178   8.755  0.1788  0.3133 -0.2402
12315SOL    HW139145   1.125   4.136   8.753  0.0439  0.5565  0.3022
12315SOL    HW239146   1.250   4.149   8.838  0.2301  0.9740 -0.0301
12316SOL     OW39147   1.699   2.630   0.624  0.7197  0.1161  0.4620
12316SOL    HW139148   1.753   2.698   0.585  1.6374  0.3632  2.0491
12316SOL    HW239149   1.621   2.626   0.569  2.1725 -0.0101 -1.7091
12317SOL     OW39150   1.470   1.089   2.209  0.0154  0.5407 -0.5847
12317SOL    HW139151   1.455   1.070   2.302 -0.4452  1.0364 -0.5476
12317SOL    HW239152   1.430   1.175   2.196 -2.4825 -0.6931 -1.8748
12318SOL     OW39153   9.073   2.195   3.405 -0.2077 -0.5222 -0.7200
12318SOL    HW139154   9.048   2.288   3.403 -0.3153 -0.5316 -0.0763
12318SOL    HW239155   9.034   2.158   3.326 -1.4031 -0.3221 -0.2530
12319SOL     OW39156   6.028   2.027   4.829  0.0760 -0.2083 -0.4558
12319SOL    HW139157   6.085   2.029   4.751  0.7544 -1.5208 -0.0289
12319SOL    HW239158   6.024   2.118   4.857 -0.7881  0.4300 -2.4389
12320SOL     OW39159   9.066   1.076   6.665  0.3915 -0.0246 -0.2954
12320SOL    HW139160   9.111   1.032   6.592 -0.0476 -1.4614  0.2652
12320SOL    HW239161   8.973   1.059   6.650  0.2154  0.6972 -0.0420
12321SOL     OW39162   1.256   7.873   0.487 -0.0064  0.0637  0.4872
12321SOL    HW139163   1.302   7.933   0.547  1.6135  1.3274 -1.8476
12321SOL    HW239164   1.326   7.822   0.447 -0.9715 -0.3072 -0.7764
12322SOL     OW39165   2.049   8.995   2.095  0.3947 -0.0566 -0.0597
12322SOL    HW139166   2.000   9.003   2.013  0.1626 -1.0452 -0.0243
12322SOL    HW239167   2.138   8.973   2.069  0.8254  1.6392 -0.1194
12323SOL     OW39168   9.044   7.817   1.688 -0.6270 -0.5888 -0.3968
12323SOL    HW139169   8.981   7.888   1.691 -1.1917 -1.1064  1.4362
12323SOL    HW239170   9.020   7.760   1.762  1.5405 -1.1540 -0.0433
12324SOL     OW39171   1.414   5.842   3.475 -0.0784 -0.5686 -0.9791
12324SOL    HW139172   1.431   5.931   3.508  2.5448 -1.1547 -0.4827
12324SOL    HW239173   1.347   5.807   3.534  0.3078  0.4047  0.0755
12325SOL     OW39174   1.673   1.216   9.341  0.6805 -0.1094 -1.0267
12325SOL    HW139175   1.676   1.286   9.275 -0.0061 -1.5548 -2.6953
12325SOL    HW239176   1.665   1.261   9.424  0.3523  1.7902 -2.0345
12326SOL     OW39177   6.389   1.121   6.153 -0.1691  0.7347  0.5156
12326SOL    HW139178   6.454   1.175   6.108 -0.2299  0.8945  0.6192
12326SOL    HW239179   6.310   1.129   6.100  0.5598 -1.5058 -1.0902
12327SOL     OW39180   3.900   1.404   3.805 -0.2934  0.1229 -0.2452
12327SOL    HW139181   3.903   1.491   3.767 -2.0857  0.0421 -0.6681
12327SOL    HW239182   3.807   1.380   3.804  0.2475 -2.2151 -1.1138
12328SOL     OW39183   6.466   1.522   0.999  0.3750 -0.3178  0.5089
12328SOL    HW139184   6.505   1.467   0.931  0.4011 -1.4357  1.3900
12328SOL    HW239185   6.416   1.588   0.952  0.0218 -1.3393 -0.5844
12329SOL     OW39186   8.783   6.222   0.130  0.3638 -0.4231  0.2632
12329SOL    HW139187   8.846   6.205   0.061  0.3973  0.3508  0.0971
12329SOL    HW239188   8.744   6.136   0.149  2.5343 -1.2378  1.4297
12330SOL     OW39189   2.211   6.116   5.593  0.3219  0.1728 -0.5732
12330SOL    HW139190   2.244   6.171   5.664 -1.3965  0.0528  0.3695
12330SOL    HW239191   2.290   6.083   5.550  1.3996  1.2060  0.5231
12331SOL     OW39192   3.708   3.687   4.773 -0.0449  0.2375  0.0365
12331SOL    HW139193   3.798   3.691   4.806 -0.3966  0.0950  1.0811
12331SOL    HW239194   3.715   3.697   4.679  1.1276 -0.4493  0.0380
12332SOL     OW39195   3.489   1.526   6.092 -0.4360  0.3329  0.1462
12332SOL    HW139196   3.425   1.531   6.022 -1.3247  4.0140  1.0233
12332SOL    HW239197   3.573   1.516   6.047 -1.1128  1.0240 -1.3348
12333SOL     OW39198   6.986   6.633   4.980 -0.5854  0.3147 -0.7837
12333SOL    HW139199   7.069   6.674   4.955  0.3279 -0.3282  0.9999
12333SOL    HW239200   6.927   6.707   4.994 -0.2265  0.8012 -1.7653
12334SOL     OW39201   3.524   0.405   5.630 -0.8434 -0.2386  0.3382
12334SOL    HW139202   3.618   0.424   5.636 -0.8146 -0.7732  2.3965
12334SOL    HW239203   3.507   0.397   5.536  0.8179  1.5193 -0.1683
12335SOL     OW39204   9.430   3.000   8.200  0.4123 -0.5721 -0.0141
12335SOL    HW139205   9.359   3.026   8.259 -0.3079 -0.6112 -0.8408
12335SOL    HW239206   9.456   2.913   8.231 -0.5889 -0.9938 -0.2961
12336SOL     OW39207   7.027   8.559   3.919  0.2123  0.0484 -0.2804
12336SOL    HW139208   7.047   8.614   3.844  0.1111  0.4853  0.0097
12336SOL    HW239209   6.936   8.534   3.908  0.3945 -0.4727 -0.6679
12337SOL     OW39210   5.532   4.177   4.598 -0.2849  0.0780 -0.1262
12337SOL    HW139211   5.526   4.126   4.679 -0.0223  0.8164  0.3688
12337SOL    HW239212   5.448   4.162   4.554 -0.3346 -0.5185  0.1606
12338SOL     OW39213   9.235   3.269   5.695  0.1191  0.2206 -0.2089
12338SOL    HW139214   9.187   3.187   5.698  0.3965  0.0339 -0.7697
12338SOL    HW239215   9.198   3.316   5.621  0.8710  0.0280 -0.7140
12339SOL     OW39216   9.314   7.508   4.951 -0.0320 -0.0321  0.2338
12339SOL    HW139217   9.322   7.463   4.867 -1.1731  0.2447 -0.0431
12339SOL    HW239218   9.313   7.437   5.016  0.9550 -0.2387  0.0359
12340SOL     OW39219   4.739   7.876   7.609  0.2807 -0.9093  0.0901
12340SOL    HW139220   4.644   7.892   7.605  0.4114  0.0298  0.4449
12340SOL    HW239221   4.747   7.780   7.610 -0.6924 -1.0046  0.5682
12341SOL     OW39222   2.478   6.240   5.200 -0.0882 -0.1192 -0.0965
12341SOL    HW139223   2.477   6.309   5.267 -0.5050  0.8926 -1.1050
12341SOL    HW239224   2.570   6.215   5.193 -0.1262 -0.7504  1.3449
12342SOL     OW39225   2.369   4.041   6.683  0.2859  0.3670  0.0304
12342SOL    HW139226   2.334   4.129   6.673 -1.1841 -0.1643  0.2633
12342SOL    HW239227   2.442   4.051   6.744  0.1442  1.4244  0.0451
12343SOL     OW39228   6.816   6.557   0.641  0.2321 -0.1650  0.0010
12343SOL    HW139229   6.781   6.626   0.699  0.4302 -0.6163  0.6727
12343SOL    HW239230   6.812   6.595   0.554 -2.7627 -0.4743 -0.1107
12344SOL     OW39231   5.121   2.565   3.552 -0.1413  0.3659  0.5015
12344SOL    HW139232   5.128   2.484   3.502  1.5514 -1.1660  3.0252
12344SOL    HW239233   5.204   2.610   3.538 -0.5912  1.0879  0.0899
12345SOL     OW39234   4.151   5.154   6.777  0.4165  0.3812 -0.1923
12345SOL    HW139235   4.193   5.199   6.850 -0.5843  1.2429 -0.1348
12345SOL    HW239236   4.140   5.221   6.710 -0.7237  0.1391 -0.2642
12346SOL     OW39237   0.999   4.943   4.142  0.0391  0.0633 -0.1591
12346SOL    HW139238   0.922   4.998   4.127 -0.5283 -0.6917 -0.0853
12346SOL    HW239239   0.963   4.858   4.166  0.8489 -1.0141 -2.5138
12347SOL     OW39240   1.096   9.287   9.560  0.0611 -0.1735  0.4429
12347SOL    HW139241   1.019   9.333   9.594  0.0092  0.5205 -0.5833
12347SOL    HW239242   1.157   9.357   9.534  0.4448 -0.6923 -0.0908
12348SOL     OW39243   3.310   8.978   0.590 -0.3631  0.6124 -0.0495
12348SOL    HW139244   3.242   8.989   0.524  0.2059 -0.5611 -0.8772
12348SOL    HW239245   3.299   8.888   0.622  1.8635 -0.2964 -1.5379
12349SOL     OW39246   1.905   0.527   9.057 -0.4473 -0.1226 -0.2072
12349SOL    HW139247   1.917   0.592   9.127 -0.1679 -0.2963 -0.0927
12349SOL    HW239248   1.828   0.557   9.010  0.2044  0.8097 -0.7216
12350SOL     OW39249   6.943   5.635   8.319  0.0640 -0.2273  0.1290
12350SOL    HW139250   7.012   5.583   8.361  0.7460 -1.0457 -1.8803
12350SOL    HW239251   6.878   5.570   8.292 -0.4763  0.3085  0.1254
12351SOL     OW39252   0.291   2.204   9.473  0.0847 -0.1114 -0.2797
12351SOL    HW139253   0.314   2.185   9.565  2.4951  0.7612 -0.6161
12351SOL    HW239254   0.369   2.179   9.424  0.1108  2.4311 -1.7051
12352SOL     OW39255   9.491   0.968   2.066  0.1536  0.4079  0.5721
12352SOL    HW139256   9.540   1.024   2.006 -1.2056  0.6622 -0.3407
12352SOL    HW239257   9.532   0.983   2.152  1.8477  0.3636 -0.1948
12353SOL     OW39258   4.661   1.178   6.135  0.3841 -0.2289 -0.3361
12353SOL    HW139259   4.662   1.194   6.041 -0.4430 -0.8982 -0.4682
12353SOL    HW239260   4.654   1.083   6.144  2.6439 -0.3871  0.4273
12354SOL     OW39261   6.392   1.713   2.171  0.3410 -0.4722  0.0394
12354SOL    HW139262   6.465   1.651   2.163 -0.0609 -1.0924  0.8938
12354SOL    HW239263   6.383   1.727   2.266 -1.6993 -1.7439  0.1033
12355SOL     OW39264   8.983   2.898   8.888  0.5075 -0.1608  0.0604
12355SOL    HW139265   9.062   2.927   8.841  1.0479 -2.3915 -0.5424
12355SOL    HW239266   9.017   2.854   8.966 -0.3064  1.3740  1.3442
12356SOL     OW39267   9.491   7.678   4.714 -0.1447  0.5567 -0.0913
12356SOL    HW139268   9.553   7.616   4.674 -0.1037  1.1939 -1.0481
12356SOL    HW239269   9.406   7.633   4.708 -0.3808  1.1894 -2.2177
12357SOL     OW39270   7.919   0.620   7.998 -0.0857 -0.2626 -0.2606
12357SOL    HW139271   7.866   0.586   7.925 -0.1468  0.7254 -0.6937
12357SOL    HW239272   7.855   0.644   8.065 -0.0661 -0.6143 -0.1105
12358SOL     OW39273   0.985   0.584   1.124  0.0636  0.6180  0.2070
12358SOL    HW139274   0.921   0.525   1.163 -0.4172 -0.0142 -1.4404
12358SOL    HW239275   0.935   0.664   1.105 -0.0788  0.4018 -0.3756
12359SOL     OW39276   4.282   5.864   4.424  0.0911  0.2227 -0.6660
12359SOL    HW139277   4.202   5.814   4.442  0.3796  0.5457  2.0026
12359SOL    HW239278   4.250   5.950   4.395 -0.5769  0.2534  0.0901
12360SOL     OW39279   2.629   2.972   4.299  0.4051  0.3280  0.2458
12360SOL    HW139280   2.637   2.965   4.394  2.3843 -1.8859 -0.0017
12360SOL    HW239281   2.654   3.063   4.280 -1.8915  1.4196  1.8902
12361SOL     OW39282   0.056   3.550   7.322  0.3361  0.2848 -0.1029
12361SOL    HW139283   0.051   3.516   7.412 -0.0590  0.7593  0.0620
12361SOL    HW239284   0.040   3.644   7.331 -0.3103  0.2507 -0.7264
12362SOL     OW39285   0.353   5.140   5.409  0.2069  0.7460 -0.0291
12362SOL    HW139286   0.404   5.078   5.462 -0.2554  1.6238  1.5132
12362SOL    HW239287   0.418   5.197   5.369  0.7257 -1.3004 -2.3436
12363SOL     OW39288   1.436   0.148   4.362  0.4916  0.6668  0.2938
12363SOL    HW139289   1.432   0.213   4.291  1.5266  0.5796  0.1353
12363SOL    HW239290   1.346   0.139   4.391  0.3180  2.1552  0.2955
12364SOL     OW39291   4.369   0.124   0.074 -0.0105 -0.5612 -0.3443
12364SOL    HW139292   4.431   0.102   0.143 -0.2425 -1.3365 -0.3642
12364SOL    HW239293   4.393   0.067   0.001 -0.6459 -0.7670 -0.4005
12365SOL     OW39294   2.794   6.534   3.452 -0.4958  0.0653 -0.1288
12365SOL    HW139295   2.845   6.497   3.523  0.7429 -0.3017 -1.1713
12365SOL    HW239296   2.707   6.549   3.490  0.6084  1.6911  2.0020
12366SOL     OW39297   1.722   6.293   2.115 -0.2333 -0.4954 -0.1072
12366SOL    HW139298   1.744   6.253   2.031 -0.0162 -1.1236  0.2379
12366SOL    HW239299   1.632   6.262   2.133  0.3605 -1.8707  0.7305
12367SOL     OW39300   4.527   6.945   6.831  0.2885 -0.2040 -0.2132
12367SOL    HW139301   4.444   6.948   6.879 -0.0250 -1.1240 -0.6709
12367SOL    HW239302   4.521   7.018   6.770 -0.1110 -0.1588 -0.1273
12368SOL     OW39303   6.175   3.788   7.119 -0.3537 -0.2212 -0.2373
12368SOL    HW139304   6.183   3.880   7.096 -1.6838  0.1825  0.8107
12368SOL    HW239305   6.104   3.755   7.064  0.8353 -0.9486 -1.4230
12369SOL     OW39306   8.943   3.098   4.253  0.5635  0.2144 -0.2071
12369SOL    HW139307   8.968   3.051   4.174  2.1826  0.0126  0.3884
12369SOL    HW239308   8.943   3.031   4.322 -0.4859  0.4546  0.0443
12370SOL     OW39309   7.050   6.170   6.674  0.0928 -0.1813  0.7988
12370SOL    HW139310   7.047   6.264   6.654  0.3818 -0.1724  0.7982
12370SOL    HW239311   6.968   6.153   6.721 -0.2165 -0.0376  0.3177
12371SOL     OW39312   9.257   5.437   1.275  0.0968 -1.1804 -0.1327
12371SOL    HW139313   9.222   5.506   1.331 -0.7666 -2.7911  1.3923
12371SOL    HW239314   9.204   5.360   1.295  0.5009 -2.1364 -2.3564
12372SOL     OW39315   7.209   6.019   2.380 -0.2798  0.4205 -0.1462
12372SOL    HW139316   7.233   6.053   2.294 -0.2422  0.6417 -0.0499
12372SOL    HW239317   7.244   5.930   2.382  2.1200  1.3015  0.6388
12373SOL     OW39318   1.486   5.855   4.479 -0.0120 -0.8212  0.0198
12373SOL    HW139319   1.484   5.760   4.491 -1.6413 -0.8678 -0.4625
12373SOL    HW239320   1.564   5.870   4.426 -0.4208 -2.0307 -0.9684
12374SOL     OW39321   1.714   6.704   1.723 -0.0893 -0.7221 -0.3780
12374SOL    HW139322   1.686   6.761   1.795  1.9297  1.0958 -0.9100
12374SOL    HW239323   1.693   6.754   1.644 -0.6921 -1.9224 -0.9896
12375SOL     OW39324   2.006   3.877   3.000 -0.6297  0.4400 -0.3557
12375SOL    HW139325   2.045   3.790   2.998 -0.6827  0.3535  1.2909
12375SOL    HW239326   2.044   3.922   2.924 -0.4102 -0.9164 -1.0783
12376SOL     OW39327   9.494   0.888   7.088 -0.2697 -0.1078  0.0587
12376SOL    HW139328   9.589   0.899   7.089 -0.3241  0.6638  2.4691
12376SOL    HW239329   9.481   0.796   7.067  0.8795  0.2136 -2.4166
12377SOL     OW39330   4.876   9.528   7.189  0.6440  0.2068  0.4538
12377SOL    HW139331   4.913   9.440   7.194 -0.4156 -0.5452 -2.7808
12377SOL    HW239332   4.786   9.518   7.222  0.0939 -0.3016 -1.0884
12378SOL     OW39333   4.839   6.148   0.152  0.3836 -0.1343  0.1448
12378SOL    HW139334   4.794   6.226   0.122  0.6305 -0.2183 -0.4550
12378SOL    HW239335   4.926   6.153   0.112  0.5087 -0.5602  0.3496
12379SOL     OW39336   1.791   1.165   6.024  0.0383 -1.0180  0.1089
12379SOL    HW139337   1.701   1.135   6.019  0.2542 -2.2578  2.3061
12379SOL    HW239338   1.809   1.172   6.118  0.9547  3.3637 -0.1665
12380SOL     OW39339   6.861   8.086   2.178 -0.0378  0.6537  0.3875
12380SOL    HW139340   6.914   8.156   2.216 -0.2989  0.4421  1.1741
12380SOL    HW239341   6.843   8.115   2.089 -0.9273  2.0514  0.9908
12381SOL     OW39342   6.086   4.976   0.789 -0.2094 -0.6155 -0.3081
12381SOL    HW139343   6.082   5.045   0.722  0.9598  2.3469  2.4347
12381SOL    HW239344   6.017   5.000   0.851  0.0895 -2.0849  0.6195
12382SOL     OW39345   4.587   6.180   8.289 -0.7679  0.2878  0.9510
12382SOL    HW139346   4.667   6.159   8.337 -1.5686 -1.8937  1.4395
12382SOL    HW239347   4.611   6.256   8.235  1.0471  0.8605  2.4706
12383SOL     OW39348   0.203   8.800   6.510  0.0907 -0.0061  0.4469
12383SOL    HW139349   0.143   8.787   6.436 -0.5707  2.2917  0.5239
12383SOL    HW239350   0.156   8.765   6.585  0.5401 -1.8470 -0.0615
12384SOL     OW39351   4.555   6.118   6.303  0.0744 -0.5922 -0.0165
12384SOL    HW139352   4.639   6.111   6.349  1.2369  2.1130 -1.4870
12384SOL    HW239353   4.520   6.203   6.329 -2.2916 -1.6384  0.5415
12385SOL     OW39354   5.069   1.093   8.036  0.0687  0.1596  0.0199
12385SOL    HW139355   5.105   1.020   7.986 -1.7670 -0.5776 -0.3176
12385SOL    HW239356   4.987   1.059   8.072 -2.2183  2.7437 -2.2427
12386SOL     OW39357   8.983   1.190   8.302 -0.7543  0.0093  1.0184
12386SOL    HW139358   9.061   1.135   8.291 -0.8863  0.0014 -0.0181
12386SOL    HW239359   8.954   1.208   8.212 -3.4581 -2.1396  1.3202
12387SOL     OW39360   5.418   6.055   1.321  0.1812  0.5808  0.1077
12387SOL    HW139361   5.324   6.073   1.324 -0.4111 -1.9581 -0.5539
12387SOL    HW239362   5.447   6.096   1.239 -0.8180 -0.3550 -0.7574
12388SOL     OW39363   7.312   3.655   3.726 -0.1755  0.1046 -0.0056
12388SOL    HW139364   7.264   3.633   3.646 -0.0330  0.9133 -0.3195
12388SOL    HW239365   7.270   3.734   3.758  0.4191  0.3605  0.1586
12389SOL     OW39366   5.857   8.797   7.803 -0.6529 -0.2453  0.2855
12389SOL    HW139367   5.887   8.739   7.733  0.3565 -0.2538  0.7062
12389SOL    HW239368   5.762   8.801   7.792 -0.5543 -0.5998 -0.8060
12390SOL     OW39369   8.358   4.673   1.785 -0.2731 -0.4996 -0.2696
12390SOL    HW139370   8.370   4.651   1.692  1.9830  1.7637 -0.6380
12390SOL    HW239371   8.288   4.738   1.786 -1.8927 -2.1431 -0.0194
12391SOL     OW39372   1.824   9.147   8.699 -0.1650 -0.5139  0.3685
12391SOL    HW139373   1.774   9.082   8.749 -0.0558 -0.5820  0.3889
12391SOL    HW239374   1.805   9.126   8.608 -1.4711  0.4682  0.3843
12392SOL     OW39375   7.398   7.111   0.586  0.3173 -0.6795 -0.0474
12392SOL    HW139376   7.486   7.083   0.611  0.1579 -1.0020  0.1535
12392SOL    HW239377   7.397   7.105   0.490  0.3350 -1.2157 -0.0166
12393SOL     OW39378   0.971   3.157   1.291  0.5934  0.3991  0.3403
12393SOL    HW139379   0.971   3.157   1.195  1.4037  0.8014  0.3342
12393SOL    HW239380   0.881   3.134   1.314  0.5794 -0.4752 -0.5080
12394SOL     OW39381   8.743   7.114   2.349 -0.0729  0.1120  0.4097
12394SOL    HW139382   8.786   7.171   2.285  1.1084 -1.8460 -0.6610
12394SOL    HW239383   8.740   7.166   2.429 -0.2110  2.1029 -0.8104
12395SOL     OW39384   1.230   9.194   5.507 -0.3794  0.1194  0.2092
12395SOL    HW139385   1.201   9.199   5.598  1.8333 -0.6127  1.0218
12395SOL    HW239386   1.303   9.255   5.501  0.8931 -1.3839 -0.4623
12396SOL     OW39387   2.653   3.489   6.508  0.0215  0.5385  0.5363
12396SOL    HW139388   2.583   3.554   6.499  0.1722  0.4129 -2.4688
12396SOL    HW239389   2.733   3.540   6.518 -0.1936  0.7120  1.5201
12397SOL     OW39390   2.423   2.859   8.377 -0.4508  0.1590  0.5201
12397SOL    HW139391   2.357   2.789   8.378  1.0823 -1.5094 -2.0931
12397SOL    HW239392   2.389   2.922   8.313  0.7636 -1.1023 -1.4419
12398SOL     OW39393   4.283   1.123   0.921  0.1284 -0.3841 -0.1445
12398SOL    HW139394   4.297   1.214   0.894  1.9185 -0.5433  0.1293
12398SOL    HW239395   4.198   1.100   0.884  0.3544  0.9026 -1.5626
12399SOL     OW39396   2.486   3.439   6.198 -0.5875  0.0488  0.7085
12399SOL    HW139397   2.494   3.434   6.103 -1.6106 -1.1698  0.6685
12399SOL    HW239398   2.530   3.361   6.230 -1.5821 -0.3440  1.1437
12400SOL     OW39399   4.834   3.824   6.059  0.1685 -0.1960  0.2073
12400SOL    HW139400   4.795   3.835   5.972 -1.7116  0.3890  1.0806
12400SOL    HW239401   4.893   3.900   6.068 -1.9439  1.5023  0.5854
12401SOL     OW39402   9.325   5.098   0.572  0.6516 -0.0509 -0.2568
12401SOL    HW139403   9.326   5.193   0.582  0.9560 -0.2798  3.1800
12401SOL    HW239404   9.245   5.070   0.616 -0.1398 -1.3829 -2.3783
12402SOL     OW39405   1.696   1.776   5.386  0.0275  0.0459  0.3755
12402SOL    HW139406   1.765   1.786   5.452  1.2322  1.2016 -0.9997
12402SOL    HW239407   1.653   1.861   5.384  0.9910  0.5535 -1.3236
12403SOL     OW39408   2.933   1.115   6.617 -0.0778 -0.2513  0.0069
12403SOL    HW139409   2.846   1.096   6.582 -0.7830  0.6867  1.1871
12403SOL    HW239410   2.983   1.036   6.598 -0.2673  0.2552 -3.3550
12404SOL     OW39411   7.776   3.050   2.086 -0.5642 -0.0353  0.2502
12404SOL    HW139412   7.871   3.043   2.092 -0.5244 -0.8849 -1.0606
12404SOL    HW239413   7.757   3.043   1.993 -1.8750  0.7376  0.4378
12405SOL     OW39414   5.424   0.296   4.970 -0.3026 -0.3226  0.3340
12405SOL    HW139415   5.442   0.384   5.004  1.8334 -0.9049  0.8706
12405SOL    HW239416   5.337   0.275   5.003 -0.0795  0.8725  1.8014
12406SOL     OW39417   7.454   1.920   3.457 -0.1250 -0.2534  0.0843
12406SOL    HW139418   7.531   1.872   3.425 -0.5727 -0.1740 -1.1583
12406SOL    HW239419   7.389   1.911   3.388 -1.6609 -1.2434  1.5749
12407SOL     OW39420   6.490   4.336   4.907 -0.1825  0.0091  0.3051
12407SOL    HW139421   6.467   4.247   4.882  0.1103  0.7446 -2.9659
12407SOL    HW239422   6.586   4.336   4.906 -0.1837  0.3750  0.2308
12408SOL     OW39423   4.755   6.462   1.695 -0.1413  0.2022  0.3058
12408SOL    HW139424   4.774   6.501   1.780  2.0878 -2.4520  1.1913
12408SOL    HW239425   4.699   6.388   1.714  0.6043 -0.5900 -0.4608
12409SOL     OW39426   5.553   2.688   8.047 -0.0511  0.0732 -0.3256
12409SOL    HW139427   5.593   2.765   8.006  0.6052  0.6459  1.2967
12409SOL    HW239428   5.477   2.668   7.993 -1.0521  2.7291 -0.0297
12410SOL     OW39429   0.510   6.213   4.325  0.0176  0.4199  0.4336
12410SOL    HW139430   0.553   6.186   4.406 -1.4781  0.8737  1.4433
12410SOL    HW239431   0.419   6.230   4.351 -0.9768 -1.1262 -1.6865
12411SOL     OW39432   6.633   9.482   4.370  0.4255  0.2449  0.0789
12411SOL    HW139433   6.618   9.512   4.460 -1.9287  2.7813 -1.0086
12411SOL    HW239434   6.572   9.409   4.359  2.3911 -1.6779  1.1359
12412SOL     OW39435   4.668   0.013   1.049 -0.4469  0.1687 -0.3392
12412SOL    HW139436   4.741   0.020   0.987 -0.4673  0.9743 -0.2934
12412SOL    HW239437   4.598   0.066   1.009 -1.4669 -1.5869 -0.9931
12413SOL     OW39438   2.301   0.642   8.638  0.1076 -0.2153  0.0896
12413SOL    HW139439   2.368   0.653   8.705  0.0268  1.4589 -0.0504
12413SOL    HW239440   2.280   0.731   8.611  0.4501 -0.8259 -2.4928
12414SOL     OW39441   8.031   8.345   4.273 -0.5901  0.0977  0.3668
12414SOL    HW139442   8.057   8.276   4.213  1.6239  1.2782 -0.1867
12414SOL    HW239443   7.996   8.414   4.217 -1.9675 -0.1985  0.8277
12415SOL     OW39444   3.686   3.057   5.997  0.4639  0.3851  0.0689
12415SOL    HW139445   3.726   2.975   5.969  0.0268  0.3090 -0.3487
12415SOL    HW239446   3.730   3.079   6.079 -0.6165 -1.1544  1.1242
12416SOL     OW39447   5.282   7.772   6.846 -0.0825  0.0539  0.3534
12416SOL    HW139448   5.319   7.843   6.899 -0.5557  1.3692 -0.9880
12416SOL    HW239449   5.352   7.751   6.783 -0.7110  0.9167 -0.6760
12417SOL     OW39450   5.453   6.106   2.586 -0.3977  0.1045 -0.2229
12417SOL    HW139451   5.533   6.156   2.569 -0.8754  0.9245 -0.0880
12417SOL    HW239452   5.440   6.054   2.507  0.9369 -0.9714  0.2231
12418SOL     OW39453   5.588   1.697   9.374  0.2008  0.6701  0.1084
12418SOL    HW139454   5.590   1.793   9.375 -0.0691  0.7109 -0.9824
12418SOL    HW239455   5.627   1.674   9.289 -1.2742 -0.1193 -0.3819
12419SOL     OW39456   3.740   2.907   1.194  0.7002  0.1225 -0.0794
12419SOL    HW139457   3.725   2.959   1.273 -1.3874  0.5664 -0.7030
12419SOL    HW239458   3.689   2.827   1.208 -0.1338  0.4435 -1.1761
12420SOL     OW39459   1.342   9.223   7.829 -0.1958 -0.1862 -0.5350
12420SOL    HW139460   1.366   9.177   7.910  4.9416  1.0762 -1.0079
12420SOL    HW239461   1.262   9.270   7.851 -0.2996 -1.7100  3.0222
12421SOL     OW39462   8.878   0.510   5.607  0.6545  0.3369  0.3086
12421SOL    HW139463   8.870   0.415   5.614  1.1373  0.1669 -1.1292
12421SOL    HW239464   8.908   0.525   5.517  2.4266  1.7291  1.0769
12422SOL     OW39465   1.109   5.636   6.658 -0.6182 -0.6242 -0.8010
12422SOL    HW139466   1.182   5.697   6.661 -0.5309 -0.7504  1.4448
12422SOL    HW239467   1.135   5.570   6.594  0.3181  0.4149 -1.5208
12423SOL     OW39468   4.890   7.583   6.931  0.2956 -0.1968 -0.0090
12423SOL    HW139469   4.799   7.556   6.941  0.5447 -0.4894  1.7678
12423SOL    HW239470   4.912   7.561   6.841 -1.5402  0.3733 -0.6399
12424SOL     OW39471   2.882   6.144   6.985 -0.2847  0.1914  0.1017
12424SOL    HW139472   2.960   6.089   6.985 -0.4262 -0.0125  0.6209
12424SOL    HW239473   2.855   6.149   7.077 -0.9545  0.1604 -0.0852
12425SOL     OW39474   3.731   8.497   2.459 -0.1627 -0.1004 -0.4133
12425SOL    HW139475   3.760   8.493   2.550 -0.9645  0.4752 -0.1208
12425SOL    HW239476   3.749   8.409   2.424 -1.9950 -1.0867  0.9772
12426SOL     OW39477   5.640   2.035   2.834 -0.5216  0.0816  0.3880
12426SOL    HW139478   5.701   1.961   2.838 -0.1430  0.4116  0.9063
12426SOL    HW239479   5.630   2.053   2.741  1.2249  0.8563  0.3035
12427SOL     OW39480   0.342   7.449   8.112  0.0847  0.4267 -0.5653
12427SOL    HW139481   0.332   7.354   8.114  2.5967  0.0258 -1.9973
12427SOL    HW239482   0.340   7.472   8.018  0.8895  1.5558 -0.3392
12428SOL     OW39483   5.666   1.321   6.540 -0.0722 -0.1389  0.2113
12428SOL    HW139484   5.633   1.405   6.509 -1.8359 -1.0882 -0.5965
12428SOL    HW239485   5.660   1.327   6.636 -2.3635 -0.1376  0.1172
12429SOL     OW39486   6.281   8.670   5.594  0.0715 -0.6561 -0.0468
12429SOL    HW139487   6.305   8.679   5.501 -2.4246 -0.7197 -0.7641
12429SOL    HW239488   6.209   8.606   5.594 -0.5159 -0.0519  1.8409
12430SOL     OW39489   3.932   2.755   1.970  0.1807 -0.6286 -0.1130
12430SOL    HW139490   3.989   2.682   1.993 -0.5663 -1.1598  0.0840
12430SOL    HW239491   3.861   2.716   1.919 -1.3621 -0.4251  1.7467
12431SOL     OW39492   5.182   2.742   6.446 -0.1862 -0.4596  0.2432
12431SOL    HW139493   5.150   2.723   6.534  2.2060 -1.4249  0.9860
12431SOL    HW239494   5.149   2.830   6.427 -2.0658 -0.8473  1.4190
12432SOL     OW39495   1.744   6.622   4.415  0.0994 -0.1461  0.0191
12432SOL    HW139496   1.750   6.561   4.488 -1.8867 -0.3573  0.0651
12432SOL    HW239497   1.730   6.707   4.455  0.1500 -0.0881 -0.0865
12433SOL     OW39498   4.071   0.823   6.136 -0.2197  0.1244  0.2398
12433SOL    HW139499   4.030   0.850   6.219 -2.8834  0.1029 -0.9696
12433SOL    HW239500   4.007   0.765   6.096  1.4223 -0.6001 -1.4494
12434SOL     OW39501   9.008   6.793   7.179 -0.2559  0.4961 -0.1632
12434SOL    HW139502   8.993   6.786   7.273 -2.7680  1.1711 -0.4501
12434SOL    HW239503   9.077   6.728   7.161  0.3190  0.3868  2.1055
12435SOL     OW39504   4.844   6.618   6.872 -0.5680 -0.0449 -0.3339
12435SOL    HW139505   4.866   6.578   6.788 -1.6666 -1.1760 -0.1099
12435SOL    HW239506   4.798   6.699   6.849 -0.7749 -0.3007 -0.8205
12436SOL     OW39507   5.456   8.667   4.163  0.1954  0.4273  0.1740
12436SOL    HW139508   5.389   8.713   4.213  0.5551  0.9014  0.2232
12436SOL    HW239509   5.406   8.613   4.101 -0.2274  0.7864  0.1988
12437SOL     OW39510   1.922   6.498   2.664  0.4452 -0.0824 -0.2617
12437SOL    HW139511   1.860   6.525   2.597  1.1783  1.0869 -0.4966
12437SOL    HW239512   2.006   6.534   2.635  0.8904 -0.0715  0.9682
12438SOL     OW39513   0.292   1.638   6.075  0.0937 -0.4320 -0.4301
12438SOL    HW139514   0.344   1.684   6.009 -1.2358  1.9834  0.0737
12438SOL    HW239515   0.220   1.698   6.095 -1.3354 -2.4465  0.9143
12439SOL     OW39516   3.836   5.051   9.495  0.2647 -0.0239 -0.2265
12439SOL    HW139517   3.876   5.101   9.566 -1.9966  0.3678  0.8787
12439SOL    HW239518   3.856   5.101   9.416  1.4828  0.3948  0.3264
12440SOL     OW39519   0.915   8.331   4.124 -0.2546 -0.7406  0.0958
12440SOL    HW139520   0.998   8.285   4.115 -0.3413 -1.2296  1.5583
12440SOL    HW239521   0.855   8.267   4.162 -1.5608 -0.6489 -1.6747
12441SOL     OW39522   0.509   6.132   2.619 -0.3151 -0.8661  0.3207
12441SOL    HW139523   0.429   6.171   2.656  0.2599 -1.1500  1.9233
12441SOL    HW239524   0.485   6.041   2.602  0.1185 -1.4401  2.4603
12442SOL     OW39525   3.123   4.172   2.602  0.6060  0.0154  0.3979
12442SOL    HW139526   3.166   4.119   2.670  1.7494  0.5177  0.0921
12442SOL    HW239527   3.098   4.109   2.535  1.1858 -0.2534  0.4265
12443SOL     OW39528   1.989   6.628   0.180 -0.4022  0.0425  0.3666
12443SOL    HW139529   1.957   6.697   0.123 -0.4330  0.9399  1.4371
12443SOL    HW239530   1.954   6.547   0.142  0.1659  0.5371 -1.2542
12444SOL     OW39531   8.760   1.666   5.165  0.2020 -0.6122 -0.2561
12444SOL    HW139532   8.806   1.702   5.241 -0.9203  0.3794 -0.0054
12444SOL    HW239533   8.684   1.724   5.154 -0.6426 -1.8149 -1.0180
12445SOL     OW39534   6.062   7.359   9.147  0.0215  0.3853  0.3091
12445SOL    HW139535   5.999   7.327   9.212  0.0957  0.3569  0.3682
12445SOL    HW239536   6.026   7.332   9.063 -0.7611  1.5845  0.2457
12446SOL     OW39537   1.806   3.922   6.468  0.1449  0.3431 -0.2658
12446SOL    HW139538   1.775   3.953   6.383  1.4076 -1.3917 -1.4220
12446SOL    HW239539   1.727   3.909   6.520 -0.6999  0.7204 -1.4250
12447SOL     OW39540   1.748   6.947   7.726  0.6055 -0.2663  0.1010
12447SOL    HW139541   1.654   6.931   7.735  0.4984  0.7421  0.9168
12447SOL    HW239542   1.757   6.991   7.642 -0.1160  2.7035  1.4508
12448SOL     OW39543   4.823   4.746   4.793  0.0023 -0.1438 -0.9142
12448SOL    HW139544   4.776   4.678   4.842 -1.2827  0.2113 -1.6059
12448SOL    HW239545   4.889   4.699   4.743 -1.0275 -0.9358 -1.5696
12449SOL     OW39546   0.730   0.880   5.871  0.3586 -0.2935 -0.6874
12449SOL    HW139547   0.779   0.886   5.953 -0.5904 -0.5042 -0.0822
12449SOL    HW239548   0.664   0.949   5.878  1.2488  0.7432 -1.9856
12450SOL     OW39549   2.956   1.199   4.232 -0.7974 -0.0943 -0.4580
12450SOL    HW139550   2.883   1.262   4.234 -0.8194 -0.0960 -1.0314
12450SOL    HW239551   2.926   1.130   4.173 -0.4693 -0.2679 -0.4234
12451SOL     OW39552   6.950   8.525   1.715  0.3642  0.4508  0.1433
12451SOL    HW139553   6.918   8.500   1.801 -1.5879  0.5376 -0.5029
12451SOL    HW239554   7.001   8.450   1.685  2.1824  0.9265  1.8444
12452SOL     OW39555   8.795   5.486   4.611  0.2447  0.0693 -0.0123
12452SOL    HW139556   8.838   5.401   4.623  1.2926  0.5591 -0.1869
12452SOL    HW239557   8.867   5.547   4.596 -0.5899  0.6222 -2.1485
12453SOL     OW39558   2.444   0.826   0.412  0.1898  0.1042 -0.0870
12453SOL    HW139559   2.423   0.829   0.506  1.6146 -3.1258  0.4549
12453SOL    HW239560   2.427   0.736   0.386  3.4783 -0.1562 -1.9496
12454SOL     OW39561   4.330   5.249   3.651 -0.5891  0.3272  0.7860
12454SOL    HW139562   4.350   5.271   3.560  0.5999  2.0826  1.4293
12454SOL    HW239563   4.299   5.158   3.647 -0.7021  0.4055 -1.3712
12455SOL     OW39564   5.314   0.859   2.847  0.1167  0.1535 -0.6088
12455SOL    HW139565   5.250   0.808   2.897  0.1999  0.4711 -0.1759
12455SOL    HW239566   5.399   0.820   2.871  0.2226  0.7962  0.0930
12456SOL     OW39567   1.940   7.796   2.313 -0.5488  0.0552  0.2119
12456SOL    HW139568   1.906   7.786   2.402  0.7409 -0.2073  0.6876
12456SOL    HW239569   2.034   7.810   2.324 -0.5990  1.7954 -1.0051
12457SOL     OW39570   9.014   1.642   3.422 -0.0114  0.0805  0.4651
12457SOL    HW139571   8.955   1.576   3.458  0.7923 -0.5156  0.6931
12457SOL    HW239572   8.967   1.725   3.435 -0.3614 -0.2731  1.5605
12458SOL     OW39573   7.468   7.438   5.242 -0.2183 -0.0445 -0.0317
12458SOL    HW139574   7.397   7.391   5.287  0.9738 -0.9606  0.9486
12458SOL    HW239575   7.471   7.524   5.285 -0.9754  0.1484 -0.3455
12459SOL     OW39576   9.195   5.338   2.828 -0.5481  0.3914 -0.2315
12459SOL    HW139577   9.275   5.351   2.878 -1.6493 -0.2591  1.7799
12459SOL    HW239578   9.201   5.248   2.795  0.9852  1.3519 -2.9310
12460SOL     OW39579   3.117   7.907   5.500  0.0832  0.3356 -0.3327
12460SOL    HW139580   3.184   7.900   5.568 -1.4904 -1.4221  1.1361
12460SOL    HW239581   3.148   7.851   5.429  0.1843 -0.5094  0.3584
12461SOL     OW39582   8.133   8.930   5.052 -0.4156  0.3629  0.0706
12461SOL    HW139583   8.054   8.890   5.087 -1.1206  0.9840 -0.7871
12461SOL    HW239584   8.104   8.980   4.976  0.8699  0.2192 -0.5393
12462SOL     OW39585   9.487   5.620   5.336  0.1425 -0.0468 -0.7547
12462SOL    HW139586   9.510   5.713   5.343  0.6965  0.0526 -3.0616
12462SOL    HW239587   9.396   5.621   5.309  0.0227 -0.1971 -0.3587
12463SOL     OW39588   4.524   7.914   6.755  0.0451  0.0595 -0.3007
12463SOL    HW139589   4.576   7.974   6.807 -0.4895  1.8397 -1.7301
12463SOL    HW239590   4.475   7.970   6.695 -1.4619 -1.7200 -0.8375
12464SOL     OW39591   3.703   7.311   1.137 -0.2917  0.4262  0.6866
12464SOL    HW139592   3.693   7.363   1.057  3.0405  0.3861  0.1054
12464SOL    HW239593   3.739   7.373   1.201 -0.2510 -0.1927  1.2654
12465SOL     OW39594   4.914   1.333   7.464  0.1296  0.1793 -0.0570
12465SOL    HW139595   4.841   1.391   7.442 -0.6324 -1.2963 -1.7443
12465SOL    HW239596   4.944   1.363   7.549 -1.8716  1.4038  0.2902
12466SOL     OW39597   6.967   1.141   6.999 -0.1000  0.6150 -0.4591
12466SOL    HW139598   7.060   1.159   7.012 -0.2063  0.6153  0.3501
12466SOL    HW239599   6.961   1.045   6.996 -0.2841  0.5538  1.2576
12467SOL     OW39600   6.906   7.782   9.533 -0.0009  0.3650  0.5001
12467SOL    HW139601   6.825   7.758   9.489  0.3373  0.8830 -0.4501
12467SOL    HW239602   6.902   7.739   9.618 -1.0069 -0.0736  0.2392
12468SOL     OW39603   4.803   7.568   5.237 -0.1476 -0.0956 -0.0011
12468SOL    HW139604   4.765   7.490   5.277  0.2855 -0.0205  0.5744
12468SOL    HW239605   4.896   7.549   5.230 -0.0773  0.2672 -0.0968
12469SOL     OW39606   4.747   8.225   5.183 -0.1598  0.5876 -0.1218
12469SOL    HW139607   4.830   8.176   5.181 -0.5062 -0.0419  0.4073
12469SOL    HW239608   4.680   8.157   5.178 -0.6523  0.9788  0.8889
12470SOL     OW39609   2.400   6.117   2.641  0.2428 -0.7638  0.2982
12470SOL    HW139610   2.367   6.067   2.566 -1.6847  0.2642  0.3952
12470SOL    HW239611   2.371   6.069   2.718  0.8883 -0.9967  0.4052
12471SOL     OW39612   7.827   3.240   0.814 -0.7016 -0.1802 -0.4476
12471SOL    HW139613   7.732   3.232   0.826 -0.4719 -0.7317  1.2447
12471SOL    HW239614   7.861   3.256   0.902  0.7583  0.2467 -1.0719
12472SOL     OW39615   2.389   7.925   1.309  0.1126 -0.0366 -0.1024
12472SOL    HW139616   2.402   8.014   1.340  0.4784  0.2558 -1.0562
12472SOL    HW239617   2.347   7.935   1.224  0.0115 -0.7763 -0.1474
12473SOL     OW39618   5.913   0.686   0.449 -0.5092  0.1352  0.2232
12473SOL    HW139619   5.940   0.710   0.360 -0.7511 -1.6540 -0.3787
12473SOL    HW239620   5.821   0.713   0.454 -0.5422  0.0996 -0.1347
12474SOL     OW39621   2.596   1.099   1.662 -0.2091  0.4287 -0.2357
12474SOL    HW139622   2.658   1.157   1.707  0.2672  0.3253 -0.7387
12474SOL    HW239623   2.535   1.071   1.730  0.3468  0.4667  0.2898
12475SOL     OW39624   4.642   0.302   0.044  0.1813 -0.1555 -0.2343
12475SOL    HW139625   4.728   0.297   0.085 -0.6019 -0.9592  1.3829
12475SOL    HW239626   4.600   0.377   0.085 -1.3702 -2.1498  2.0967
12476SOL     OW39627   9.514   0.554   4.551  0.1569  0.1025 -0.1641
12476SOL    HW139628   9.598   0.520   4.519  0.4806  0.8271 -0.1149
12476SOL    HW239629   9.452   0.484   4.535  0.8540 -0.6118  0.1727
12477SOL     OW39630   4.530   1.216   0.330  0.2207  0.4364  0.5053
12477SOL    HW139631   4.477   1.252   0.400 -2.9216  1.3557 -2.0878
12477SOL    HW239632   4.491   1.130   0.311  2.9238 -1.2029  1.6873
12478SOL     OW39633   6.521   8.576   4.121  0.3964 -0.6914  0.2265
12478SOL    HW139634   6.425   8.578   4.112  0.5159 -0.8140 -1.3509
12478SOL    HW239635   6.537   8.606   4.210 -1.0360  0.9840 -0.0196
12479SOL     OW39636   0.876   9.097   4.346 -0.1773  0.3846 -0.5110
12479SOL    HW139637   0.894   9.024   4.406 -1.1068 -1.1740 -2.0397
12479SOL    HW239638   0.915   9.070   4.263 -2.3542  0.6168 -1.6823
12480SOL     OW39639   7.197   7.871   5.143  0.1096 -0.1171  0.0196
12480SOL    HW139640   7.130   7.829   5.088  0.4991 -0.9063  0.1322
12480SOL    HW239641   7.235   7.939   5.087 -0.4415  0.0033 -0.2121
12481SOL     OW39642   1.628   3.146   2.228  0.1219 -0.2444 -0.3959
12481SOL    HW139643   1.534   3.127   2.230 -0.2274  1.3378 -0.6163
12481SOL    HW239644   1.657   3.133   2.318 -0.3540 -0.5370 -0.2849
12482SOL     OW39645   2.516   2.200   4.192  0.2048 -0.0773  0.2857
12482SOL    HW139646   2.461   2.278   4.180  1.0060  0.4811  0.1869
12482SOL    HW239647   2.540   2.202   4.285  1.4336  0.6321 -0.0209
12483SOL     OW39648   4.763   4.506   4.546 -0.0111  0.0978 -0.7248
12483SOL    HW139649   4.744   4.450   4.622  1.7191 -0.5040 -0.6965
12483SOL    HW239650   4.837   4.559   4.574  0.4931  0.0452 -1.9037
12484SOL     OW39651   6.347   3.997   6.577 -0.0444 -0.3117 -0.0039
12484SOL    HW139652   6.425   3.944   6.597 -0.5907 -2.0790 -2.1698
12484SOL    HW239653   6.377   4.058   6.510  0.0229  0.6900  0.9065
12485SOL     OW39654   4.899   4.346   1.971 -0.2119  0.3175  0.0478
12485SOL    HW139655   4.874   4.317   2.058  1.9727  0.8092  0.9213
12485SOL    HW239656   4.858   4.432   1.961  0.3201  0.6969  1.0170
12486SOL     OW39657   7.543   6.684   1.608  0.3843  0.0951 -0.2874
12486SOL    HW139658   7.451   6.660   1.601 -0.0115  1.4904 -0.2090
12486SOL    HW239659   7.583   6.652   1.527 -0.3787  0.3416 -0.7666
12487SOL     OW39660   2.318   8.910   7.506 -0.1770 -0.5537  0.7474
12487SOL    HW139661   2.277   8.956   7.432  0.2772 -0.7457  0.3711
12487SOL    HW239662   2.340   8.824   7.471  0.8057 -0.3596  0.8501
12488SOL     OW39663   4.003   9.048   4.057 -0.2036  0.1968 -0.2538
12488SOL    HW139664   3.991   9.137   4.091  1.0616  0.4610 -0.4540
12488SOL    HW239665   3.924   9.002   4.084 -0.6578  1.2473  0.2910
12489SOL     OW39666   3.518   8.949   1.974  0.3659 -0.0322  0.5011
12489SOL    HW139667   3.588   8.892   1.942  0.5006  1.1548 -1.4854
12489SOL    HW239668   3.514   8.931   2.068  3.9561  0.5164  0.9063
12490SOL     OW39669   5.920   0.714   2.834  0.0713 -0.0199  0.6566
12490SOL    HW139670   5.865   0.666   2.772  2.1619  0.6704 -1.9722
12490SOL    HW239671   5.922   0.660   2.912 -1.5867 -1.6923 -0.3883
12491SOL     OW39672   0.744   8.865   5.325  0.2932 -0.2934 -0.3757
12491SOL    HW139673   0.793   8.863   5.407  0.2324 -1.5009 -0.3502
12491SOL    HW239674   0.802   8.909   5.263  0.6038  0.0442  0.1502
12492SOL     OW39675   7.135   2.847   2.646  0.9227  0.0508 -0.1646
12492SOL    HW139676   7.079   2.921   2.671 -2.0101 -1.5055 -1.6339
12492SOL    HW239677   7.081   2.770   2.663  2.4809 -1.5563 -2.0983
12493SOL     OW39678   5.160   8.224   0.118  0.2203 -0.3865 -0.2045
12493SOL    HW139679   5.126   8.268   0.040 -1.1090  2.3125  1.7209
12493SOL    HW239680   5.249   8.257   0.127 -0.0017  0.1793 -0.0168
12494SOL     OW39681   3.877   9.522   5.558  0.1205 -0.5653  0.1115
12494SOL    HW139682   3.851   9.492   5.471 -1.0649  2.2326 -0.6241
12494SOL    HW239683   3.970   9.504   5.563 -0.2141 -2.7895 -0.8181
12495SOL     OW39684   0.470   3.430   1.827 -0.5812 -0.5992 -0.8965
12495SOL    HW139685   0.538   3.407   1.763  1.1612 -2.2371  1.3663
12495SOL    HW239686   0.388   3.427   1.778  0.7205 -1.1260 -3.1711
12496SOL     OW39687   0.784   3.210   6.237 -0.0462  0.2622  0.6718
12496SOL    HW139688   0.832   3.292   6.225  1.3728 -0.6588 -0.2809
12496SOL    HW239689   0.850   3.148   6.269  0.2512 -1.8514 -3.4088
12497SOL     OW39690   4.446   3.214   5.032 -0.0569 -0.9934  0.2763
12497SOL    HW139691   4.412   3.281   5.092 -0.1160 -0.1016 -0.7292
12497SOL    HW239692   4.377   3.147   5.030 -0.1744 -0.9061  0.9763
12498SOL     OW39693   3.098   4.617   9.316  0.3960 -0.1408  0.0146
12498SOL    HW139694   3.192   4.618   9.300  0.0038  0.3049 -2.6030
12498SOL    HW239695   3.066   4.543   9.265 -0.8919  0.8699 -0.6995
12499SOL     OW39696   1.382   6.028   4.142 -0.3537 -0.1440 -0.0781
12499SOL    HW139697   1.378   6.116   4.179  0.2400  0.2919 -1.0110
12499SOL    HW239698   1.328   5.975   4.201  0.7685  0.4489  1.5748
12500SOL     OW39699   4.282   7.018   6.958 -0.6089 -0.2752 -0.1244
12500SOL    HW139700   4.294   6.995   7.050  1.0983 -0.0839 -0.2541
12500SOL    HW239701   4.203   7.072   6.956 -0.0942  0.5860  1.3995
12501SOL     OW39702   2.024   5.358   5.531 -0.0139  0.0591  0.0113
12501SOL    HW139703   2.061   5.443   5.507 -0.2131  0.5765  1.4834
12501SOL    HW239704   2.084   5.295   5.491  0.5673  0.8825 -0.4572
12502SOL     OW39705   1.204   7.360   5.384  0.1183  0.2612 -0.1204
12502SOL    HW139706   1.279   7.328   5.435  1.0047  2.1286 -0.1319
12502SOL    HW239707   1.135   7.375   5.449 -0.1191 -1.0715 -0.0470
12503SOL     OW39708   4.260   0.264   2.394 -0.1849  0.4647  0.3724
12503SOL    HW139709   4.187   0.249   2.334  0.5087  0.3239 -0.4513
12503SOL    HW239710   4.298   0.177   2.407  0.2021  0.6235  0.3218
12504SOL     OW39711   8.849   0.029   7.020 -0.4122 -0.3706 -0.0976
12504SOL    HW139712   8.825   0.116   6.987 -0.4379 -0.8895 -1.5552
12504SOL    HW239713   8.768  -0.006   7.057 -0.4470  0.1470  0.3255
12505SOL     OW39714   0.011   7.743   9.140  0.1119  0.5853  0.6320
12505SOL    HW139715   0.053   7.718   9.222  1.1548  0.3225  0.0243
12505SOL    HW239716  -0.062   7.799   9.167 -1.2975 -1.7306  1.9217
12506SOL     OW39717   6.278   6.332   7.065  0.1027  0.2243 -0.1537
12506SOL    HW139718   6.364   6.299   7.091  0.2744  0.4859 -0.3743
12506SOL    HW239719   6.236   6.258   7.021  0.2872  0.1502 -0.2075
12507SOL     OW39720   0.985   7.471   7.841 -0.1255 -0.4920  0.1121
12507SOL    HW139721   1.024   7.394   7.882 -0.3473 -1.5041 -1.4832
12507SOL    HW239722   0.959   7.441   7.754 -0.9762  1.1773 -0.2515
12508SOL     OW39723   8.542   9.212   9.047 -0.1731 -1.1972  0.0856
12508SOL    HW139724   8.610   9.212   8.979  0.2822 -0.9604  0.5319
12508SOL    HW239725   8.491   9.133   9.030 -3.2957  1.2619 -3.6966
12509SOL     OW39726   4.775   8.934   4.922 -0.0712  0.0318  0.0104
12509SOL    HW139727   4.686   8.930   4.888 -0.1606  0.8537  0.1231
12509SOL    HW239728   4.831   8.914   4.846 -0.3529 -1.0218  0.0608
12510SOL     OW39729   3.566   3.450   5.164  0.2435  0.4514  0.0093
12510SOL    HW139730   3.632   3.434   5.231  0.5493 -0.9158 -0.5765
12510SOL    HW239731   3.486   3.468   5.212  0.0694 -2.1403  0.8068
12511SOL     OW39732   9.170   6.317   4.538 -0.1258 -0.6048  0.1010
12511SOL    HW139733   9.247   6.271   4.572 -1.2499 -2.0910  0.7587
12511SOL    HW239734   9.132   6.361   4.615  1.3410  2.1524 -0.6460
12512SOL     OW39735   9.371   7.394   0.633 -0.4492 -0.2125  0.1321
12512SOL    HW139736   9.421   7.380   0.553  2.4001 -0.0115  1.7403
12512SOL    HW239737   9.309   7.464   0.611 -0.9911 -1.3492 -2.3178
12513SOL     OW39738   3.613   0.715   1.459 -0.2025 -0.0844 -0.1312
12513SOL    HW139739   3.703   0.731   1.488 -0.3397 -0.1372  0.3295
12513SOL    HW239740   3.622   0.664   1.379  0.1994  0.6559 -0.5760
12514SOL     OW39741   5.993   3.724   0.298 -0.1158  0.0123  0.1222
12514SOL    HW139742   6.029   3.666   0.365  0.4390 -0.5073 -0.6101
12514SOL    HW239743   5.947   3.792   0.347  0.4970 -0.2210  1.0346
12515SOL     OW39744   8.685   9.305   5.346  0.2375 -0.2115  0.2126
12515SOL    HW139745   8.752   9.364   5.313 -0.1162  1.1048  1.7205
12515SOL    HW239746   8.702   9.222   5.301  2.7264  0.1311  0.3402
12516SOL     OW39747   9.158   5.084   5.436 -0.5255  0.0673 -0.5537
12516SOL    HW139748   9.228   5.122   5.384 -1.5497  1.4822 -0.9547
12516SOL    HW239749   9.170   4.989   5.426 -0.1627  0.2870 -2.6626
12517SOL     OW39750   5.890   0.462   9.201  0.2022  0.0827  0.3071
12517SOL    HW139751   5.892   0.545   9.248  0.3418 -0.3887  1.1481
12517SOL    HW239752   5.982   0.442   9.184  0.2082 -0.1916  0.6437
12518SOL     OW39753   8.509   5.060   7.942 -0.2199  0.2557 -0.0430
12518SOL    HW139754   8.563   5.079   8.019 -0.4331  1.3188 -0.1312
12518SOL    HW239755   8.463   5.142   7.925 -2.2429 -0.7453  0.3193
12519SOL     OW39756   6.852   9.330   0.364  0.6334  0.2730 -0.6134
12519SOL    HW139757   6.796   9.253   0.373  1.0066 -0.0966 -1.4062
12519SOL    HW239758   6.919   9.304   0.301  2.0146  0.5267  0.7017
12520SOL     OW39759   9.184   7.655   6.516  1.0698  0.5811  0.1051
12520SOL    HW139760   9.098   7.639   6.478  1.0632  0.3769  0.2078
12520SOL    HW239761   9.182   7.748   6.540  1.0858  0.7200 -0.4151
12521SOL     OW39762   0.384   5.194   2.747  0.3499  0.7421  0.5409
12521SOL    HW139763   0.357   5.207   2.656 -1.4906 -1.4249  0.6923
12521SOL    HW239764   0.480   5.185   2.742  0.1134 -4.8009 -2.1996
12522SOL     OW39765   3.311   2.667   5.852 -0.2601 -0.3119  0.4176
12522SOL    HW139766   3.295   2.704   5.765 -2.7973 -0.8396  0.5931
12522SOL    HW239767   3.345   2.740   5.903 -0.7061  0.5446 -0.4742
12523SOL     OW39768   8.091   4.951   5.826 -0.3585 -0.4153 -0.0662
12523SOL    HW139769   8.170   4.994   5.795 -0.0615 -0.4726  0.6046
12523SOL    HW239770   8.037   5.022   5.862  0.1875 -0.6004  1.1599
12524SOL     OW39771   9.220   4.890   1.664  0.0985  0.0989  0.1455
12524SOL    HW139772   9.127   4.894   1.643 -0.3512 -0.1258  1.9331
12524SOL    HW239773   9.263   4.878   1.580 -1.5732 -1.0933 -0.5997
12525SOL     OW39774   6.835   8.465   4.927  0.4362  0.5229 -0.0127
12525SOL    HW139775   6.754   8.472   4.977  0.3616 -1.7801  0.2714
12525SOL    HW239776   6.868   8.555   4.922 -1.6819  1.3856  0.5795
12526SOL     OW39777   9.174   8.834   6.965  0.2493 -0.2479  0.3350
12526SOL    HW139778   9.088   8.851   7.003  0.3124 -1.7756  1.2196
12526SOL    HW239779   9.236   8.855   7.035  0.6710  1.4258 -0.4873
12527SOL     OW39780   3.362   2.899   5.451  0.0279 -0.0210  0.1101
12527SOL    HW139781   3.284   2.911   5.505  1.4636  1.2983  2.0494
12527SOL    HW239782   3.399   2.987   5.443  2.0128 -0.7823  0.3797
12528SOL     OW39783   7.774   0.190   6.471  0.0603 -0.6372 -0.3155
12528SOL    HW139784   7.774   0.197   6.375 -1.5244 -0.9918 -0.3682
12528SOL    HW239785   7.800   0.277   6.501  0.3461 -0.4509 -1.0681
12529SOL     OW39786   8.769   3.786   9.106  0.0893 -0.3899  0.4113
12529SOL    HW139787   8.862   3.768   9.091  0.0565  0.8872 -1.6596
12529SOL    HW239788   8.723   3.716   9.059  0.0307  0.9732 -1.6889
12530SOL     OW39789   8.173   2.264   9.291 -0.1018  0.1635  0.4306
12530SOL    HW139790   8.109   2.199   9.263 -1.7952  1.7324  0.4501
12530SOL    HW239791   8.225   2.220   9.358 -0.4149 -1.5042 -0.3596
12531SOL     OW39792   5.687   8.120   3.826 -0.6998  0.2249 -0.6569
12531SOL    HW139793   5.727   8.079   3.902  0.0575  0.0181 -1.1629
12531SOL    HW239794   5.605   8.073   3.814 -0.4110 -0.3211 -0.4986
12532SOL     OW39795   3.775   9.241   5.614 -0.0431  0.2151 -0.3796
12532SOL    HW139796   3.850   9.186   5.593  0.5530  0.3584  1.2437
12532SOL    HW239797   3.775   9.309   5.547  1.2365  0.1574 -0.4457
12533SOL     OW39798   4.756   0.242   0.854 -0.1860  0.3490 -0.2477
12533SOL    HW139799   4.850   0.254   0.869  0.2986 -2.4181 -0.6464
12533SOL    HW239800   4.716   0.262   0.939  1.1343 -1.6752  0.9277
12534SOL     OW39801   1.555   8.614   1.935  0.9479  0.4025 -0.1092
12534SOL    HW139802   1.581   8.645   2.021  1.1426 -0.6397  0.2254
12534SOL    HW239803   1.461   8.596   1.942  0.9877  0.2022 -0.0722
12535SOL     OW39804   1.080   9.333   6.840 -0.0380 -0.2090  0.6235
12535SOL    HW139805   1.091   9.343   6.935  1.9951  0.8401  0.3250
12535SOL    HW239806   1.115   9.414   6.803 -0.7668 -0.6135 -1.0359
12536SOL     OW39807   4.005   2.889   4.161 -0.4265  0.2540 -0.1078
12536SOL    HW139808   3.926   2.904   4.212  0.6992  1.7205  1.3218
12536SOL    HW239809   4.075   2.881   4.226  0.8063  0.4220 -1.3585
12537SOL     OW39810   8.800   1.724   4.004 -0.2925  0.1949  0.3556
12537SOL    HW139811   8.710   1.757   4.007 -0.9541 -1.5588  1.2869
12537SOL    HW239812   8.824   1.729   3.911 -1.4828  0.3591  0.0374
12538SOL     OW39813   0.459   4.835   6.165 -0.1929 -0.0188 -0.0212
12538SOL    HW139814   0.385   4.836   6.226 -1.8531  0.1168 -1.9017
12538SOL    HW239815   0.466   4.744   6.136  1.6135 -0.4053  1.4724
12539SOL     OW39816   9.328   7.432   5.827  0.6172  0.0889 -0.1051
12539SOL    HW139817   9.298   7.376   5.755 -0.7518 -1.1910  1.3943
12539SOL    HW239818   9.281   7.514   5.815 -0.0955 -0.3413 -0.3167
12540SOL     OW39819   2.790   6.408   7.353 -0.1905  0.4659  0.3138
12540SOL    HW139820   2.712   6.448   7.317 -0.9561 -1.4614 -0.2770
12540SOL    HW239821   2.835   6.480   7.398 -2.4398  1.5546  0.9623
12541SOL     OW39822   0.829   3.954   7.433 -0.4570 -0.4420  0.0625
12541SOL    HW139823   0.796   4.043   7.446  1.1433 -0.1047  2.7446
12541SOL    HW239824   0.800   3.906   7.510 -0.5775 -2.0580 -0.9400
12542SOL     OW39825   4.000   3.218   5.909 -0.2275 -0.2380 -0.1325
12542SOL    HW139826   4.094   3.219   5.925 -0.3943 -0.9329  0.9499
12542SOL    HW239827   3.982   3.128   5.880 -0.2777  0.3969 -2.3049
12543SOL     OW39828   4.228   4.135   2.085 -0.1403  0.2272  0.1299
12543SOL    HW139829   4.187   4.220   2.073  0.0430  0.1180 -1.5155
12543SOL    HW239830   4.318   4.148   2.055 -0.0039 -0.4513  0.2294
12544SOL     OW39831   2.741   2.446   2.571 -0.2677  0.6467  0.0613
12544SOL    HW139832   2.729   2.368   2.624 -2.4008  0.8614 -0.0523
12544SOL    HW239833   2.756   2.516   2.635  0.7133  0.3429  0.1924
12545SOL     OW39834   4.136   2.565   3.223 -0.7314 -0.4286 -0.0345
12545SOL    HW139835   4.208   2.547   3.162 -1.1702 -1.8789 -0.1511
12545SOL    HW239836   4.180   2.587   3.305 -0.1423  1.0837 -0.7118
12546SOL     OW39837   5.166   8.048   3.711  0.2427  0.4474  0.3237
12546SOL    HW139838   5.255   8.070   3.737  0.6150 -0.3502 -0.2532
12546SOL    HW239839   5.171   8.036   3.616 -0.5329  0.6433  0.2503
12547SOL     OW39840   0.593   9.073   5.826  0.7855 -0.1770  0.0319
12547SOL    HW139841   0.672   9.029   5.796  0.2069 -0.5460 -1.0113
12547SOL    HW239842   0.560   9.118   5.748 -1.3836 -2.0968 -0.2816
12548SOL     OW39843   7.581   4.561   9.301  1.0146 -0.3773 -0.1768
12548SOL    HW139844   7.537   4.624   9.358 -1.6705 -2.6847  0.5241
12548SOL    HW239845   7.639   4.614   9.247 -0.8985  2.6432  0.5143
12549SOL     OW39846   5.571   2.707   9.230 -0.4034  0.1975  0.0283
12549SOL    HW139847   5.518   2.683   9.306  0.5155 -1.4232  0.2072
12549SOL    HW239848   5.632   2.773   9.263  0.0860 -0.5970  0.7589
12550SOL     OW39849   3.055   8.373   7.303 -0.9779  0.6099 -0.0802
12550SOL    HW139850   3.052   8.462   7.268 -2.5405  0.5871 -0.0950
12550SOL    HW239851   3.053   8.317   7.225 -0.2371  0.5547 -0.0635
12551SOL     OW39852   4.291   4.926   7.151  0.2535 -0.6165 -0.5514
12551SOL    HW139853   4.210   4.924   7.100  1.0346  0.5520 -1.9089
12551SOL    HW239854   4.333   4.842   7.132 -0.3128 -0.9416 -0.3868
12552SOL     OW39855   9.558   7.736   1.330  0.7602  0.1893  0.1999
12552SOL    HW139856   9.649   7.763   1.321  0.5014  1.0662  0.1678
12552SOL    HW239857   9.544   7.729   1.425  0.5329  1.2218  0.2509
12553SOL     OW39858   5.212   1.486   5.399 -0.6158 -0.1612  0.3605
12553SOL    HW139859   5.273   1.528   5.459  1.5396 -1.6798 -0.6397
12553SOL    HW239860   5.199   1.398   5.434 -2.3244  0.1431  0.5801
12554SOL     OW39861   9.174   1.304   0.783  0.4178  0.0900 -0.2002
12554SOL    HW139862   9.136   1.384   0.747 -1.2538 -0.7090 -0.3101
12554SOL    HW239863   9.190   1.249   0.706 -0.5886 -0.5458  0.0229
12555SOL     OW39864   3.949   6.780   3.429 -0.0452  0.1737 -0.3397
12555SOL    HW139865   4.038   6.815   3.420 -0.0492  1.5322  3.0785
12555SOL    HW239866   3.897   6.831   3.366  1.0662  1.9287  0.0703
12556SOL     OW39867   8.151   3.264   2.814  0.3012  0.2030  0.2851
12556SOL    HW139868   8.244   3.282   2.808  0.1815  0.7600  0.0353
12556SOL    HW239869   8.127   3.232   2.727  0.3179 -0.2484  0.4416
12557SOL     OW39870   5.984   0.100   6.843  0.0033  0.1546 -0.5306
12557SOL    HW139871   5.977   0.115   6.749 -3.8566 -0.0658 -0.4396
12557SOL    HW239872   5.979   0.004   6.852 -0.1546  0.2009 -0.0876
12558SOL     OW39873   0.111   7.454   4.954  0.3662  0.4239  0.0291
12558SOL    HW139874   0.075   7.542   4.941  2.3318  1.1932 -0.5704
12558SOL    HW239875   0.169   7.462   5.029 -0.5227 -0.7552  0.8922
12559SOL     OW39876   2.078   2.420   5.455  0.1752 -0.2695 -0.4836
12559SOL    HW139877   2.095   2.438   5.363  1.3640 -0.4390 -0.3106
12559SOL    HW239878   2.074   2.507   5.496 -0.6247 -0.1826 -0.7265
12560SOL     OW39879   7.721   8.870   6.412 -0.2237  0.4014  0.3205
12560SOL    HW139880   7.627   8.853   6.407  0.1457 -1.7767 -0.4983
12560SOL    HW239881   7.749   8.824   6.491  0.5415 -1.5082 -0.9737
12561SOL     OW39882   1.870   8.798   1.071 -0.1798 -0.1025  0.0278
12561SOL    HW139883   1.842   8.881   1.109 -1.3226 -1.2673  1.8883
12561SOL    HW239884   1.820   8.790   0.990  1.1555  1.7325 -1.0446
12562SOL     OW39885   8.300   8.373   4.352  0.5458  0.1615  0.3306
12562SOL    HW139886   8.290   8.288   4.395  0.6500 -0.0747 -0.1068
12562SOL    HW239887   8.211   8.408   4.347  0.4325 -0.1552  0.0526
12563SOL     OW39888   4.665   5.344   2.065 -0.4355  0.0788  0.4293
12563SOL    HW139889   4.614   5.286   2.122 -1.0357 -0.2050 -0.3608
12563SOL    HW239890   4.669   5.427   2.112  0.6563 -0.6581  1.6986
12564SOL     OW39891   0.044   4.044   6.764 -0.2720  0.1115 -0.0862
12564SOL    HW139892  -0.016   4.020   6.835 -1.2899  2.2509 -0.1165
12564SOL    HW239893   0.096   4.116   6.800 -0.2311  0.6773 -1.2287
12565SOL     OW39894   2.342   6.198   6.268 -0.4034  0.4490 -0.1437
12565SOL    HW139895   2.431   6.215   6.299 -0.8214  2.9471 -0.0720
12565SOL    HW239896   2.289   6.265   6.310 -2.3852 -1.0713 -0.0733
12566SOL     OW39897   5.009   0.500   4.739 -0.6174 -0.2263 -0.4541
12566SOL    HW139898   5.067   0.552   4.795  0.2424 -0.2523 -1.2755
12566SOL    HW239899   4.922   0.509   4.778 -0.0546 -0.1978  0.8178
12567SOL     OW39900   9.366   6.253   3.018  0.3703  0.2345  0.2220
12567SOL    HW139901   9.439   6.223   3.071 -0.8548 -2.0924  0.7154
12567SOL    HW239902   9.406   6.278   2.934  2.0157  1.6622  1.3539
12568SOL     OW39903   0.911   5.348   7.976 -0.2771 -0.2374 -0.0598
12568SOL    HW139904   0.822   5.370   7.947 -0.5869 -2.2405 -0.8416
12568SOL    HW239905   0.967   5.369   7.901 -0.2578 -0.0594  0.0045
12569SOL     OW39906   4.360   9.166   0.298 -0.1460 -0.2895  0.4176
12569SOL    HW139907   4.266   9.171   0.315 -0.1154 -1.4056  0.9685
12569SOL    HW239908   4.400   9.202   0.377 -0.0992 -0.7815  0.6223
12570SOL     OW39909   3.434   6.722   0.950 -0.4017  0.6980  0.5524
12570SOL    HW139910   3.419   6.737   1.043 -0.9360  2.2584  0.2471
12570SOL    HW239911   3.386   6.642   0.931 -1.2935  1.0074  1.3952
12571SOL     OW39912   5.785   9.503   1.902 -0.5137 -0.2277 -0.4745
12571SOL    HW139913   5.830   9.428   1.862  0.2578 -0.6683  1.1451
12571SOL    HW239914   5.713   9.465   1.952 -0.1550  0.1039  0.3115
12572SOL     OW39915   7.350   2.622   1.372  0.4448  0.4827  0.1020
12572SOL    HW139916   7.379   2.696   1.424  0.9586  1.3559 -1.3713
12572SOL    HW239917   7.430   2.580   1.342  0.1590 -0.3558  0.4809
12573SOL     OW39918   5.084   3.225   8.036 -0.0727  0.5943 -0.0718
12573SOL    HW139919   4.994   3.255   8.034 -0.2269  0.1310 -1.6592
12573SOL    HW239920   5.088   3.165   8.110 -0.8547  1.2153  0.4873
12574SOL     OW39921   2.021   8.907   5.829 -0.2091 -0.1438  0.1258
12574SOL    HW139922   2.037   8.883   5.738 -0.2430 -0.4139  0.1888
12574SOL    HW239923   1.929   8.888   5.843 -0.1373 -0.3737  0.2959
12575SOL     OW39924   6.301   5.279   7.844  0.2228  0.0881 -0.0470
12575SOL    HW139925   6.386   5.244   7.817  0.2369  0.2726 -0.2509
12575SOL    HW239926   6.254   5.294   7.762 -0.2868 -0.6937  0.0901
12576SOL     OW39927   1.909   3.305   2.165  0.3150 -0.4096 -0.1652
12576SOL    HW139928   2.004   3.289   2.169  0.4733 -0.1236 -1.8593
12576SOL    HW239929   1.884   3.278   2.077 -1.1206 -0.1006  0.1254
12577SOL     OW39930   0.562   2.438   9.268 -0.0262 -0.2189 -0.1928
12577SOL    HW139931   0.480   2.438   9.219  0.1672  0.3439 -0.5338
12577SOL    HW239932   0.629   2.420   9.202  0.3190  1.3124 -0.3083
12578SOL     OW39933   9.487   9.282   5.033 -0.6405 -0.0344 -0.0922
12578SOL    HW139934   9.510   9.302   5.124 -0.7559 -0.5251  0.0449
12578SOL    HW239935   9.496   9.366   4.988  0.3029  0.0298  0.1826
12579SOL     OW39936   3.952   3.269   9.478  0.4275 -0.0304  0.0751
12579SOL    HW139937   3.996   3.199   9.429 -1.7482  0.6372 -3.0776
12579SOL    HW239938   4.011   3.344   9.471  1.9503 -0.9435  1.9949
12580SOL     OW39939   9.451   7.276   6.024 -0.1963  0.0593  0.0410
12580SOL    HW139940   9.539   7.271   5.987  0.0071  1.9660  0.1644
12580SOL    HW239941   9.402   7.329   5.962 -0.1680  2.2993  1.7861
12581SOL     OW39942   2.815   4.245   8.482  0.3158 -0.0517 -0.1909
12581SOL    HW139943   2.782   4.156   8.469 -1.5854  0.9820 -3.5117
12581SOL    HW239944   2.904   4.243   8.448 -0.5900 -0.1908 -2.7240
12582SOL     OW39945   7.619   7.426   0.395 -0.1878  0.0657 -0.2241
12582SOL    HW139946   7.695   7.376   0.365  0.7300  1.5194 -0.3953
12582SOL    HW239947   7.609   7.400   0.487  0.1259 -0.6088 -0.3729
12583SOL     OW39948   2.576   0.466   2.150  0.0440  0.0606  0.4517
12583SOL    HW139949   2.550   0.548   2.108 -0.1154  0.4051  1.1952
12583SOL    HW239950   2.570   0.485   2.244 -1.2543 -1.1907  0.6534
12584SOL     OW39951   2.433   5.111   9.501  0.0286  0.5068 -0.0022
12584SOL    HW139952   2.528   5.118   9.507 -0.0315  0.6716  0.8037
12584SOL    HW239953   2.414   5.134   9.410  0.6215  2.1764  0.2493
12585SOL     OW39954   4.389   9.379   3.469 -0.1362  0.0402 -0.4706
12585SOL    HW139955   4.367   9.317   3.539 -1.0693 -0.7347 -1.4054
12585SOL    HW239956   4.308   9.429   3.456 -0.3000 -0.5146 -1.6595
12586SOL     OW39957   9.114   1.449   8.657  0.0970 -0.3656 -0.5231
12586SOL    HW139958   9.104   1.450   8.753 -1.4988 -0.4720 -0.6522
12586SOL    HW239959   9.118   1.356   8.635 -0.7110 -0.3828 -0.6367
12587SOL     OW39960   1.911   2.882   8.717 -0.1325 -0.1737 -0.5414
12587SOL    HW139961   1.857   2.832   8.656 -0.5797  0.5040 -0.7156
12587SOL    HW239962   1.896   2.974   8.693  1.2391  0.0286 -0.7116
12588SOL     OW39963   1.574   1.254   7.477  0.6992  0.3428 -0.1014
12588SOL    HW139964   1.549   1.255   7.569 -2.0075 -0.3390 -0.7492
12588SOL    HW239965   1.494   1.229   7.430  1.4678  2.4299 -2.8093
12589SOL     OW39966   5.802   6.957   4.275  0.3266 -0.7182 -0.2746
12589SOL    HW139967   5.754   6.897   4.218  1.5600 -0.8961 -1.1755
12589SOL    HW239968   5.834   7.025   4.216  1.5376 -0.8504  0.1967
12590SOL     OW39969   6.122   6.627   1.086 -0.3855 -0.8249  0.4870
12590SOL    HW139970   6.153   6.542   1.055 -2.0031 -0.0914 -3.8194
12590SOL    HW239971   6.189   6.689   1.056 -1.8356 -0.1110 -1.4474
12591SOL     OW39972   0.511   3.058   0.025 -0.0624 -0.4218  0.3642
12591SOL    HW139973   0.460   3.007  -0.038  0.7250 -0.6409 -0.1164
12591SOL    HW239974   0.602   3.042  -0.000  0.2108  1.2736  0.1743
12592SOL     OW39975   6.189   4.534   5.421  0.5924  0.2476 -0.8588
12592SOL    HW139976   6.205   4.468   5.488 -0.9349  1.4738  0.8013
12592SOL    HW239977   6.245   4.608   5.446 -0.1293  0.7853 -0.8147
12593SOL     OW39978   6.620   4.089   4.504  0.6771  0.3501  0.6904
12593SOL    HW139979   6.550   4.024   4.511  1.8550 -1.0260  0.1694
12593SOL    HW239980   6.677   4.055   4.435  0.3333  2.9254 -0.9683
12594SOL     OW39981   6.735   3.059   1.981  0.2150  0.4299  0.1082
12594SOL    HW139982   6.788   3.037   2.058 -0.3296 -3.1802 -0.3874
12594SOL    HW239983   6.798   3.065   1.909  0.3909  0.6457  0.2778
12595SOL     OW39984   4.571   6.537   8.726 -0.4981  0.0064 -0.3248
12595SOL    HW139985   4.578   6.603   8.796  1.5021 -0.6269  0.1236
12595SOL    HW239986   4.632   6.468   8.752 -1.7033 -1.5155 -1.3737
12596SOL     OW39987   6.565   4.112   7.097  0.1346 -0.0794  0.1464
12596SOL    HW139988   6.522   4.029   7.115  0.4470 -0.1862  0.4120
12596SOL    HW239989   6.507   4.156   7.036 -0.9941  0.3282  1.4600
12597SOL     OW39990   5.450   5.801   5.876 -0.1040 -0.5713 -0.2208
12597SOL    HW139991   5.391   5.739   5.920  1.3713 -0.4858  2.0412
12597SOL    HW239992   5.473   5.758   5.794 -1.2166 -1.7893  0.0668
12598SOL     OW39993   0.187   7.300   9.368 -0.1120  0.2239  0.0463
12598SOL    HW139994   0.190   7.349   9.286 -0.6849  1.3200  0.6548
12598SOL    HW239995   0.254   7.341   9.423 -1.5045  1.3030  1.0449
12599SOL     OW39996   1.761   1.775   1.455 -0.2273  0.0793  0.4834
12599SOL    HW139997   1.686   1.766   1.514  0.3045 -0.6339  1.0685
12599SOL    HW239998   1.776   1.687   1.421  0.4400  0.1847  0.4907
12600SOL     OW39999   3.730   1.578   1.938 -0.2157 -0.0510  0.1263
12600SOL    HW140000   3.640   1.553   1.961 -0.5353 -0.3608 -1.3001
12600SOL    HW240001   3.781   1.498   1.947 -0.2674 -0.0829  0.1323
12601SOL     OW40002   7.444   0.186   6.253  0.3996 -0.4685 -0.1933
12601SOL    HW140003   7.519   0.128   6.263  1.2358  0.6950  0.5863
12601SOL    HW240004   7.422   0.182   6.160  2.6204  0.5546 -0.8170
12602SOL     OW40005   2.378   7.442   3.968  0.2839 -0.0554 -0.1496
12602SOL    HW140006   2.299   7.431   4.021  0.5135 -1.5475 -0.0649
12602SOL    HW240007   2.427   7.361   3.981  2.2757  1.1724  0.4964
12603SOL     OW40008   0.619   0.710   5.154 -0.0321 -0.2505  0.5110
12603SOL    HW140009   0.550   0.670   5.101 -0.6838 -0.3924  1.4359
12603SOL    HW240010   0.699   0.665   5.127 -0.2877 -0.0760 -0.5879
12604SOL     OW40011   4.039   8.191   2.191  0.0763  0.5085  0.0489
12604SOL    HW140012   4.052   8.114   2.136  1.2530 -0.2132  1.2760
12604SOL    HW240013   4.108   8.251   2.164  1.2965 -0.2465  1.3533
12605SOL     OW40014   8.333   3.745   4.039 -0.5644  0.2114  0.3645
12605SOL    HW140015   8.357   3.686   4.110  2.2139 -1.6523 -1.8907
12605SOL    HW240016   8.242   3.724   4.018  0.1043 -2.8896  0.1206
12606SOL     OW40017   1.560   0.703   5.641 -0.4932 -0.4467 -0.4605
12606SOL    HW140018   1.642   0.658   5.660 -0.2787  0.2009  0.1824
12606SOL    HW240019   1.582   0.796   5.640 -1.4303 -0.1682  1.0008
12607SOL     OW40020   5.145   9.398   9.243  0.6815  0.0309  0.0380
12607SOL    HW140021   5.224   9.385   9.295  0.8749  3.0653  0.7106
12607SOL    HW240022   5.153   9.336   9.170  1.8463 -2.2616  1.9897
12608SOL     OW40023   4.697   5.077   4.919  0.0200  0.8649  0.0701
12608SOL    HW140024   4.768   5.124   4.962 -0.5546  2.2271 -0.4237
12608SOL    HW240025   4.640   5.049   4.991  0.2899  1.0571  0.3631
12609SOL     OW40026   6.488   0.270   8.212  0.1705  0.3111  0.2279
12609SOL    HW140027   6.440   0.187   8.208  0.0399  0.4008 -0.2396
12609SOL    HW240028   6.440   0.327   8.151  3.2717 -0.8824 -3.7951
12610SOL     OW40029   1.474   9.401   5.470  0.1955  0.1982 -0.0817
12610SOL    HW140030   1.503   9.409   5.379 -2.2766 -0.1803 -0.9960
12610SOL    HW240031   1.411   9.472   5.481 -2.1680 -1.7634  0.1216
12611SOL     OW40032   3.821   2.469   6.863  0.3607 -0.1409 -0.0522
12611SOL    HW140033   3.850   2.382   6.839  1.2218  0.2351 -0.3966
12611SOL    HW240034   3.882   2.528   6.820 -1.4405  0.7176 -1.5463
12612SOL     OW40035   6.933   3.727   9.520 -0.3841 -0.1593  0.3085
12612SOL    HW140036   6.881   3.675   9.581  2.3855 -3.5472  0.0622
12612SOL    HW240037   7.024   3.712   9.547  0.7193  2.5855 -1.4307
12613SOL     OW40038   2.994   9.229   5.103  0.4586 -0.1660 -0.0029
12613SOL    HW140039   2.940   9.150   5.104  1.2225 -0.6900  0.9549
12613SOL    HW240040   3.077   9.202   5.142 -0.0362  1.6421  2.5383
12614SOL     OW40041   9.433   4.814   7.656 -0.4792 -0.2178 -0.2002
12614SOL    HW140042   9.442   4.854   7.569 -0.3598 -1.6166 -0.8577
12614SOL    HW240043   9.452   4.885   7.717 -0.7864  0.8541 -1.3076
12615SOL     OW40044   1.294   7.007   6.847  0.1642 -0.0823  0.6091
12615SOL    HW140045   1.249   6.973   6.924  1.4985  0.3652  1.6308
12615SOL    HW240046   1.277   7.102   6.849  0.4633 -0.0245  0.5573
12616SOL     OW40047   9.331   1.913   3.024  0.0378  0.1558  0.6688
12616SOL    HW140048   9.292   1.858   3.092  2.1173 -2.4073 -0.0735
12616SOL    HW240049   9.414   1.942   3.061 -0.1897  1.2943  0.3239
12617SOL     OW40050   7.817   3.799   7.259  0.7629 -0.2632 -0.2111
12617SOL    HW140051   7.864   3.716   7.246  4.1787  1.3437  0.6620
12617SOL    HW240052   7.834   3.822   7.350 -2.6135  0.0861  0.4453
12618SOL     OW40053   9.282   1.868   8.034 -0.1272  0.1773  0.4652
12618SOL    HW140054   9.242   1.952   8.009  0.6800  0.5516  0.3931
12618SOL    HW240055   9.371   1.891   8.059  0.7443 -0.9049 -1.4299
12619SOL     OW40056   7.148   6.714   7.845 -0.6587  0.7388 -0.0686
12619SOL    HW140057   7.135   6.803   7.878  0.3636  0.1597  2.1052
12619SOL    HW240058   7.066   6.669   7.867  0.1931  0.2177  2.4361
12620SOL     OW40059   8.198   3.384   1.247 -0.0099 -0.0342 -0.1752
12620SOL    HW140060   8.292   3.383   1.229 -0.3005  2.3877 -2.5181
12620SOL    HW240061   8.169   3.295   1.228  1.7116 -0.7185  0.1937
12621SOL     OW40062   1.141   9.100   1.998 -0.7676 -0.1428 -0.1820
12621SOL    HW140063   1.087   9.021   2.004 -1.6225  0.3274 -1.3124
12621SOL    HW240064   1.078   9.172   2.007  0.1970  0.4855  2.7183
12622SOL     OW40065   0.912   2.663   0.177  0.4374 -0.3167 -0.1625
12622SOL    HW140066   0.991   2.683   0.126  0.4816 -0.9381 -0.3501
12622SOL    HW240067   0.932   2.691   0.266  0.8444 -0.3947 -0.2286
12623SOL     OW40068   4.653   8.492   4.196 -0.7974 -0.4157  0.2267
12623SOL    HW140069   4.746   8.500   4.174 -1.1838  1.1714 -1.0363
12623SOL    HW240070   4.614   8.449   4.120 -1.5267  1.5447 -0.5558
12624SOL     OW40071   6.803   3.216   2.292 -0.1032  0.0970  0.2983
12624SOL    HW140072   6.708   3.219   2.281  0.1099  0.6265 -1.7472
12624SOL    HW240073   6.823   3.290   2.349 -0.9557 -0.4054  1.2888
12625SOL     OW40074   1.303   8.206   1.668  0.3953  0.5165  0.3339
12625SOL    HW140075   1.384   8.242   1.704 -0.5550  0.7211  2.3863
12625SOL    HW240076   1.242   8.280   1.665 -0.6135 -0.2083  1.6703
12626SOL     OW40077   8.312   1.115   7.749 -0.1782  0.2439  0.3252
12626SOL    HW140078   8.224   1.077   7.753 -0.8083  1.7646  2.8961
12626SOL    HW240079   8.369   1.047   7.784 -0.7130  0.1286  1.0085
12627SOL     OW40080   1.161   3.982   0.446  0.0753  0.2916  0.1065
12627SOL    HW140081   1.117   3.898   0.434 -0.7884  0.7295  0.1589
12627SOL    HW240082   1.225   3.985   0.375 -0.8989  0.2333 -0.7913
12628SOL     OW40083   3.642   8.117   6.614  0.3536  0.1024 -0.5540
12628SOL    HW140084   3.666   8.150   6.701  2.7039 -0.2427 -1.0172
12628SOL    HW240085   3.624   8.196   6.563  0.5869  0.3943 -0.1915
12629SOL     OW40086   7.988   0.164   5.620 -0.5311  0.7812 -0.8257
12629SOL    HW140087   8.062   0.107   5.597 -0.3170  0.9839 -0.6352
12629SOL    HW240088   7.952   0.126   5.700 -0.7825  0.5426 -1.0510
12630SOL     OW40089   8.923   7.523   0.224 -0.0159 -0.5824  0.5364
12630SOL    HW140090   9.005   7.570   0.238 -1.1240  1.4980  0.4317
12630SOL    HW240091   8.947   7.431   0.232  1.9981  0.0027  2.2307
12631SOL     OW40092   3.365   9.161   1.805 -0.0875 -0.3325  0.2631
12631SOL    HW140093   3.442   9.106   1.817 -0.6704 -1.1484  0.3332
12631SOL    HW240094   3.315   9.118   1.735 -1.5269 -1.0184  1.6526
12632SOL     OW40095   3.888   7.826   0.299  0.0492 -0.1262  0.1600
12632SOL    HW140096   3.848   7.897   0.349  0.7857  0.5896 -0.2359
12632SOL    HW240097   3.981   7.848   0.297  0.0728 -0.2804 -1.2945
12633SOL     OW40098   4.371   7.150   1.745  0.3965  0.6626  0.3649
12633SOL    HW140099   4.339   7.211   1.678  0.5824  0.3287 -0.0375
12633SOL    HW240100   4.426   7.088   1.696  0.1521  0.1298  0.7545
12634SOL     OW40101   4.306   3.889   2.798 -0.6906  0.4529  0.0786
12634SOL    HW140102   4.383   3.890   2.856 -1.0256  0.9910  0.5261
12634SOL    HW240103   4.283   3.797   2.790 -0.1515  0.3057  0.1485
12635SOL     OW40104   0.754   4.022   8.016  0.1997 -0.3241 -0.4494
12635SOL    HW140105   0.838   4.032   8.061 -0.6807  0.7447  1.0887
12635SOL    HW240106   0.694   4.080   8.065 -1.8641 -2.4204 -0.2979
12636SOL     OW40107   3.093   2.475   0.677  0.0219 -0.4883  0.0279
12636SOL    HW140108   3.008   2.513   0.695  0.0516 -1.1508  1.7333
12636SOL    HW240109   3.083   2.432   0.592 -0.8076  0.8887 -0.5978
12637SOL     OW40110   9.514   3.087   2.830  0.5139 -0.4157 -0.0102
12637SOL    HW140111   9.463   3.139   2.768 -0.1635  1.1941  1.7825
12637SOL    HW240112   9.449   3.035   2.877  1.0153 -1.6127 -0.6027
12638SOL     OW40113   3.960   0.108   1.903  0.0246  0.0259 -0.1549
12638SOL    HW140114   3.992   0.046   1.969 -0.0036  1.7453  1.5381
12638SOL    HW240115   4.013   0.187   1.916 -1.5425  1.1978 -0.6302
12639SOL     OW40116   8.761   1.786   9.282  0.4511 -0.1133  0.1566
12639SOL    HW140117   8.743   1.831   9.365 -0.7708  0.3002 -0.2974
12639SOL    HW240118   8.674   1.759   9.250  0.9375 -0.6354 -0.7782
12640SOL     OW40119   4.273   2.937   7.542  0.4613 -0.2992  0.2716
12640SOL    HW140120   4.277   3.031   7.524  1.6968 -0.5629 -1.0220
12640SOL    HW240121   4.248   2.930   7.634  0.3206  1.2856  0.3676
12641SOL     OW40122   6.129   1.255   4.098 -0.4694  1.1013 -0.4273
12641SOL    HW140123   6.068   1.265   4.025 -1.3804  0.9642  0.2945
12641SOL    HW240124   6.076   1.272   4.176  0.0865 -0.3001  0.2990
12642SOL     OW40125   5.572   6.735   7.007 -0.4968  0.5710  0.4609
12642SOL    HW140126   5.478   6.727   6.994 -0.8721  4.1106  0.0781
12642SOL    HW240127   5.583   6.816   7.057  2.4120  1.1438 -0.8932
12643SOL     OW40128   0.173   9.180   9.052 -0.1892  0.0800  0.2446
12643SOL    HW140129   0.261   9.187   9.089  0.2642  0.0835 -0.7909
12643SOL    HW240130   0.120   9.144   9.122 -0.0308  2.8039  1.9093
12644SOL     OW40131   8.203   2.758   5.106 -0.1263 -0.4383 -0.1196
12644SOL    HW140132   8.127   2.753   5.165  0.0492 -0.5144  0.1009
12644SOL    HW240133   8.251   2.677   5.123  2.3901  1.4568  2.9823
12645SOL     OW40134   1.238   1.725   2.053 -0.1023 -0.1087 -0.0676
12645SOL    HW140135   1.297   1.776   1.998 -0.5299 -1.6276 -2.0324
12645SOL    HW240136   1.154   1.728   2.007 -1.1111  0.4585  1.7160
12646SOL     OW40137   9.118   8.710   5.582 -0.4394 -0.0364 -0.0668
12646SOL    HW140138   9.126   8.797   5.621  0.1424 -0.2797  0.3576
12646SOL    HW240139   9.106   8.727   5.489 -3.1789  0.6143  0.3160
12647SOL     OW40140   3.433   3.323   9.418 -0.3697  0.0976 -0.0115
12647SOL    HW140141   3.438   3.373   9.336  0.3823  1.5153  0.8522
12647SOL    HW240142   3.521   3.329   9.455 -0.6588 -0.6710  0.8165
12648SOL     OW40143   7.893   4.407   8.491 -0.1971  0.4149  0.5957
12648SOL    HW140144   7.954   4.467   8.534  0.9727 -0.3506  0.0624
12648SOL    HW240145   7.815   4.408   8.546  1.2847 -0.6393  2.8402
12649SOL     OW40146   9.227   4.287   8.784 -0.4505  0.6362  0.1251
12649SOL    HW140147   9.273   4.204   8.770  0.2920  1.3595 -2.1205
12649SOL    HW240148   9.172   4.297   8.707 -0.6283  2.1706  0.4264
12650SOL     OW40149   0.075   4.345   3.031  0.1691  0.1041  0.1665
12650SOL    HW140150   0.160   4.323   3.069  0.8957 -0.1858 -1.5454
12650SOL    HW240151   0.025   4.263   3.033  0.3812 -0.0281  0.0431
12651SOL     OW40152   0.734   4.196   5.398 -0.0156 -0.4880  1.1047
12651SOL    HW140153   0.788   4.177   5.321 -0.7790  0.0932  0.4054
12651SOL    HW240154   0.683   4.116   5.413  0.0576 -0.5649  0.9404
12652SOL     OW40155   7.030   1.048   4.037 -0.2611  0.1521 -0.6771
12652SOL    HW140156   6.973   0.971   4.043  0.2717 -0.3534 -1.7847
12652SOL    HW240157   6.999   1.106   4.106  0.6575 -1.9025  1.6004
12653SOL     OW40158   1.289   3.825   5.061 -0.4253 -0.4223  0.3465
12653SOL    HW140159   1.321   3.761   4.998 -0.4306 -1.9541  1.8484
12653SOL    HW240160   1.351   3.821   5.133 -1.4107 -0.0219  1.2400
12654SOL     OW40161   9.492   6.258   0.383  0.0992 -0.3960  0.1829
12654SOL    HW140162   9.444   6.269   0.300 -1.0921 -2.5296  0.5230
12654SOL    HW240163   9.575   6.218   0.357  0.0974 -0.2510 -0.0562
12655SOL     OW40164   2.632   7.609   4.052 -0.5213  0.3365 -0.2643
12655SOL    HW140165   2.668   7.581   4.136 -0.3346  0.1127 -0.4201
12655SOL    HW240166   2.562   7.546   4.033  0.4552 -0.5407 -1.0227
12656SOL     OW40167   8.146   2.275   9.569  0.1293 -0.0047 -0.2564
12656SOL    HW140168   8.084   2.221   9.521  0.3198  0.5784 -1.1904
12656SOL    HW240169   8.122   2.264   9.661 -2.4655  1.5263 -0.6515
12657SOL     OW40170   3.232   2.564   6.577  0.3462 -0.1766  0.1722
12657SOL    HW140171   3.180   2.488   6.551  0.4668 -0.1291 -0.2096
12657SOL    HW240172   3.170   2.619   6.626  0.1381 -0.2994  0.0516
12658SOL     OW40173   9.016   5.723   6.302  0.0220 -0.2205 -0.2422
12658SOL    HW140174   8.973   5.638   6.298  0.2353 -0.3119 -0.6795
12658SOL    HW240175   9.092   5.714   6.244  0.3110  0.1161  0.0786
12659SOL     OW40176   5.404   6.056   0.291 -0.0801 -0.4164 -0.5672
12659SOL    HW140177   5.357   5.974   0.277  0.0510 -0.8130  1.0745
12659SOL    HW240178   5.341   6.124   0.266 -0.6229 -0.9917 -0.7934
12660SOL     OW40179   3.008   0.486   3.013  0.3277  0.1335 -0.1554
12660SOL    HW140180   3.048   0.415   2.962  1.1020  0.7135 -0.3768
12660SOL    HW240181   2.938   0.443   3.062  1.4850 -1.0111  0.5590
12661SOL     OW40182   8.378   6.897   9.457 -0.5079  0.2104  0.1494
12661SOL    HW140183   8.341   6.810   9.442 -0.6181  0.5677 -1.9155
12661SOL    HW240184   8.320   6.956   9.409  1.2293  1.0842 -0.9440
12662SOL     OW40185   3.149   3.935   7.893  0.0976 -0.2060  0.5833
12662SOL    HW140186   3.091   3.987   7.837 -1.1422  0.5724  2.5178
12662SOL    HW240187   3.108   3.849   7.897 -0.3570  0.0279  1.0705
12663SOL     OW40188   6.856   3.231   5.510  0.0331  0.1109  0.4846
12663SOL    HW140189   6.764   3.223   5.487 -0.0079 -1.6880  1.0755
12663SOL    HW240190   6.900   3.246   5.426 -0.6716 -0.3682  0.0160
12664SOL     OW40191   6.980   3.459   8.611  0.1704 -0.5106 -0.2385
12664SOL    HW140192   6.978   3.533   8.550  0.1986 -0.5791 -0.3224
12664SOL    HW240193   6.921   3.394   8.572  0.3366 -0.6319 -0.2938
12665SOL     OW40194   1.064   6.761   4.621  0.3435  0.1845  0.2091
12665SOL    HW140195   1.084   6.667   4.620 -0.6141 -0.0536 -1.6384
12665SOL    HW240196   0.984   6.769   4.568  1.4190  2.2232 -1.2393
12666SOL     OW40197   4.002   2.008   3.535  0.1352 -0.5248 -0.0985
12666SOL    HW140198   4.059   2.081   3.510 -1.4646  0.2623 -1.6846
12666SOL    HW240199   3.971   1.972   3.452 -3.7802  0.8481  0.5257
12667SOL     OW40200   8.276   8.727   4.286  0.1024  0.0535  0.6060
12667SOL    HW140201   8.246   8.672   4.214  0.6673  0.6869 -0.1311
12667SOL    HW240202   8.220   8.703   4.360 -1.6356  0.5776 -0.4814
12668SOL     OW40203   8.976   0.780   2.627  0.1445  0.0906  0.0787
12668SOL    HW140204   8.949   0.839   2.697  0.6168  1.4543 -0.8491
12668SOL    HW240205   9.034   0.833   2.572  1.3834 -1.5304 -0.2485
12669SOL     OW40206   4.423   5.928   1.358  0.3706  0.0509 -0.4767
12669SOL    HW140207   4.415   6.008   1.409 -1.5001 -0.0439 -0.5490
12669SOL    HW240208   4.517   5.917   1.345  0.8508  0.7244  1.8943
12670SOL     OW40209   8.652   3.127   3.687 -0.1159 -0.8766 -0.7664
12670SOL    HW140210   8.560   3.124   3.660 -0.8370  2.7302  0.7078
12670SOL    HW240211   8.696   3.173   3.615  0.7209 -2.8392 -1.6027
12671SOL     OW40212   0.129   3.579   3.368 -0.3936 -0.5160 -0.2281
12671SOL    HW140213   0.146   3.670   3.394  0.2621 -0.4730 -0.7679
12671SOL    HW240214   0.196   3.529   3.414 -0.8330 -0.7474  0.1666
12672SOL     OW40215   5.954   3.125   2.759 -0.0829 -0.4250 -0.0638
12672SOL    HW140216   5.951   3.169   2.674  0.8373  0.2932  0.2666
12672SOL    HW240217   5.955   3.196   2.823 -1.8784 -0.9543  0.6178
12673SOL     OW40218   4.735   2.488   3.974 -0.3811 -0.0220 -0.6381
12673SOL    HW140219   4.660   2.438   4.007 -0.6434  0.6169 -0.2619
12673SOL    HW240220   4.711   2.509   3.883  0.0507 -1.1990 -1.0454
12674SOL     OW40221   9.531   8.255   7.463 -0.3981 -0.0271 -0.0500
12674SOL    HW140222   9.476   8.331   7.478 -1.8318 -1.2744  1.3419
12674SOL    HW240223   9.474   8.191   7.421 -0.3949 -1.7164  2.3139
12675SOL     OW40224   1.758   1.723   6.596 -0.1717 -0.5455 -0.3147
12675SOL    HW140225   1.752   1.781   6.672 -0.7600 -0.7412 -0.2051
12675SOL    HW240226   1.767   1.781   6.521  0.1552 -0.3411 -0.1147
12676SOL     OW40227   6.187   5.123   7.169 -0.5744  0.5957  0.6943
12676SOL    HW140228   6.282   5.130   7.162 -0.4410 -1.9461 -1.7828
12676SOL    HW240229   6.160   5.205   7.209  2.4520  2.4923 -0.7961
12677SOL     OW40230   0.234   5.312   6.691 -0.3177 -0.2357 -0.2949
12677SOL    HW140231   0.283   5.234   6.715 -2.0682 -1.3353 -0.0736
12677SOL    HW240232   0.237   5.314   6.596 -1.4063 -1.4279 -0.3946
12678SOL     OW40233   3.546   7.825   7.989  0.4220  0.0948 -0.1357
12678SOL    HW140234   3.531   7.892   7.922 -1.4730 -0.9621 -0.8373
12678SOL    HW240235   3.473   7.834   8.050 -0.4347 -1.9077 -0.7757
12679SOL     OW40236   4.874   5.939   7.449  0.2311 -0.2050 -0.3704
12679SOL    HW140237   4.962   5.937   7.485  0.3138  0.8292 -0.4880
12679SOL    HW240238   4.819   5.904   7.519  0.4900  1.0604  0.5205
12680SOL     OW40239   3.274   6.119   3.367 -0.0091 -0.2206 -0.5012
12680SOL    HW140240   3.240   6.145   3.281  1.8007  0.7062 -1.0013
12680SOL    HW240241   3.307   6.200   3.405 -1.5435 -0.4604  1.4973
12681SOL     OW40242   5.769   4.842   3.281 -1.0204  0.2989  0.1152
12681SOL    HW140243   5.753   4.785   3.205 -1.3212  0.2501  0.2168
12681SOL    HW240244   5.696   4.903   3.282 -0.9855  0.3378  0.3321
12682SOL     OW40245   3.525   7.247   1.367  0.2126 -0.2953 -0.1442
12682SOL    HW140246   3.574   7.226   1.287 -0.1709  1.4731 -0.9087
12682SOL    HW240247   3.593   7.271   1.430  0.4694 -0.6713 -0.2700
12683SOL     OW40248   7.196   7.117   3.355  0.5556  0.0789  0.2422
12683SOL    HW140249   7.118   7.062   3.367 -0.0913  1.1361  1.0758
12683SOL    HW240250   7.269   7.055   3.353 -0.1630 -0.8254  1.0233
12684SOL     OW40251   2.405   1.002   1.823 -0.3914 -0.0226  0.5002
12684SOL    HW140252   2.336   1.047   1.872 -1.3823 -0.8631 -0.0803
12684SOL    HW240253   2.372   0.913   1.811  1.1451 -0.6898  0.8831
12685SOL     OW40254   4.127   5.294   8.681 -0.0900 -0.4492  0.7778
12685SOL    HW140255   4.092   5.365   8.627  0.7107  0.1240  0.9888
12685SOL    HW240256   4.146   5.224   8.618  1.6059  0.5113  0.1316
12686SOL     OW40257   6.275   7.327   0.076  0.3208 -0.0111  0.6854
12686SOL    HW140258   6.261   7.422   0.076  0.5608  0.0274  0.2828
12686SOL    HW240259   6.312   7.308   0.163 -1.1559  0.0337  1.3533
12687SOL     OW40260   6.417   2.979   4.288 -0.4754  0.1292  0.1158
12687SOL    HW140261   6.404   3.065   4.328  2.0888  0.4809  0.3537
12687SOL    HW240262   6.477   2.933   4.347 -0.7798 -1.3392 -0.6573
12688SOL     OW40263   1.329   1.355   1.538  0.2818 -0.2445 -0.1672
12688SOL    HW140264   1.356   1.321   1.453  0.5504 -0.8750  0.1594
12688SOL    HW240265   1.400   1.413   1.566 -0.6658  1.5036 -1.2165
12689SOL     OW40266   9.505   9.245   8.407 -0.1403  0.3984  0.0301
12689SOL    HW140267   9.489   9.154   8.431  1.7176 -1.0464 -3.4286
12689SOL    HW240268   9.420   9.278   8.377 -0.8269 -0.1129  1.3336
12690SOL     OW40269   8.618   0.946   1.048 -0.0797 -0.0909  0.2798
12690SOL    HW140270   8.638   0.856   1.074  0.4822 -0.3049 -0.8171
12690SOL    HW240271   8.703   0.991   1.047  0.2472 -0.5614 -2.7625
12691SOL     OW40272   8.495   8.386   6.339 -0.4511 -0.3072  0.0628
12691SOL    HW140273   8.562   8.422   6.281  0.9653 -0.1643  1.7106
12691SOL    HW240274   8.429   8.455   6.344 -0.7569 -0.4361 -1.5654
12692SOL     OW40275   2.777   6.927   4.643  0.3429 -0.7641  0.1049
12692SOL    HW140276   2.685   6.922   4.617  0.2160 -0.1846  0.4272
12692SOL    HW240277   2.805   6.835   4.649 -0.1225 -0.9405 -0.2971
12693SOL     OW40278   7.894   0.233   4.737  0.3493  0.3750  0.3908
12693SOL    HW140279   7.974   0.286   4.740  2.3039 -2.3977  2.5521
12693SOL    HW240280   7.868   0.224   4.828 -0.7143 -1.2166 -0.0340
12694SOL     OW40281   4.269   5.949   0.713  0.3871  0.1748  0.0827
12694SOL    HW140282   4.296   5.889   0.643  1.9172 -0.1810  0.9352
12694SOL    HW240283   4.186   5.914   0.745  0.7748 -0.9243 -0.0958
12695SOL     OW40284   6.261   6.415   5.452 -0.6474  0.5459 -0.1675
12695SOL    HW140285   6.245   6.478   5.522  0.2269  1.5782 -0.8570
12695SOL    HW240286   6.339   6.449   5.407 -1.8111  0.5385 -2.3039
12696SOL     OW40287   6.759   7.357   1.096 -0.7338  0.2908  0.2400
12696SOL    HW140288   6.763   7.303   1.016 -0.3668  0.2693  0.2691
12696SOL    HW240289   6.668   7.352   1.124 -0.4133 -1.6319  1.1412
12697SOL     OW40290   4.769   8.154   6.719  0.0570 -0.3606 -0.4989
12697SOL    HW140291   4.816   8.169   6.801  0.7647  0.0772 -0.9769
12697SOL    HW240292   4.809   8.074   6.683  1.5328  0.8366 -1.6486
12698SOL     OW40293   2.215   3.517   1.987 -0.2626  0.3521 -0.3790
12698SOL    HW140294   2.226   3.468   1.906 -0.9683 -0.6223  0.0900
12698SOL    HW240295   2.120   3.526   1.997 -0.1713  0.7690  0.1573
12699SOL     OW40296   3.691   9.057   7.319 -0.6816  0.2274 -0.0693
12699SOL    HW140297   3.655   8.973   7.349 -0.9432  0.3851  0.0693
12699SOL    HW240298   3.710   9.043   7.226  0.0152 -0.2270  0.1398
12700SOL     OW40299   5.988   3.869   5.684 -0.3411 -0.0719  0.1950
12700SOL    HW140300   5.993   3.905   5.596  0.5437 -1.8796 -0.5465
12700SOL    HW240301   5.973   3.945   5.740 -0.9898  1.1095 -1.5035
12701SOL     OW40302   9.020   4.730   3.000 -0.4238  0.2304  1.0012
12701SOL    HW140303   9.090   4.783   3.036  0.0440  0.1027  0.3055
12701SOL    HW240304   8.998   4.667   3.069  1.7610 -1.2710  0.4153
12702SOL     OW40305   5.666   2.972   9.323  0.0740 -0.1859  0.1494
12702SOL    HW140306   5.732   2.938   9.383 -0.4783 -1.0211  0.2877
12702SOL    HW240307   5.588   2.984   9.377 -1.0165 -2.7388 -0.7169
12703SOL     OW40308   1.325   3.393   4.711  0.1646 -0.1266  0.3621
12703SOL    HW140309   1.373   3.362   4.788  0.5476 -0.4126  0.0085
12703SOL    HW240310   1.300   3.483   4.733 -0.7171 -0.5710  1.2781
12704SOL     OW40311   4.711   1.289   2.783  0.3691  0.0409  0.3157
12704SOL    HW140312   4.622   1.257   2.797  0.5489 -0.0209  1.4353
12704SOL    HW240313   4.718   1.366   2.839  0.9199  0.2380 -0.0151
12705SOL     OW40314   5.271   5.517   7.940 -0.3621 -0.2910 -0.0983
12705SOL    HW140315   5.228   5.506   7.856 -0.9946  0.9329  0.0482
12705SOL    HW240316   5.286   5.611   7.947  1.1277 -0.5410  0.4574
12706SOL     OW40317   8.720   6.400   3.971 -0.3511  1.0023 -0.1421
12706SOL    HW140318   8.724   6.469   4.036  0.1064  0.0427  0.8837
12706SOL    HW240319   8.771   6.328   4.009 -2.5226 -0.6768 -0.2067
12707SOL     OW40320   5.091   0.690   8.770 -0.7064  0.2728 -0.4731
12707SOL    HW140321   5.125   0.717   8.855  0.0360 -0.8087 -0.4139
12707SOL    HW240322   5.054   0.603   8.785 -2.2629  0.8226 -0.8606
12708SOL     OW40323   8.242   1.427   4.421  0.5222  0.2221 -0.0141
12708SOL    HW140324   8.225   1.380   4.340 -0.2264  1.4656 -0.6167
12708SOL    HW240325   8.155   1.455   4.451  0.8931  0.7713  0.5846
12709SOL     OW40326   0.722   8.912   4.627 -0.6217 -0.3183  0.0576
12709SOL    HW140327   0.706   9.003   4.602 -0.4765 -1.0873 -3.3490
12709SOL    HW240328   0.680   8.860   4.558  2.2002 -2.7246 -0.0581
12710SOL     OW40329   6.808   4.749   4.432 -0.0818  0.4193  0.3809
12710SOL    HW140330   6.873   4.756   4.501 -0.4408  0.1005  0.7650
12710SOL    HW240331   6.835   4.673   4.381  0.9519  1.4757 -0.6757
12711SOL     OW40332   8.510   4.650   6.773 -0.5537 -0.0574 -0.1384
12711SOL    HW140333   8.592   4.610   6.801 -1.4900 -0.6208  1.9583
12711SOL    HW240334   8.527   4.744   6.772 -0.0346 -0.1293  0.8727
12712SOL     OW40335   3.097   8.559   6.434 -0.3932  0.0922  0.0053
12712SOL    HW140336   3.036   8.564   6.360 -0.5282  3.3724  0.1749
12712SOL    HW240337   3.087   8.644   6.478  2.2112 -0.4012  1.7464
12713SOL     OW40338   4.479   7.414   1.617 -0.4128 -0.0308 -0.0081
12713SOL    HW140339   4.561   7.456   1.643  1.3869 -1.7775 -2.3174
12713SOL    HW240340   4.504   7.356   1.544 -3.1669 -2.9531  1.1186
12714SOL     OW40341   3.438   2.182   0.748 -0.0527 -0.5024 -0.5729
12714SOL    HW140342   3.434   2.219   0.836 -1.7057  0.6177 -1.0868
12714SOL    HW240343   3.470   2.092   0.761 -0.9320 -0.5792  1.2322
12715SOL     OW40344   8.563   9.145   7.057 -0.0237  0.7564  0.0986
12715SOL    HW140345   8.645   9.117   7.015  0.0143  0.4007  0.4034
12715SOL    HW240346   8.519   9.198   6.991  0.7627  1.5020  0.1573
12716SOL     OW40347   5.908   3.976   3.349  0.0566  0.3539  0.2010
12716SOL    HW140348   5.859   4.006   3.425  2.0664  0.2922  1.5878
12716SOL    HW240349   5.977   3.920   3.385  0.7827 -0.0429 -1.6971
12717SOL     OW40350   2.185   0.126   8.263  0.3236 -0.3774  0.0173
12717SOL    HW140351   2.192   0.108   8.357 -0.5085 -3.7257 -0.4412
12717SOL    HW240352   2.108   0.078   8.235 -0.9321  2.5309 -2.0446
12718SOL     OW40353   2.342   4.077   4.336 -0.1394 -0.1033  0.2473
12718SOL    HW140354   2.333   3.990   4.297  0.3146 -0.3292  0.6326
12718SOL    HW240355   2.359   4.060   4.428  0.0723  0.3954  0.3017
12719SOL     OW40356   7.106   1.672   0.055 -0.3023 -0.2054 -0.3582
12719SOL    HW140357   7.174   1.722   0.101 -0.9592 -1.2506  1.8749
12719SOL    HW240358   7.154   1.600   0.015  0.0257 -0.6083  0.7058
12720SOL     OW40359   8.385   2.956   5.701  0.2817  0.3834 -0.3875
12720SOL    HW140360   8.301   2.943   5.659 -0.4160  1.3916  0.6355
12720SOL    HW240361   8.418   2.868   5.719 -0.5387 -0.0124 -0.8255
12721SOL     OW40362   6.452   0.636   9.199 -0.5447  0.4866 -0.4911
12721SOL    HW140363   6.484   0.597   9.281 -1.1355  2.5577  0.8156
12721SOL    HW240364   6.357   0.642   9.210 -0.6076  1.0049 -1.2229
12722SOL     OW40365   8.340   4.905   3.356 -0.6263  0.2036  0.1391
12722SOL    HW140366   8.361   4.996   3.373 -0.9551  0.1519  0.9079
12722SOL    HW240367   8.245   4.904   3.346 -0.6607 -0.0879  0.4493
12723SOL     OW40368   8.358   2.400   1.637  0.3477  0.1034 -0.1112
12723SOL    HW140369   8.387   2.481   1.596  0.6201 -0.3472 -0.8124
12723SOL    HW240370   8.340   2.425   1.728  2.7464  0.4442  0.3299
12724SOL     OW40371   3.259   2.584   2.015 -0.4088  0.2103  0.0048
12724SOL    HW140372   3.278   2.674   1.990 -0.7407  0.3109  0.1185
12724SOL    HW240373   3.166   2.583   2.035 -0.8617 -0.5822 -1.8738
12725SOL     OW40374   8.979   4.934   1.549  0.3331 -0.3282  0.0786
12725SOL    HW140375   8.905   4.943   1.610  1.5491 -1.2523  1.7733
12725SOL    HW240376   8.978   4.842   1.524  0.1144 -0.0494 -0.9932
12726SOL     OW40377   1.609   8.235   6.725 -0.4583 -0.6407 -0.0286
12726SOL    HW140378   1.515   8.250   6.716 -0.4530 -0.2269  0.5665
12726SOL    HW240379   1.621   8.215   6.818 -0.1295 -1.9702 -0.3359
12727SOL     OW40380   2.576   7.069   6.005 -0.3672  0.5297 -0.2856
12727SOL    HW140381   2.595   6.989   5.955  0.1928 -0.1374  0.9467
12727SOL    HW240382   2.661   7.111   6.016 -0.7490  1.6982 -1.5304
12728SOL     OW40383   5.487   0.330   1.259 -0.3962  0.0276  0.1385
12728SOL    HW140384   5.460   0.418   1.233 -0.5831 -0.3907 -1.1484
12728SOL    HW240385   5.534   0.344   1.342 -0.3257  1.3471 -0.0879
12729SOL     OW40386   3.507   0.414   3.306  0.5574 -0.2962  0.2296
12729SOL    HW140387   3.594   0.375   3.302  1.4952  1.6334  1.0453
12729SOL    HW240388   3.481   0.424   3.214 -1.4906 -6.2299 -0.3145
12730SOL     OW40389   4.219   9.576   3.219  0.2914  0.0352 -0.8840
12730SOL    HW140390   4.250   9.666   3.224  1.5339 -0.3686 -0.8420
12730SOL    HW240391   4.290   9.529   3.175  1.0146 -1.4756  1.6690
12731SOL     OW40392   4.890   6.550   7.424 -0.0080  0.4789 -0.3423
12731SOL    HW140393   4.976   6.541   7.464 -0.5671 -0.0381  0.7886
12731SOL    HW240394   4.878   6.644   7.414  0.1102  0.6312  0.8269
12732SOL     OW40395   1.671   2.706   7.187  0.0477 -0.5843 -0.1685
12732SOL    HW140396   1.735   2.704   7.116 -1.1138 -2.9976 -1.2749
12732SOL    HW240397   1.607   2.771   7.161 -0.4735 -1.5826 -1.5050
12733SOL     OW40398   7.895   5.564   7.030 -0.0069 -0.1842 -0.0197
12733SOL    HW140399   7.870   5.475   7.003  0.3302 -0.2739 -0.0372
12733SOL    HW240400   7.838   5.621   6.979 -0.0357 -0.3830 -0.2105
12734SOL     OW40401   2.454   2.016   5.306  0.0969  0.2309  0.6823
12734SOL    HW140402   2.519   1.953   5.338 -1.0575 -0.9602  0.7749
12734SOL    HW240403   2.374   1.995   5.354 -0.1577  2.2850  1.2541
12735SOL     OW40404   4.004   2.498   6.141  0.3631 -0.3753  0.1599
12735SOL    HW140405   4.035   2.587   6.124  2.2244 -0.5404  2.2321
12735SOL    HW240406   4.083   2.447   6.157 -0.5854 -2.6584 -1.7344
12736SOL     OW40407   6.461   2.970   6.843  0.1841 -0.3068 -0.5188
12736SOL    HW140408   6.533   2.910   6.825  1.4179  1.1198 -0.5135
12736SOL    HW240409   6.435   2.951   6.933  2.0111  0.5951  0.2369
12737SOL     OW40410   8.852   2.978   4.520  0.0106  0.2240  0.4841
12737SOL    HW140411   8.829   2.918   4.449 -2.1321  0.5288  0.8605
12737SOL    HW240412   8.947   2.988   4.512 -0.1475  0.4263 -2.4896
12738SOL     OW40413   4.951   4.229   9.020  0.4361 -0.1738  0.3640
12738SOL    HW140414   4.912   4.242   9.106  0.5561  0.3365  0.3469
12738SOL    HW240415   5.002   4.309   9.005  0.1110 -0.0912 -0.3441
12739SOL     OW40416   5.797   1.839   4.794 -0.2635 -0.4937 -0.2334
12739SOL    HW140417   5.822   1.852   4.703 -0.4126  2.2693  0.0214
12739SOL    HW240418   5.877   1.861   4.844  0.2295 -3.2493  0.3457
12740SOL     OW40419   1.450   3.398   3.654 -0.0992 -0.1233 -0.0758
12740SOL    HW140420   1.424   3.313   3.691  0.2246 -0.7694 -1.2754
12740SOL    HW240421   1.374   3.455   3.669 -0.1978 -0.5279  1.0303
12741SOL     OW40422   1.757   1.880   7.339 -0.1084 -0.1923 -0.0120
12741SOL    HW140423   1.770   1.800   7.391  2.6445 -0.8725 -1.5533
12741SOL    HW240424   1.748   1.949   7.403 -1.2554 -1.5448  1.3631
12742SOL     OW40425   1.026   8.978   8.326 -0.2740 -0.4587 -0.3768
12742SOL    HW140426   0.943   8.975   8.280 -0.5878 -1.8573  0.2413
12742SOL    HW240427   1.008   8.940   8.412  0.6334  0.7428  0.3901
12743SOL     OW40428   1.116   7.359   3.571  0.0568  0.1819  0.3583
12743SOL    HW140429   1.121   7.447   3.606  0.0082  1.2002 -2.0155
12743SOL    HW240430   1.206   7.335   3.550 -0.2134  1.6757 -3.3504
12744SOL     OW40431   1.258   9.260   2.965 -0.1574  0.1732 -0.1721
12744SOL    HW140432   1.169   9.294   2.966 -0.4793 -0.6526  0.2133
12744SOL    HW240433   1.247   9.165   2.961  0.7077  0.0747 -0.3326
12745SOL     OW40434   4.438   7.573   4.471 -0.2849 -0.4396  0.5306
12745SOL    HW140435   4.372   7.515   4.434  0.2158 -0.4392 -0.3983
12745SOL    HW240436   4.396   7.659   4.474 -1.1004 -0.8503  2.1040
12746SOL     OW40437   6.561   2.568   5.270 -0.1955 -0.0873  0.6797
12746SOL    HW140438   6.519   2.641   5.316 -1.3709 -1.0342  1.1924
12746SOL    HW240439   6.495   2.539   5.207  0.0342 -1.0414  0.8666
12747SOL     OW40440   6.548   6.915   5.696  0.5497 -0.1242  0.0557
12747SOL    HW140441   6.509   6.953   5.617  2.9394  1.5141 -0.4532
12747SOL    HW240442   6.491   6.842   5.718 -0.9726  0.2072 -2.3917
12748SOL     OW40443   2.605   5.549   3.748 -0.3004  0.1394 -0.2794
12748SOL    HW140444   2.579   5.621   3.806 -0.5865  0.9382 -1.3614
12748SOL    HW240445   2.529   5.491   3.748 -1.5247  1.5839 -2.0386
12749SOL     OW40446   1.731   4.503   9.569 -0.1084 -0.1267 -0.0185
12749SOL    HW140447   1.755   4.593   9.548 -2.1967  0.6912  0.8411
12749SOL    HW240448   1.753   4.453   9.491  0.7585  1.1705 -0.6410
12750SOL     OW40449   3.108   0.092   1.286  0.6442  0.4656 -0.3536
12750SOL    HW140450   3.055   0.014   1.269 -1.5784  1.6689  0.5679
12750SOL    HW240451   3.130   0.125   1.199 -0.5657  0.1845 -0.7914
12751SOL     OW40452   7.765   3.082   7.989  0.2978 -0.5751 -0.2713
12751SOL    HW140453   7.762   3.178   7.984 -0.9398 -0.6690 -1.9267
12751SOL    HW240454   7.681   3.058   8.028  0.2364 -1.0225 -0.6758
12752SOL     OW40455   6.472   5.751   7.591  0.3896 -0.2358 -0.8879
12752SOL    HW140456   6.417   5.682   7.552  0.2633 -1.4428  1.2592
12752SOL    HW240457   6.550   5.705   7.622  1.8806  1.1830 -2.3409
12753SOL     OW40458   0.221   4.979   2.304  0.1747  0.6960  0.1206
12753SOL    HW140459   0.214   4.944   2.215 -0.7493 -0.5444  0.6362
12753SOL    HW240460   0.133   5.012   2.323  0.8578  2.7151 -0.0852
12754SOL     OW40461   9.051   0.368   6.660  0.2662  0.1281 -0.1345
12754SOL    HW140462   8.982   0.434   6.664 -0.0885 -0.0712 -2.1399
12754SOL    HW240463   9.080   0.359   6.751 -2.1454  0.4178  0.7436
12755SOL     OW40464   0.277   8.355   4.846  0.4414  0.0349  0.0295
12755SOL    HW140465   0.234   8.427   4.799  2.3373  1.9316  1.0216
12755SOL    HW240466   0.213   8.284   4.844 -2.2814  2.2844  0.5025
12756SOL     OW40467   5.313   3.792   1.982 -0.0523  0.1292 -0.2371
12756SOL    HW140468   5.363   3.742   2.047  0.2730  1.8704  0.9240
12756SOL    HW240469   5.229   3.808   2.023 -0.1781  0.4657 -0.6166
12757SOL     OW40470   8.566   2.400   7.036 -0.2320 -0.6277 -0.2408
12757SOL    HW140471   8.527   2.471   7.087  3.8857  2.6753 -1.1425
12757SOL    HW240472   8.534   2.415   6.947 -0.0887 -0.4072 -0.2586
12758SOL     OW40473   2.984   1.489   2.112  0.2141 -0.1992  0.4386
12758SOL    HW140474   3.008   1.580   2.094  0.8485 -0.0356  1.9550
12758SOL    HW240475   2.932   1.463   2.036  1.0268  1.0349 -0.5988
12759SOL     OW40476   7.769   4.697   7.946  0.9020 -0.0988 -0.3823
12759SOL    HW140477   7.767   4.792   7.937  3.1310 -0.0291 -0.9042
12759SOL    HW240478   7.839   4.669   7.887  0.9464 -1.9748  0.4726
12760SOL     OW40479   0.725   6.881   6.792 -0.5065  0.2891 -0.0887
12760SOL    HW140480   0.770   6.949   6.842 -0.1084  1.2808 -1.7112
12760SOL    HW240481   0.782   6.865   6.717 -2.0357  0.3356 -1.3023
12761SOL     OW40482   5.481   4.386   5.164 -0.2602  0.0147 -0.6026
12761SOL    HW140483   5.442   4.338   5.237  0.0993  1.1106  0.3308
12761SOL    HW240484   5.454   4.336   5.087 -1.9480 -0.3057  0.1357
12762SOL     OW40485   1.327   8.035   7.517  0.4215 -0.0405  0.1759
12762SOL    HW140486   1.238   8.019   7.487  0.1898  0.3238  0.6551
12762SOL    HW240487   1.366   8.091   7.451 -0.0972  0.8001  0.5736
12763SOL     OW40488   2.102   7.700   8.183 -0.2989 -0.0962  0.3445
12763SOL    HW140489   2.105   7.609   8.211  0.9830 -0.1721  0.0090
12763SOL    HW240490   2.097   7.750   8.265  1.2841 -0.3919  0.6459
12764SOL     OW40491   0.216   1.266   9.300  0.0275 -0.2234 -0.0801
12764SOL    HW140492   0.282   1.312   9.249  0.8144  2.1727  2.8271
12764SOL    HW240493   0.267   1.217   9.366 -0.9969 -1.7819 -0.3872
12765SOL     OW40494   1.515   4.559   1.457  0.1211 -0.1423 -0.2394
12765SOL    HW140495   1.472   4.585   1.538  0.8440 -0.9763  0.4308
12765SOL    HW240496   1.449   4.510   1.409 -0.3606  0.4885 -0.2345
12766SOL     OW40497   1.511   7.586   4.942 -0.4118 -0.5299  0.4254
12766SOL    HW140498   1.525   7.660   4.882  0.8108 -1.3203 -0.3102
12766SOL    HW240499   1.428   7.606   4.986  0.4852  1.8953  1.1779
12767SOL     OW40500   0.751   6.430   5.288  0.6161  0.3558 -0.1390
12767SOL    HW140501   0.775   6.360   5.227 -1.3258  1.4313 -2.2696
12767SOL    HW240502   0.765   6.511   5.239 -1.7112  1.2347  0.5250
12768SOL     OW40503   3.455   7.065   1.696 -0.2594  0.6028  0.4592
12768SOL    HW140504   3.504   7.037   1.619  2.2206  0.2192  2.0773
12768SOL    HW240505   3.387   6.998   1.707 -0.0502  0.1626 -0.8378
12769SOL     OW40506   3.704   1.463   0.517  0.2045  0.4815  0.2059
12769SOL    HW140507   3.747   1.507   0.590  2.9144  0.1841 -1.1100
12769SOL    HW240508   3.717   1.370   0.534  1.3672  0.4211 -0.9065
12770SOL     OW40509   2.814   6.802   9.003  0.8264 -0.3439  0.0272
12770SOL    HW140510   2.785   6.720   9.041  0.2874 -0.3890 -0.4715
12770SOL    HW240511   2.885   6.831   9.060  0.4010 -0.6842  0.7418
12771SOL     OW40512   4.831   2.992   2.096 -0.0799  1.0128 -0.0218
12771SOL    HW140513   4.760   2.955   2.043  0.2924  0.2833 -0.0162
12771SOL    HW240514   4.786   3.046   2.162 -0.7581 -0.8129  1.0844
12772SOL     OW40515   5.286   7.017   2.594  0.3547 -0.3168 -0.1296
12772SOL    HW140516   5.232   7.020   2.672  0.4219  1.9067 -0.1051
12772SOL    HW240517   5.358   6.958   2.616  0.5810  0.5796  1.6518
12773SOL     OW40518   1.561   8.619   0.265  0.0703 -0.1649  0.6186
12773SOL    HW140519   1.640   8.640   0.314  0.0293  1.2791  0.1141
12773SOL    HW240520   1.588   8.620   0.173 -0.8695  2.3181  0.2858
12774SOL     OW40521   7.047   9.284   7.782 -0.0894 -0.1722  0.2352
12774SOL    HW140522   7.018   9.213   7.725  1.2023 -1.1201  0.7080
12774SOL    HW240523   7.029   9.363   7.732  1.5392 -0.9834 -1.8015
12775SOL     OW40524   1.700   0.923   9.037 -0.5123 -0.3322 -0.3317
12775SOL    HW140525   1.711   0.984   8.964 -0.6568 -0.6083 -0.5793
12775SOL    HW240526   1.607   0.927   9.058 -0.3959  0.1005  0.1457
12776SOL     OW40527   4.794   2.817   9.402  0.0027  0.1899 -0.4943
12776SOL    HW140528   4.733   2.876   9.358 -2.7977 -0.9572  1.5253
12776SOL    HW240529   4.777   2.731   9.362  1.1205  0.0188 -0.6370
12777SOL     OW40530   3.419   1.811   6.172  0.5224 -0.1918 -0.3090
12777SOL    HW140531   3.403   1.742   6.237 -0.2458 -0.5709 -0.8943
12777SOL    HW240532   3.434   1.889   6.224  0.5835 -0.6301  0.3456
12778SOL     OW40533   3.669   3.313   0.013 -0.3666 -0.7200 -0.0468
12778SOL    HW140534   3.757   3.291  -0.018  0.1593 -1.2524  1.6824
12778SOL    HW240535   3.634   3.231   0.047 -0.2794  0.0709  2.1129
12779SOL     OW40536   8.202   8.886   7.021 -0.1596  0.2449  0.0803
12779SOL    HW140537   8.195   8.979   7.043  0.6920 -0.1776  2.4278
12779SOL    HW240538   8.123   8.846   7.058 -0.1381 -0.0897 -0.2285
12780SOL     OW40539   2.666   6.819   5.875  0.1313 -0.3649 -0.4213
12780SOL    HW140540   2.640   6.779   5.958  3.1581  1.0362  1.3362
12780SOL    HW240541   2.681   6.745   5.817  2.0074 -1.7070  1.6146
12781SOL     OW40542   9.317   6.400   4.932 -0.2943  0.5225  0.4299
12781SOL    HW140543   9.356   6.485   4.951 -0.8802  0.7430  0.6632
12781SOL    HW240544   9.226   6.408   4.961 -0.1278 -0.4701  1.2926
12782SOL     OW40545   8.963   3.373   6.892  0.1421 -0.0102  0.3844
12782SOL    HW140546   9.028   3.331   6.947  0.3325  0.5786  0.6147
12782SOL    HW240547   8.887   3.385   6.949 -0.1700 -0.6773  0.1224
12783SOL     OW40548   5.783   3.808   4.524 -0.2373 -0.2106  0.3192
12783SOL    HW140549   5.748   3.844   4.605  1.8239  1.1811  0.6623
12783SOL    HW240550   5.878   3.818   4.532  0.2496 -2.9064 -0.9517
12784SOL     OW40551   7.638   0.324   2.228  0.0200 -0.1693 -0.3945
12784SOL    HW140552   7.671   0.292   2.312 -1.8157 -1.4171 -0.0814
12784SOL    HW240553   7.713   0.321   2.169  0.6034 -2.3619  0.3941
12785SOL     OW40554   5.660   5.998   0.311  0.7382 -0.3485 -0.3586
12785SOL    HW140555   5.710   6.074   0.281  1.4428 -0.4893  0.4447
12785SOL    HW240556   5.568   6.024   0.300  0.9756  0.5332 -0.2913
12786SOL     OW40557   9.099   4.999   0.746  0.1143 -0.5014  0.1119
12786SOL    HW140558   9.123   4.967   0.833  1.3765  1.0982  0.4082
12786SOL    HW240559   9.015   5.044   0.759 -0.2025 -1.1207  0.2707
12787SOL     OW40560   7.729   4.966   3.435  0.0333 -0.1151 -0.5808
12787SOL    HW140561   7.728   5.032   3.366  2.3623 -0.8878 -1.4699
12787SOL    HW240562   7.766   4.888   3.393  1.1478 -0.7553  1.4449
12788SOL     OW40563   6.144   5.828   9.274 -0.4868 -0.0193 -0.2998
12788SOL    HW140564   6.091   5.761   9.231 -0.3909 -0.4586  0.2475
12788SOL    HW240565   6.207   5.778   9.326  0.0130  0.4972 -0.3975
12789SOL     OW40566   7.440   6.474   7.320  0.4492 -0.0516 -0.1252
12789SOL    HW140567   7.414   6.474   7.228 -1.0353  2.5481  0.1735
12789SOL    HW240568   7.521   6.525   7.322  1.2463 -1.2736 -0.1025
12790SOL     OW40569   8.559   0.071   3.201  0.3615 -0.1809 -0.3100
12790SOL    HW140570   8.515   0.106   3.278 -0.0656 -0.8157 -0.2621
12790SOL    HW240571   8.631   0.132   3.185 -0.3575  0.7086 -0.2257
12791SOL     OW40572   7.672   8.076   1.359 -0.4571 -0.1973  0.1606
12791SOL    HW140573   7.731   8.112   1.293  1.5800 -1.9722  0.8888
12791SOL    HW240574   7.676   8.137   1.432  0.7374 -0.4327  0.3058
12792SOL     OW40575   1.112   7.505   6.816 -0.9296 -0.3832  0.0479
12792SOL    HW140576   1.145   7.422   6.780 -0.4661 -0.9814  1.7180
12792SOL    HW240577   1.191   7.548   6.851 -1.0393  1.1781 -1.5236
12793SOL     OW40578   3.107   1.661   7.040  0.5311  0.2615 -0.1682
12793SOL    HW140579   3.176   1.663   6.974  0.4516  0.5085 -0.2439
12793SOL    HW240580   3.147   1.618   7.116  0.5376 -0.2805 -0.4719
12794SOL     OW40581   4.965   6.186   3.604  0.3101 -0.0846  0.1746
12794SOL    HW140582   5.014   6.261   3.570 -0.2626 -0.0052 -0.4869
12794SOL    HW240583   5.026   6.144   3.665  0.9845  0.3656 -0.1733
12795SOL     OW40584   1.207   2.593   0.092 -0.2237  0.1333  0.2571
12795SOL    HW140585   1.258   2.534   0.037 -1.1163 -1.3870  0.9949
12795SOL    HW240586   1.272   2.646   0.138  0.6584 -0.9277  0.2790
12796SOL     OW40587   0.095   0.496   9.577  0.0228 -0.0351  0.1796
12796SOL    HW140588   0.132   0.578   9.611  2.3974 -1.1413  0.4397
12796SOL    HW240589   0.112   0.500   9.483 -0.3540  0.0112  0.1146
12797SOL     OW40590   4.398   6.208   2.614  0.4629  0.3540 -0.4971
12797SOL    HW140591   4.361   6.290   2.583 -2.9168 -0.3784  1.1624
12797SOL    HW240592   4.425   6.225   2.704  2.0103  0.2142 -0.9075
12798SOL     OW40593   7.597   8.490   9.023  0.4040  0.0619  0.0181
12798SOL    HW140594   7.642   8.450   8.949 -0.5873  0.4034 -0.7965
12798SOL    HW240595   7.638   8.576   9.033  0.3574  0.1207 -0.3017
12799SOL     OW40596   3.422   8.488   7.269 -0.3654  0.2858 -0.6809
12799SOL    HW140597   3.352   8.451   7.216 -1.1286  0.5141  0.1384
12799SOL    HW240598   3.465   8.552   7.211 -0.5561 -0.1653 -1.3258
12800SOL     OW40599   3.055   5.106   3.991 -0.8629  0.0531  0.2010
12800SOL    HW140600   2.972   5.152   4.001 -0.5096  0.7295  0.1467
12800SOL    HW240601   3.034   5.014   4.003 -2.4665 -0.3766 -4.2687
12801SOL     OW40602   8.140   5.980   4.781 -0.0857  0.6622  0.2228
12801SOL    HW140603   8.096   6.001   4.698 -0.4253 -0.2931  0.1493
12801SOL    HW240604   8.072   5.939   4.835  0.6320 -0.6390  0.1866
12802SOL     OW40605   5.318   5.142   1.748  0.2073 -0.4587  0.1670
12802SOL    HW140606   5.341   5.188   1.668  1.1455 -1.3677 -0.1031
12802SOL    HW240607   5.223   5.130   1.743 -0.1374  1.7017  0.4089
12803SOL     OW40608   8.426   8.475   2.057 -0.0432  0.2539  0.0269
12803SOL    HW140609   8.473   8.406   2.105  1.0334 -0.0236 -1.3684
12803SOL    HW240610   8.350   8.431   2.019 -0.0984  0.1456  0.2609
12804SOL     OW40611   1.105   0.358   3.188 -0.3330 -0.0310  0.0993
12804SOL    HW140612   1.189   0.404   3.189 -0.2165 -0.2048  1.7284
12804SOL    HW240613   1.078   0.360   3.097  1.9285 -0.8589 -0.6703
12805SOL     OW40614   0.049   1.246   6.931 -0.8333 -0.0361  0.4492
12805SOL    HW140615   0.041   1.339   6.908 -0.3454 -0.3000 -0.9143
12805SOL    HW240616  -0.036   1.208   6.907  0.2028 -0.6382 -2.8506
12806SOL     OW40617   5.634   0.019   2.308  0.0919  0.3697 -0.6726
12806SOL    HW140618   5.590  -0.066   2.315  0.0440  0.2741 -1.9530
12806SOL    HW240619   5.654   0.042   2.399 -1.9933  0.1085 -0.0825
12807SOL     OW40620   1.488   2.909   3.746 -0.0474 -0.1165 -0.8088
12807SOL    HW140621   1.482   2.924   3.651 -0.6993 -2.8108 -1.2589
12807SOL    HW240622   1.398   2.906   3.776  0.1589  1.6800  0.1444
12808SOL     OW40623   9.021   3.736   9.045  0.6974  0.0619 -0.0081
12808SOL    HW140624   9.105   3.775   9.021  1.6718 -1.3810  0.8593
12808SOL    HW240625   9.006   3.670   8.977 -0.0942  0.7664 -0.5336
12809SOL     OW40626   0.103   9.528   9.265 -0.3132 -0.5051  0.1603
12809SOL    HW140627   0.153   9.462   9.313  0.5948  0.6370  0.8418
12809SOL    HW240628   0.016   9.490   9.254  0.2964 -1.9510  0.2167
12810SOL     OW40629   1.838   4.734   4.029 -0.3068  0.2631 -0.0232
12810SOL    HW140630   1.853   4.642   4.008  0.1794  0.3857 -0.2215
12810SOL    HW240631   1.773   4.732   4.100  0.1978 -0.2591  0.4346
12811SOL     OW40632   0.256   6.593   5.916 -0.7566  0.3265  0.2204
12811SOL    HW140633   0.345   6.627   5.911 -0.9384  0.9934  1.2388
12811SOL    HW240634   0.202   6.670   5.934 -1.6902  0.1157 -1.4341
12812SOL     OW40635   1.856   0.913   3.892  0.0581  0.1741  0.6808
12812SOL    HW140636   1.931   0.857   3.872  0.1378  0.5071 -0.0052
12812SOL    HW240637   1.894   0.990   3.934 -0.1365 -0.6458  2.4356
12813SOL     OW40638   6.995   8.185   4.691 -0.1562 -0.1132 -0.5265
12813SOL    HW140639   7.077   8.227   4.716  1.1226 -2.5888 -0.2641
12813SOL    HW240640   6.990   8.197   4.596  0.4996  0.0659 -0.5417
12814SOL     OW40641   0.288   8.547   3.652 -0.2210  0.3983  0.4571
12814SOL    HW140642   0.280   8.459   3.689 -0.3256 -0.0832 -0.6626
12814SOL    HW240643   0.202   8.586   3.664 -0.7778 -0.3837 -0.7807
12815SOL     OW40644   4.344   6.671   8.101 -0.4780  0.2871  0.0454
12815SOL    HW140645   4.344   6.767   8.111 -1.6077  0.1503  1.7998
12815SOL    HW240646   4.315   6.638   8.186 -2.2633 -1.5312 -1.1807
12816SOL     OW40647   7.951   8.283   1.675 -0.7551  0.1067  0.0233
12816SOL    HW140648   8.035   8.321   1.650 -1.3629  0.2497 -1.9217
12816SOL    HW240649   7.942   8.206   1.619 -1.9307  0.1041  0.1910
12817SOL     OW40650   0.777   1.502   1.588  0.4475 -0.1904 -0.1234
12817SOL    HW140651   0.723   1.474   1.661 -3.2048  2.1897 -1.6450
12817SOL    HW240652   0.838   1.429   1.574 -0.9085 -2.1381  3.1165
12818SOL     OW40653   5.953   2.508   2.759  0.3068 -0.5252  0.6970
12818SOL    HW140654   5.873   2.550   2.727 -0.0551 -2.5450 -1.3468
12818SOL    HW240655   5.928   2.417   2.773  2.0473 -1.0272  0.8019
12819SOL     OW40656   3.216   4.380   1.071  0.0388 -0.0492  0.5430
12819SOL    HW140657   3.268   4.422   1.140  1.0805  0.3751 -0.4704
12819SOL    HW240658   3.278   4.324   1.025 -0.4746  0.2247 -0.4952
12820SOL     OW40659   5.196   3.946   0.750 -0.5525 -0.5694 -0.5600
12820SOL    HW140660   5.273   3.920   0.700  0.2622 -0.7400  0.7298
12820SOL    HW240661   5.180   3.872   0.809 -0.2751  0.4084  0.7920
12821SOL     OW40662   0.376   2.684   1.148  0.2475 -0.2159  0.2449
12821SOL    HW140663   0.466   2.688   1.118  0.4236  1.6095  0.9131
12821SOL    HW240664   0.323   2.685   1.069  0.7888 -1.2504 -0.1478
12822SOL     OW40665   2.976   9.395   6.610  0.7009  0.9929  0.3592
12822SOL    HW140666   2.980   9.376   6.516 -0.4953  0.9818  0.2941
12822SOL    HW240667   2.890   9.363   6.637  1.1682  0.6861  1.5360
12823SOL     OW40668   7.179   2.895   3.154  0.3971  0.2577  0.3264
12823SOL    HW140669   7.136   2.852   3.228  1.3656  0.5997  1.1167
12823SOL    HW240670   7.126   2.974   3.139 -0.5723 -0.4794 -0.2254
12824SOL     OW40671   7.497   0.150   1.132 -0.0722 -0.1028  0.0395
12824SOL    HW140672   7.571   0.138   1.072  0.6621  1.3704  0.5896
12824SOL    HW240673   7.438   0.209   1.085 -0.5284 -0.6549 -0.0853
12825SOL     OW40674   6.935   0.242   1.370  0.0743  0.0734 -0.4504
12825SOL    HW140675   6.927   0.336   1.358  1.7278  0.2458 -0.3220
12825SOL    HW240676   6.912   0.205   1.285 -0.3654  0.5970 -0.5638
12826SOL     OW40677   0.544   1.980   3.400 -0.2676 -0.0053 -0.1270
12826SOL    HW140678   0.479   1.977   3.470  1.8012  0.8254  1.9657
12826SOL    HW240679   0.526   2.062   3.354 -0.8047  0.1282  0.3167
12827SOL     OW40680   6.502   6.696   1.992  0.2467 -0.1281 -0.4120
12827SOL    HW140681   6.571   6.716   1.929  0.0239  0.2033 -0.5517
12827SOL    HW240682   6.533   6.734   2.075  0.7019 -0.8661 -0.2327
12828SOL     OW40683   1.959   7.905   2.786  0.1851  0.2234 -0.2635
12828SOL    HW140684   2.053   7.900   2.766 -0.1254 -0.7503 -1.5871
12828SOL    HW240685   1.932   7.814   2.799 -0.3777  0.5673  1.2307
12829SOL     OW40686   7.715   3.398   6.988  0.8328 -0.1444  0.0022
12829SOL    HW140687   7.644   3.342   6.956 -0.7297  1.0877  1.1162
12829SOL    HW240688   7.690   3.486   6.960  2.2087  0.2489 -0.0307
12830SOL     OW40689   9.461   7.156   8.627  0.1211 -0.2386  0.1144
12830SOL    HW140690   9.503   7.107   8.557 -0.1306  0.2300 -0.3821
12830SOL    HW240691   9.421   7.231   8.582 -1.2656 -0.6794  0.5454
12831SOL     OW40692   3.476   8.337   4.990  0.6412  0.2717 -0.1347
12831SOL    HW140693   3.549   8.391   5.023  1.6799 -0.5598 -0.9947
12831SOL    HW240694   3.429   8.395   4.930  0.0916  1.0664  1.0107
12832SOL     OW40695   0.210   1.802   6.793  0.2318 -0.3894  0.3367
12832SOL    HW140696   0.235   1.888   6.826 -0.1887 -0.4331  0.7914
12832SOL    HW240697   0.138   1.775   6.850 -0.6909 -0.3694 -0.7776
12833SOL     OW40698   6.436   2.476   6.812  0.0647 -0.3772  0.4902
12833SOL    HW140699   6.351   2.447   6.844 -0.1391 -2.4255 -1.6137
12833SOL    HW240700   6.416   2.548   6.752 -0.3527 -1.3834 -0.6391
12834SOL     OW40701   4.549   1.856   3.053 -0.1469  0.4347  1.0521
12834SOL    HW140702   4.582   1.803   3.126  1.0969  1.0690  0.9923
12834SOL    HW240703   4.622   1.856   2.990 -0.8616  0.6411  0.2142
12835SOL     OW40704   7.774   4.680   5.992 -0.0071 -0.2560  0.0815
12835SOL    HW140705   7.692   4.640   5.963  0.5181 -1.7310  0.5445
12835SOL    HW240706   7.787   4.753   5.931  0.3708 -2.4156 -2.6449
12836SOL     OW40707   5.310   8.264   3.980  0.5860 -0.0940 -0.3498
12836SOL    HW140708   5.342   8.175   3.986  0.8491  0.0819  1.2274
12836SOL    HW240709   5.360   8.303   3.908  0.8417 -1.0554 -0.6998
12837SOL     OW40710   2.113   6.272   2.551  0.2026  0.0364  0.0876
12837SOL    HW140711   2.207   6.292   2.547  0.1623  0.8356  1.9865
12837SOL    HW240712   2.070   6.357   2.552 -0.7493 -0.3006 -2.8885
12838SOL     OW40713   1.074   1.561   7.880  0.1630 -0.1925 -0.0699
12838SOL    HW140714   0.994   1.525   7.918  0.0281  0.4923  0.2980
12838SOL    HW240715   1.139   1.553   7.950  0.2079  0.0006 -0.0893
12839SOL     OW40716   6.869   4.919   0.809  0.0531 -0.3440  0.2719
12839SOL    HW140717   6.851   4.973   0.886  1.5957 -0.7166  0.9368
12839SOL    HW240718   6.919   4.845   0.843 -1.5956 -2.0000 -0.6805
12840SOL     OW40719   9.071   5.062   0.038 -0.4361 -0.2076 -0.6416
12840SOL    HW140720   9.080   5.011   0.119  1.0762  0.4362 -0.3603
12840SOL    HW240721   9.054   4.997  -0.030 -0.6084 -0.8704  0.0306
12841SOL     OW40722   9.396   4.957   8.893 -0.0651  0.3238 -0.1085
12841SOL    HW140723   9.463   5.023   8.877  0.2428  0.1980  0.6286
12841SOL    HW240724   9.407   4.894   8.822  0.5204  0.3655 -0.0533
12842SOL     OW40725   6.327   6.260   1.069 -0.5055 -0.4315  0.2431
12842SOL    HW140726   6.369   6.264   1.155 -0.4293 -1.3338  0.2664
12842SOL    HW240727   6.339   6.347   1.031 -0.1198 -0.1720  0.9497
12843SOL     OW40728   4.854   8.827   1.544 -0.1465 -0.2575  0.1099
12843SOL    HW140729   4.911   8.875   1.604 -0.8428 -0.2833  0.8139
12843SOL    HW240730   4.825   8.750   1.593 -2.6743  0.9503  0.6932
12844SOL     OW40731   8.627   6.282   0.474 -0.2264  0.4795  0.0725
12844SOL    HW140732   8.548   6.331   0.493 -0.3544  0.4974 -0.4769
12844SOL    HW240733   8.684   6.345   0.428  0.1743  0.5181  0.6169
12845SOL     OW40734   4.693   2.660   0.384 -0.0269 -0.0605  0.0682
12845SOL    HW140735   4.736   2.678   0.300 -0.0905  0.6558  0.1852
12845SOL    HW240736   4.701   2.741   0.433 -2.3262  0.4118 -0.2515
12846SOL     OW40737   6.887   8.360   6.701 -0.3520  0.1646  0.1507
12846SOL    HW140738   6.841   8.306   6.765 -0.0579 -0.5754 -0.2586
12846SOL    HW240739   6.862   8.450   6.724 -0.9694 -0.1463  0.7347
12847SOL     OW40740   1.359   6.311   4.140 -0.4682  0.4333  0.6127
12847SOL    HW140741   1.358   6.332   4.234 -0.2905  0.8179  0.5274
12847SOL    HW240742   1.269   6.283   4.122 -0.0026 -1.7276  1.3596
12848SOL     OW40743   9.090   6.129   0.319 -0.2887 -0.2235 -0.2748
12848SOL    HW140744   9.105   6.200   0.256  1.7462 -0.7848 -0.4822
12848SOL    HW240745   9.076   6.051   0.265 -2.7198 -0.0266 -0.0499
12849SOL     OW40746   4.150   2.088   4.665  0.0872 -0.1769 -0.0750
12849SOL    HW140747   4.230   2.078   4.613  1.3079  0.6718  1.5239
12849SOL    HW240748   4.179   2.073   4.755 -2.0155 -1.9273  0.3705
12850SOL     OW40749   2.588   0.196   6.296 -0.1803  0.1582  0.4011
12850SOL    HW140750   2.600   0.203   6.390  0.0994  2.5078  0.2290
12850SOL    HW240751   2.671   0.225   6.258 -0.5181 -0.0930 -0.5804
12851SOL     OW40752   0.116   8.952   4.162 -0.2403 -0.1167 -0.2729
12851SOL    HW140753   0.142   9.043   4.176 -0.9502  0.7405 -3.5870
12851SOL    HW240754   0.158   8.903   4.233  1.8005  2.5006  0.4698
12852SOL     OW40755   0.304   8.359   0.171  0.6697 -0.6178 -0.2177
12852SOL    HW140756   0.381   8.312   0.203  0.3391 -0.7170  0.4525
12852SOL    HW240757   0.320   8.372   0.077  1.7578 -0.1419  0.0219
12853SOL     OW40758   5.945   4.722   7.474  0.0871  0.3096  0.2966
12853SOL    HW140759   5.995   4.691   7.399 -1.4871 -0.7952 -0.3631
12853SOL    HW240760   5.923   4.813   7.453  0.4433  0.2975 -0.1438
12854SOL     OW40761   2.855   0.093   0.007  0.0083  0.0124  0.2865
12854SOL    HW140762   2.797   0.157  -0.035  1.5722  1.0752 -0.3254
12854SOL    HW240763   2.942   0.112  -0.028  0.8622 -1.1106  1.6807
12855SOL     OW40764   6.468   7.764   2.434 -0.5069 -0.9845 -0.1621
12855SOL    HW140765   6.530   7.834   2.453 -0.6268 -0.8949 -0.1056
12855SOL    HW240766   6.399   7.774   2.499 -1.1505 -0.3980 -0.9237
12856SOL     OW40767   0.625   0.152   7.162 -0.3309 -0.4934 -0.4630
12856SOL    HW140768   0.599   0.066   7.130 -2.7239  0.2876 -0.7770
12856SOL    HW240769   0.567   0.213   7.117 -0.5424  1.0738  1.7794
12857SOL     OW40770   8.191   8.831   1.994  0.1009  0.8378  0.2237
12857SOL    HW140771   8.177   8.799   2.083  0.9479  0.1219  0.1098
12857SOL    HW240772   8.251   8.768   1.954 -0.7754  0.7746 -1.0740
12858SOL     OW40773   4.877   1.105   3.602 -0.0785 -0.1194  0.1986
12858SOL    HW140774   4.821   1.075   3.530 -1.1629  0.7166  0.6706
12858SOL    HW240775   4.959   1.130   3.560 -0.8645  0.8056 -0.8171
12859SOL     OW40776   9.462   1.969   3.458  0.5495 -0.4207 -0.3671
12859SOL    HW140777   9.501   2.047   3.500 -3.7190  1.3748  0.7853
12859SOL    HW240778   9.429   2.002   3.375  0.5722 -1.6188 -0.8602
12860SOL     OW40779   2.589   7.812   3.878 -0.0377  0.2887  0.0122
12860SOL    HW140780   2.519   7.770   3.827 -0.8333  1.5802 -0.0036
12860SOL    HW240781   2.604   7.752   3.951  0.3770 -1.0743 -1.1362
12861SOL     OW40782   1.194   5.040   7.430  0.4329 -0.0532  0.5902
12861SOL    HW140783   1.150   5.023   7.346  0.7413 -1.3599  0.6699
12861SOL    HW240784   1.212   4.953   7.465 -0.3232  0.4766  2.3681
12862SOL     OW40785   5.088   1.381   0.078  0.1131  0.2053 -0.2057
12862SOL    HW140786   5.168   1.330   0.064  0.0545  0.2348 -0.6626
12862SOL    HW240787   5.024   1.342   0.019  0.0072  0.6711 -0.4059
12863SOL     OW40788   7.706   0.952   1.249 -0.7054 -0.0681 -0.0545
12863SOL    HW140789   7.744   1.037   1.226 -0.8309  0.2264  0.7741
12863SOL    HW240790   7.760   0.920   1.321 -0.6175 -0.7304 -0.4064
12864SOL     OW40791   1.761   0.631   0.870  0.2561 -0.0885  0.0161
12864SOL    HW140792   1.805   0.716   0.868 -1.1170  0.7643  2.0040
12864SOL    HW240793   1.832   0.567   0.872  1.3366  1.0492 -0.6174
12865SOL     OW40794   4.157   0.397   2.617  0.8002  0.0203 -0.1182
12865SOL    HW140795   4.189   0.347   2.542  0.1237  0.5237 -0.7483
12865SOL    HW240796   4.190   0.486   2.604 -2.3038  1.0860 -1.8227
12866SOL     OW40797   0.904   3.929   3.140 -0.8992 -0.1230  0.2182
12866SOL    HW140798   0.929   3.837   3.125 -1.4489 -0.1202 -0.8254
12866SOL    HW240799   0.898   3.966   3.052 -0.7464  0.9073  0.6315
12867SOL     OW40800   5.444   1.223   1.925  0.3549 -0.2224 -0.7729
12867SOL    HW140801   5.454   1.218   1.830 -1.6524 -1.1402 -0.9825
12867SOL    HW240802   5.394   1.304   1.939  1.1524  0.2254 -0.4169
12868SOL     OW40803   8.946   4.402   9.349  0.0684  0.2677 -0.5007
12868SOL    HW140804   8.888   4.415   9.274  0.0336  0.3870 -0.4531
12868SOL    HW240805   8.896   4.346   9.408  0.1168  0.1294 -0.5890
12869SOL     OW40806   4.606   8.460   3.149  0.7309 -0.1094  0.0434
12869SOL    HW140807   4.664   8.395   3.110 -2.0819 -2.0944 -1.1974
12869SOL    HW240808   4.549   8.488   3.077  0.6157  2.3363  0.9909
12870SOL     OW40809   4.262   2.716   0.993  0.0800 -0.2173 -0.2885
12870SOL    HW140810   4.167   2.708   0.979  0.1298 -0.8609 -0.3098
12870SOL    HW240811   4.293   2.765   0.917 -0.3327  0.6383  0.0796
12871SOL     OW40812   1.494   9.101   8.470  1.1597 -0.3826  0.0771
12871SOL    HW140813   1.582   9.068   8.454  0.8984 -1.5587  0.8897
12871SOL    HW240814   1.479   9.167   8.402  2.4197 -0.6218 -0.4487
12872SOL     OW40815   1.441   3.532   5.477  0.0224  0.1880 -0.0643
12872SOL    HW140816   1.471   3.482   5.553 -0.9447  0.8855  0.8251
12872SOL    HW240817   1.474   3.484   5.401 -0.1264 -1.2932  0.7665
12873SOL     OW40818   5.500   3.882   1.161 -0.4223 -0.5875  0.0302
12873SOL    HW140819   5.408   3.909   1.155 -0.6195 -1.0259  0.8210
12873SOL    HW240820   5.518   3.836   1.079 -1.1519 -1.1786  0.1868
12874SOL     OW40821   3.574   6.663   1.670 -0.2088  0.2902 -0.2666
12874SOL    HW140822   3.614   6.590   1.717 -0.1616 -0.0962 -0.8894
12874SOL    HW240823   3.488   6.675   1.712 -0.4961 -0.5666 -0.5846
12875SOL     OW40824   0.192   3.080   5.812 -0.2336 -0.3662  0.3050
12875SOL    HW140825   0.103   3.069   5.777 -0.0256 -0.1490 -0.3073
12875SOL    HW240826   0.218   2.991   5.839 -0.4942 -0.4991  0.1262
12876SOL     OW40827   2.707   9.444   1.374  0.0714 -0.3021 -0.7048
12876SOL    HW140828   2.615   9.449   1.399  0.8501  0.6692  2.4357
12876SOL    HW240829   2.738   9.362   1.412  0.6078 -0.4207 -1.3787
12877SOL     OW40830   0.325   7.351   8.640 -0.1015  0.3618  0.2495
12877SOL    HW140831   0.269   7.419   8.678  0.5608  0.0666  1.8360
12877SOL    HW240832   0.275   7.270   8.651 -0.1392  0.3459 -0.0315
12878SOL     OW40833   0.583   4.736   8.818  0.3476  0.1172  0.4943
12878SOL    HW140834   0.519   4.699   8.757  1.9027 -2.1431  0.0891
12878SOL    HW240835   0.629   4.660   8.854  2.1135  1.5831  1.5452
12879SOL     OW40836   2.093   8.447   4.257  0.1728 -0.0767  0.4266
12879SOL    HW140837   2.081   8.354   4.273 -1.1435  0.1362  0.8063
12879SOL    HW240838   2.141   8.452   4.174 -0.0518 -1.0847  0.2305
12880SOL     OW40839   3.831   0.580   8.220  0.5805  0.6288  0.5873
12880SOL    HW140840   3.753   0.567   8.274  1.6184  0.5895  2.1431
12880SOL    HW240841   3.859   0.491   8.197 -0.2501  0.6633 -0.6425
12881SOL     OW40842   2.000   8.107   1.333  0.3046  1.0180 -0.0883
12881SOL    HW140843   1.916   8.104   1.285  0.5761 -0.6890 -0.5354
12881SOL    HW240844   2.003   8.195   1.370 -2.5193  0.5873  1.4289
12882SOL     OW40845   7.167   8.327   2.016  0.0823  0.2842  0.0677
12882SOL    HW140846   7.097   8.330   2.081 -0.1133 -1.8227  0.0154
12882SOL    HW240847   7.123   8.313   1.933  0.5306 -0.8936  0.0119
12883SOL     OW40848   2.970   7.288   7.354 -0.6402  0.1390 -0.9325
12883SOL    HW140849   2.878   7.305   7.334 -0.6067  1.8448  0.0870
12883SOL    HW240850   2.971   7.268   7.448 -0.0636 -0.7597 -1.1188
12884SOL     OW40851   4.558   9.560   4.928 -0.3054  0.3322 -0.2078
12884SOL    HW140852   4.566   9.525   5.017  3.7674 -0.9095 -0.8330
12884SOL    HW240853   4.539   9.483   4.875 -1.8923  0.9444 -0.5844
12885SOL     OW40854   8.707   7.341   4.060 -0.0557 -0.2453  0.5050
12885SOL    HW140855   8.754   7.400   4.119  1.2649 -2.0102  1.3099
12885SOL    HW240856   8.615   7.347   4.088  0.4134 -0.3391  2.1415
12886SOL     OW40857   1.753   5.715   7.919  0.2397  0.1886 -0.2961
12886SOL    HW140858   1.704   5.638   7.949  1.2572 -0.1776  0.4856
12886SOL    HW240859   1.728   5.785   7.980 -1.4943  0.8160 -1.6267
12887SOL     OW40860   6.746   5.070   5.792  0.1310  0.3026 -0.7416
12887SOL    HW140861   6.749   4.997   5.730  0.8671  0.6796 -1.1521
12887SOL    HW240862   6.652   5.082   5.809 -0.0958  0.2915 -1.8962
12888SOL     OW40863   0.767   3.739   6.643 -0.0989 -0.3054 -0.1776
12888SOL    HW140864   0.757   3.722   6.737  2.1614 -0.8881  0.0051
12888SOL    HW240865   0.760   3.834   6.635 -1.3990 -0.3247  0.3966
12889SOL     OW40866   5.850   3.293   9.476 -0.3879 -0.5156  0.3096
12889SOL    HW140867   5.765   3.293   9.433  0.2756 -0.2697 -1.0499
12889SOL    HW240868   5.888   3.378   9.455  0.6325 -1.0329 -0.0195
12890SOL     OW40869   5.579   7.035   3.707  0.4674  0.7986 -0.0748
12890SOL    HW140870   5.540   6.955   3.743 -0.5820  1.2596 -0.1670
12890SOL    HW240871   5.590   7.015   3.614 -0.7558  1.1236 -0.2968
12891SOL     OW40872   2.398   7.935   5.315  0.0200 -0.5682 -0.7188
12891SOL    HW140873   2.361   7.940   5.404 -0.4018 -0.6421 -0.8864
12891SOL    HW240874   2.452   7.855   5.316  1.2839  0.2588 -0.0704
12892SOL     OW40875   3.755   4.279   3.643 -0.2551 -0.2086 -0.1968
12892SOL    HW140876   3.823   4.267   3.576  0.3228 -0.0951  0.3670
12892SOL    HW240877   3.788   4.234   3.720 -1.9537 -2.3589 -0.6418
12893SOL     OW40878   0.781   4.000   1.339  0.5050  0.2048  0.3149
12893SOL    HW140879   0.766   4.041   1.424 -0.3889  0.0219  0.2524
12893SOL    HW240880   0.792   3.907   1.359  1.1412  0.2693  0.3077
12894SOL     OW40881   4.971   7.563   3.918  0.1881  0.0569 -0.0546
12894SOL    HW140882   5.022   7.641   3.942  0.5872 -0.3822  0.5796
12894SOL    HW240883   4.921   7.542   3.997 -0.1579 -0.1460 -0.3263
12895SOL     OW40884   0.159   8.254   9.428 -0.3959 -0.0080  0.4345
12895SOL    HW140885   0.089   8.314   9.456  0.4126  1.4202 -0.4791
12895SOL    HW240886   0.236   8.310   9.420 -0.0295 -0.7866 -2.3051
12896SOL     OW40887   7.187   0.558   6.711  0.7153  0.0291 -0.0753
12896SOL    HW140888   7.116   0.616   6.683 -0.6754 -0.1607  2.6878
12896SOL    HW240889   7.255   0.617   6.743  0.8850  0.1832 -0.7173
12897SOL     OW40890   7.195   8.803   7.805 -0.3391  0.2001  0.1378
12897SOL    HW140891   7.231   8.718   7.829 -0.2427  0.4231  0.7993
12897SOL    HW240892   7.190   8.801   7.710  2.6652  0.6435 -0.1210
12898SOL     OW40893   1.952   1.973   0.607  0.1413 -0.5470  0.1956
12898SOL    HW140894   1.871   2.014   0.636  1.0237  2.6372 -1.4146
12898SOL    HW240895   2.021   2.030   0.641  1.3934  0.2644 -3.3026
12899SOL     OW40896   1.293   3.554   6.793  0.0597 -0.2383 -0.3189
12899SOL    HW140897   1.311   3.495   6.867  0.4541 -0.2782 -0.4487
12899SOL    HW240898   1.328   3.508   6.717 -1.5331 -0.8379 -0.7523
12900SOL     OW40899   6.457   4.465   0.684 -0.6292 -0.3426  0.3149
12900SOL    HW140900   6.380   4.454   0.739  0.3361 -0.1916  1.7380
12900SOL    HW240901   6.496   4.377   0.680  0.7729  0.1289  2.1674
12901SOL     OW40902   4.153   5.482   6.202 -0.2445 -0.4224 -0.0149
12901SOL    HW140903   4.209   5.405   6.194 -0.2963 -0.3888 -0.6795
12901SOL    HW240904   4.076   5.462   6.151 -0.2669  0.0660 -0.1792
12902SOL     OW40905   8.635   6.824   0.244 -0.2507  0.2319  0.1829
12902SOL    HW140906   8.607   6.911   0.274  1.7236  0.5534  1.2447
12902SOL    HW240907   8.728   6.833   0.226 -0.5240 -1.0451 -2.2502
12903SOL     OW40908   2.141   4.059   9.191 -0.6827 -0.6420  0.3899
12903SOL    HW140909   2.054   4.018   9.193 -0.7887 -0.4548  2.7579
12903SOL    HW240910   2.201   3.988   9.213 -0.3812 -0.4884  0.0601
12904SOL     OW40911   8.843   8.361   2.830 -0.0098  0.8183  0.3996
12904SOL    HW140912   8.754   8.395   2.821 -0.6408 -0.6814  0.7725
12904SOL    HW240913   8.867   8.380   2.921 -0.5462 -0.1214  0.7506
12905SOL     OW40914   2.117   1.233   2.891  0.7859  0.1033 -0.0781
12905SOL    HW140915   2.039   1.233   2.945  0.2776  1.5239 -0.7650
12905SOL    HW240916   2.189   1.217   2.952  0.1175  0.4549  0.8170
12906SOL     OW40917   0.939   1.495   0.155 -0.0734 -0.0170 -0.4124
12906SOL    HW140918   1.023   1.452   0.135  0.6227  0.3857  1.3684
12906SOL    HW240919   0.900   1.439   0.223 -1.2727 -0.1918 -1.2203
12907SOL     OW40920   8.970   7.983   9.018  0.5657 -0.5271 -0.2604
12907SOL    HW140921   8.915   7.946   9.087 -1.1576 -0.1177 -1.3327
12907SOL    HW240922   9.059   7.959   9.042  0.1321  0.2759  2.5195
12908SOL     OW40923   5.844   4.985   7.040  0.0609 -0.1069  0.1180
12908SOL    HW140924   5.919   4.927   7.049 -0.8224 -1.1993  0.6428
12908SOL    HW240925   5.880   5.065   7.000  1.4080 -0.7548 -0.0137
12909SOL     OW40926   4.165   9.375   8.000 -0.3268 -0.1515  0.3055
12909SOL    HW140927   4.139   9.283   8.004 -1.7703  0.2586  1.4268
12909SOL    HW240928   4.098   9.416   7.946 -1.0570  0.6168  1.7220
12910SOL     OW40929   0.267   4.588   4.178 -0.0314  0.1031 -0.4960
12910SOL    HW140930   0.172   4.585   4.192 -0.4342  0.4654 -2.7693
12910SOL    HW240931   0.294   4.496   4.178  0.0067  0.0458  2.0875
12911SOL     OW40932   8.244   6.110   2.093 -0.4750 -0.8854  0.4880
12911SOL    HW140933   8.273   6.199   2.071  3.0077 -1.5783  1.7255
12911SOL    HW240934   8.166   6.124   2.147 -0.2411  1.4005  0.3387
12912SOL     OW40935   2.248   7.730   4.111  0.6046  0.1680 -0.6256
12912SOL    HW140936   2.202   7.791   4.053  2.3587  0.8656 -1.3395
12912SOL    HW240937   2.178   7.686   4.159 -0.8951 -0.0455 -2.8558
12913SOL     OW40938   7.070   6.506   2.865 -0.0756  0.1727 -0.2963
12913SOL    HW140939   7.047   6.557   2.787 -1.5673  0.1691  0.1266
12913SOL    HW240940   7.101   6.423   2.830 -0.6889  0.1895 -0.8978
12914SOL     OW40941   5.844   5.398   3.034  0.4415 -0.5003  0.2302
12914SOL    HW140942   5.789   5.363   3.104 -0.4704 -0.2530 -0.3288
12914SOL    HW240943   5.810   5.487   3.020  1.4562 -0.0833  0.3375
12915SOL     OW40944   7.883   1.050   7.233  0.3626  0.1495 -0.6676
12915SOL    HW140945   7.919   0.974   7.279  1.0233 -1.0083 -2.9189
12915SOL    HW240946   7.789   1.034   7.232  0.1741  0.9060  1.3979
12916SOL     OW40947   6.169   6.105   7.691  0.4149 -1.0182 -0.1096
12916SOL    HW140948   6.219   6.054   7.754 -1.0996 -0.4693  1.6069
12916SOL    HW240949   6.154   6.189   7.734  1.6770  0.4671 -2.3259
12917SOL     OW40950   4.291   6.014   3.024 -0.3662  0.1725  0.1097
12917SOL    HW140951   4.368   5.983   2.975 -0.9826  1.6623 -1.9900
12917SOL    HW240952   4.225   5.947   3.010 -0.0738 -0.1325  0.1724
12918SOL     OW40953   6.353   9.278   7.945  0.0979 -0.4607  0.0996
12918SOL    HW140954   6.436   9.244   7.978  0.3861 -1.3215 -1.4368
12918SOL    HW240955   6.290   9.259   8.015  0.4613 -3.1717 -0.2206
12919SOL     OW40956   3.871   3.081   2.384  0.4266  0.1594  0.9916
12919SOL    HW140957   3.966   3.069   2.374  0.5391  1.0939  0.8857
12919SOL    HW240958   3.858   3.175   2.377 -0.5635  0.0011  0.5909
12920SOL     OW40959   6.905   2.571   0.888  0.0528  0.0381 -0.4459
12920SOL    HW140960   6.892   2.656   0.845 -0.3959  0.6251  0.8278
12920SOL    HW240961   6.993   2.577   0.925 -1.0133  1.0879  2.0934
12921SOL     OW40962   9.335   4.755   5.579 -0.1078  0.2634 -0.3139
12921SOL    HW140963   9.248   4.791   5.559 -0.1231  0.2640 -0.2505
12921SOL    HW240964   9.338   4.673   5.530 -0.6789 -0.4048  0.7212
12922SOL     OW40965   1.788   4.802   6.848 -0.1212  0.2754 -0.5965
12922SOL    HW140966   1.775   4.759   6.763 -0.5871 -0.1395 -0.3190
12922SOL    HW240967   1.712   4.777   6.899  1.1301 -1.1768  0.6623
12923SOL     OW40968   3.385   3.606   5.390  0.3574  0.1906 -0.5576
12923SOL    HW140969   3.378   3.665   5.465  0.3139 -0.2433 -0.2169
12923SOL    HW240970   3.310   3.548   5.397 -0.4816  1.0799 -1.7750
12924SOL     OW40971   6.492   4.986   1.403  0.3628  0.0082  0.3355
12924SOL    HW140972   6.482   5.000   1.497 -0.6739  0.1627  0.2147
12924SOL    HW240973   6.482   4.891   1.391 -1.8219  0.2254  0.1454
12925SOL     OW40974   0.286   1.514   9.078 -0.1051  0.4782 -0.4152
12925SOL    HW140975   0.216   1.572   9.049 -0.4555 -0.2545 -1.0929
12925SOL    HW240976   0.330   1.562   9.148 -1.6713  0.6970  0.4647
12926SOL     OW40977   8.023   0.819   5.705  0.3267  0.6748 -0.1050
12926SOL    HW140978   8.020   0.855   5.793  0.9426  0.8737 -0.1565
12926SOL    HW240979   7.979   0.734   5.711  0.7248  0.5056  0.4900
12927SOL     OW40980   6.634   5.586   0.428  0.6084 -0.3657 -0.2914
12927SOL    HW140981   6.684   5.504   0.435  0.4726 -0.6005 -1.8064
12927SOL    HW240982   6.615   5.594   0.335 -0.4873  0.7494  0.0151
12928SOL     OW40983   1.815   0.517   5.149  0.2744 -0.0062 -0.2456
12928SOL    HW140984   1.888   0.577   5.163 -0.8269  1.2694  0.2975
12928SOL    HW240985   1.801   0.476   5.235  0.0989  0.0766 -0.2325
12929SOL     OW40986   0.990   2.285   7.819  0.2215 -0.1459 -0.6408
12929SOL    HW140987   1.033   2.204   7.792 -0.8371 -0.5553 -1.1743
12929SOL    HW240988   0.903   2.281   7.778 -0.0848  0.9571 -0.1475
12930SOL     OW40989   9.336   4.331   6.559 -0.1357 -0.0632  0.5933
12930SOL    HW140990   9.295   4.318   6.474  1.1604 -0.1185 -0.0401
12930SOL    HW240991   9.425   4.362   6.540  0.2437 -0.2329  1.9089
12931SOL     OW40992   9.438   6.419   7.696 -0.8183  0.1468 -0.7065
12931SOL    HW140993   9.356   6.392   7.736 -0.8088 -0.9343 -1.3965
12931SOL    HW240994   9.499   6.428   7.770 -1.7401  1.7639 -0.0938
12932SOL     OW40995   1.871   4.055   8.586  0.3163  0.4392  0.1563
12932SOL    HW140996   1.850   3.967   8.554 -2.1244  0.9737  0.1160
12932SOL    HW240997   1.962   4.048   8.615  0.2625 -2.0541 -0.0086
12933SOL     OW40998   8.379   7.071   3.809  0.8604 -0.0025  0.8869
12933SOL    HW140999   8.325   7.114   3.876  0.6518 -0.0428  0.7461
12933SOL    HW241000   8.468   7.101   3.827  0.6339  1.0510  0.3519
12934SOL     OW41001   1.568   3.015   5.800  0.1101 -0.0343  1.2831
12934SOL    HW141002   1.510   3.052   5.867 -0.2194 -3.0187  2.8358
12934SOL    HW241003   1.557   2.920   5.809  1.2860 -0.6093 -1.9915
12935SOL     OW41004   4.945   9.031   0.642 -0.0056 -0.4384  0.0473
12935SOL    HW141005   4.867   9.025   0.588 -0.5855  2.3389  0.4049
12935SOL    HW241006   5.015   8.993   0.589 -0.6255  1.7797 -2.5606
12936SOL     OW41007   1.518   1.785   9.090  0.1741 -0.3398 -0.7898
12936SOL    HW141008   1.542   1.725   9.020  1.9176 -1.4559  0.6765
12936SOL    HW241009   1.516   1.731   9.169 -2.4694  0.7018  0.0018
12937SOL     OW41010   6.531   5.419   5.201  0.1634 -0.6146 -0.0480
12937SOL    HW141011   6.439   5.420   5.225  0.4147 -0.2012  0.9364
12937SOL    HW241012   6.577   5.394   5.281  0.8947 -1.0542 -0.5868
12938SOL     OW41013   1.462   2.325   8.855 -0.4005  0.1776 -0.2104
12938SOL    HW141014   1.372   2.338   8.884 -0.1969  0.5334  0.2664
12938SOL    HW241015   1.514   2.324   8.935  0.1936  1.3790 -0.5610
12939SOL     OW41016   1.229   5.448   9.456 -0.5836 -0.3663  0.2891
12939SOL    HW141017   1.176   5.489   9.524  0.1036  0.2963  0.4415
12939SOL    HW241018   1.311   5.426   9.501  0.2689  0.9915 -0.5454
12940SOL     OW41019   9.370   2.195   9.125  0.0872 -0.2352  0.0426
12940SOL    HW141020   9.459   2.223   9.106 -0.0132  0.5998  0.7781
12940SOL    HW241021   9.328   2.188   9.039  0.6200  0.1615 -0.2528
12941SOL     OW41022   7.320   3.141   0.278 -0.1006  0.0657 -0.1410
12941SOL    HW141023   7.300   3.213   0.338 -2.1648 -0.4880 -0.0759
12941SOL    HW241024   7.381   3.178   0.215 -0.8422  1.7780  0.0925
12942SOL     OW41025   9.498   6.952   2.395 -0.1691  0.3284 -0.3699
12942SOL    HW141026   9.428   6.896   2.429  0.5298 -0.3362  0.0039
12942SOL    HW241027   9.515   6.919   2.307 -0.4242  0.5870 -0.5178
12943SOL     OW41028   2.574   0.516   2.724 -0.1632  0.3389  0.1139
12943SOL    HW141029   2.567   0.421   2.718 -3.6804  0.2851  2.2530
12943SOL    HW241030   2.518   0.550   2.654  0.7998  0.8676 -0.4218
12944SOL     OW41031   1.528   8.026   8.430  0.2568 -0.2217 -0.1665
12944SOL    HW141032   1.527   7.989   8.342 -2.3249 -1.6006  0.3010
12944SOL    HW241033   1.606   7.989   8.471 -0.8875 -3.4417 -0.5326
12945SOL     OW41034   3.450   3.592   6.545 -0.1738 -0.0844 -0.4760
12945SOL    HW141035   3.480   3.643   6.470  1.0198 -1.4031 -0.9313
12945SOL    HW241036   3.517   3.526   6.559 -0.1712  0.3279  2.0197
12946SOL     OW41037   2.264   7.952   3.646 -0.1317 -0.1758  0.5201
12946SOL    HW141038   2.282   8.025   3.587 -2.2681  0.1440  0.2054
12946SOL    HW241039   2.301   7.979   3.730  3.0352 -0.6692 -0.5671
12947SOL     OW41040   7.127   7.797   1.874  0.0148  0.3059  0.4128
12947SOL    HW141041   7.052   7.843   1.837  1.3263  1.4506 -0.9393
12947SOL    HW241042   7.138   7.720   1.819 -0.8677 -0.5480  1.3703
12948SOL     OW41043   4.836   2.689   7.560  0.4189 -0.4327 -0.4596
12948SOL    HW141044   4.857   2.689   7.653 -0.1784 -2.4253 -0.2775
12948SOL    HW241045   4.748   2.652   7.554 -0.0861  0.8829 -1.7353
12949SOL     OW41046   2.468   0.208   1.280  0.5153 -0.1812  0.4535
12949SOL    HW141047   2.443   0.224   1.189  0.0697 -0.4192  0.5312
12949SOL    HW241048   2.494   0.116   1.282 -2.9837 -1.3075  1.2903
12950SOL     OW41049   7.416   6.839   3.469 -0.3258 -0.1514 -0.5933
12950SOL    HW141050   7.478   6.907   3.494 -1.2157  0.6390 -0.4647
12950SOL    HW241051   7.398   6.856   3.376  0.6681 -1.2173 -1.0058
12951SOL     OW41052   7.506   6.953   8.753  0.0257 -0.0502  0.1958
12951SOL    HW141053   7.562   6.913   8.819  0.1794 -0.1178  0.0248
12951SOL    HW241054   7.441   6.885   8.732  0.8080 -0.5410 -0.7289
12952SOL     OW41055   1.397   2.464   6.896  0.1192  0.0731  0.0413
12952SOL    HW141056   1.399   2.468   6.801 -1.2466 -0.2607 -0.0195
12952SOL    HW241057   1.339   2.536   6.921  1.5752  1.0651  0.7173
12953SOL     OW41058   9.404   2.249   3.262  0.0236 -0.3678 -0.3583
12953SOL    HW141059   9.466   2.205   3.204 -0.2129  0.7990 -1.5416
12953SOL    HW241060   9.451   2.259   3.345  1.5871  0.8096 -1.3391
12954SOL     OW41061   2.313   8.932   3.737  0.3514  0.4751 -0.3725
12954SOL    HW141062   2.392   8.888   3.706  0.0886 -0.1526 -0.1815
12954SOL    HW241063   2.264   8.953   3.658  0.4998  0.4614 -0.4677
12955SOL     OW41064   6.270   5.515   6.585 -0.2528  0.6839  0.5024
12955SOL    HW141065   6.187   5.506   6.538  0.8717 -0.2933 -1.4272
12955SOL    HW241066   6.266   5.446   6.652 -0.2742 -0.6145 -0.7833
12956SOL     OW41067   7.010   6.852   7.315  0.4140  0.2353 -0.1472
12956SOL    HW141068   7.015   6.838   7.409 -0.5481 -0.4132 -0.1836
12956SOL    HW241069   6.944   6.920   7.304  1.3361  1.1423 -0.3056
12957SOL     OW41070   8.666   4.624   3.112 -0.4042  0.2265  0.1938
12957SOL    HW141071   8.653   4.698   3.172 -0.5098 -1.3037  2.1813
12957SOL    HW241072   8.761   4.609   3.114 -0.3084  0.6766 -0.6958
12958SOL     OW41073   2.434   0.763   9.403 -0.0687 -0.3543  0.7319
12958SOL    HW141074   2.351   0.715   9.409 -0.3057 -0.0338  0.1521
12958SOL    HW241075   2.496   0.701   9.365  0.1452 -0.8150  1.8090
12959SOL     OW41076   7.930   3.870   6.364 -0.0856 -0.4554  0.5876
12959SOL    HW141077   7.977   3.954   6.358 -0.4231 -0.2999  0.0981
12959SOL    HW241078   7.838   3.893   6.352 -0.0374 -1.0915 -1.2288
12960SOL     OW41079   8.159   9.216   0.050 -0.3883 -0.3864 -0.3780
12960SOL    HW141080   8.076   9.170   0.066 -1.7878  1.1463 -2.5676
12960SOL    HW241081   8.160   9.231  -0.044  2.3943 -0.2769 -0.4020
12961SOL     OW41082   5.378   5.484   8.816  0.6564 -0.3530 -0.1670
12961SOL    HW141083   5.356   5.398   8.850 -0.5234 -0.6841 -1.6547
12961SOL    HW241084   5.319   5.545   8.861 -0.3981 -0.6970 -1.0318
12962SOL     OW41085   7.201   6.148   4.044  0.3961 -0.7179 -0.5553
12962SOL    HW141086   7.130   6.211   4.031  2.1812  1.9306  1.2976
12962SOL    HW241087   7.162   6.077   4.093 -1.3791 -0.3096 -1.3125
12963SOL     OW41088   2.809   2.539   5.939  1.1107  0.5117  0.1699
12963SOL    HW141089   2.880   2.600   5.957 -0.5472  2.3079  0.9614
12963SOL    HW241090   2.731   2.581   5.975 -0.4590 -1.1332 -1.1127
12964SOL     OW41091   8.220   4.572   2.833 -0.2461  0.2819  0.0219
12964SOL    HW141092   8.144   4.618   2.797  0.5205  0.4473 -1.4351
12964SOL    HW241093   8.192   4.480   2.839 -0.3306  0.2208 -1.1852
12965SOL     OW41094   5.989   7.524   9.421  0.2417 -0.2567  0.1425
12965SOL    HW141095   5.997   7.560   9.332  0.2716  1.7498  0.9223
12965SOL    HW241096   5.895   7.514   9.434  0.2833 -2.2828 -0.7273
12966SOL     OW41097   8.880   0.013   3.854 -0.0506 -0.7173  0.1900
12966SOL    HW141098   8.856   0.002   3.946 -0.1881 -1.4213  0.0715
12966SOL    HW241099   8.935  -0.062   3.834 -1.0431 -1.2435 -0.6483
12967SOL     OW41100   1.046   8.310   3.840  0.3604 -1.0255 -0.3294
12967SOL    HW141101   0.961   8.274   3.815  0.0377 -0.5916  0.1078
12967SOL    HW241102   1.047   8.304   3.935 -1.5006  3.7592  0.2764
12968SOL     OW41103   9.232   0.732   5.742  0.8322  0.2458  0.0205
12968SOL    HW141104   9.200   0.646   5.769 -0.4155  0.8826  0.6332
12968SOL    HW241105   9.157   0.772   5.697  1.5501  0.8429 -0.6682
12969SOL     OW41106   2.997   6.770   9.238  0.8652 -0.2940  1.0146
12969SOL    HW141107   3.034   6.855   9.259 -0.2025  1.0700 -1.9982
12969SOL    HW241108   3.050   6.738   9.165  1.3384 -2.3541  2.1708
12970SOL     OW41109   1.079   0.189   0.553 -0.3412 -0.2508  0.1766
12970SOL    HW141110   1.086   0.284   0.550  0.4524 -0.3158 -0.6169
12970SOL    HW241111   1.097   0.166   0.644  2.2837  0.1953 -0.1593
12971SOL     OW41112   6.210   5.047   5.871 -0.0440  0.5086 -0.2210
12971SOL    HW141113   6.189   5.099   5.793  0.7202  0.3593 -0.5338
12971SOL    HW241114   6.214   5.111   5.942  0.2865  0.7945 -0.4931
12972SOL     OW41115   4.623   2.771   4.704  0.2751  0.5886  0.6931
12972SOL    HW141116   4.552   2.821   4.663 -0.0324  0.3807  0.9706
12972SOL    HW241117   4.596   2.761   4.795  0.3889  0.0147  0.6649
12973SOL     OW41118   8.613   7.414   8.865  0.5429  0.0333 -0.4491
12973SOL    HW141119   8.671   7.375   8.930 -0.8639  0.1812  0.9530
12973SOL    HW241120   8.669   7.475   8.816  1.7185 -0.3659  0.3666
12974SOL     OW41121   5.162   2.438   9.427  0.0916  0.1933  0.5193
12974SOL    HW141122   5.255   2.443   9.450  0.0009 -1.6539  1.4933
12974SOL    HW241123   5.161   2.425   9.332  0.8800 -0.4809  0.5908
12975SOL     OW41124   9.218   4.288   7.894 -0.9459 -0.3875  0.4595
12975SOL    HW141125   9.125   4.278   7.910 -1.4709  1.8128 -0.7847
12975SOL    HW241126   9.224   4.352   7.823  1.5101 -0.5956  0.3712
12976SOL     OW41127   7.351   7.969   7.553 -0.1987 -0.6223  0.4779
12976SOL    HW141128   7.447   7.964   7.549  0.0644  1.9735  1.4285
12976SOL    HW241129   7.326   8.002   7.466 -0.1039 -0.1453  0.6294
12977SOL     OW41130   4.293   1.723   1.122  0.2466 -0.0842 -0.6858
12977SOL    HW141131   4.282   1.783   1.048  2.2306  1.1876 -0.0064
12977SOL    HW241132   4.307   1.780   1.197 -0.7251 -1.3828  0.5377
12978SOL     OW41133   3.034   5.684   5.424  0.2865  0.1073 -0.2242
12978SOL    HW141134   3.104   5.680   5.359  0.4549 -2.6103  0.0022
12978SOL    HW241135   3.072   5.644   5.502 -0.9567  0.2383  0.4658
12979SOL     OW41136   6.613   5.007   8.825 -0.1904 -0.2388 -0.3067
12979SOL    HW141137   6.595   5.098   8.801 -1.4114 -0.4035 -0.0448
12979SOL    HW241138   6.687   4.982   8.769  1.2948  1.4196  0.7822
12980SOL     OW41139   8.281   4.954   0.442  0.3421 -0.0218  0.4473
12980SOL    HW141140   8.335   5.006   0.383  2.7679 -1.3698  1.3555
12980SOL    HW241141   8.276   4.867   0.401 -3.6752  0.6897 -1.0630
12981SOL     OW41142   4.406   7.701   5.970  0.8209 -0.2995 -0.4087
12981SOL    HW141143   4.338   7.747   6.019 -0.0419 -0.4815 -1.4107
12981SOL    HW241144   4.390   7.608   5.987  0.4629 -0.3693 -1.0713
12982SOL     OW41145   5.081   0.951   7.793  0.1388 -0.2295 -0.0688
12982SOL    HW141146   4.995   0.991   7.811 -0.7216 -0.6923 -2.7258
12982SOL    HW241147   5.139   1.026   7.781 -0.1301  0.1133  0.7089
12983SOL     OW41148   9.398   6.459   0.660 -0.2563 -0.2700 -0.7170
12983SOL    HW141149   9.410   6.548   0.626 -0.7970  0.2249  0.3482
12983SOL    HW241150   9.401   6.469   0.755 -1.6926 -1.1868 -0.5543
12984SOL     OW41151   9.494   6.109   4.484  0.3538 -0.6080 -0.1340
12984SOL    HW141152   9.571   6.051   4.485  1.9363  1.3267 -0.8988
12984SOL    HW241153   9.515   6.176   4.549 -0.4189  0.2557 -0.7578
12985SOL     OW41154   0.221   9.024   2.937 -0.0252  0.2410 -0.2280
12985SOL    HW141155   0.261   8.950   2.891  1.0757  2.2209 -2.6698
12985SOL    HW241156   0.286   9.049   3.003 -0.1515 -0.5707  0.2196
12986SOL     OW41157   1.442   5.258   5.041  0.4738  0.1897  0.4638
12986SOL    HW141158   1.419   5.167   5.024  0.3884  0.6186 -2.0663
12986SOL    HW241159   1.532   5.254   5.073  0.8540 -0.7425 -0.6367
12987SOL     OW41160   4.209   8.392   3.068  0.3605  0.7020  0.0517
12987SOL    HW141161   4.177   8.372   2.980 -0.4205 -0.3765  0.5548
12987SOL    HW241162   4.279   8.328   3.083  0.6131  1.0005  0.1446
12988SOL     OW41163   3.194   1.160   4.060 -0.4138 -0.0562  0.2629
12988SOL    HW141164   3.117   1.157   4.117  1.2588 -1.4553  2.6083
12988SOL    HW241165   3.236   1.075   4.070  3.9730  2.0425  2.8908
12989SOL     OW41166   2.764   0.083   1.571  0.8225  0.0680  0.1376
12989SOL    HW141167   2.773  -0.010   1.551 -0.7876 -0.0958  0.0136
12989SOL    HW241168   2.729   0.085   1.660  0.4951  0.5415  0.0002
12990SOL     OW41169   2.341   3.737   0.406 -0.1184 -0.1678 -0.0856
12990SOL    HW141170   2.337   3.645   0.381 -1.1364 -0.2052  0.1654
12990SOL    HW241171   2.263   3.776   0.368 -1.3983 -0.0984  2.3665
12991SOL     OW41172   3.211   6.558   9.356  0.0309 -0.5720 -0.0217
12991SOL    HW141173   3.124   6.539   9.320  0.6688 -0.5595 -1.6769
12991SOL    HW241174   3.269   6.497   9.310  0.8855 -0.6909  1.1756
12992SOL     OW41175   5.309   4.029   5.063 -0.2447  0.2115 -0.5076
12992SOL    HW141176   5.260   4.110   5.072 -0.4482 -0.0561  1.2299
12992SOL    HW241177   5.243   3.961   5.052 -0.1687  0.0834 -0.1866
12993SOL     OW41178   2.957   6.229   6.534  0.1568  0.1292  0.3059
12993SOL    HW141179   2.886   6.219   6.598  0.1003 -1.5294  0.0117
12993SOL    HW241180   2.938   6.313   6.491 -0.4726  0.6902  1.6243
12994SOL     OW41181   4.340   7.129   9.512 -0.2854  0.4162  0.1431
12994SOL    HW141182   4.353   7.122   9.417 -0.7445  0.4064  0.0810
12994SOL    HW241183   4.349   7.039   9.544  2.0067  0.6589  0.3990
12995SOL     OW41184   0.188   5.188   3.429 -0.3794  0.0082 -0.3265
12995SOL    HW141185   0.241   5.185   3.349  1.5959  0.1603  0.9102
12995SOL    HW241186   0.151   5.276   3.429 -2.2890 -0.7090 -2.1631
12996SOL     OW41187   4.265   5.246   7.262  0.1573  0.4153  0.0252
12996SOL    HW141188   4.299   5.224   7.349 -0.5183  1.5357  0.5940
12996SOL    HW241189   4.307   5.330   7.241  1.3779 -0.4825 -1.3519
12997SOL     OW41190   1.018   9.284   8.767 -0.0020 -0.0774  0.7261
12997SOL    HW141191   0.976   9.370   8.778  0.7854  0.5031 -0.6736
12997SOL    HW241192   1.017   9.246   8.855 -0.1147  1.4775  1.4282
12998SOL     OW41193   0.708   9.011   3.206  0.1018 -0.0007  0.0542
12998SOL    HW141194   0.642   8.961   3.254  2.1557 -1.5712  1.4373
12998SOL    HW241195   0.683   9.003   3.114 -0.1204 -3.0019  0.2806
12999SOL     OW41196   4.934   5.157   4.700  0.0984  0.0464  0.3995
12999SOL    HW141197   4.898   5.241   4.729  0.3311  0.5263 -0.6473
12999SOL    HW241198   4.857   5.101   4.687 -0.1759  0.5784 -0.3382
13000SOL     OW41199   7.417   1.898   3.735  0.6156 -0.0102  0.1898
13000SOL    HW141200   7.467   1.820   3.757 -0.4928 -0.6619  0.4772
13000SOL    HW241201   7.420   1.902   3.639  1.1735 -0.0547  0.2019
13001SOL     OW41202   3.446   0.781   0.083 -0.1546  0.2737 -0.0046
13001SOL    HW141203   3.421   0.788   0.175  0.3726 -0.2484  0.1845
13001SOL    HW241204   3.487   0.695   0.075 -0.8914 -0.0131 -0.9049
13002SOL     OW41205   5.968   8.376   5.181 -0.1625  0.4429 -0.2333
13002SOL    HW141206   6.017   8.387   5.262 -0.7855 -1.9424  0.5436
13002SOL    HW241207   5.876   8.390   5.205 -0.4228 -0.9628 -0.3321
13003SOL     OW41208   8.080   3.113   5.020  0.1000 -0.8118  0.2877
13003SOL    HW141209   8.005   3.091   5.075 -0.6934  0.6674 -0.1440
13003SOL    HW241210   8.044   3.114   4.931  0.3727  0.8436  0.1642
13004SOL     OW41211   1.852   9.289   1.997 -0.6820 -0.1942 -0.6896
13004SOL    HW141212   1.904   9.233   1.939  0.8189  0.1329  0.2895
13004SOL    HW241213   1.914   9.321   2.062 -2.0277  0.6018  0.2635
13005SOL     OW41214   5.221   9.142   3.012  0.2728  0.6296 -0.4551
13005SOL    HW141215   5.254   9.171   3.098  0.7889  2.0724 -1.0946
13005SOL    HW241216   5.128   9.165   3.014 -0.4699 -2.1353  0.8159
13006SOL     OW41217   3.726   7.396   4.108  0.5372  0.7120  0.2283
13006SOL    HW141218   3.813   7.363   4.089  0.5235 -0.7583  2.4424
13006SOL    HW241219   3.740   7.474   4.161  0.5122  0.3360  0.7914
13007SOL     OW41220   8.352   9.435   8.844  0.3948  0.1632  0.0513
13007SOL    HW141221   8.417   9.459   8.911  1.0021  0.4643 -0.6341
13007SOL    HW241222   8.275   9.408   8.894  1.2126 -0.6781  0.8903
13008SOL     OW41223   1.861   8.634   6.031 -0.5532 -0.0212 -0.5638
13008SOL    HW141224   1.782   8.642   6.085 -0.3813 -0.4440 -0.2485
13008SOL    HW241225   1.851   8.703   5.965 -1.9698 -1.0817 -1.5172
13009SOL     OW41226   1.903   0.655   8.777  0.4465  0.2511  0.2329
13009SOL    HW141227   1.871   0.687   8.693  0.2615  0.3742  0.3497
13009SOL    HW241228   1.901   0.560   8.768 -0.1984  0.2477  0.3241
13010SOL     OW41229   1.872   9.102   4.073  0.0004 -0.0100  0.1885
13010SOL    HW141230   1.904   9.048   4.001  1.5978  0.6121  0.3829
13010SOL    HW241231   1.781   9.120   4.051  0.0898 -0.9086 -1.0119
13011SOL     OW41232   2.983   6.685   7.023 -0.2835 -0.1519  0.0814
13011SOL    HW141233   3.035   6.627   7.079 -0.0005 -0.9876 -0.9969
13011SOL    HW241234   3.048   6.739   6.978 -0.4627  0.0719  0.0923
13012SOL     OW41235   5.440   1.932   3.635  0.1846  0.2730 -0.6461
13012SOL    HW141236   5.470   2.004   3.691 -0.6041  0.9010 -0.9958
13012SOL    HW241237   5.370   1.971   3.582  0.2864 -0.5512 -1.4128
13013SOL     OW41238   0.910   0.754   1.762  0.4042 -0.1089 -0.0313
13013SOL    HW141239   0.849   0.685   1.738 -2.5794  2.5873 -0.9935
13013SOL    HW241240   0.895   0.768   1.856  0.9735 -0.7020  0.1529
13014SOL     OW41241   4.798   7.211   0.654 -0.7200  0.1403 -0.1955
13014SOL    HW141242   4.751   7.291   0.677 -0.3587 -0.0097  1.1322
13014SOL    HW241243   4.736   7.140   0.674 -0.1141 -0.0339  1.1324
13015SOL     OW41244   5.273   6.923   1.911  0.7189  0.3518 -0.4407
13015SOL    HW141245   5.240   6.858   1.848  0.3966 -1.7184  1.7297
13015SOL    HW241246   5.198   6.981   1.926  0.7674  0.8097 -1.8275
13016SOL     OW41247   6.912   1.824   0.220  0.2179  0.0552  0.5804
13016SOL    HW141248   6.906   1.763   0.147  0.3329 -0.8043  1.2693
13016SOL    HW241249   7.006   1.827   0.241  0.8953  3.6677 -2.0435
13017SOL     OW41250   1.983   1.400   8.313 -0.0687  0.1345  0.1956
13017SOL    HW141251   2.016   1.354   8.236  1.0946  0.4329  0.4941
13017SOL    HW241252   2.012   1.490   8.301 -0.1577  0.2491  0.8178
13018SOL     OW41253   5.034   1.381   8.534 -0.1034  0.1934  0.7528
13018SOL    HW141254   5.093   1.399   8.461 -0.2935  1.2722  0.8486
13018SOL    HW241255   4.947   1.380   8.496 -0.2002  0.7323  0.9548
13019SOL     OW41256   9.067   1.473   0.509 -0.0486 -0.6113 -0.6780
13019SOL    HW141257   9.061   1.565   0.486  0.1586 -0.6270 -0.8001
13019SOL    HW241258   9.134   1.438   0.451  0.2694 -0.7185 -0.2534
13020SOL     OW41259   2.042   3.431   2.926  0.2405 -0.1107 -0.3242
13020SOL    HW141260   2.094   3.354   2.946  0.2384  0.4706  2.2205
13020SOL    HW241261   1.981   3.439   2.999 -2.6127 -0.0076 -2.5119
13021SOL     OW41262   7.274   4.231   5.655 -0.4298 -0.1266 -0.2799
13021SOL    HW141263   7.259   4.257   5.746  1.5187 -1.8709  0.6144
13021SOL    HW241264   7.191   4.191   5.628 -0.8650 -0.0608  0.9085
13022SOL     OW41265   5.643   6.606   2.234  0.1532  0.7423  0.8066
13022SOL    HW141266   5.707   6.539   2.257  0.4094  0.2467 -1.1646
13022SOL    HW241267   5.696   6.682   2.209 -0.0587  0.8032  0.5371
13023SOL     OW41268   8.588   4.120   6.426 -0.4602 -0.0293  0.4762
13023SOL    HW141269   8.606   4.200   6.377  1.5541 -0.7688 -0.1197
13023SOL    HW241270   8.621   4.050   6.369  0.8766 -0.9994  2.3387
13024SOL     OW41271   8.945   4.668   3.997  0.0613 -0.5296  0.6869
13024SOL    HW141272   8.972   4.631   3.913 -1.6555  1.2920 -0.7773
13024SOL    HW241273   8.888   4.601   4.035 -3.3705  0.4453 -2.1126
13025SOL     OW41274   1.628   3.341   6.392 -0.5295  0.3193  0.7142
13025SOL    HW141275   1.696   3.405   6.411 -0.0491  0.2055 -0.5153
13025SOL    HW241276   1.551   3.373   6.439 -0.2476  1.6976  0.2868
13026SOL     OW41277   7.306   1.332   8.421 -0.0937 -0.0251 -0.2880
13026SOL    HW141278   7.381   1.281   8.392  0.4157  0.8399 -0.5145
13026SOL    HW241279   7.266   1.364   8.340 -0.1503  0.2938 -0.1363
13027SOL     OW41280   8.870   4.101   2.662 -0.1383 -0.2006  0.4385
13027SOL    HW141281   8.801   4.165   2.645  1.0847  1.2914  0.8781
13027SOL    HW241282   8.919   4.096   2.581 -0.6730 -1.2011  0.1545
13028SOL     OW41283   4.903   4.307   9.277  0.2026  0.2675 -0.1101
13028SOL    HW141284   4.961   4.366   9.325  0.3861 -1.6173  2.1789
13028SOL    HW241285   4.836   4.283   9.341  1.2293 -3.4626 -0.2333
13029SOL     OW41286   1.403   9.125   8.100  0.1043  0.2775 -0.0114
13029SOL    HW141287   1.420   9.198   8.160  0.1055 -0.4430  0.8852
13029SOL    HW241288   1.462   9.055   8.129  1.0301  0.3238 -1.6613
13030SOL     OW41289   8.285   9.434   8.577  0.3682 -0.5999 -0.1353
13030SOL    HW141290   8.286   9.438   8.672 -0.4024 -0.2213 -0.1340
13030SOL    HW241291   8.218   9.370   8.556  0.6282 -0.7814 -0.4206
13031SOL     OW41292   2.009   4.247   0.361 -0.1002 -0.2672 -0.1224
13031SOL    HW141293   1.990   4.209   0.276  0.9945 -0.2776 -0.3667
13031SOL    HW241294   1.927   4.236   0.410 -0.4472 -1.0872 -0.8545
13032SOL     OW41295   2.762   7.091   0.614  0.4977 -0.3690 -0.3070
13032SOL    HW141296   2.693   7.150   0.581 -0.6089 -0.8461  1.0367
13032SOL    HW241297   2.838   7.148   0.626 -0.0222  0.4369 -0.6827
13033SOL     OW41298   7.076   5.945   4.204  0.2794 -0.0873  0.4660
13033SOL    HW141299   7.148   5.910   4.256 -0.7508 -0.7327  1.5031
13033SOL    HW241300   7.020   5.990   4.267  0.0273  0.8769 -0.4040
13034SOL     OW41301   9.075   3.596   6.164 -0.2695 -0.3248  0.1586
13034SOL    HW141302   9.086   3.683   6.202  1.2743 -0.5567  0.2885
13034SOL    HW241303   9.090   3.609   6.070  0.1035 -0.4792  0.1977
13035SOL     OW41304   7.355   7.165   5.316 -0.3879  0.2586  0.6758
13035SOL    HW141305   7.338   7.105   5.388 -1.4768  1.4580  1.4713
13035SOL    HW241306   7.268   7.195   5.289  0.1334  1.6791  0.5039
13036SOL     OW41307   8.907   8.512   7.078 -0.6886  0.6021 -0.1733
13036SOL    HW141308   8.873   8.491   6.991 -1.5282 -1.8583  0.6764
13036SOL    HW241309   8.916   8.607   7.077 -1.1864  0.7029 -2.7547
13037SOL     OW41310   8.583   4.142   2.920  0.6077  0.1205  0.0644
13037SOL    HW141311   8.637   4.169   2.846  1.3634  0.0022  0.5554
13037SOL    HW241312   8.632   4.069   2.960 -0.5279 -0.8208 -0.2104
13038SOL     OW41313   8.881   0.699   3.021 -0.1008 -0.2860  0.2972
13038SOL    HW141314   8.971   0.669   3.003  0.3310  1.4095 -0.5643
13038SOL    HW241315   8.826   0.635   2.977  0.5769 -2.2314  2.1082
13039SOL     OW41316   5.215   6.449   7.820 -0.5081  0.0048 -0.1306
13039SOL    HW141317   5.299   6.422   7.856 -0.5020  1.3418  0.9481
13039SOL    HW241318   5.236   6.524   7.764 -0.9361  0.0727 -0.2004
13040SOL     OW41319   5.761   0.964   0.237 -0.3108  0.0595  0.3103
13040SOL    HW141320   5.714   0.912   0.302 -1.0431 -0.2059 -0.4086
13040SOL    HW241321   5.827   0.905   0.201  0.9552  0.5864  1.6850
13041SOL     OW41322   9.577   5.591   4.674 -0.4945 -0.2597  0.4345
13041SOL    HW141323   9.497   5.644   4.670 -0.2529  0.0631 -0.4745
13041SOL    HW241324   9.648   5.656   4.677 -0.2632 -0.5435  1.2337
13042SOL     OW41325   4.617   3.914   9.372 -1.0587  0.2249 -0.0495
13042SOL    HW141326   4.555   3.941   9.303 -0.8563  0.1519 -0.2625
13042SOL    HW241327   4.613   3.985   9.436 -0.6463  0.6912 -0.5288
13043SOL     OW41328   8.766   9.335   7.315  0.0836 -0.4459  0.0788
13043SOL    HW141329   8.671   9.327   7.306  0.1828 -0.8483 -0.6652
13043SOL    HW241330   8.782   9.323   7.409 -0.7908  1.8181  0.5803
13044SOL     OW41331   0.020   6.979   8.487  0.5123 -0.0222 -0.5268
13044SOL    HW141332   0.018   6.967   8.392  1.0761 -1.2433 -0.3991
13044SOL    HW241333  -0.048   6.922   8.520  0.3407  0.3755 -0.1836
13045SOL     OW41334   4.878   6.616   5.308 -0.4831 -0.1982 -0.0711
13045SOL    HW141335   4.938   6.606   5.234 -0.0166  1.6911  0.0128
13045SOL    HW241336   4.910   6.692   5.355 -1.9434 -0.1846  0.9727
13046SOL     OW41337   1.008   9.578   4.894  0.9064 -0.3435  0.0837
13046SOL    HW141338   0.962   9.549   4.816  0.8023 -0.6495  0.2578
13046SOL    HW241339   0.974   9.522   4.964 -0.3462  1.1153  0.7008
13047SOL     OW41340   5.392   8.829   7.917  0.4907 -0.3573  0.1154
13047SOL    HW141341   5.442   8.811   7.838 -0.1163 -0.4262 -0.2613
13047SOL    HW241342   5.309   8.865   7.885  0.2861 -0.2752  0.7246
13048SOL     OW41343   3.719   4.464   2.148 -0.3869  0.2767 -0.0960
13048SOL    HW141344   3.634   4.488   2.185 -2.3612 -1.6678 -2.9676
13048SOL    HW241345   3.722   4.510   2.064  0.7896 -0.8102 -0.6761
13049SOL     OW41346   3.827   7.382   5.747  0.0649 -0.6068  0.0947
13049SOL    HW141347   3.754   7.349   5.695  0.4722  2.3932 -2.7116
13049SOL    HW241348   3.905   7.343   5.707  0.2947  0.6528 -0.7435
13050SOL     OW41349   0.123   0.670   7.091 -0.4168  0.2139  0.1621
13050SOL    HW141350   0.146   0.759   7.065  0.4673 -0.2182 -0.6013
13050SOL    HW241351   0.191   0.646   7.154 -0.8027  0.1588  0.5658
13051SOL     OW41352   6.194   8.985   6.852 -0.3748  0.0784  0.5498
13051SOL    HW141353   6.175   9.076   6.874 -0.1034  0.9595 -2.4587
13051SOL    HW241354   6.287   8.974   6.873 -0.6078  0.2018  1.7081
13052SOL     OW41355   3.779   9.195   6.680 -0.8856 -0.0198 -0.2037
13052SOL    HW141356   3.812   9.128   6.741 -0.1860  0.0416 -0.5122
13052SOL    HW241357   3.684   9.189   6.688 -0.8831 -1.8302 -1.0503
13053SOL     OW41358   2.412   2.073   3.623  0.8002 -0.2140  0.5548
13053SOL    HW141359   2.375   2.115   3.700  0.6032  0.4800  0.0964
13053SOL    HW241360   2.468   2.141   3.584 -3.0256  1.4359 -2.7768
13054SOL     OW41361   1.629   1.121   3.638 -0.1651 -0.5517  0.3696
13054SOL    HW141362   1.576   1.117   3.558 -0.1110 -1.8772  0.3736
13054SOL    HW241363   1.614   1.209   3.673 -0.3267 -0.0072 -1.0040
13055SOL     OW41364   4.326   3.449   6.235 -0.3566 -0.2365 -0.2908
13055SOL    HW141365   4.351   3.540   6.250  0.4734 -0.5337  0.2161
13055SOL    HW241366   4.252   3.454   6.175 -1.5506  0.8602  1.1927
13056SOL     OW41367   2.606   4.506   6.475  0.4911  0.2891 -0.4442
13056SOL    HW141368   2.541   4.566   6.439  0.8333 -0.2263 -2.0113
13056SOL    HW241369   2.654   4.558   6.540  0.4064  1.5454 -1.3480
13057SOL     OW41370   4.466   6.663   0.313 -0.4234  0.0625  0.1776
13057SOL    HW141371   4.435   6.734   0.370 -0.5026  0.6273 -0.5497
13057SOL    HW241372   4.542   6.700   0.269 -0.1779 -0.4793  0.1470
13058SOL     OW41373   1.619   8.081   9.381 -0.0522 -0.2900 -0.0787
13058SOL    HW141374   1.555   8.149   9.360  0.2027 -0.0742 -0.1739
13058SOL    HW241375   1.699   8.130   9.403 -0.5609 -0.4344  2.4385
13059SOL     OW41376   9.247   0.841   6.066 -0.4778  0.0667  0.2111
13059SOL    HW141377   9.258   0.936   6.058  1.6756 -0.1910 -0.6124
13059SOL    HW241378   9.282   0.819   6.152 -1.4467  0.0596  0.6128
13060SOL     OW41379   4.692   0.347   5.088  0.0520 -0.0153  0.3117
13060SOL    HW141380   4.668   0.412   5.022 -0.0479 -1.5125 -1.1875
13060SOL    HW241381   4.609   0.319   5.125 -0.1456 -1.2204 -0.9773
13061SOL     OW41382   4.023   0.668   4.806 -0.4156  0.5808  0.1359
13061SOL    HW141383   3.957   0.731   4.835  0.5699  0.7476  2.1997
13061SOL    HW241384   4.032   0.608   4.881  0.1299 -0.8077 -1.0068
13062SOL     OW41385   3.947   0.911   0.051 -0.2936 -0.0107  1.0271
13062SOL    HW141386   3.862   0.871   0.031 -0.3379  0.3551  0.4726
13062SOL    HW241387   3.976   0.867   0.131 -2.2646  1.7288  2.8167
13063SOL     OW41388   0.054   7.239   4.803  0.5152  0.0723  0.3115
13063SOL    HW141389   0.069   7.309   4.866  1.0006 -0.1889  0.4908
13063SOL    HW241390   0.055   7.283   4.718  1.4013  0.2050  0.3784
13064SOL     OW41391   2.019   2.009   5.486 -0.1578  0.1229  0.0721
13064SOL    HW141392   2.109   1.977   5.482 -1.0917 -2.6928 -2.4315
13064SOL    HW241393   2.017   2.082   5.424  0.6033  0.8255  0.8728
13065SOL     OW41394   2.833   2.054   4.423 -0.0364  0.2789  0.2000
13065SOL    HW141395   2.866   1.996   4.354  0.5399  1.2074 -0.3363
13065SOL    HW241396   2.893   2.040   4.497 -2.1640 -2.6615  1.5527
13066SOL     OW41397   5.718   0.181   7.290 -0.6301  0.2016 -0.0946
13066SOL    HW141398   5.703   0.273   7.312  0.2703  0.0406  1.3272
13066SOL    HW241399   5.772   0.183   7.212 -0.0490  0.9015  0.3147
13067SOL     OW41400   9.125   9.502   1.308  0.0823 -0.3462  0.3802
13067SOL    HW141401   9.087   9.554   1.379  0.7936  0.4015  0.2216
13067SOL    HW241402   9.068   9.424   1.302 -1.9542  1.1079 -0.3964
13068SOL     OW41403   4.751   4.650   5.863 -0.0640 -0.1328 -0.6089
13068SOL    HW141404   4.734   4.557   5.874  2.1745 -0.4149  1.2405
13068SOL    HW241405   4.720   4.691   5.943  0.1504  0.5230 -0.8482
13069SOL     OW41406   5.226   2.244   3.711  0.7251  0.2497  0.9417
13069SOL    HW141407   5.200   2.301   3.784  0.4600  0.0218  1.0286
13069SOL    HW241408   5.247   2.304   3.640  0.1264  0.4521  0.9271
13070SOL     OW41409   8.262   8.188   1.000  0.1015  0.1479  0.1556
13070SOL    HW141410   8.239   8.267   1.049  0.3473 -0.4009  1.1897
13070SOL    HW241411   8.355   8.197   0.981 -0.0033  0.3823 -0.2630
13071SOL     OW41412   9.330   1.782   5.032  0.2344 -0.0049  0.0413
13071SOL    HW141413   9.303   1.858   5.084  1.1962 -0.8116  1.8467
13071SOL    HW241414   9.330   1.813   4.942  0.8346  2.2180  0.7312
13072SOL     OW41415   1.987   7.970   5.930 -0.6196  0.1326 -0.0334
13072SOL    HW141416   1.958   8.061   5.929 -3.0911 -0.5251 -2.3386
13072SOL    HW241417   1.968   7.939   6.018 -1.7663  1.3240  0.1734
13073SOL     OW41418   7.423   5.397   2.337 -0.3750  0.1016  0.1370
13073SOL    HW141419   7.415   5.456   2.412  1.7554 -0.0779  0.5753
13073SOL    HW241420   7.488   5.439   2.280 -0.3039 -0.8512 -0.5103
13074SOL     OW41421   1.407   6.406   5.332 -0.2415  0.1693  0.2675
13074SOL    HW141422   1.395   6.501   5.327  0.5807  0.2867  0.3713
13074SOL    HW241423   1.373   6.382   5.418  0.9075  0.6039  0.8749
13075SOL     OW41424   4.782   5.092   7.360  0.7034 -0.2093  0.4564
13075SOL    HW141425   4.811   5.075   7.270  1.2132 -0.5069  0.6703
13075SOL    HW241426   4.720   5.165   7.352  2.7165  1.5553  0.1537
13076SOL     OW41427   4.704   7.945   8.411 -0.4470 -0.0553 -0.2691
13076SOL    HW141428   4.776   7.979   8.358 -0.6732  0.1296 -0.4570
13076SOL    HW241429   4.641   7.911   8.348 -1.3469  1.3917 -0.2008
13077SOL     OW41430   2.842   0.083   3.084  0.2953  0.1379 -0.0212
13077SOL    HW141431   2.910   0.021   3.111 -1.2074 -1.1522  0.9795
13077SOL    HW241432   2.890   0.162   3.058  2.2754 -1.4121 -1.3302
13078SOL     OW41433   3.523   3.041   9.330  0.1444  0.6112 -0.3337
13078SOL    HW141434   3.529   3.082   9.243 -1.1410 -0.0393 -0.7557
13078SOL    HW241435   3.473   3.105   9.382  0.7430  0.9123 -0.1255
13079SOL     OW41436   2.519   4.072   5.148 -0.1722  0.4156  0.2491
13079SOL    HW141437   2.425   4.077   5.131 -0.1771  0.0029  0.1183
13079SOL    HW241438   2.535   4.135   5.218 -0.8227 -0.6753  1.4198
13080SOL     OW41439   2.798   4.408   5.448 -0.3703  0.2612 -0.4967
13080SOL    HW141440   2.856   4.467   5.400 -0.5058 -0.3749 -1.4811
13080SOL    HW241441   2.782   4.452   5.531  0.1253  1.2547 -0.9110
13081SOL     OW41442   2.359   0.926   5.163 -0.0871  0.0657 -0.2414
13081SOL    HW141443   2.437   0.872   5.155  0.1064  0.3220 -0.1321
13081SOL    HW241444   2.393   1.013   5.187 -0.4717 -0.1082  1.0282
13082SOL     OW41445   1.480   4.509   4.789 -0.2757  0.6105  0.4444
13082SOL    HW141446   1.526   4.588   4.818 -0.6419  2.1488 -2.7325
13082SOL    HW241447   1.392   4.539   4.766 -0.4264 -0.6694 -0.8351
13083SOL     OW41448   1.769   2.216   7.166 -0.1341  0.3631 -0.2285
13083SOL    HW141449   1.678   2.239   7.187 -0.8262 -0.9396 -1.6349
13083SOL    HW241450   1.820   2.291   7.198 -1.6365  0.9205  1.0045
13084SOL     OW41451   1.973   0.214   0.115 -0.0241  0.5829 -0.7886
13084SOL    HW141452   2.040   0.259   0.064 -0.2921  2.1547  0.1623
13084SOL    HW241453   2.015   0.133   0.144  0.6312  0.3963 -2.1946
13085SOL     OW41454   9.243   5.904   7.581  0.3041  0.0965  0.1999
13085SOL    HW141455   9.299   5.827   7.595  0.0319 -0.2406 -0.5160
13085SOL    HW241456   9.301   5.969   7.543  0.6329  0.4068  1.1860
13086SOL     OW41457   5.053   3.094   0.844  0.7816 -0.0042 -0.1268
13086SOL    HW141458   5.060   3.149   0.921 -0.1448 -0.7708  0.5248
13086SOL    HW241459   5.130   3.036   0.847 -0.0507 -1.0925  1.0955
13087SOL     OW41460   5.519   4.002   0.283  0.4548  0.2085  0.2535
13087SOL    HW141461   5.578   4.036   0.215  0.1443  1.6398  0.6765
13087SOL    HW241462   5.431   4.015   0.247  0.3278 -1.1227  0.0012
13088SOL     OW41463   1.207   6.914   8.827 -0.2137 -0.0596  0.0472
13088SOL    HW141464   1.203   6.996   8.778 -0.1967 -0.3029 -0.3595
13088SOL    HW241465   1.167   6.849   8.770  0.0911 -0.4084  0.2237
13089SOL     OW41466   3.598   8.447   9.537  0.1128  0.2995  0.3320
13089SOL    HW141467   3.619   8.424   9.446  2.7339  1.6660  0.4915
13089SOL    HW241468   3.516   8.401   9.555  0.4128 -1.4074 -2.1483
13090SOL     OW41469   2.319   6.814   8.175 -0.4181  0.2332 -0.2915
13090SOL    HW141470   2.347   6.900   8.143 -0.2353  0.5978  0.8043
13090SOL    HW241471   2.399   6.772   8.205 -0.7339  0.4051  0.8380
13091SOL     OW41472   8.782   5.897   8.814 -0.1338  0.0341 -0.5513
13091SOL    HW141473   8.712   5.836   8.837 -0.2804  0.7042  0.9063
13091SOL    HW241474   8.799   5.946   8.895  0.9350  0.9674 -1.3009
13092SOL     OW41475   0.186   6.275   8.035 -0.0383 -0.0662  0.0505
13092SOL    HW141476   0.257   6.336   8.018  0.2074 -0.3505  0.0617
13092SOL    HW241477   0.133   6.318   8.102  1.4642 -0.9094  1.8826
13093SOL     OW41478   2.509   2.983   9.277 -0.8421  0.0429  0.3543
13093SOL    HW141479   2.476   2.928   9.206 -2.3878  0.7822  0.4695
13093SOL    HW241480   2.449   2.966   9.350  1.4292 -1.6950  1.9935
13094SOL     OW41481   7.722   3.134   3.974  0.1594 -0.2326 -0.3242
13094SOL    HW141482   7.805   3.134   3.927  0.1577  1.6910 -0.4224
13094SOL    HW241483   7.664   3.188   3.920 -0.6447 -0.1947  0.5490
13095SOL     OW41484   4.957   0.964   2.965 -0.1420  0.0649 -0.0159
13095SOL    HW141485   5.029   1.027   2.964 -1.1945  1.3321  1.0012
13095SOL    HW241486   4.954   0.933   3.055 -1.8560  1.2559  0.3888
13096SOL     OW41487   0.439   3.115   0.500  0.0424  0.3333  0.3509
13096SOL    HW141488   0.393   3.143   0.579  1.6149 -1.2030  1.9062
13096SOL    HW241489   0.400   3.031   0.477  0.3926  0.2088  0.2037
13097SOL     OW41490   1.325   8.282   8.154  0.7242  0.4765 -0.4587
13097SOL    HW141491   1.310   8.311   8.244  3.2170  0.5500  0.0021
13097SOL    HW241492   1.272   8.203   8.145 -2.9652  2.7137 -0.4054
13098SOL     OW41493   1.174   6.414   8.783  0.0152 -0.4436 -0.1673
13098SOL    HW141494   1.184   6.371   8.868 -3.8493  2.7078  2.3151
13098SOL    HW241495   1.111   6.360   8.736  0.2062 -0.8905  0.0874
13099SOL     OW41496   5.955   3.680   2.465  0.5446 -0.1505 -0.1545
13099SOL    HW141497   6.012   3.725   2.404 -1.7817  3.4245  0.0213
13099SOL    HW241498   5.979   3.714   2.551 -0.9519  0.5200  0.0380
13100SOL     OW41499   8.429   0.735   2.053  0.5464  0.3587  0.1867
13100SOL    HW141500   8.422   0.684   1.972  0.1224  1.8670 -0.7719
13100SOL    HW241501   8.448   0.824   2.023 -0.1962  1.0668  1.7233
13101SOL     OW41502   0.245   1.165   2.363 -0.0959  0.1569 -0.6238
13101SOL    HW141503   0.168   1.210   2.329  1.2241  0.5805 -3.2744
13101SOL    HW241504   0.313   1.232   2.365  0.4168 -0.3478  1.1384
13102SOL     OW41505   3.232   4.429   2.484 -0.7293  0.0371  0.1866
13102SOL    HW141506   3.178   4.508   2.490 -0.7704  0.1938 -1.7146
13102SOL    HW241507   3.177   4.360   2.523 -1.5578  0.5428 -0.0543
13103SOL     OW41508   2.058   1.185   2.619 -0.4869  0.3568 -0.0524
13103SOL    HW141509   2.044   1.187   2.714  0.8009  2.2432  0.1694
13103SOL    HW241510   2.038   1.274   2.590  0.4271  0.1816 -1.3184
13104SOL     OW41511   0.912   9.446   0.100  0.2539  0.0354 -0.1602
13104SOL    HW141512   0.940   9.502   0.172  1.2039 -0.8848  0.2131
13104SOL    HW241513   0.853   9.501   0.049 -1.8391  0.2137  2.2372
13105SOL     OW41514   6.434   7.469   3.243 -0.0199 -0.2241  0.5462
13105SOL    HW141515   6.363   7.450   3.305 -0.1784 -1.0233  0.1316
13105SOL    HW241516   6.495   7.523   3.292 -0.3312 -0.5315  1.2804
13106SOL     OW41517   6.498   8.145   9.070 -0.1561 -0.2446  0.5233
13106SOL    HW141518   6.549   8.150   9.151 -1.6117 -2.9254  1.7366
13106SOL    HW241519   6.539   8.073   9.021 -0.4679  0.0960 -0.2483
13107SOL     OW41520   2.779   8.594   0.702  0.2402 -0.0846  0.0411
13107SOL    HW141521   2.685   8.579   0.694  0.3878 -0.9616 -0.1937
13107SOL    HW241522   2.812   8.588   0.613  0.1301  3.3539 -0.3593
13108SOL     OW41523   0.271   5.692   4.098  0.4579  0.0327 -0.1119
13108SOL    HW141524   0.348   5.741   4.127  0.8701 -1.5572  1.6439
13108SOL    HW241525   0.270   5.614   4.153 -2.0307 -0.3275 -0.5689
13109SOL     OW41526   8.588   0.964   8.388  0.5116  0.6336 -0.4691
13109SOL    HW141527   8.573   0.885   8.440  0.0810  2.2661  2.0561
13109SOL    HW241528   8.667   0.945   8.337 -0.3053 -1.8350 -0.9310
13110SOL     OW41529   2.687   7.819   8.194  0.5439  0.2910 -0.2094
13110SOL    HW141530   2.609   7.856   8.235  0.2661 -1.5294  1.0107
13110SOL    HW241531   2.654   7.745   8.143  1.4048 -0.1799 -0.0982
13111SOL     OW41532   2.830   9.273   5.481  0.3450  0.4416 -0.4141
13111SOL    HW141533   2.899   9.270   5.547 -0.6931 -1.4885  0.6847
13111SOL    HW241534   2.868   9.322   5.408  1.2039  3.5988  1.9388
13112SOL     OW41535   0.501   0.134   9.223 -0.4284 -0.4787  0.6283
13112SOL    HW141536   0.519   0.228   9.224 -2.7564  0.0200  0.5644
13112SOL    HW241537   0.479   0.114   9.314  0.1846 -1.0139  0.6656
13113SOL     OW41538   1.189   5.031   8.705 -0.3341 -0.6131  0.2867
13113SOL    HW141539   1.159   4.942   8.686 -0.9386 -0.0994 -1.3537
13113SOL    HW241540   1.207   5.031   8.799 -3.1450 -1.6818  0.9325
13114SOL     OW41541   5.936   7.834   0.642 -0.1053  0.5240 -0.3666
13114SOL    HW141542   5.934   7.905   0.577 -1.2488 -0.2880 -1.2467
13114SOL    HW241543   5.907   7.876   0.723 -1.9316  0.8301 -1.1418
13115SOL     OW41544   1.006   6.963   5.508 -0.6638  0.1710 -0.8144
13115SOL    HW141545   0.944   7.034   5.525 -1.0927 -0.6071  1.2967
13115SOL    HW241546   1.079   7.005   5.464 -1.3782  1.7186 -0.6134
13116SOL     OW41547   1.879   1.484   4.441 -0.5155  0.1811  0.5896
13116SOL    HW141548   1.926   1.465   4.522 -0.1206  0.9563  0.5532
13116SOL    HW241549   1.800   1.529   4.469 -0.1232  0.9239  0.5202
13117SOL     OW41550   3.152   6.548   8.624 -0.6152  0.3300  0.9663
13117SOL    HW141551   3.140   6.642   8.632  0.7189  0.5958  0.1784
13117SOL    HW241552   3.106   6.511   8.699 -1.9349  1.5306  0.7988
13118SOL     OW41553   0.068   3.718   3.104 -0.4122  0.1969 -0.0271
13118SOL    HW141554   0.142   3.771   3.074 -0.7047  0.1396 -0.8542
13118SOL    HW241555   0.094   3.690   3.192  0.3929  0.4774 -0.1656
13119SOL     OW41556   6.438   3.280   0.958  0.0217  0.2416 -0.2173
13119SOL    HW141557   6.355   3.307   0.918 -0.2395 -0.7510 -0.3700
13119SOL    HW241558   6.501   3.282   0.886 -0.1959 -0.4262 -0.4306
13120SOL     OW41559   8.173   0.733   5.271  0.1635 -0.9158 -0.0573
13120SOL    HW141560   8.223   0.698   5.197 -0.9590 -0.1171 -1.2401
13120SOL    HW241561   8.205   0.823   5.280 -0.0384 -0.8651  0.1258
13121SOL     OW41562   1.634   9.453   7.639  0.7383  0.3888  0.3920
13121SOL    HW141563   1.714   9.491   7.603  1.6070  0.2681  2.1319
13121SOL    HW241564   1.618   9.375   7.584  2.1608  0.0689  0.3977
13122SOL     OW41565   6.855   5.589   6.310 -0.4631  0.3947  0.1466
13122SOL    HW141566   6.860   5.664   6.370  0.5646 -0.0202  0.6218
13122SOL    HW241567   6.947   5.564   6.297 -0.8258 -1.7812  1.2980
13123SOL     OW41568   6.312   1.367   6.348 -0.0614 -0.3338 -0.5802
13123SOL    HW141569   6.319   1.274   6.327 -0.2600 -0.7344  0.9657
13123SOL    HW241570   6.393   1.388   6.394 -0.1986  0.1473 -0.5417
13124SOL     OW41571   0.274   4.287   5.654  0.7082 -0.0348  0.5306
13124SOL    HW141572   0.269   4.345   5.578  2.3033  0.6765  0.9248
13124SOL    HW241573   0.206   4.222   5.639 -0.6489  1.4994 -0.2980
13125SOL     OW41574   6.542   6.548   3.857  0.2500  0.3175 -0.0191
13125SOL    HW141575   6.494   6.623   3.824 -1.1649 -0.4280  0.2714
13125SOL    HW241576   6.634   6.573   3.849 -0.1888  2.0341  0.0185
13126SOL     OW41577   6.014   7.014   8.076  0.3292 -0.0252 -0.1005
13126SOL    HW141578   6.095   7.018   8.128  1.8087  1.4290 -2.3259
13126SOL    HW241579   5.999   7.105   8.049 -0.9977 -0.5716 -1.3016
13127SOL     OW41580   9.115   4.000   5.006 -0.1039 -0.0904 -1.1392
13127SOL    HW141581   9.073   4.085   4.995 -0.1819  0.2249  1.0588
13127SOL    HW241582   9.168   3.988   4.927 -0.5626  1.7104 -1.7540
13128SOL     OW41583   9.345   8.630   3.871  0.0980  0.1457 -0.4378
13128SOL    HW141584   9.322   8.549   3.916  0.3537  0.3228  0.0099
13128SOL    HW241585   9.439   8.639   3.883  0.0848  0.4671 -0.5618
13129SOL     OW41586   0.025   6.388   3.709 -0.4680  0.2607 -0.0563
13129SOL    HW141587   0.003   6.416   3.798  0.0029  1.6542 -0.3438
13129SOL    HW241588  -0.020   6.452   3.653  1.7603  1.3336 -0.7247
13130SOL     OW41589   8.029   1.552   7.337 -0.3087 -0.0296 -0.3411
13130SOL    HW141590   8.078   1.489   7.284  0.1742 -0.2606  0.3549
13130SOL    HW241591   7.964   1.588   7.278 -0.9827 -1.6078 -0.6131
13131SOL     OW41592   6.466   7.814   0.705 -0.0117 -0.1650  0.0056
13131SOL    HW141593   6.379   7.801   0.668 -0.2774  0.6783  0.3040
13131SOL    HW241594   6.524   7.820   0.629 -0.3626  0.2476 -0.2380
13132SOL     OW41595   1.372   8.293   5.198  0.7046  0.0058  0.0122
13132SOL    HW141596   1.452   8.296   5.147  2.1683  1.1432  2.1952
13132SOL    HW241597   1.400   8.268   5.286 -1.4485 -0.3458  0.6668
13133SOL     OW41598   3.736   2.503   3.990 -0.6623  0.2485  0.8503
13133SOL    HW141599   3.783   2.574   4.035  1.4066  1.2273 -2.4345
13133SOL    HW241600   3.673   2.548   3.934 -0.5097 -0.5982 -0.0256
13134SOL     OW41601   9.324   4.090   7.427  0.0927  0.5233 -0.3055
13134SOL    HW141602   9.313   4.107   7.520  1.4807 -0.0202 -0.0209
13134SOL    HW241603   9.312   3.996   7.418  2.8106  0.0904 -0.1666
13135SOL     OW41604   4.037   5.478   3.425 -0.6577 -0.0599  0.2579
13135SOL    HW141605   4.087   5.417   3.371  3.0689  1.0768  2.0973
13135SOL    HW241606   4.020   5.553   3.367  0.1313 -0.3280 -0.3427
13136SOL     OW41607   3.307   1.047   6.094 -0.4614  0.2737 -0.0695
13136SOL    HW141608   3.376   1.096   6.051 -1.3046  0.7193 -0.9535
13136SOL    HW241609   3.337   0.956   6.092  1.3750  0.7432  2.0919
13137SOL     OW41610   9.399   1.366   2.800  0.3945  0.2656  0.3121
13137SOL    HW141611   9.425   1.439   2.856  0.9569 -0.3090  0.8247
13137SOL    HW241612   9.411   1.289   2.855  1.3019 -0.3546 -0.7117
13138SOL     OW41613   7.593   4.424   1.271  0.5313  0.6694  0.2183
13138SOL    HW141614   7.538   4.478   1.214  2.1946  1.6165 -0.5827
13138SOL    HW241615   7.581   4.461   1.358  1.1759  2.0039 -0.2291
13139SOL     OW41616   4.559   1.174   7.691 -0.1777 -0.1939  0.1493
13139SOL    HW141617   4.548   1.173   7.786  2.2119 -0.6282  0.4934
13139SOL    HW241618   4.588   1.263   7.671 -0.5780 -0.1333 -0.1637
13140SOL     OW41619   5.166   4.953   0.640  0.4264 -0.0785 -0.5003
13140SOL    HW141620   5.179   5.004   0.560  3.1896  0.4581  0.1997
13140SOL    HW241621   5.099   5.002   0.688  2.1927  2.3992 -0.3555
13141SOL     OW41622   4.399   2.471   4.471 -0.2356  0.3707  0.1796
13141SOL    HW141623   4.409   2.554   4.518 -1.5390 -0.0939  1.3577
13141SOL    HW241624   4.429   2.405   4.534  0.9640 -0.0606 -0.8122
13142SOL     OW41625   7.756   1.239   1.345 -0.3102  0.4665  0.1462
13142SOL    HW141626   7.841   1.282   1.349  1.8087 -3.3256  0.5486
13142SOL    HW241627   7.718   1.252   1.432  1.2879 -0.2627  1.0017
13143SOL     OW41628   2.355   0.357   7.409 -0.4949 -0.2662  0.1204
13143SOL    HW141629   2.413   0.398   7.346 -1.8173 -0.2103 -1.1284
13143SOL    HW241630   2.268   0.365   7.369 -1.4112  0.0006  2.0941
13144SOL     OW41631   3.734   8.097   7.527  0.4981  0.1311 -0.3242
13144SOL    HW141632   3.793   8.155   7.576 -2.5126  1.8170  1.6215
13144SOL    HW241633   3.680   8.156   7.475 -0.8292 -1.1245 -0.4297
13145SOL     OW41634   6.086   0.633   5.441 -0.0744 -0.4819 -0.0075
13145SOL    HW141635   6.132   0.693   5.383  0.5427  0.4635  1.4133
13145SOL    HW241636   6.124   0.547   5.423  0.8179 -0.0361 -0.2784
13146SOL     OW41637   4.822   7.355   4.501  0.4541  0.2692  0.0953
13146SOL    HW141638   4.865   7.402   4.430  0.2842  0.3665  0.0563
13146SOL    HW241639   4.783   7.424   4.555 -0.0196  0.1621 -0.1047
13147SOL     OW41640   3.023   4.353   3.496  0.3885  0.5472  0.3315
13147SOL    HW141641   2.934   4.333   3.525  0.4596  1.3540  1.1556
13147SOL    HW241642   3.074   4.276   3.520  0.1617  0.6159  1.0434
13148SOL     OW41643   5.710   4.622   2.046 -0.1800  0.1618 -0.2125
13148SOL    HW141644   5.676   4.614   1.957  0.2523  0.3696 -0.4036
13148SOL    HW241645   5.701   4.535   2.084  3.6661 -1.2140 -1.9324
13149SOL     OW41646   8.262   3.345   6.135 -0.4906 -0.0572  1.1384
13149SOL    HW141647   8.257   3.322   6.228 -1.6349 -1.5939  0.7395
13149SOL    HW241648   8.190   3.296   6.095  0.2960  0.1838 -0.6360
13150SOL     OW41649   2.806   6.466   2.083 -0.1378  0.2787 -0.4813
13150SOL    HW141650   2.806   6.393   2.146  0.8751 -3.0244 -3.9454
13150SOL    HW241651   2.770   6.540   2.133 -0.2686 -2.2225  3.6412
13151SOL     OW41652   6.542   9.370   5.596 -0.7160  0.0189  0.1006
13151SOL    HW141653   6.607   9.397   5.662  0.2654 -0.1329 -0.7785
13151SOL    HW241654   6.458   9.376   5.642 -0.1210  0.5278  1.1775
13152SOL     OW41655   7.162   6.418   7.401  0.6212 -0.3324 -0.2608
13152SOL    HW141656   7.130   6.478   7.469 -1.7365  0.1101 -1.6428
13152SOL    HW241657   7.246   6.455   7.375  0.5187  0.7855  0.8587
13153SOL     OW41658   8.169   5.543   7.117 -0.0973 -0.0376 -0.1758
13153SOL    HW141659   8.079   5.572   7.101 -0.2423 -0.5449 -0.3164
13153SOL    HW241660   8.167   5.449   7.101  0.7707  0.1549 -1.6242
13154SOL     OW41661   5.555   6.046   5.909 -0.3304  0.2596 -0.7088
13154SOL    HW141662   5.501   5.971   5.884 -2.2557  1.3469 -0.1116
13154SOL    HW241663   5.531   6.062   6.001  0.0512  1.5689 -0.8218
13155SOL     OW41664   1.653   8.341   7.246  0.4902  0.2092 -0.1180
13155SOL    HW141665   1.676   8.430   7.221  1.4094  0.1702  0.5318
13155SOL    HW241666   1.699   8.327   7.329  1.2367 -1.2260 -0.7441
13156SOL     OW41667   7.457   7.054   7.304  0.0073  0.2881  0.1273
13156SOL    HW141668   7.512   7.128   7.331 -0.6643  1.3707 -1.3344
13156SOL    HW241669   7.507   7.010   7.236  0.7484 -1.1402  1.5168
13157SOL     OW41670   6.531   5.950   8.850 -0.1101 -0.0369  0.5534
13157SOL    HW141671   6.496   5.867   8.883  1.3231 -0.1918  1.8124
13157SOL    HW241672   6.471   6.017   8.883 -1.1448 -0.5314 -0.2697
13158SOL     OW41673   8.796   7.866   9.185 -0.6704  0.4903  0.2168
13158SOL    HW141674   8.730   7.834   9.124  0.2720  0.5334 -0.8742
13158SOL    HW241675   8.791   7.806   9.259 -0.4923 -0.8263 -0.7891
13159SOL     OW41676   8.913   6.833   0.196  0.1337  0.3986  0.0321
13159SOL    HW141677   9.008   6.818   0.189 -0.1108 -0.6022 -1.4513
13159SOL    HW241678   8.901   6.924   0.171  0.8194  0.9305  1.5112
13160SOL     OW41679   1.732   7.033   7.018 -0.3015 -0.0015  0.0882
13160SOL    HW141680   1.790   6.960   7.038 -0.1763 -0.3446 -1.3612
13160SOL    HW241681   1.689   7.054   7.100 -0.5452 -1.8945  0.4737
13161SOL     OW41682   1.360   2.006   0.313 -0.0274  0.5733 -0.4287
13161SOL    HW141683   1.349   2.101   0.315  0.0541  0.5885 -0.6672
13161SOL    HW241684   1.385   1.983   0.402  1.5398  0.9643 -0.7357
13162SOL     OW41685   4.678   0.995   5.382  0.3002  0.0591  0.0314
13162SOL    HW141686   4.643   1.084   5.384  0.7638  0.3117  3.5587
13162SOL    HW241687   4.772   1.006   5.373  0.1875 -0.2402 -1.7792
13163SOL     OW41688   5.042   0.321   6.334 -0.6647  0.1532  0.6753
13163SOL    HW141689   4.971   0.314   6.271  0.5941  0.0083 -0.7835
13163SOL    HW241690   5.072   0.231   6.347  1.4128  0.4579 -1.3665
13164SOL     OW41691   2.887   0.267   6.816 -0.2811  0.3246  0.3309
13164SOL    HW141692   2.859   0.324   6.889 -0.5735  1.6987 -0.8034
13164SOL    HW241693   2.888   0.179   6.854  0.2735  1.0645  2.1962
13165SOL     OW41694   7.039   8.516   1.234  0.4916  0.0023  0.3038
13165SOL    HW141695   7.097   8.454   1.277 -2.1415 -1.6508  1.7788
13165SOL    HW241696   7.016   8.579   1.303  1.2346  1.1706 -0.5057
13166SOL     OW41697   9.375   7.644   2.904 -0.6583 -0.1436  0.3108
13166SOL    HW141698   9.400   7.553   2.887 -1.0329  0.0410 -1.3632
13166SOL    HW241699   9.409   7.662   2.992  1.3551 -1.2167 -0.1877
13167SOL     OW41700   6.340   4.018   1.864 -0.3163  0.6377 -0.2686
13167SOL    HW141701   6.250   4.050   1.855 -0.6946 -0.2151  0.3890
13167SOL    HW241702   6.333   3.923   1.854  0.5605  0.5903 -0.5066
13168SOL     OW41703   9.222   7.133   7.210  0.5008  0.1681  0.4816
13168SOL    HW141704   9.294   7.074   7.187  1.0332  1.3097 -0.8856
13168SOL    HW241705   9.223   7.136   7.306  3.3514  1.4033  0.5086
13169SOL     OW41706   8.798   0.198   3.253 -0.3298  0.1196 -0.2632
13169SOL    HW141707   8.843   0.151   3.184 -0.1174  1.1458 -0.8439
13169SOL    HW241708   8.856   0.273   3.273 -1.4705  1.1305 -0.6164
13170SOL     OW41709   7.268   8.859   7.029 -0.0442 -0.1989  0.3349
13170SOL    HW141710   7.303   8.923   6.966  1.2122 -1.0321  0.1556
13170SOL    HW241711   7.208   8.910   7.083 -0.3629  0.7694 -0.8770
13171SOL     OW41712   3.526   8.574   4.809  0.3442  0.3678  0.1852
13171SOL    HW141713   3.591   8.559   4.877  0.2129  2.4834  0.8177
13171SOL    HW241714   3.577   8.596   4.731  0.4230  1.0057  0.4141
13172SOL     OW41715   6.479   6.147   1.292  0.5272  0.0736  0.2549
13172SOL    HW141716   6.554   6.097   1.325  0.6991  0.0155 -0.2250
13172SOL    HW241717   6.435   6.177   1.371  1.4922  0.7669  0.5578
13173SOL     OW41718   6.003   8.593   7.213  0.0961  0.3942  0.3255
13173SOL    HW141719   6.018   8.683   7.242  0.1375  0.3149  0.5572
13173SOL    HW241720   6.022   8.540   7.291  0.9537  0.1180 -0.0570
13174SOL     OW41721   8.517   2.675   7.147  0.0496  0.0289  0.4646
13174SOL    HW141722   8.502   2.746   7.209  0.9171 -0.7798  1.6265
13174SOL    HW241723   8.520   2.719   7.061 -3.7009  0.8744  0.6102
13175SOL     OW41724   2.160   3.677   2.978 -0.5188 -0.0066 -0.4210
13175SOL    HW141725   2.116   3.595   2.955  0.1658 -0.7620  0.8558
13175SOL    HW241726   2.252   3.662   2.956 -0.1155 -0.1925  1.2648
13176SOL     OW41727   8.086   6.861   9.218 -0.1354 -0.2153 -0.5335
13176SOL    HW141728   8.064   6.862   9.124 -1.1044  1.7204 -0.3240
13176SOL    HW241729   8.153   6.929   9.228  0.6190 -1.0215  0.0633
13177SOL     OW41730   7.828   7.758   2.444  0.1255  0.2175  0.0751
13177SOL    HW141731   7.875   7.758   2.361  0.2560 -0.8167  0.1343
13177SOL    HW241732   7.736   7.768   2.420  0.2041  0.3330 -0.1724
13178SOL     OW41733   6.879   7.962   8.859 -0.0498  0.6424 -0.8255
13178SOL    HW141734   6.911   7.900   8.924  0.1252  0.9047 -0.6619
13178SOL    HW241735   6.956   7.985   8.807 -0.1497  0.5825 -0.9983
13179SOL     OW41736   0.930   5.919   3.660 -0.4523 -0.0965 -0.1832
13179SOL    HW141737   0.955   5.863   3.733  1.0609 -1.6185 -1.7836
13179SOL    HW241738   1.008   5.972   3.641 -0.8797  0.4112 -0.5896
13180SOL     OW41739   7.312   5.033   4.126  0.0798 -0.0662  0.0241
13180SOL    HW141740   7.260   5.031   4.207 -0.8118 -0.4646 -0.5486
13180SOL    HW241741   7.307   4.944   4.092 -1.9253  0.7040 -1.9445
13181SOL     OW41742   1.057   5.777   4.320  0.6041  0.8908 -0.0671
13181SOL    HW141743   0.987   5.735   4.270 -0.9712  3.1210  0.0914
13181SOL    HW241744   1.028   5.770   4.411  0.1321  2.4937 -0.0618
13182SOL     OW41745   7.745   5.002   7.936 -0.0219  0.0768  0.0432
13182SOL    HW141746   7.723   5.021   7.845 -0.3140 -0.0193  0.0937
13182SOL    HW241747   7.728   5.084   7.982 -1.6271 -0.3865  0.3232
13183SOL     OW41748   0.111   6.334   3.364 -0.7099  0.2469 -0.0755
13183SOL    HW141749   0.082   6.410   3.313  0.7414  0.1674 -1.0831
13183SOL    HW241750   0.206   6.346   3.373 -0.7199 -0.5358  1.3175
13184SOL     OW41751   9.479   3.016   9.483  0.4931  0.0600 -0.2427
13184SOL    HW141752   9.409   2.953   9.495  0.7346 -0.3935 -1.1521
13184SOL    HW241753   9.440   3.087   9.432  0.2563  0.6044  0.6681
13185SOL     OW41754   9.008   7.189   5.756  0.1271 -0.3560  0.0365
13185SOL    HW141755   8.978   7.180   5.846  0.2294  1.8524  0.3458
13185SOL    HW241756   8.957   7.262   5.721  2.0255  0.6473 -0.7995
13186SOL     OW41757   1.800   5.533   1.769  0.4141 -0.0921 -0.1275
13186SOL    HW141758   1.887   5.504   1.740  0.4742  2.2656 -2.5978
13186SOL    HW241759   1.739   5.483   1.715  0.2503 -0.5633  0.4762
13187SOL     OW41760   9.161   1.724   0.447 -0.1430  0.1529  0.1116
13187SOL    HW141761   9.242   1.764   0.480 -0.5003  1.1354 -0.1623
13187SOL    HW241762   9.178   1.711   0.354  0.0641 -0.6014  0.2449
13188SOL     OW41763   1.958   0.577   7.809 -0.5210  0.1554 -0.5281
13188SOL    HW141764   1.911   0.494   7.822  0.6416 -0.3167  1.0143
13188SOL    HW241765   2.029   0.555   7.749  0.6280 -0.3767  0.9412
13189SOL     OW41766   7.714   7.762   2.889  0.1442 -0.1941  0.2312
13189SOL    HW141767   7.756   7.688   2.846  1.0209  0.1848  0.4085
13189SOL    HW241768   7.680   7.727   2.971 -0.3268 -0.6166 -0.1442
13190SOL     OW41769   7.420   0.147   5.987  0.9505 -0.1401  0.5365
13190SOL    HW141770   7.404   0.241   5.986  2.0629  0.0993  2.1098
13190SOL    HW241771   7.432   0.124   5.895  1.7280  1.4635  0.1997
13191SOL     OW41772   0.933   7.089   7.396  0.4388 -0.1287  0.0025
13191SOL    HW141773   0.994   7.039   7.341  0.4032  0.8148 -0.9423
13191SOL    HW241774   0.976   7.174   7.407 -0.1887  0.1544  0.2848
13192SOL     OW41775   1.353   7.813   7.718 -0.2864 -0.3061  0.0490
13192SOL    HW141776   1.361   7.896   7.672  0.2607 -0.4956 -0.2153
13192SOL    HW241777   1.434   7.806   7.769  1.1112 -1.9842 -2.1609
13193SOL     OW41778   9.182   4.381   8.498 -0.1978 -0.2460  0.1003
13193SOL    HW141779   9.179   4.382   8.403 -1.2104 -1.6069  0.0863
13193SOL    HW241780   9.264   4.425   8.520  2.1398 -3.3167 -1.5755
13194SOL     OW41781   1.639   7.113   4.849  0.3483  0.0293 -0.1690
13194SOL    HW141782   1.626   7.085   4.940  1.8682  2.9397  1.0755
13194SOL    HW241783   1.673   7.202   4.856 -2.1779  1.4767 -3.7012
13195SOL     OW41784   3.232   8.969   4.438  0.0531 -0.2584 -0.4882
13195SOL    HW141785   3.322   8.941   4.419 -0.3100 -1.2140 -0.8430
13195SOL    HW241786   3.234   9.065   4.430  1.2113 -0.2015  0.2496
13196SOL     OW41787   4.314   2.570   2.630  0.1653 -0.2539 -0.2039
13196SOL    HW141788   4.378   2.636   2.655 -1.3768  1.0419  0.4788
13196SOL    HW241789   4.364   2.507   2.577  1.8889  0.8955 -0.0231
13197SOL     OW41790   6.412   2.076   3.501 -0.2678  0.0721  0.2548
13197SOL    HW141791   6.388   2.018   3.573 -1.6744  1.4863  0.9930
13197SOL    HW241792   6.500   2.107   3.522 -0.0473 -0.7482  0.5362
13198SOL     OW41793   0.764   3.134   2.478  0.1888 -0.4798  1.0471
13198SOL    HW141794   0.799   3.078   2.409 -0.1285 -0.3220  0.7557
13198SOL    HW241795   0.722   3.206   2.431  0.9038  0.1900  1.4264
13199SOL     OW41796   6.037   7.892   1.225  0.8960 -0.0567 -0.3631
13199SOL    HW141797   6.051   7.987   1.228 -0.5423  0.1583  0.7212
13199SOL    HW241798   5.970   7.881   1.157  0.4516 -0.1961  0.0920
13200SOL     OW41799   1.645   2.114   8.377  0.5706  0.0247  0.4082
13200SOL    HW141800   1.625   2.208   8.371 -0.4825 -0.1613  0.8480
13200SOL    HW241801   1.644   2.083   8.287  0.7950  0.4066  0.2720
13201SOL     OW41802   9.347   3.800   4.317  0.0152  0.2707 -0.1827
13201SOL    HW141803   9.302   3.726   4.275  1.0068 -0.4090 -0.0885
13201SOL    HW241804   9.372   3.767   4.403 -2.0426  1.6717  1.0380
13202SOL     OW41805   2.624   2.272   5.878 -0.0885  0.1833 -0.0326
13202SOL    HW141806   2.683   2.331   5.925  0.1479  0.3286 -0.5109
13202SOL    HW241807   2.655   2.274   5.787  0.6619 -1.5805  0.1427
13203SOL     OW41808   3.714   7.441   2.733  0.6653  0.1557 -0.2070
13203SOL    HW141809   3.690   7.391   2.655 -1.3440 -0.3183  0.6699
13203SOL    HW241810   3.786   7.497   2.703 -0.1203  0.0848 -2.4448
13204SOL     OW41811   2.512   2.475   1.924 -0.5275  0.3744  0.0335
13204SOL    HW141812   2.509   2.489   1.829  0.5381 -0.1193 -0.0861
13204SOL    HW241813   2.422   2.453   1.948 -0.4629 -1.2941 -1.1488
13205SOL     OW41814   1.051   2.041   7.300 -0.1376  0.0233  0.2456
13205SOL    HW141815   1.002   2.091   7.234  1.3967 -0.2857 -1.2095
13205SOL    HW241816   0.996   1.964   7.317 -0.5015  0.0307 -0.8055
13206SOL     OW41817   6.342   9.154   5.599 -0.5368 -0.3012 -0.1804
13206SOL    HW141818   6.432   9.134   5.573 -1.7102 -1.1304 -4.1358
13206SOL    HW241819   6.324   9.239   5.559 -1.3972  0.1293  1.0614
13207SOL     OW41820   8.894   0.502   2.639 -0.2057  0.0485 -0.0137
13207SOL    HW141821   8.933   0.588   2.619  0.8949 -0.5218 -0.4011
13207SOL    HW241822   8.909   0.450   2.560  1.1646 -1.1978  1.0021
13208SOL     OW41823   0.944   1.893   5.513 -0.2612 -0.1034  0.3097
13208SOL    HW141824   0.968   1.880   5.605  0.0571  0.1927  0.2670
13208SOL    HW241825   1.008   1.841   5.464  0.4944  0.9287  0.1815
13209SOL     OW41826   4.410   3.609   9.051  0.0314 -0.2849  0.2478
13209SOL    HW141827   4.394   3.679   8.988  0.3132 -0.4838 -0.0454
13209SOL    HW241828   4.371   3.531   9.012  1.0827 -0.6243 -0.1576
13210SOL     OW41829   4.930   3.416   1.032  0.2359 -0.0134  0.2381
13210SOL    HW141830   4.875   3.397   1.108 -0.7824 -1.0567 -0.7253
13210SOL    HW241831   5.003   3.356   1.039 -0.4588 -0.9352 -0.1995
13211SOL     OW41832   8.679   8.235   4.159  0.1671  0.4216 -0.5218
13211SOL    HW141833   8.643   8.306   4.214 -0.9183 -0.2954 -0.2861
13211SOL    HW241834   8.750   8.198   4.212  0.2647  0.8598 -0.3412
13212SOL     OW41835   6.907   0.578   6.382 -0.3498  0.8613  0.5323
13212SOL    HW141836   6.931   0.668   6.362  0.5879  0.1497 -1.8416
13212SOL    HW241837   6.814   0.572   6.361 -0.6195  1.4432  1.4840
13213SOL     OW41838   4.180   1.938   0.483 -0.2890 -0.3107 -0.6534
13213SOL    HW141839   4.237   1.915   0.409 -0.1908  1.9786 -1.3688
13213SOL    HW241840   4.113   1.869   0.484  1.1451 -1.7742 -1.2504
13214SOL     OW41841   7.434   2.880   3.203  0.0558 -0.5290 -1.2669
13214SOL    HW141842   7.435   2.884   3.298  1.3084  1.7170 -1.3176
13214SOL    HW241843   7.355   2.926   3.177 -0.5893 -1.6376 -1.3413
13215SOL     OW41844   3.822   2.561   3.610  0.4686 -0.0463 -0.6623
13215SOL    HW141845   3.776   2.617   3.547 -0.5497 -0.5008 -0.3526
13215SOL    HW241846   3.788   2.588   3.695  1.9001  0.6259 -0.2740
13216SOL     OW41847   1.195   3.397   7.915 -0.4879  0.2834 -0.0434
13216SOL    HW141848   1.241   3.416   7.997  0.7096 -1.6243 -0.2102
13216SOL    HW241849   1.195   3.480   7.868  0.9667  0.8499  0.8663
13217SOL     OW41850   5.186   2.047   7.089  0.0785  0.4809 -0.2807
13217SOL    HW141851   5.108   2.103   7.087 -0.2410  0.0533  0.1194
13217SOL    HW241852   5.259   2.108   7.101 -0.2292  0.8477 -0.2522
13218SOL     OW41853   2.835   4.146   1.678  0.0276  0.4986 -0.2643
13218SOL    HW141854   2.816   4.154   1.772  1.4255  1.5370 -0.0352
13218SOL    HW241855   2.752   4.165   1.635 -0.2170  1.9102  0.7421
13219SOL     OW41856   2.875   3.472   8.208  0.2634 -0.2084 -0.2286
13219SOL    HW141857   2.812   3.477   8.137  1.0769  0.1876 -0.9446
13219SOL    HW241858   2.868   3.383   8.241 -1.5073  0.1657  0.5032
13220SOL     OW41859   3.739   1.441   1.193 -0.0555  0.2354  0.1302
13220SOL    HW141860   3.645   1.454   1.199 -0.2051 -1.4458  2.2981
13220SOL    HW241861   3.761   1.384   1.266  2.3555 -1.0980 -1.4782
13221SOL     OW41862   6.725   6.506   7.447 -0.3442  0.0240  0.4119
13221SOL    HW141863   6.705   6.510   7.541  1.1951 -0.3303  0.7879
13221SOL    HW241864   6.742   6.597   7.422  1.4516 -0.0845  1.0471
13222SOL     OW41865   7.159   3.483   3.200 -0.0174 -0.0317 -0.6123
13222SOL    HW141866   7.066   3.498   3.183  0.1664  0.1697 -1.4949
13222SOL    HW241867   7.171   3.389   3.184 -0.5055 -0.5407  1.7063
13223SOL     OW41868   1.729   8.629   7.187  0.5423  0.2679 -0.6650
13223SOL    HW141869   1.819   8.598   7.198 -0.2400 -1.6752  0.5506
13223SOL    HW241870   1.709   8.674   7.269 -0.2326 -1.0213 -0.1294
13224SOL     OW41871   8.291   2.801   6.418  0.0786  0.0558  0.6566
13224SOL    HW141872   8.243   2.754   6.350  0.2157 -1.0728  1.3078
13224SOL    HW241873   8.223   2.844   6.471 -0.1779 -0.8753  1.0981
13225SOL     OW41874   2.455   1.409   0.392 -0.2505 -0.1822 -0.0039
13225SOL    HW141875   2.420   1.406   0.481 -0.3675 -0.8396 -0.0649
13225SOL    HW241876   2.424   1.328   0.351  1.2323 -0.7416 -0.0865
13226SOL     OW41877   7.701   0.966   1.678 -0.3384 -0.6335 -0.1973
13226SOL    HW141878   7.771   1.007   1.728 -1.3971  0.4500  0.4441
13226SOL    HW241879   7.667   1.037   1.623 -1.9691 -0.6915  0.6749
13227SOL     OW41880   0.151   9.443   2.555 -0.0807  0.5440 -0.0443
13227SOL    HW141881   0.085   9.410   2.616 -1.0254  1.0705 -0.7430
13227SOL    HW241882   0.226   9.384   2.565 -1.1586 -0.9131 -0.1940
13228SOL     OW41883   2.185   6.622   8.059  0.2146 -0.1530  0.3153
13228SOL    HW141884   2.220   6.708   8.083  0.4949 -0.3211  0.5215
13228SOL    HW241885   2.202   6.568   8.136 -0.4015 -0.2695  0.3707
13229SOL     OW41886   3.388   3.932   0.549 -0.2942  0.0061  0.4395
13229SOL    HW141887   3.462   3.961   0.496 -0.4017  0.7267  0.6707
13229SOL    HW241888   3.315   3.988   0.521 -0.6407 -0.4099  0.5125
13230SOL     OW41889   7.520   1.169   8.379 -0.5893  0.4992 -0.0960
13230SOL    HW141890   7.497   1.079   8.401  1.4813 -0.1495 -0.3867
13230SOL    HW241891   7.586   1.194   8.445 -0.3947  1.4443 -0.6259
13231SOL     OW41892   8.207   9.516   5.838 -0.2704  0.6102  0.0703
13231SOL    HW141893   8.195   9.501   5.744 -0.7618 -0.8681  0.3401
13231SOL    HW241894   8.118   9.526   5.872 -0.5473 -3.2657  0.9910
13232SOL     OW41895   4.009   6.133   0.721 -0.8573 -0.0291  0.7816
13232SOL    HW141896   3.988   6.041   0.741  0.0423 -0.8164 -1.5502
13232SOL    HW241897   4.099   6.144   0.750 -0.7514 -0.0868  0.4783
13233SOL     OW41898   7.954   2.516   2.129 -0.3450  0.2428  0.5426
13233SOL    HW141899   7.864   2.502   2.101  0.3637  0.3066 -2.0364
13233SOL    HW241900   7.976   2.439   2.182 -1.3561 -0.6721 -0.3413
13234SOL     OW41901   0.704   8.800   4.914 -0.0033 -0.0303  0.2967
13234SOL    HW141902   0.699   8.888   4.950  0.4435  0.7232 -1.3580
13234SOL    HW241903   0.726   8.813   4.821  1.7628 -1.9133  0.3510
13235SOL     OW41904   9.214   5.539   8.974 -0.1651 -0.2968  1.0537
13235SOL    HW141905   9.202   5.595   9.051  0.4692 -1.2041  1.8434
13235SOL    HW241906   9.178   5.589   8.901  0.3053  1.0866  1.7527
13236SOL     OW41907   2.765   2.030   3.480  0.2626  0.7923  0.1374
13236SOL    HW141908   2.764   2.062   3.390  0.1346  1.3954  0.3429
13236SOL    HW241909   2.802   2.103   3.531  1.4546  0.0198  0.4159
13237SOL     OW41910   2.181   8.192   3.995 -0.1224  0.4292 -0.3460
13237SOL    HW141911   2.206   8.223   3.907  0.4647 -1.0846 -0.7502
13237SOL    HW241912   2.225   8.252   4.055  0.3234  0.8656 -1.0927
13238SOL     OW41913   6.170   8.209   2.174  0.2197 -0.4737 -0.1838
13238SOL    HW141914   6.227   8.278   2.206  0.1610 -0.5870  0.1725
13238SOL    HW241915   6.193   8.199   2.082 -0.0884  0.3348 -0.3610
13239SOL     OW41916   4.222   6.948   2.431 -0.0954 -0.4473 -0.2053
13239SOL    HW141917   4.131   6.921   2.416 -0.1476  0.5606 -1.9988
13239SOL    HW241918   4.216   7.041   2.454  0.4953 -0.2380 -0.8569
13240SOL     OW41919   1.710   0.093   1.139 -0.1201  0.1205  0.1987
13240SOL    HW141920   1.624   0.051   1.137 -0.9572  1.7335  0.3375
13240SOL    HW241921   1.705   0.156   1.211  0.9033  0.7778 -0.2698
13241SOL     OW41922   1.055   3.713   6.355 -0.6439 -0.7180  0.2635
13241SOL    HW141923   1.113   3.667   6.294  0.6551 -0.0349  0.9376
13241SOL    HW241924   1.026   3.646   6.416 -0.8698 -1.1382 -0.2946
13242SOL     OW41925   3.762   0.397   2.279 -0.4215 -0.1533  0.3109
13242SOL    HW141926   3.669   0.406   2.300 -0.6545 -3.1584  1.1027
13242SOL    HW241927   3.807   0.410   2.362 -0.1506  0.7844  0.0289
13243SOL     OW41928   4.357   4.389   7.330 -0.1867 -0.0065 -0.0633
13243SOL    HW141929   4.410   4.314   7.354 -1.0108 -0.0642  1.7009
13243SOL    HW241930   4.416   4.445   7.280  1.3920 -0.2902  1.4008
13244SOL     OW41931   5.282   0.851   3.727 -0.1941 -0.2929 -0.1850
13244SOL    HW141932   5.197   0.878   3.692  0.0169 -0.4337 -0.8264
13244SOL    HW241933   5.282   0.756   3.721 -1.0786 -0.5272  2.4174
13245SOL     OW41934   7.150   7.379   3.370 -0.1492 -0.6139  0.2578
13245SOL    HW141935   7.055   7.380   3.358 -0.0915 -1.0467 -0.3076
13245SOL    HW241936   7.173   7.286   3.370  0.3866 -0.4990 -0.6380
13246SOL     OW41937   7.405   0.793   8.948 -0.9146  0.2189  0.2111
13246SOL    HW141938   7.449   0.749   9.021 -1.1350  0.7189  0.6527
13246SOL    HW241939   7.325   0.830   8.987  0.2316  2.7637  0.3617
13247SOL     OW41940   2.475   4.513   4.741  0.2668  0.2548 -0.2106
13247SOL    HW141941   2.479   4.555   4.826  0.3338 -0.4015  0.1202
13247SOL    HW241942   2.398   4.551   4.699 -0.6134 -0.4382  0.7158
13248SOL     OW41943   5.046   4.446   9.474  0.1430 -0.1987 -0.0645
13248SOL    HW141944   5.052   4.500   9.553 -0.2260  0.6124 -0.5669
13248SOL    HW241945   5.013   4.362   9.504  0.5682 -0.0939  0.7214
13249SOL     OW41946   8.223   9.147   5.774  0.0422 -0.5302  0.2024
13249SOL    HW141947   8.302   9.173   5.820  0.4536  0.9997 -1.2679
13249SOL    HW241948   8.191   9.070   5.821  1.6414 -0.3549  1.6348
13250SOL     OW41949   3.367   6.365   8.568 -0.0384 -0.3010  0.1225
13250SOL    HW141950   3.420   6.395   8.641 -0.1273 -1.3477  0.6258
13250SOL    HW241951   3.303   6.435   8.554  1.1049  0.7323 -0.1503
13251SOL     OW41952   1.514   1.052   8.641 -0.4209 -0.5007 -0.3099
13251SOL    HW141953   1.556   1.115   8.700 -0.8144 -0.5222 -0.0002
13251SOL    HW241954   1.555   1.067   8.556 -0.5615  0.2172 -0.2509
13252SOL     OW41955   8.019   8.666   9.037  0.3230 -0.5811  0.3883
13252SOL    HW141956   8.032   8.581   8.996  0.3172 -0.5477  0.3172
13252SOL    HW241957   7.947   8.706   8.989  0.8887 -0.1823 -0.1348
13253SOL     OW41958   5.285   7.227   0.291 -0.2845  0.3717  0.0403
13253SOL    HW141959   5.321   7.175   0.362 -1.2432 -0.4624 -0.0750
13253SOL    HW241960   5.281   7.316   0.326 -1.4321 -0.1441  1.3034
13254SOL     OW41961   7.424   5.744   0.202 -0.1874  0.0198  0.2439
13254SOL    HW141962   7.471   5.772   0.124 -0.7552  2.0878  0.5813
13254SOL    HW241963   7.378   5.823   0.232 -2.1944 -1.3828  1.1002
13255SOL     OW41964   6.070   6.765   0.458 -0.1362  0.1324  0.8844
13255SOL    HW141965   6.131   6.821   0.506  1.1495  2.3362 -2.8725
13255SOL    HW241966   6.123   6.691   0.430  0.4529  1.1254 -0.8035
13256SOL     OW41967   1.989   1.713   4.291 -0.0285 -0.0313  0.3158
13256SOL    HW141968   1.938   1.641   4.327  1.3456  0.2234  3.0111
13256SOL    HW241969   1.972   1.787   4.350  1.1507  0.8844 -0.4339
13257SOL     OW41970   8.045   7.566   7.649  0.4276  0.0186 -0.1792
13257SOL    HW141971   8.088   7.577   7.734  1.0074 -2.0735 -0.1484
13257SOL    HW241972   8.117   7.565   7.586 -0.0510  2.4343 -0.8566
13258SOL     OW41973   3.922   0.335   8.158  0.7139  0.1648  0.4611
13258SOL    HW141974   3.909   0.255   8.208 -1.4949  0.1484 -0.0341
13258SOL    HW241975   3.973   0.308   8.081 -1.8181 -1.2990 -0.8254
13259SOL     OW41976   5.207   8.750   3.638 -0.0521 -0.5631  0.0487
13259SOL    HW141977   5.145   8.786   3.575  1.4875  1.9153 -0.1934
13259SOL    HW241978   5.153   8.711   3.706 -1.9293  1.9411  0.1091
13260SOL     OW41979   7.664   5.644   1.239 -0.2431 -0.2510  0.3822
13260SOL    HW141980   7.579   5.639   1.283  0.0031 -1.5661  0.7583
13260SOL    HW241981   7.685   5.737   1.237 -0.9195 -0.0476  1.7716
13261SOL     OW41982   5.081   4.454   8.942 -0.0819  0.1113 -0.1268
13261SOL    HW141983   5.088   4.457   8.847 -1.8047 -1.3391 -0.3342
13261SOL    HW241984   5.037   4.536   8.965  1.8167  1.2745 -0.3498
13262SOL     OW41985   1.825   8.459   5.428 -0.2936  0.3124 -0.0272
13262SOL    HW141986   1.900   8.485   5.480 -0.2128  1.8504 -0.8482
13262SOL    HW241987   1.803   8.371   5.459 -0.0445  1.0135  2.3202
13263SOL     OW41988   9.018   2.804   2.885  0.0238  0.1592 -0.1447
13263SOL    HW141989   8.965   2.861   2.940 -0.6883 -0.6349  0.0102
13263SOL    HW241990   8.982   2.814   2.797 -0.2361 -0.1869 -0.0829
13264SOL     OW41991   4.464   6.312   0.551 -0.3025  0.3669 -0.4263
13264SOL    HW141992   4.482   6.311   0.645 -0.7952  0.4642 -0.3256
13264SOL    HW241993   4.516   6.384   0.517  1.8849 -1.2231 -0.6588
13265SOL     OW41994   6.139   6.540   5.674 -0.5510 -0.6058  0.3933
13265SOL    HW141995   6.050   6.556   5.641  0.0784  0.0376 -1.0945
13265SOL    HW241996   6.132   6.457   5.722 -2.0742 -0.2675  0.8056
13266SOL     OW41997   5.545   0.695   1.618 -0.4358 -0.6377  0.3559
13266SOL    HW141998   5.536   0.756   1.544 -2.6864 -1.1084  0.1557
13266SOL    HW241999   5.626   0.720   1.661 -0.5564  1.5539 -0.5817
13267SOL     OW42000   4.349   6.219   8.373 -0.1353 -0.3103  0.3450
13267SOL    HW142001   4.435   6.208   8.331 -0.7672  0.3358 -1.2052
13267SOL    HW242002   4.357   6.300   8.423  0.1375 -0.2076  0.1385
13268SOL     OW42003   1.208   7.039   2.716 -0.0465  0.2780 -0.0288
13268SOL    HW142004   1.218   6.995   2.631  1.5243  1.5388 -0.5515
13268SOL    HW242005   1.244   7.126   2.701 -1.7460  1.2548  1.3781
13269SOL     OW42006   9.048   2.421   4.124  0.1747  0.5528  0.0631
13269SOL    HW142007   9.012   2.507   4.104 -1.7176 -0.5000 -1.3847
13269SOL    HW242008   9.141   2.429   4.100 -0.6716  1.2192 -3.7113
13270SOL     OW42009   1.545   8.347   1.112 -0.1359 -0.1503  0.4000
13270SOL    HW142010   1.636   8.363   1.138  0.2424 -1.1477 -0.2599
13270SOL    HW242011   1.512   8.287   1.178 -0.1692 -0.1511  0.3825
13271SOL     OW42012   4.979   1.681   1.776 -0.4636 -0.0124  0.5397
13271SOL    HW142013   4.900   1.633   1.801  1.4651 -3.2818  1.0646
13271SOL    HW242014   4.996   1.655   1.685  1.4093 -1.6818  1.2903
13272SOL     OW42015   1.528   0.445   2.151 -0.1620 -0.6134 -0.0216
13272SOL    HW142016   1.582   0.447   2.072 -1.0583 -0.1263 -0.6387
13272SOL    HW242017   1.570   0.508   2.210 -0.2403 -0.0012 -0.6152
13273SOL     OW42018   4.433   4.593   1.325  0.3924 -0.6779  0.0870
13273SOL    HW142019   4.527   4.579   1.341  0.7025  1.0163 -0.0735
13273SOL    HW242020   4.424   4.584   1.230  0.0243 -2.6585  0.2677
13274SOL     OW42021   6.703   7.212   0.016  0.2840  0.8950 -0.5626
13274SOL    HW142022   6.742   7.190   0.101 -2.1444 -1.3904  0.0738
13274SOL    HW242023   6.726   7.304   0.003  0.8474  1.3098  2.5275
13275SOL     OW42024   8.455   9.190   0.028 -0.7994 -0.0237  0.0234
13275SOL    HW142025   8.426   9.112   0.075 -0.1589  1.2749  2.7785
13275SOL    HW242026   8.376   9.241   0.015 -0.9660 -0.3488 -0.2696
13276SOL     OW42027   7.201   6.861   6.447 -0.4687  0.3725  0.1332
13276SOL    HW142028   7.204   6.951   6.477 -0.9303  0.7757 -0.9934
13276SOL    HW242029   7.293   6.834   6.443 -0.2876  1.0062 -0.1294
13277SOL     OW42030   2.310   5.525   7.830 -0.2554  0.0235 -0.8380
13277SOL    HW142031   2.239   5.568   7.783 -0.7726  0.5430  0.3773
13277SOL    HW242032   2.365   5.597   7.862 -1.0563 -0.1701  1.1045
13278SOL     OW42033   2.949   5.078   1.763  0.2654 -0.3226  0.5701
13278SOL    HW142034   2.967   5.021   1.689  2.1039  0.5657  0.2932
13278SOL    HW242035   2.998   5.040   1.836 -0.6766 -0.5886  1.0843
13279SOL     OW42036   6.105   9.060   4.043  0.0717  0.3694 -0.1345
13279SOL    HW142037   6.107   9.092   4.133  0.7337  1.3755 -0.4982
13279SOL    HW242038   6.042   9.116   3.999 -0.0010  0.0912 -0.3896
13280SOL     OW42039   7.893   3.116   4.752 -0.0031  0.2374 -0.7632
13280SOL    HW142040   7.931   3.089   4.668 -1.1796  0.5285 -1.4130
13280SOL    HW242041   7.799   3.104   4.741 -0.0968 -1.2134  1.0771
13281SOL     OW42042   8.683   5.412   5.393 -0.5344  0.4070  0.3109
13281SOL    HW142043   8.758   5.453   5.435  1.3361 -2.1733 -0.2633
13281SOL    HW242044   8.718   5.333   5.352 -3.3330 -0.2206 -1.1664
13282SOL     OW42045   4.742   4.067   6.469  0.3839  0.7579  0.1877
13282SOL    HW142046   4.753   3.975   6.495  1.3745  1.1568  1.2351
13282SOL    HW242047   4.663   4.067   6.416  0.5083 -0.7495 -0.0366
13283SOL     OW42048   8.553   3.368   9.472 -0.1578  0.0697 -0.3108
13283SOL    HW142049   8.621   3.403   9.414  0.3370  0.1080  0.2829
13283SOL    HW242050   8.572   3.274   9.477  0.7941  0.3156  1.0689
13284SOL     OW42051   6.581   1.211   3.461 -0.1483  0.4036 -0.1447
13284SOL    HW142052   6.564   1.204   3.555  2.3323  0.2735  0.3738
13284SOL    HW242053   6.658   1.156   3.447  0.1396  1.2206 -2.0627
13285SOL     OW42054   6.540   7.696   8.772 -0.0593  0.2828 -0.2041
13285SOL    HW142055   6.521   7.703   8.866  0.3921 -0.3597 -0.0613
13285SOL    HW242056   6.485   7.623   8.743 -0.4259  0.6741 -0.5075
13286SOL     OW42057   8.111   5.011   5.387  0.7992 -0.4274 -0.3668
13286SOL    HW142058   8.066   5.005   5.303 -2.0297  1.2600  0.8637
13286SOL    HW242059   8.098   5.101   5.415  0.2784 -1.2736  2.5284
13287SOL     OW42060   1.865   4.230   1.537  0.4667 -0.0620  0.4699
13287SOL    HW142061   1.946   4.251   1.582  0.2413  1.6420  0.1518
13287SOL    HW242062   1.836   4.148   1.577  1.5813  0.0672  1.6119
13288SOL     OW42063   5.099   1.070   7.017  0.0423 -0.2223  0.5322
13288SOL    HW142064   5.123   1.150   7.064  1.9828  1.4901 -2.9317
13288SOL    HW242065   5.019   1.093   6.971  0.9674  0.0928 -1.0112
13289SOL     OW42066   0.451   6.451   7.502  0.1857 -0.0962  0.1183
13289SOL    HW142067   0.396   6.403   7.564 -1.1048  0.7101 -0.3490
13289SOL    HW242068   0.389   6.488   7.439  0.9785  2.7641  0.8412
13290SOL     OW42069   1.360   8.807   3.718 -0.1146 -1.1261 -0.1399
13290SOL    HW142070   1.376   8.723   3.673  1.0742 -1.5667  1.0596
13290SOL    HW242071   1.434   8.862   3.694 -1.1024 -0.2381 -1.2573
13291SOL     OW42072   7.042   8.984   0.329 -0.0198 -0.6292  0.2379
13291SOL    HW142073   7.068   9.076   0.333  1.4983 -1.0312  0.5127
13291SOL    HW242074   6.999   8.967   0.413 -0.8132 -0.0304 -0.0474
13292SOL     OW42075   7.854   6.929   9.334 -0.5896  0.2876  0.3971
13292SOL    HW142076   7.929   6.894   9.286 -1.4226  0.0534 -0.7552
13292SOL    HW242077   7.851   7.022   9.310 -1.7720 -0.0995 -1.0612
13293SOL     OW42078   1.154   6.023   9.321  0.0558  0.4026 -0.0878
13293SOL    HW142079   1.149   5.956   9.389 -1.2750  0.3017 -0.2617
13293SOL    HW242080   1.106   5.986   9.247 -0.9847  1.6693 -0.0735
13294SOL     OW42081   0.007   3.525   2.885  0.5530 -0.2315  0.1278
13294SOL    HW142082   0.090   3.490   2.856  0.6248 -0.4672  0.6043
13294SOL    HW242083   0.030   3.607   2.929  0.7010 -0.9875  1.5114
13295SOL     OW42084   2.925   4.955   2.164 -0.2669  0.0462  0.3176
13295SOL    HW142085   2.948   4.980   2.075 -0.9932  0.0851  0.1328
13295SOL    HW242086   2.952   4.864   2.172  1.1924  0.4824  0.5659
13296SOL     OW42087   0.482   0.761   9.360  0.3845 -0.4125 -0.7209
13296SOL    HW142088   0.557   0.762   9.419  1.4247 -0.6425 -2.0160
13296SOL    HW242089   0.491   0.840   9.307 -0.7350 -0.0227 -0.3536
13297SOL     OW42090   6.532   9.534   4.104 -0.8501 -0.1964  0.2520
13297SOL    HW142091   6.457   9.556   4.160  0.6948  1.4031  1.8055
13297SOL    HW242092   6.595   9.494   4.164 -1.3484 -3.9674 -1.4982
13298SOL     OW42093   7.805   8.070   5.799 -0.1882 -0.0134  0.6082
13298SOL    HW142094   7.725   8.082   5.850 -0.8140  0.1445 -0.4016
13298SOL    HW242095   7.836   8.159   5.783  0.2176 -0.0749  1.0215
13299SOL     OW42096   6.748   3.349   6.519 -0.2702 -0.1401 -0.0130
13299SOL    HW142097   6.771   3.427   6.571 -3.3896 -0.0010  1.3950
13299SOL    HW242098   6.743   3.278   6.583  0.0343 -0.9646 -0.8761
13300SOL     OW42099   5.339   0.557   7.131  0.0192 -0.2395 -0.1827
13300SOL    HW142100   5.267   0.503   7.098  0.8178  0.3405 -3.1499
13300SOL    HW242101   5.297   0.637   7.163 -0.7564 -0.5745 -0.3534
13301SOL     OW42102   9.066   5.494   7.152 -0.3362  0.1356  0.3622
13301SOL    HW142103   9.070   5.522   7.244 -0.1666  0.5716  0.2195
13301SOL    HW242104   8.973   5.472   7.139 -0.7776  2.0635  0.0518
13302SOL     OW42105   5.240   5.904   0.166  0.4966  0.3187  0.0926
13302SOL    HW142106   5.198   5.820   0.150  0.3886 -0.1347  2.4288
13302SOL    HW242107   5.269   5.933   0.080  0.3561 -2.0108 -0.8120
13303SOL     OW42108   1.650   0.036   3.627  0.1655  0.3926  0.7087
13303SOL    HW142109   1.670   0.019   3.535  0.2229  0.9670  0.6156
13303SOL    HW242110   1.611  -0.046   3.658 -0.7676  0.5269 -0.0773
13304SOL     OW42111   3.795   7.964   0.972 -0.0423 -0.0986  0.0608
13304SOL    HW142112   3.879   7.979   1.015  0.4176 -0.9917 -0.5003
13304SOL    HW242113   3.781   8.043   0.920  0.1661  0.3038  0.6016
13305SOL     OW42114   2.995   1.525   1.828  0.3770  0.4292 -0.8057
13305SOL    HW142115   2.954   1.458   1.774 -1.4582 -2.2347  3.4079
13305SOL    HW242116   3.089   1.506   1.823 -0.0590 -2.1464 -0.1919
13306SOL     OW42117   1.608   3.231   4.040  0.0878 -0.0296  0.4743
13306SOL    HW142118   1.551   3.306   4.026  1.1432  0.7427  0.1986
13306SOL    HW242119   1.679   3.264   4.096  0.3428 -0.9223  0.6919
13307SOL     OW42120   8.099   6.836   6.956 -0.2153 -0.4469 -0.6001
13307SOL    HW142121   8.142   6.823   7.041 -1.4465 -0.5445  0.0277
13307SOL    HW242122   8.047   6.915   6.967  0.6683  0.3169 -1.7243
13308SOL     OW42123   7.960   1.437   0.746 -0.7746 -0.2543 -0.0829
13308SOL    HW142124   8.019   1.512   0.748  0.3384 -1.0906  1.2030
13308SOL    HW242125   8.014   1.364   0.780 -1.6146 -1.7677 -1.8198
13309SOL     OW42126   2.202   9.135   4.161 -0.1661  0.2447  0.1617
13309SOL    HW142127   2.123   9.187   4.147 -0.6329 -0.8259 -1.4746
13309SOL    HW242128   2.205   9.120   4.255 -2.8716 -1.1316  0.1125
13310SOL     OW42129   7.412   6.867   4.372 -0.2205 -0.4717  0.3814
13310SOL    HW142130   7.408   6.923   4.294 -0.3495 -0.0262  0.7038
13310SOL    HW242131   7.497   6.823   4.365  0.8587  1.3634  1.1885
13311SOL     OW42132   3.808   9.461   4.224 -0.1129  0.4368  0.4122
13311SOL    HW142133   3.850   9.541   4.256 -1.0866  1.8804 -1.6775
13311SOL    HW242134   3.741   9.441   4.289 -0.0816  1.5453  0.8013
13312SOL     OW42135   5.582   8.394   2.175  0.2916  0.4950 -0.1505
13312SOL    HW142136   5.583   8.444   2.094  1.3991  2.7316  1.1546
13312SOL    HW242137   5.674   8.368   2.188  0.3285  1.0913  0.8921
13313SOL     OW42138   3.957   9.547   1.202 -0.7823  0.4525 -0.0588
13313SOL    HW142139   3.909   9.498   1.135 -1.1254  1.1424 -0.3197
13313SOL    HW242140   3.973   9.483   1.271  0.1170 -0.4494 -1.0499
13314SOL     OW42141   8.324   7.126   6.647 -0.4713  0.0448 -0.2670
13314SOL    HW142142   8.317   7.049   6.704 -1.4811 -0.7990 -1.4808
13314SOL    HW242143   8.417   7.134   6.629 -0.4368 -1.6167 -1.0301
13315SOL     OW42144   6.345   1.344   3.125 -0.3656  0.4615  0.1802
13315SOL    HW142145   6.334   1.408   3.195 -0.0608  0.2093  0.4652
13315SOL    HW242146   6.406   1.385   3.064  1.2033 -0.2077  1.2125
13316SOL     OW42147   6.555   4.536   1.755  0.5824  0.0746  0.2950
13316SOL    HW142148   6.471   4.506   1.719  0.0930  0.3684  1.1668
13316SOL    HW242149   6.617   4.523   1.684 -0.2165 -0.0840 -0.3929
13317SOL     OW42150   7.398   5.117   1.992 -0.4247  0.0577 -0.2863
13317SOL    HW142151   7.398   5.084   2.082 -2.8770 -2.2773 -0.9887
13317SOL    HW242152   7.461   5.061   1.946 -0.5189  0.0315 -0.3841
13318SOL     OW42153   0.529   0.087   1.849 -0.0503 -0.8501  1.0397
13318SOL    HW142154   0.510   0.147   1.776  0.4258 -2.4603 -0.4775
13318SOL    HW242155   0.606   0.125   1.891 -0.2825  0.0708  0.6657
13319SOL     OW42156   5.869   3.672   4.901  0.0425  0.5232  0.5044
13319SOL    HW142157   5.961   3.650   4.884 -0.4620 -1.8215  0.4121
13319SOL    HW242158   5.833   3.592   4.939 -2.2652  0.9478 -0.6633
13320SOL     OW42159   6.873   0.497   4.079 -0.0758  0.4270  0.2897
13320SOL    HW142160   6.922   0.569   4.117  0.0329  0.9814 -0.8688
13320SOL    HW242161   6.784   0.507   4.113  0.3445  0.0221  1.5726
13321SOL     OW42162   1.784   3.963   1.595  0.3216 -0.1519  0.7483
13321SOL    HW142163   1.828   3.895   1.646 -0.3582 -1.4707 -0.3482
13321SOL    HW242164   1.693   3.933   1.589  0.2860  0.1773 -0.8531
13322SOL     OW42165   2.578   8.638   5.882 -0.3641  0.0745  0.2110
13322SOL    HW142166   2.561   8.732   5.892 -1.5260  0.0016 -0.8837
13322SOL    HW242167   2.611   8.629   5.792  2.7371 -0.2021  1.2619
13323SOL     OW42168   3.959   6.693   3.682  0.8388  0.3724 -0.1971
13323SOL    HW142169   3.875   6.722   3.717 -0.0251 -0.9644 -1.0516
13323SOL    HW242170   3.963   6.730   3.594  0.5278 -0.6159 -0.6416
13324SOL     OW42171   1.883   9.558   3.875 -0.5667 -0.1946  0.1264
13324SOL    HW142172   1.911   9.568   3.784 -0.3592  1.2809  0.3155
13324SOL    HW242173   1.946   9.611   3.924  0.0681 -1.9687  1.2803
13325SOL     OW42174   1.207   2.424   9.247  0.1754  0.1009  0.1597
13325SOL    HW142175   1.256   2.506   9.253  0.1478  0.0208  1.7474
13325SOL    HW242176   1.246   2.367   9.313 -0.3675 -0.8812 -0.3400
13326SOL     OW42177   6.288   1.996   9.287  0.2713  0.1398 -0.3038
13326SOL    HW142178   6.279   1.958   9.375 -0.0532 -0.1303 -0.4531
13326SOL    HW242179   6.348   1.937   9.242  1.2134  0.8124  0.0404
13327SOL     OW42180   5.847   6.014   6.649  0.0093 -0.1028 -0.3307
13327SOL    HW142181   5.863   5.922   6.626  0.8828  0.1241 -0.6480
13327SOL    HW242182   5.934   6.053   6.653 -0.4452  1.1497 -2.0038
13328SOL     OW42183   5.369   7.414   8.829 -0.5541 -0.1596 -0.4031
13328SOL    HW142184   5.307   7.464   8.777 -1.3239 -1.6381 -0.9541
13328SOL    HW242185   5.353   7.323   8.805 -0.2926 -0.8259  1.7265
13329SOL     OW42186   4.232   7.034   1.915  0.1756 -0.2500 -0.2868
13329SOL    HW142187   4.149   7.065   1.877  0.0915 -0.5915 -0.3822
13329SOL    HW242188   4.298   7.055   1.849  0.1264 -0.2241 -0.3277
13330SOL     OW42189   1.408   8.447   4.853 -0.0895 -0.4931  0.7430
13330SOL    HW142190   1.444   8.461   4.940  1.1773 -0.6577  0.2623
13330SOL    HW242191   1.316   8.427   4.868 -0.2567  1.0119  1.9305
13331SOL     OW42192   8.352   5.339   4.423 -0.1937  0.4836  0.2742
13331SOL    HW142193   8.430   5.392   4.410  1.8083 -1.9563  1.4715
13331SOL    HW242194   8.347   5.325   4.518 -1.7452  0.0762  0.1728
13332SOL     OW42195   0.766   3.671   2.823 -0.1015 -0.5717  0.3633
13332SOL    HW142196   0.714   3.608   2.772  0.6125 -0.6724 -0.2542
13332SOL    HW242197   0.831   3.704   2.761  0.1534  0.0475  0.9523
13333SOL     OW42198   7.100   3.113   2.554 -0.2844  0.4017 -0.5040
13333SOL    HW142199   7.052   3.093   2.473  0.8509  2.8414 -1.8570
13333SOL    HW242200   7.049   3.183   2.595 -0.4231 -0.2930  0.5615
13334SOL     OW42201   3.627   2.971   1.772  0.3405  0.2745  0.2069
13334SOL    HW142202   3.719   2.975   1.798  0.2362  0.8125  0.5000
13334SOL    HW242203   3.581   3.022   1.838 -0.2998 -0.8028  0.6043
13335SOL     OW42204   9.396   2.202   8.286 -0.2286 -0.1337 -0.1696
13335SOL    HW142205   9.428   2.125   8.332  0.1964 -0.9333 -1.7524
13335SOL    HW242206   9.469   2.264   8.288 -0.4138  0.0696  0.7035
13336SOL     OW42207   8.521   0.305   4.703  0.4494  0.1517  0.6643
13336SOL    HW142208   8.467   0.236   4.664 -0.1643  1.0100 -0.0406
13336SOL    HW242209   8.467   0.341   4.773 -0.0477  1.2119 -0.2331
13337SOL     OW42210   0.639   0.393   4.851 -0.1694 -0.4517 -0.3044
13337SOL    HW142211   0.696   0.318   4.869 -0.0292  0.0609  1.5231
13337SOL    HW242212   0.551   0.361   4.869 -0.2579 -0.5902 -0.9572
13338SOL     OW42213   4.556   5.464   5.110  0.2561 -0.2855 -0.5067
13338SOL    HW142214   4.563   5.374   5.142  1.0650  0.1031  0.4583
13338SOL    HW242215   4.607   5.516   5.173  0.8293  0.6804 -1.7204
13339SOL     OW42216   8.621   6.704   3.307  0.2743 -0.7552  0.7611
13339SOL    HW142217   8.555   6.634   3.312 -0.0034 -0.4072  3.9162
13339SOL    HW242218   8.676   6.690   3.384  1.8977  0.9437 -0.0204
13340SOL     OW42219   1.472   3.845   4.294  0.4702 -0.0381  0.2365
13340SOL    HW142220   1.457   3.935   4.321  0.4334  0.1841 -0.5302
13340SOL    HW242221   1.541   3.814   4.353 -0.5504  0.0027  1.5117
13341SOL     OW42222   9.296   0.518   2.710  0.3193  0.4991  0.2373
13341SOL    HW142223   9.370   0.576   2.732 -0.2387  1.3625 -0.1039
13341SOL    HW242224   9.297   0.515   2.614  1.0009 -0.9402  0.2730
13342SOL     OW42225   3.075   3.918   7.314  0.5199 -0.0584  0.1200
13342SOL    HW142226   3.148   3.969   7.347  0.1865  0.0721  0.6694
13342SOL    HW242227   3.029   3.976   7.253 -0.4750  0.6917  1.5396
13343SOL     OW42228   8.740   7.976   5.317  0.1751 -0.0214  0.3938
13343SOL    HW142229   8.801   7.911   5.353  0.7509 -0.3558 -1.0975
13343SOL    HW242230   8.774   7.993   5.229  0.3949  2.7700  0.9379
13344SOL     OW42231   6.082   7.166   8.928 -0.0391 -0.9851 -0.4779
13344SOL    HW142232   6.022   7.220   8.878  1.9825  2.0484  0.1349
13344SOL    HW242233   6.035   7.084   8.942 -3.5064  0.7570 -1.0441
13345SOL     OW42234   3.515   3.798   3.434  0.4796 -0.5132 -0.5588
13345SOL    HW142235   3.515   3.751   3.350  0.6508 -0.2058 -0.7341
13345SOL    HW242236   3.607   3.808   3.457  0.4166 -1.2522  0.0469
13346SOL     OW42237   1.957   1.612   3.378  0.0448  0.0298 -0.1023
13346SOL    HW142238   1.914   1.587   3.296 -1.0562  0.1923  0.4065
13346SOL    HW242239   1.990   1.700   3.362 -1.4654  0.6588  0.0872
13347SOL     OW42240   0.008   8.487   6.812 -0.0885  0.2308 -0.0773
13347SOL    HW142241  -0.025   8.444   6.891  1.6987 -1.4644 -0.1768
13347SOL    HW242242   0.076   8.546   6.844 -0.6101  0.9146 -0.2095
13348SOL     OW42243   4.918   8.133   3.703  0.2900  0.1124  0.0153
13348SOL    HW142244   4.999   8.094   3.733 -0.9218 -2.3543  0.3751
13348SOL    HW242245   4.895   8.083   3.624  0.4704  2.5956 -1.7151
13349SOL     OW42246   2.915   2.254   5.429  0.1510 -0.0037  0.2540
13349SOL    HW142247   2.843   2.304   5.466  0.1887  0.1384  0.1390
13349SOL    HW242248   2.933   2.296   5.345  1.6573  1.2009  1.1230
13350SOL     OW42249   9.004   6.425   4.807  0.6348  0.3564 -0.0410
13350SOL    HW142250   8.909   6.416   4.815  0.4751  1.9906  0.1998
13350SOL    HW242251   9.039   6.351   4.857 -0.5092  0.2323  0.6123
13351SOL     OW42252   3.269   7.783   5.245 -0.2011  0.0885 -0.0216
13351SOL    HW142253   3.324   7.754   5.318 -0.9419 -0.4313  0.3501
13351SOL    HW242254   3.249   7.702   5.197 -0.8697  0.2241  0.0193
13352SOL     OW42255   2.583   0.278   3.232 -0.7497 -0.3745  0.0309
13352SOL    HW142256   2.520   0.346   3.260 -0.1945 -0.4139  1.4780
13352SOL    HW242257   2.566   0.205   3.291  0.0405 -0.7221 -0.1656
13353SOL     OW42258   6.262   0.316   8.422 -0.1346 -0.2399 -0.0150
13353SOL    HW142259   6.332   0.256   8.396 -0.2709 -0.3092 -0.2200
13353SOL    HW242260   6.190   0.259   8.449  0.2176 -0.1825  1.1239
13354SOL     OW42261   4.783   4.941   5.225 -0.2255  0.0737  0.0048
13354SOL    HW142262   4.782   4.911   5.134 -2.7224  2.5610 -0.9351
13354SOL    HW242263   4.872   4.974   5.239 -0.3521  1.5636 -2.2862
13355SOL     OW42264   6.409   7.802   4.338  0.0056 -0.6096 -0.3484
13355SOL    HW142265   6.447   7.732   4.284  1.1335 -0.8451  0.7017
13355SOL    HW242266   6.479   7.825   4.399 -0.8065  0.5374  0.1776
13356SOL     OW42267   9.254   9.018   1.004 -0.0684  0.7350  0.4506
13356SOL    HW142268   9.272   8.933   0.965  0.2099  0.5047  1.0708
13356SOL    HW242269   9.340   9.062   1.006 -0.2471  1.1303 -0.0802
13357SOL     OW42270   6.767   1.064   3.198  0.5538 -0.2295 -0.0764
13357SOL    HW142271   6.792   0.984   3.244  0.5805 -1.9319 -2.8779
13357SOL    HW242272   6.767   1.040   3.106  1.5513  3.2893 -1.1264
13358SOL     OW42273   2.042   6.811   8.648  0.1172  0.5217 -0.5045
13358SOL    HW142274   2.008   6.729   8.612  1.0278  0.8192 -2.1612
13358SOL    HW242275   1.988   6.828   8.725 -0.6586 -1.1750 -0.6335
13359SOL     OW42276   6.512   6.949   7.414  0.1693 -0.3131  0.1193
13359SOL    HW142277   6.417   6.948   7.402 -0.0718  0.6584  1.6706
13359SOL    HW242278   6.537   7.040   7.399  1.1333 -0.8490 -1.8817
13360SOL     OW42279   2.652   9.296   3.723  0.1165  0.2020  0.1219
13360SOL    HW142280   2.654   9.228   3.656 -0.1767  0.1696  0.1474
13360SOL    HW242281   2.560   9.317   3.734  0.0335 -0.8332  1.5865
13361SOL     OW42282   4.072   6.487   8.794  0.1625  0.1892 -0.0268
13361SOL    HW142283   4.107   6.545   8.727 -0.7756  0.3878 -0.3574
13361SOL    HW242284   4.069   6.540   8.873 -3.7911  1.7976 -1.0057
13362SOL     OW42285   7.614   5.702   0.892 -0.2074 -0.3985 -0.0510
13362SOL    HW142286   7.677   5.638   0.859  0.9969  0.9657 -0.5014
13362SOL    HW242287   7.659   5.744   0.966 -1.0205 -0.1291  0.3057
13363SOL     OW42288   4.033   7.955   5.990 -0.5034  0.1823 -0.3760
13363SOL    HW142289   3.997   8.024   6.046  2.0967  1.9772 -0.7292
13363SOL    HW242290   4.101   7.914   6.044  0.4279  0.3577 -1.3955
13364SOL     OW42291   8.957   2.232   7.253  0.3681 -0.2408 -0.3102
13364SOL    HW142292   8.947   2.279   7.170 -2.2153 -1.4946 -0.8284
13364SOL    HW242293   8.911   2.286   7.317  0.6791 -0.2131 -0.1112
13365SOL     OW42294   2.284   0.619   2.233 -0.5973 -0.4155  0.3337
13365SOL    HW142295   2.269   0.699   2.182 -0.8261 -0.6174  0.0800
13365SOL    HW242296   2.250   0.639   2.320 -1.0734 -0.3937  0.1434
13366SOL     OW42297   3.452   2.453   1.871 -0.1915 -0.1340  0.3489
13366SOL    HW142298   3.392   2.509   1.920 -2.0331 -0.8259 -1.0204
13366SOL    HW242299   3.450   2.369   1.917 -0.3968 -0.2066  0.2063
13367SOL     OW42300   2.118   5.077   3.217 -0.1517 -0.5474 -0.0372
13367SOL    HW142301   2.133   4.986   3.190 -0.0417 -0.0158 -1.9420
13367SOL    HW242302   2.074   5.070   3.302 -2.9063 -2.4961 -1.4466
13368SOL     OW42303   6.793   4.615   7.609  0.4098 -0.5782 -0.0647
13368SOL    HW142304   6.808   4.534   7.559 -0.4737 -0.7605 -0.0528
13368SOL    HW242305   6.700   4.612   7.631  0.2003  0.7909 -0.6730
13369SOL     OW42306   4.137   4.296   0.806  0.5215  0.3801 -0.2959
13369SOL    HW142307   4.227   4.329   0.809  1.1981 -1.4414  1.5964
13369SOL    HW242308   4.132   4.247   0.724  0.5626  2.1111 -1.4004
13370SOL     OW42309   3.369   3.682   5.708  0.5108 -0.0294  0.2251
13370SOL    HW142310   3.275   3.677   5.689  0.8225 -1.6113 -1.1676
13370SOL    HW242311   3.392   3.773   5.691 -0.7924  0.4017  0.6841
13371SOL     OW42312   9.491   4.326   5.744 -0.4331  0.1126  0.2056
13371SOL    HW142313   9.504   4.271   5.821  0.5170 -0.0615 -0.0587
13371SOL    HW242314   9.570   4.311   5.691 -2.0512 -1.5904 -1.9416
13372SOL     OW42315   6.069   4.840   7.041  0.2069  0.2383  0.9069
13372SOL    HW142316   6.154   4.828   6.997 -0.3070  0.3957 -0.1565
13372SOL    HW242317   6.084   4.809   7.130  1.1486 -0.5763  0.4880
13373SOL     OW42318   0.409   8.757   4.658  0.3624 -0.0185  0.1695
13373SOL    HW142319   0.414   8.724   4.748 -1.2499 -0.3508  0.1622
13373SOL    HW242320   0.392   8.851   4.667 -1.0092 -0.2591  0.2399
13374SOL     OW42321   6.062   8.971   5.614 -0.6347  0.0814  0.4388
13374SOL    HW142322   6.152   8.995   5.636 -0.2395 -2.1043  1.5245
13374SOL    HW242323   6.028   8.930   5.694 -2.0455 -0.6089 -0.4764
13375SOL     OW42324   1.793   2.852   1.140  0.0706 -0.3748 -0.0776
13375SOL    HW142325   1.745   2.864   1.222 -1.1703 -1.6788 -0.5610
13375SOL    HW242326   1.728   2.814   1.080  1.3266 -0.7886 -1.2213
13376SOL     OW42327   6.269   2.669   5.118  0.0540 -0.0462  0.5928
13376SOL    HW142328   6.282   2.588   5.168 -0.3265 -0.1018  0.6079
13376SOL    HW242329   6.179   2.663   5.086  0.3508 -0.0906 -0.2468
13377SOL     OW42330   5.091   8.264   5.625 -0.9655 -0.8179 -0.4711
13377SOL    HW142331   5.119   8.181   5.663 -0.5447 -0.3299  0.3159
13377SOL    HW242332   5.016   8.242   5.571 -1.9658 -1.4605  1.1231
13378SOL     OW42333   8.813   1.560   0.976  0.2750 -0.5496  0.1806
13378SOL    HW142334   8.728   1.522   0.954  0.2567 -0.9084  0.8496
13378SOL    HW242335   8.853   1.497   1.036  1.4571 -0.8884 -0.9192
13379SOL     OW42336   0.187   7.560   8.835 -0.1397  0.0839  0.6837
13379SOL    HW142337   0.164   7.653   8.830  0.4395  0.1490 -1.3302
13379SOL    HW242338   0.263   7.557   8.892  0.4856  0.9865 -0.0841
13380SOL     OW42339   5.037   5.265   3.034 -0.1159 -0.2822  0.6975
13380SOL    HW142340   5.078   5.192   2.988  0.3637 -0.8452  1.9827
13380SOL    HW242341   4.944   5.243   3.035 -0.0771 -0.4692  0.3754
13381SOL     OW42342   2.616   5.824   3.023  0.1148 -0.4618  0.4082
13381SOL    HW142343   2.708   5.849   3.031  0.4652 -1.8559  1.0740
13381SOL    HW242344   2.589   5.806   3.113 -0.5824 -0.8059  0.1308
13382SOL     OW42345   3.264   6.436   1.565  0.5659  0.1794  0.3469
13382SOL    HW142346   3.253   6.342   1.551  0.1416  0.3107 -0.2007
13382SOL    HW242347   3.206   6.456   1.639 -1.0582  0.4139 -0.9529
13383SOL     OW42348   5.018   5.577   4.078 -0.2623 -0.0208  0.1527
13383SOL    HW142349   5.043   5.491   4.109  0.5788 -0.5504 -1.8307
13383SOL    HW242350   5.024   5.634   4.155  0.3814 -1.4692  1.2093
13384SOL     OW42351   4.799   8.271   2.489 -0.3771  0.0010 -0.0671
13384SOL    HW142352   4.891   8.298   2.495  0.0817 -1.5497  0.5552
13384SOL    HW242353   4.775   8.246   2.578 -1.7980  1.4733  0.0078
13385SOL     OW42354   1.825   1.408   5.918 -0.4750 -0.3626 -0.1519
13385SOL    HW142355   1.833   1.313   5.931  1.3533 -0.4020 -1.3075
13385SOL    HW242356   1.770   1.417   5.840  2.2862 -0.6666 -2.2849
13386SOL     OW42357   6.612   9.509   3.444 -0.0932 -0.3727 -0.4037
13386SOL    HW142358   6.526   9.496   3.405 -0.0184 -2.1239 -0.0923
13386SOL    HW242359   6.598   9.498   3.538  0.3530  0.0300 -0.2870
13387SOL     OW42360   7.004   1.674   7.162  0.7198 -0.1836  0.0248
13387SOL    HW142361   7.085   1.724   7.149 -0.1822  1.3785  0.2629
13387SOL    HW242362   6.997   1.665   7.257  1.8280 -2.4671 -0.0143
13388SOL     OW42363   2.930   2.425   2.818 -0.2285 -0.2906  0.1667
13388SOL    HW142364   2.909   2.518   2.825 -0.3664 -0.4258  2.8111
13388SOL    HW242365   3.012   2.423   2.768 -0.4533  1.1989 -0.3230
13389SOL     OW42366   6.071   4.774   3.611 -0.4031  0.2519 -0.1937
13389SOL    HW142367   6.070   4.750   3.703 -0.0672  0.1646 -0.2121
13389SOL    HW242368   6.108   4.863   3.609 -2.7066  1.3022 -0.0133
13390SOL     OW42369   9.027   0.903   8.577 -0.2390 -0.2036 -0.0747
13390SOL    HW142370   9.075   0.843   8.635 -1.1087 -0.9442 -0.1029
13390SOL    HW242371   9.096   0.954   8.534  0.6423 -2.0663 -1.0322
13391SOL     OW42372   2.435   1.461   4.718  0.3514 -0.0706 -0.2864
13391SOL    HW142373   2.410   1.370   4.733  2.5521 -0.9710 -1.6484
13391SOL    HW242374   2.457   1.494   4.805 -0.9619 -0.6625  0.2917
13392SOL     OW42375   4.783   3.660   2.641 -0.3771  0.0048  0.2473
13392SOL    HW142376   4.700   3.630   2.603 -0.1706 -1.9057  1.1589
13392SOL    HW242377   4.799   3.600   2.713  2.0981 -0.0535 -0.2496
13393SOL     OW42378   5.622   0.747   4.536 -0.7647 -0.1816  0.3438
13393SOL    HW142379   5.581   0.788   4.613 -1.2817 -0.9019  0.4585
13393SOL    HW242380   5.568   0.671   4.518 -0.7786  0.1075 -0.8878
13394SOL     OW42381   5.190   7.848   8.745  0.3210 -0.4237  0.2793
13394SOL    HW142382   5.240   7.827   8.824  0.6552  1.7984  0.7315
13394SOL    HW242383   5.153   7.934   8.763 -2.3223 -1.2512 -0.7305
13395SOL     OW42384   7.700   0.034   0.292  0.0977 -0.2139 -0.2370
13395SOL    HW142385   7.681  -0.057   0.266 -0.3735 -0.5637  1.2262
13395SOL    HW242386   7.695   0.033   0.387 -0.3719  1.4685 -0.2130
13396SOL     OW42387   1.248   5.453   9.019 -0.0205  0.2261 -0.7686
13396SOL    HW142388   1.241   5.495   8.933  1.2198 -0.5247 -1.2543
13396SOL    HW242389   1.225   5.362   9.004 -0.9208  0.3091 -0.0538
13397SOL     OW42390   9.213   4.111   0.019 -0.0383  0.8103 -0.2636
13397SOL    HW142391   9.191   4.087  -0.071 -0.4996  2.9002 -0.7762
13397SOL    HW242392   9.223   4.206   0.016 -1.6288  1.1641  2.1994
13398SOL     OW42393   5.389   3.587   8.812  0.0624  0.3565 -0.0358
13398SOL    HW142394   5.348   3.528   8.875 -2.4384 -0.6218 -2.4085
13398SOL    HW242395   5.451   3.532   8.764 -0.8628  0.0915 -0.9592
13399SOL     OW42396   5.640   7.978   3.069  0.4499 -0.5688 -0.4020
13399SOL    HW142397   5.560   7.986   3.018  0.7838  0.9485 -0.7515
13399SOL    HW242398   5.617   7.921   3.141 -0.3751 -1.7855 -1.5823
13400SOL     OW42399   7.230   8.577   3.196  0.9002 -0.4195  0.0663
13400SOL    HW142400   7.261   8.486   3.196  1.0625 -0.3671  1.2566
13400SOL    HW242401   7.151   8.574   3.142  1.0314 -1.2216 -0.1043
13401SOL     OW42402   8.136   4.337   5.398  0.2136 -0.5937 -0.4855
13401SOL    HW142403   8.113   4.343   5.306 -0.5672  0.5640 -0.2342
13401SOL    HW242404   8.202   4.406   5.411 -1.7841  1.2547  0.4027
13402SOL     OW42405   2.328   2.742   7.686  0.2725 -0.0362 -0.5256
13402SOL    HW142406   2.373   2.768   7.766 -1.1969  2.3736 -0.4001
13402SOL    HW242407   2.396   2.741   7.619  1.2085 -0.4641  0.4065
13403SOL     OW42408   9.064   1.576   5.548 -0.0493  0.4847 -0.6677
13403SOL    HW142409   9.138   1.535   5.504 -1.8086 -2.8225 -0.8153
13403SOL    HW242410   9.099   1.606   5.632  1.2305 -2.1202 -0.1925
13404SOL     OW42411   4.721   2.447   2.032 -0.7132 -0.1038  0.3931
13404SOL    HW142412   4.672   2.378   2.078 -0.0745  0.2337  1.6136
13404SOL    HW242413   4.808   2.444   2.072  0.5570 -1.1945 -2.2478
13405SOL     OW42414   7.355   4.640   8.034 -0.3597 -0.1731  0.0973
13405SOL    HW142415   7.286   4.634   8.100 -0.1621  0.1412  0.3340
13405SOL    HW242416   7.342   4.562   7.979 -1.2788  0.1958 -0.2280
13406SOL     OW42417   1.591   3.135   0.781 -0.1678 -0.0968  0.0920
13406SOL    HW142418   1.650   3.121   0.855 -1.1814 -0.8985  0.7761
13406SOL    HW242419   1.648   3.159   0.708  0.8112  1.1819  1.2463
13407SOL     OW42420   3.248   7.431   9.383 -0.3471 -0.1904  0.4097
13407SOL    HW142421   3.255   7.373   9.307  0.1664  0.3655  0.0291
13407SOL    HW242422   3.184   7.388   9.439 -0.8741 -0.5235 -0.4187
13408SOL     OW42423   8.418   5.275   4.733  0.1664  0.6756  0.1273
13408SOL    HW142424   8.499   5.293   4.782  0.3386  1.5221 -0.4472
13408SOL    HW242425   8.362   5.350   4.753  0.2910  1.0980 -1.0697
13409SOL     OW42426   7.194   6.998   2.560  0.7572 -0.2114 -0.3870
13409SOL    HW142427   7.229   6.943   2.490 -0.3091  0.5940 -1.6012
13409SOL    HW242428   7.181   7.084   2.520 -0.7018  0.0474  0.5344
13410SOL     OW42429   8.657   3.669   1.371  0.1686 -0.0936  0.7465
13410SOL    HW142430   8.674   3.613   1.446  1.5951  0.4613  0.8675
13410SOL    HW242431   8.719   3.639   1.304  0.6028  0.9826  0.6412
13411SOL     OW42432   4.871   7.072   6.263 -0.6050 -0.1866  0.5029
13411SOL    HW142433   4.896   7.161   6.291  0.1171 -0.1672 -0.1665
13411SOL    HW242434   4.905   7.015   6.333  0.5595 -0.0760  0.0636
13412SOL     OW42435   7.446   0.713   7.523  0.1595 -0.1760  0.0234
13412SOL    HW142436   7.483   0.760   7.598  0.3239  0.3623 -0.3846
13412SOL    HW242437   7.409   0.782   7.468  0.7659 -0.4859 -0.7893
13413SOL     OW42438   8.483   8.432   2.461 -0.0332  0.2160 -0.1771
13413SOL    HW142439   8.543   8.452   2.390 -0.1654 -0.1250 -0.3874
13413SOL    HW242440   8.407   8.392   2.418  0.5999 -1.5653  0.3082
13414SOL     OW42441   6.706   8.496   5.414 -0.4728  0.2802 -0.3234
13414SOL    HW142442   6.697   8.578   5.462  0.4193 -0.4444  1.1391
13414SOL    HW242443   6.792   8.502   5.372 -0.5447  0.2314 -0.4773
13415SOL     OW42444   2.197   9.229   3.201 -0.0746  0.1662 -0.1970
13415SOL    HW142445   2.180   9.177   3.280  1.3755 -1.7698 -1.0590
13415SOL    HW242446   2.293   9.238   3.199 -0.0999  0.3235 -1.6333
13416SOL     OW42447   2.205   6.508   0.532 -0.6153 -0.4994  0.6544
13416SOL    HW142448   2.224   6.511   0.626  1.6361  1.1349  0.2210
13416SOL    HW242449   2.128   6.564   0.522  1.2744  2.3995  1.1655
13417SOL     OW42450   1.595   2.241   3.210  0.7233  0.0046  0.1846
13417SOL    HW142451   1.637   2.157   3.188  0.5569  0.2164 -1.0330
13417SOL    HW242452   1.635   2.304   3.150  0.7273  0.7763  0.9756
13418SOL     OW42453   2.950   1.925   2.942 -0.5722 -0.0757  0.3425
13418SOL    HW142454   2.892   1.972   2.882 -0.4217  0.3663  0.5356
13418SOL    HW242455   2.966   1.841   2.899  0.3065  0.6051 -0.7194
13419SOL     OW42456   1.842   7.391   9.312 -0.5019 -0.2186  0.2900
13419SOL    HW142457   1.890   7.350   9.240 -0.2909  1.2892 -0.4743
13419SOL    HW242458   1.750   7.387   9.285 -0.5256 -0.5772  0.4231
13420SOL     OW42459   8.171   7.854   0.007  0.1310  0.0166 -0.4061
13420SOL    HW142460   8.260   7.825  -0.012 -0.2078 -1.9647  0.7512
13420SOL    HW242461   8.179   7.908   0.086  0.4095  0.7481 -0.9210
13421SOL     OW42462   1.214   1.195   4.950  0.0618  0.0686  0.2566
13421SOL    HW142463   1.126   1.207   4.987 -0.1998  2.3096 -0.8681
13421SOL    HW242464   1.200   1.138   4.874 -0.4316  0.3767  0.1088
13422SOL     OW42465   0.948   6.305   3.910 -0.2106  0.1375  0.0840
13422SOL    HW142466   0.919   6.370   3.847 -1.0373  0.0180  0.3249
13422SOL    HW242467   0.925   6.221   3.871  2.3211 -0.1396 -0.9736
13423SOL     OW42468   2.421   9.396   2.071 -0.6458  0.1038 -0.2316
13423SOL    HW142469   2.341   9.370   2.025 -0.1660 -0.9199 -0.5198
13423SOL    HW242470   2.442   9.483   2.037  0.6589 -1.2798 -3.3043
13424SOL     OW42471   7.684   7.029   0.180 -0.2918  0.0087 -0.4890
13424SOL    HW142472   7.775   7.015   0.154 -0.5077 -1.5044 -0.5289
13424SOL    HW242473   7.633   6.998   0.105 -0.8490 -0.4702  0.0721
13425SOL     OW42474   5.383   2.395   0.421  0.6134  0.1389  0.4218
13425SOL    HW142475   5.377   2.490   0.412  0.1202  0.1202  0.5118
13425SOL    HW242476   5.303   2.361   0.380  1.9353 -0.4071 -1.8671
13426SOL     OW42477   2.949   3.006   8.027 -0.0375  0.2149  0.4525
13426SOL    HW142478   2.883   3.065   7.990 -0.7916 -0.3730  0.8329
13426SOL    HW242479   3.025   3.062   8.042 -0.3455  0.8404 -0.2768
13427SOL     OW42480   8.053   3.800   0.094  0.0811  0.3169  0.2461
13427SOL    HW142481   7.977   3.817   0.039  1.0764  1.9749 -0.7034
13427SOL    HW242482   8.121   3.769   0.034  0.0031 -1.8630  1.1836
13428SOL     OW42483   1.664   8.732   0.917  0.5817  0.3094 -0.1473
13428SOL    HW142484   1.642   8.720   0.824 -0.5879 -0.7482  0.2337
13428SOL    HW242485   1.580   8.749   0.959  0.9869 -0.0777  0.8416
13429SOL     OW42486   3.585   0.948   9.266  0.5209 -0.0533 -0.9343
13429SOL    HW142487   3.542   0.863   9.270 -0.5125  0.4792 -0.5768
13429SOL    HW242488   3.661   0.933   9.209  0.4853 -1.2625 -0.6878
13430SOL     OW42489   0.640   8.535   0.464  0.5039 -0.0105 -0.2839
13430SOL    HW142490   0.691   8.597   0.516  2.5363  0.0690 -2.2586
13430SOL    HW242491   0.704   8.471   0.434 -1.4237 -2.9264  1.2964
13431SOL     OW42492   8.675   4.000   2.270  0.7085  0.3594 -0.4215
13431SOL    HW142493   8.665   3.946   2.349 -1.5153 -0.7482 -1.3628
13431SOL    HW242494   8.694   4.088   2.303  1.6723 -0.4356  1.2614
13432SOL     OW42495   9.397   1.420   1.160 -0.7406 -0.6013 -0.1009
13432SOL    HW142496   9.412   1.467   1.077 -1.8391  0.8893  0.4968
13432SOL    HW242497   9.484   1.412   1.199 -0.5358  1.3177 -0.0617
13433SOL     OW42498   9.471   6.621   3.240  0.6331  0.1087  0.0443
13433SOL    HW142499   9.537   6.598   3.175 -1.4227  0.4010 -2.2863
13433SOL    HW242500   9.443   6.710   3.216 -3.7977 -1.5504 -2.1621
13434SOL     OW42501   7.114   3.330   4.016  0.3080 -0.3279 -0.5872
13434SOL    HW142502   7.055   3.257   4.036  2.4565 -1.7202  1.2195
13434SOL    HW242503   7.150   3.308   3.930  0.4702 -1.0839 -0.3329
13435SOL     OW42504   3.635   9.162   8.876 -0.2352 -0.3099  0.1827
13435SOL    HW142505   3.667   9.124   8.795 -0.7571  0.9973 -0.6700
13435SOL    HW242506   3.621   9.087   8.934 -0.9186 -1.3784 -1.3114
13436SOL     OW42507   4.875   6.869   0.852 -0.2588 -0.4110  0.2333
13436SOL    HW142508   4.953   6.822   0.822  0.8133 -0.2469  2.5703
13436SOL    HW242509   4.908   6.954   0.882 -1.6298  0.3724 -0.3851
13437SOL     OW42510   6.310   5.589   3.505  0.0372  0.2541 -0.0562
13437SOL    HW142511   6.253   5.579   3.429 -1.1162 -1.2320  0.9580
13437SOL    HW242512   6.257   5.561   3.579  1.6341  0.2036  1.1244
13438SOL     OW42513   1.898   6.644   2.187 -0.1074 -0.4347  0.5593
13438SOL    HW142514   1.933   6.555   2.198 -1.0704 -1.0403 -0.9250
13438SOL    HW242515   1.803   6.632   2.186 -0.2937  0.8004  1.6283
13439SOL     OW42516   6.543   1.896   4.313  0.7054  0.7950  0.3420
13439SOL    HW142517   6.566   1.971   4.369  1.6930  1.0642 -0.4061
13439SOL    HW242518   6.611   1.894   4.246  1.6434 -1.7276  1.2451
13440SOL     OW42519   5.158   2.449   1.064 -0.2188 -0.3723 -0.5369
13440SOL    HW142520   5.212   2.467   1.141  0.6689  1.8207 -1.5726
13440SOL    HW242521   5.069   2.466   1.094 -0.1204 -1.4868  0.4951
13441SOL     OW42522   3.339   4.125   7.933 -0.1235  0.0707  0.5302
13441SOL    HW142523   3.334   4.137   8.028 -1.9942  2.2376  0.2481
13441SOL    HW242524   3.285   4.047   7.916  0.9232 -0.8485  1.2710
13442SOL     OW42525   2.089   3.830   0.037 -0.0932 -0.9617 -0.0753
13442SOL    HW142526   2.012   3.775   0.025  0.5013 -1.9203  0.3940
13442SOL    HW242527   2.090   3.852   0.130  0.9237 -2.1096  0.2218
13443SOL     OW42528   6.688   4.356   8.224 -0.6078  0.5817  0.2959
13443SOL    HW142529   6.625   4.322   8.287  1.2785  0.0065  1.9739
13443SOL    HW242530   6.722   4.436   8.265 -1.0920  1.5603 -1.1447
13444SOL     OW42531   3.333   5.215   8.506 -0.4796 -0.0462 -0.0910
13444SOL    HW142532   3.362   5.124   8.511  1.1331  0.4797  1.2669
13444SOL    HW242533   3.322   5.241   8.598 -0.0622  1.3712 -0.4240
13445SOL     OW42534   9.001   5.207   8.418  0.4828  0.3234 -0.2967
13445SOL    HW142535   9.043   5.262   8.352  4.4188 -1.0173  0.8145
13445SOL    HW242536   9.011   5.255   8.500  1.1895 -0.6534  0.2115
13446SOL     OW42537   9.297   3.859   8.489  0.5090 -0.5083 -0.1480
13446SOL    HW142538   9.393   3.854   8.488  0.6719  1.0215  1.6843
13446SOL    HW242539   9.276   3.925   8.424  0.8296  0.1100  0.3558
13447SOL     OW42540   9.567   0.477   7.990  0.5286  0.1483 -0.0192
13447SOL    HW142541   9.623   0.541   8.034  0.3161 -0.7248  1.5860
13447SOL    HW242542   9.607   0.392   8.010 -0.4243 -0.3795 -0.2845
13448SOL     OW42543   5.102   1.356   8.092 -0.3138 -0.5348 -0.4646
13448SOL    HW142544   5.131   1.391   8.008  3.3292 -1.2186  0.3126
13448SOL    HW242545   5.112   1.262   8.084 -1.0315 -0.6962  0.3780
13449SOL     OW42546   0.640   1.673   6.020 -0.2869  0.1707  0.2647
13449SOL    HW142547   0.667   1.582   6.024 -0.4415 -0.0459 -2.1601
13449SOL    HW242548   0.584   1.679   5.943  0.8616  2.5563 -0.5177
13450SOL     OW42549   4.506   2.041   1.176  0.4347 -0.5494  0.3780
13450SOL    HW142550   4.538   2.121   1.217  1.2954 -1.3316  1.2879
13450SOL    HW242551   4.453   1.999   1.243  0.1771 -0.8524 -0.0093
13451SOL     OW42552   6.800   2.191   1.731  0.3184  0.2318  0.1969
13451SOL    HW142553   6.769   2.184   1.822  1.9842 -1.1832  0.6989
13451SOL    HW242554   6.869   2.258   1.734 -0.9578  1.6433 -0.4610
13452SOL     OW42555   0.010   0.986   0.654 -0.4014  0.0407 -0.2119
13452SOL    HW142556   0.084   0.933   0.623 -0.3280 -0.1285  0.2443
13452SOL    HW242557   0.014   0.978   0.750  0.1506  1.5852 -0.0788
13453SOL     OW42558   3.365   0.581   7.662 -0.0830 -0.1539 -0.1406
13453SOL    HW142559   3.363   0.639   7.586 -2.6405 -0.0592 -0.0626
13453SOL    HW242560   3.350   0.638   7.737 -0.6068 -0.6330  0.1296
13454SOL     OW42561   2.756   9.520   2.240  0.1265  0.7720 -0.1414
13454SOL    HW142562   2.735   9.427   2.253 -0.7507  1.0298  0.3371
13454SOL    HW242563   2.746   9.533   2.146 -1.0363  0.6690 -0.0500
13455SOL     OW42564   5.350   2.798   5.147  0.1209  0.2692 -0.6179
13455SOL    HW142565   5.381   2.857   5.079  0.0402 -0.0469 -0.9320
13455SOL    HW242566   5.273   2.841   5.183 -1.0085 -0.4510 -2.0578
13456SOL     OW42567   6.649   8.909   6.728  0.0429 -0.1372 -0.0303
13456SOL    HW142568   6.619   8.953   6.648  0.6084 -0.0123 -0.1781
13456SOL    HW242569   6.575   8.916   6.788 -0.6798 -0.9169 -0.8047
13457SOL     OW42570   3.803   8.397   6.470  0.2222  0.4006  0.3699
13457SOL    HW142571   3.813   8.414   6.564  0.6599 -0.5917  0.5223
13457SOL    HW242572   3.709   8.391   6.456  0.1746 -0.0067  0.8584
13458SOL     OW42573   4.080   3.086   4.548 -0.2573  0.2326  0.0247
13458SOL    HW142574   4.156   3.128   4.588  0.8009 -0.2668 -1.3641
13458SOL    HW242575   4.021   3.069   4.621  0.7930  0.9734  1.0963
13459SOL     OW42576   1.714   8.657   0.028  0.4100  0.8432 -0.1076
13459SOL    HW142577   1.765   8.587   0.069 -1.9037  0.1398  1.7911
13459SOL    HW242578   1.771   8.734   0.034  1.9704 -0.2834  0.1930
13460SOL     OW42579   3.078   7.787   1.356 -0.0124  0.0382  0.2090
13460SOL    HW142580   3.011   7.844   1.393 -0.0613 -0.3237  0.6847
13460SOL    HW242581   3.062   7.701   1.395 -0.0341 -0.3438 -0.6149
13461SOL     OW42582   8.344   3.427   7.519  0.4839  0.0091  0.3791
13461SOL    HW142583   8.416   3.468   7.470 -0.5731  1.2354 -0.1924
13461SOL    HW242584   8.315   3.495   7.580  0.5327 -0.8655  1.4082
13462SOL     OW42585   2.759   7.666   1.229 -0.3248 -0.4001 -0.9530
13462SOL    HW142586   2.688   7.646   1.168 -1.4054  0.1873  0.0584
13462SOL    HW242587   2.834   7.618   1.195 -1.6658 -2.6092 -1.0255
13463SOL     OW42588   3.600   8.262   9.293 -0.1885  0.2145 -0.0463
13463SOL    HW142589   3.598   8.174   9.332  0.2916  0.5202  0.6929
13463SOL    HW242590   3.663   8.255   9.221  0.0877  0.0287  0.2088
13464SOL     OW42591   1.897   0.121   5.676  0.0042  0.2711 -0.3680
13464SOL    HW142592   1.838   0.063   5.628 -1.1983 -0.5380  1.8948
13464SOL    HW242593   1.916   0.192   5.616 -0.8698 -0.9874 -2.2200
13465SOL     OW42594   4.641   0.035   7.021 -0.7981  0.4766  0.5021
13465SOL    HW142595   4.726   0.032   6.977 -0.8307  0.9478  0.4049
13465SOL    HW242596   4.651  -0.020   7.098 -0.6085 -0.0173  0.1314
13466SOL     OW42597   1.827   9.231   1.121 -0.9715  0.0446 -0.3137
13466SOL    HW142598   1.856   9.309   1.169 -1.2139  1.1068 -1.8064
13466SOL    HW242599   1.894   9.219   1.053  0.0522 -2.1872  0.9914
13467SOL     OW42600   8.433   5.507   0.395  0.1395  0.0423 -0.2850
13467SOL    HW142601   8.522   5.494   0.428  0.2231  0.0352 -0.5088
13467SOL    HW242602   8.445   5.529   0.302 -0.0108  1.4280  0.0012
13468SOL     OW42603   8.725   3.650   8.662 -0.6581  0.2204  0.2987
13468SOL    HW142604   8.721   3.575   8.602  1.6771  0.8887 -0.8297
13468SOL    HW242605   8.779   3.619   8.735  0.7437  0.8839 -0.4113
13469SOL     OW42606   1.353   0.286   5.688  0.1422 -0.7337 -0.2160
13469SOL    HW142607   1.266   0.255   5.713 -0.2463  1.2001  1.1038
13469SOL    HW242608   1.410   0.257   5.759  0.4336 -1.3113 -0.6795
13470SOL     OW42609   7.143   9.567   4.599 -0.3934 -0.2945  0.3364
13470SOL    HW142610   7.071   9.526   4.646 -1.0866 -0.3469 -0.7399
13470SOL    HW242611   7.181   9.497   4.547 -0.1002 -0.0839  0.2618
13471SOL     OW42612   6.698   0.549   6.721 -0.0170  0.2847  0.1334
13471SOL    HW142613   6.766   0.497   6.678  0.3061 -0.2198  1.2057
13471SOL    HW242614   6.706   0.526   6.814 -1.1744  0.7755  0.3728
13472SOL     OW42615   7.686   8.827   8.049 -0.6964  0.2881  0.2111
13472SOL    HW142616   7.730   8.780   7.978 -0.6973  0.2276  0.2500
13472SOL    HW242617   7.614   8.874   8.006 -0.9262 -0.0469  0.2273
13473SOL     OW42618   6.319   8.652   6.277  0.5722 -0.1638 -0.5701
13473SOL    HW142619   6.238   8.607   6.301  0.2235  1.0559  0.6549
13473SOL    HW242620   6.383   8.581   6.266  0.3238 -0.9829  2.3459
13474SOL     OW42621   1.842   7.643   3.909  0.0749 -0.2454  0.0028
13474SOL    HW142622   1.904   7.605   3.846  0.6034  2.2139 -1.1265
13474SOL    HW242623   1.851   7.590   3.988  1.2712 -1.9042 -1.1906
13475SOL     OW42624   0.380   8.402   2.848 -0.5081 -0.3952 -0.4002
13475SOL    HW142625   0.464   8.417   2.892 -0.6314 -0.3991 -0.1643
13475SOL    HW242626   0.390   8.317   2.806  0.1534  0.2631 -1.6362
13476SOL     OW42627   4.013   3.801   5.198 -0.1699 -0.2217  0.0186
13476SOL    HW142628   3.998   3.767   5.109 -0.7641 -1.2102  0.4755
13476SOL    HW242629   4.104   3.779   5.217  0.2895  0.9540 -0.7380
13477SOL     OW42630   7.803   1.257   5.818 -0.4994 -0.4311  0.4271
13477SOL    HW142631   7.837   1.242   5.730 -4.3446 -0.5699 -1.2358
13477SOL    HW242632   7.795   1.352   5.825 -0.4903 -0.4375  0.5321
13478SOL     OW42633   5.115   4.905   4.149 -0.2809  0.7221  0.1464
13478SOL    HW142634   5.073   4.988   4.129 -1.7901 -0.6579 -3.2853
13478SOL    HW242635   5.110   4.855   4.067  0.2199 -2.8866  2.0901
13479SOL     OW42636   1.324   0.132   3.316 -0.3782 -0.0213 -0.2057
13479SOL    HW142637   1.325   0.055   3.258  0.9455  0.3136 -0.6826
13479SOL    HW242638   1.277   0.199   3.266  0.3498  0.1212 -0.7220
13480SOL     OW42639   7.354   3.333   3.547 -0.1991 -0.1807 -0.0906
13480SOL    HW142640   7.307   3.414   3.569 -0.7639 -0.1870 -1.2107
13480SOL    HW242641   7.428   3.362   3.495  0.1075 -0.3143  0.2691
13481SOL     OW42642   0.494   9.006   4.341  0.1064  0.2692 -0.4982
13481SOL    HW142643   0.506   8.922   4.296 -0.6555 -0.6124  0.9024
13481SOL    HW242644   0.441   9.058   4.280 -0.5165 -0.7413 -0.8422
13482SOL     OW42645   9.067   9.229   2.772 -0.5859 -0.9686  0.0499
13482SOL    HW142646   9.053   9.301   2.711  0.0954 -0.6408  0.2703
13482SOL    HW242647   9.021   9.255   2.852  0.7223 -0.1725  0.5688
13483SOL     OW42648   2.581   6.361   2.947 -0.0229 -0.5639  0.5829
13483SOL    HW142649   2.580   6.433   3.010  0.2913  0.9066 -1.0013
13483SOL    HW242650   2.672   6.357   2.917 -0.4568 -0.1247 -0.9175
13484SOL     OW42651   0.441   5.134   9.158  0.0690  0.1718  0.3364
13484SOL    HW142652   0.448   5.041   9.138 -0.4687  0.0127  0.8735
13484SOL    HW242653   0.389   5.138   9.237 -2.9668  1.1011 -1.5395
13485SOL     OW42654   2.899   2.241   9.407  0.4951  0.4479  0.6213
13485SOL    HW142655   2.810   2.248   9.442  1.2253 -0.6444  2.9272
13485SOL    HW242656   2.899   2.159   9.357  0.1508  0.5710  0.4207
13486SOL     OW42657   7.191   1.050   7.965  0.1711  0.0152  0.1689
13486SOL    HW142658   7.245   1.010   7.896 -0.3036 -1.6039  0.6950
13486SOL    HW242659   7.236   1.029   8.046  1.4544  3.0462  0.4012
13487SOL     OW42660   6.473   8.951   2.230  0.0756 -0.4963 -0.0218
13487SOL    HW142661   6.486   8.980   2.140  1.6349 -1.3937 -0.1162
13487SOL    HW242662   6.394   8.898   2.227 -0.1788 -0.0953 -0.7455
13488SOL     OW42663   2.423   6.969   4.756  0.1933 -0.1296 -0.1213
13488SOL    HW142664   2.338   6.943   4.719 -0.0846 -0.6967  0.8683
13488SOL    HW242665   2.467   7.014   4.684  0.1812 -2.2424 -1.5682
13489SOL     OW42666   6.624   8.462   2.857 -0.0169  0.4156  0.1728
13489SOL    HW142667   6.538   8.474   2.816  0.2534  0.4601 -0.3952
13489SOL    HW242668   6.627   8.527   2.927 -0.5151  0.2926  0.3062
13490SOL     OW42669   5.304   3.485   4.928 -0.1339  0.1197 -0.1119
13490SOL    HW142670   5.378   3.541   4.950  0.0997 -0.5267  0.7925
13490SOL    HW242671   5.300   3.487   4.833  0.8642  0.3984 -0.1595
13491SOL     OW42672   7.026   0.172   5.098 -0.1295  0.2637 -0.6184
13491SOL    HW142673   7.100   0.187   5.039 -0.9702  1.8798 -1.3225
13491SOL    HW242674   7.030   0.245   5.160 -0.5384 -0.2152 -0.0148
13492SOL     OW42675   2.407   4.306   1.359 -0.1126 -0.2220  0.3722
13492SOL    HW142676   2.484   4.316   1.415  0.3672 -1.4692 -0.0298
13492SOL    HW242677   2.341   4.266   1.416 -0.3929  0.6186  0.6498
13493SOL     OW42678   0.931   8.153   2.964 -0.1581  0.3115 -0.2541
13493SOL    HW142679   0.857   8.093   2.956 -0.5528  0.5508  1.2727
13493SOL    HW242680   0.909   8.225   2.906 -0.4536 -0.2617 -0.8726
13494SOL     OW42681   9.551   4.549   7.939 -0.1409  0.0656  0.0031
13494SOL    HW142682   9.521   4.517   7.854 -0.3264 -0.9955  0.4464
13494SOL    HW242683   9.539   4.644   7.935 -1.7678 -0.1282 -0.5432
13495SOL     OW42684   6.442   4.967   1.658  0.6324 -0.8239 -0.6828
13495SOL    HW142685   6.511   4.914   1.698  1.5743 -0.9815 -2.4149
13495SOL    HW242686   6.361   4.928   1.690  1.3313 -1.1562  0.7411
13496SOL     OW42687   7.498   4.895   5.879 -0.6851  0.0704 -0.1797
13496SOL    HW142688   7.593   4.901   5.870 -0.7783  2.4546 -0.1864
13496SOL    HW242689   7.474   4.815   5.832  1.2812 -0.4302 -0.3914
13497SOL     OW42690   4.296   8.092   7.107  0.0023  0.0588 -0.1676
13497SOL    HW142691   4.285   8.066   7.199 -1.2418  0.0808 -0.2889
13497SOL    HW242692   4.390   8.084   7.091  0.1166 -0.8839  0.8273
13498SOL     OW42693   4.699   6.983   0.395  0.0358 -0.2608 -0.3556
13498SOL    HW142694   4.611   6.971   0.431  0.3914 -0.8403  0.3323
13498SOL    HW242695   4.735   6.895   0.388  0.4392 -0.0586 -0.9805
13499SOL     OW42696   1.064   1.343   1.557  0.3329  0.3083 -0.1802
13499SOL    HW142697   1.047   1.354   1.464  0.1408  1.1179 -0.0524
13499SOL    HW242698   1.160   1.342   1.564  0.3960  2.5213 -0.1485
13500SOL     OW42699   7.497   5.458   3.286 -1.0238 -0.1969  0.4743
13500SOL    HW142700   7.412   5.437   3.324 -0.4381 -4.2251 -0.0707
13500SOL    HW242701   7.560   5.411   3.340  0.6786  0.8345 -0.5094
13501SOL     OW42702   6.724   3.894   1.931 -0.3289  0.0229  0.4767
13501SOL    HW142703   6.802   3.856   1.890  0.8765  1.5388  1.2613
13501SOL    HW242704   6.731   3.988   1.913  0.4652  0.8552  4.3444
13502SOL     OW42705   4.355   9.516   8.580 -0.3870  0.1460 -0.1115
13502SOL    HW142706   4.369   9.593   8.636  0.4427 -0.2792  0.2764
13502SOL    HW242707   4.441   9.476   8.572 -0.8316 -0.8081 -0.2144
13503SOL     OW42708   5.825   6.658   0.827  0.4999 -0.5770  0.0079
13503SOL    HW142709   5.824   6.566   0.851 -1.7712 -0.7515 -0.5842
13503SOL    HW242710   5.776   6.663   0.745  0.0003  1.2445  0.3636
13504SOL     OW42711   2.856   8.565   1.804 -0.7932  0.0974 -0.7310
13504SOL    HW142712   2.772   8.518   1.802 -0.8744  0.2419 -0.7662
13504SOL    HW242713   2.922   8.496   1.811 -0.9042 -0.0318 -0.9308
13505SOL     OW42714   8.497   6.674   7.237  0.2206  0.0609  0.4295
13505SOL    HW142715   8.528   6.593   7.277  0.5931  0.8173  1.7625
13505SOL    HW242716   8.576   6.715   7.203  0.1626  0.2476  0.5167
13506SOL     OW42717   8.281   4.489   9.398 -0.3042  0.1002 -0.3521
13506SOL    HW142718   8.220   4.494   9.472  0.6957  0.0875  0.5034
13506SOL    HW242719   8.365   4.518   9.434  0.4825 -1.0714 -1.1625
13507SOL     OW42720   8.217   7.212   4.296  0.3103  0.2487  0.3267
13507SOL    HW142721   8.128   7.230   4.325 -0.0251 -0.5838 -0.1491
13507SOL    HW242722   8.270   7.217   4.376 -0.1433  0.8062  0.6008
13508SOL     OW42723   6.248   5.977   1.129 -0.1170  0.9308  0.0100
13508SOL    HW142724   6.255   6.062   1.085 -0.2900  0.7881 -0.2864
13508SOL    HW242725   6.212   5.999   1.215  2.7093  1.5581  1.1490
13509SOL     OW42726   2.104   4.395   0.920  0.4698  0.4049 -0.0494
13509SOL    HW142727   2.121   4.317   0.974 -0.2705  0.4542  0.2646
13509SOL    HW242728   2.023   4.431   0.955 -0.3789  0.0920 -1.5676
13510SOL     OW42729   6.412   0.259   8.718 -0.5708 -0.3213  0.2415
13510SOL    HW142730   6.362   0.271   8.638 -1.8829  0.4566  1.1446
13510SOL    HW242731   6.500   0.235   8.688 -1.3975 -1.4901 -1.3851
13511SOL     OW42732   3.468   6.584   0.089  0.1769  0.4872 -0.3965
13511SOL    HW142733   3.389   6.622   0.050 -0.2339 -0.3132 -0.3596
13511SOL    HW242734   3.442   6.562   0.178  0.7265  1.0867 -0.0805
13512SOL     OW42735   5.589   2.472   8.460 -0.6115 -0.2254  0.2288
13512SOL    HW142736   5.595   2.560   8.497 -0.2500  0.1633 -0.7266
13512SOL    HW242737   5.639   2.417   8.520 -0.6272  0.2655  0.6951
13513SOL     OW42738   8.388   6.461   5.323  0.4746  0.5192  0.4947
13513SOL    HW142739   8.326   6.504   5.264 -1.8812 -0.8342  1.8043
13513SOL    HW242740   8.383   6.368   5.300  0.9460  0.2110  1.5427
13514SOL     OW42741   8.008   4.527   5.001 -0.3761 -0.4562 -0.2009
13514SOL    HW142742   7.998   4.563   5.089  3.2634  1.1080 -0.2313
13514SOL    HW242743   7.934   4.563   4.952 -1.6021 -0.0784  1.8193
13515SOL     OW42744   7.927   6.138   7.324 -0.1509 -0.1883 -0.1365
13515SOL    HW142745   7.861   6.207   7.337  0.1338 -0.2008  1.7186
13515SOL    HW242746   8.006   6.185   7.299  0.5634  0.4703  2.9356
13516SOL     OW42747   2.738   3.266   4.715  0.1155 -0.2515  0.0618
13516SOL    HW142748   2.801   3.273   4.643 -1.3842 -0.9645 -1.3975
13516SOL    HW242749   2.729   3.355   4.747  0.3276  0.2176 -1.1061
13517SOL     OW42750   5.890   6.592   3.188 -0.5419 -0.7363  0.3867
13517SOL    HW142751   5.901   6.519   3.249 -0.1250 -1.0074 -0.0121
13517SOL    HW242752   5.979   6.620   3.169 -0.4426 -2.6542 -2.5351
13518SOL     OW42753   4.647   7.009   0.731  0.4975  0.1655 -0.2600
13518SOL    HW142754   4.590   7.026   0.806  1.2441 -1.2471  0.6898
13518SOL    HW242755   4.726   6.972   0.770  1.7533  1.3243 -1.6036
13519SOL     OW42756   1.085   5.551   4.751  0.9954  0.1882  0.0174
13519SOL    HW142757   1.049   5.631   4.712  1.1035 -0.4824 -1.5156
13519SOL    HW242758   1.150   5.520   4.688  0.1011 -1.7684 -0.0286
13520SOL     OW42759   7.608   0.450   3.646 -0.4461  0.2197 -0.0502
13520SOL    HW142760   7.634   0.542   3.648  0.8054 -0.1003 -0.6884
13520SOL    HW242761   7.618   0.424   3.554  1.3181 -1.0981  0.4618
13521SOL     OW42762   8.259   9.095   4.174  0.4992  0.6064  0.6930
13521SOL    HW142763   8.198   9.055   4.112  3.5969 -1.9222 -1.0443
13521SOL    HW242764   8.291   9.173   4.129  0.7319  0.2892  0.3054
13522SOL     OW42765   6.296   7.181   2.343  0.1964  0.0941  0.3949
13522SOL    HW142766   6.368   7.210   2.398  1.4472 -0.6419 -0.7951
13522SOL    HW242767   6.219   7.226   2.378  1.1405  0.5424  1.9755
13523SOL     OW42768   0.968   5.566   5.445 -0.2388  0.1141  0.2112
13523SOL    HW142769   0.945   5.494   5.386  0.6705 -0.2862  0.3196
13523SOL    HW242770   0.906   5.636   5.424 -1.3247 -0.7964  0.2979
13524SOL     OW42771   0.712   5.878   1.335  0.8604 -1.3756 -0.0699
13524SOL    HW142772   0.694   5.924   1.417  0.7436  0.8798 -1.2817
13524SOL    HW242773   0.808   5.872   1.331  0.8965 -0.7995 -0.1196
13525SOL     OW42774   3.072   1.597   5.888  0.3462 -0.2879 -0.1500
13525SOL    HW142775   3.010   1.609   5.815  0.5724  1.5394 -0.0977
13525SOL    HW242776   3.028   1.636   5.963  0.4722 -1.4008  0.5131
13526SOL     OW42777   2.147   7.187   0.493 -1.0328  0.3217 -0.6271
13526SOL    HW142778   2.159   7.102   0.536 -1.9616  0.3076 -0.3748
13526SOL    HW242779   2.113   7.165   0.406 -1.7426  0.4437 -0.3861
13527SOL     OW42780   1.625   7.618   6.482 -0.1877 -0.0301 -0.6267
13527SOL    HW142781   1.542   7.570   6.484 -1.1064  1.5002 -0.3511
13527SOL    HW242782   1.692   7.551   6.493 -1.2696 -1.5512 -2.6174
13528SOL     OW42783   5.566   4.930   6.350  0.1919  0.3500 -0.0880
13528SOL    HW142784   5.655   4.895   6.341 -0.3382 -0.6164 -2.8303
13528SOL    HW242785   5.511   4.852   6.356 -0.4814  0.9488  2.0087
13529SOL     OW42786   5.516   4.303   7.073 -0.4291  0.2681 -0.4081
13529SOL    HW142787   5.577   4.236   7.104 -0.2347 -0.3248 -1.9837
13529SOL    HW242788   5.539   4.316   6.980 -1.3083  1.5847 -0.4770
13530SOL     OW42789   0.611   3.427   8.120 -0.0699  0.4172  1.0028
13530SOL    HW142790   0.621   3.385   8.205 -0.3608 -0.3139  0.6813
13530SOL    HW242791   0.700   3.449   8.093 -0.0993  2.5519  2.4161
13531SOL     OW42792   4.841   1.053   7.793  0.2496 -0.2619  0.3242
13531SOL    HW142793   4.804   0.967   7.775  0.3623 -0.6501  1.7914
13531SOL    HW242794   4.770   1.102   7.834  0.1877  0.3630 -0.5029
13532SOL     OW42795   9.571   9.296   4.667  0.2518  0.2019  0.1739
13532SOL    HW142796   9.477   9.289   4.652  0.1075  0.4196  0.9460
13532SOL    HW242797   9.591   9.388   4.654  0.0576  0.4701  1.6138
13533SOL     OW42798   8.842   5.358   4.061 -0.1986 -0.1868  0.4188
13533SOL    HW142799   8.816   5.448   4.042 -0.6252 -0.4703 -0.4133
13533SOL    HW242800   8.923   5.346   4.011 -0.1850 -0.2813  0.4648
13534SOL     OW42801   6.412   6.878   4.734 -0.4227  0.3454  0.3728
13534SOL    HW142802   6.388   6.963   4.696  0.1397  1.0926  1.6216
13534SOL    HW242803   6.494   6.855   4.690 -1.0008  0.0254 -0.5707
13535SOL     OW42804   2.706   8.798   1.627 -0.6373 -0.0870  0.5445
13535SOL    HW142805   2.751   8.715   1.617  0.0468  0.2034  1.1359
13535SOL    HW242806   2.702   8.835   1.539 -0.9651 -0.7461  0.2776
13536SOL     OW42807   0.737   0.583   1.685 -0.0443 -0.6242 -0.7001
13536SOL    HW142808   0.675   0.528   1.732 -1.6923  1.0177 -0.8171
13536SOL    HW242809   0.682   0.639   1.630  1.3951  1.9798  0.3469
13537SOL     OW42810   8.708   5.205   8.379 -0.9539 -0.1839  0.5052
13537SOL    HW142811   8.774   5.217   8.447 -0.4627  0.3533 -0.0574
13537SOL    HW242812   8.705   5.289   8.333 -0.8553 -0.7194 -0.5087
13538SOL     OW42813   2.675   6.470   6.851  0.1442  0.0716  0.2650
13538SOL    HW142814   2.702   6.547   6.901 -0.4361  0.6029 -0.2420
13538SOL    HW242815   2.580   6.478   6.843  0.2241 -0.0238 -0.8950
13539SOL     OW42816   5.367   3.328   1.070 -0.4208  0.5522  0.6336
13539SOL    HW142817   5.445   3.379   1.092  1.4217 -2.1994  1.0280
13539SOL    HW242818   5.388   3.289   0.985 -1.0919 -0.6781  1.0136
13540SOL     OW42819   0.235   7.077   2.059  0.0705  0.1973 -0.2810
13540SOL    HW142820   0.242   6.988   2.095  0.0981  0.4673  0.3891
13540SOL    HW242821   0.175   7.067   1.985 -0.5508 -0.2462  0.2680
13541SOL     OW42822   3.491   1.801   2.215  0.2508 -0.3276  0.3753
13541SOL    HW142823   3.539   1.742   2.157  0.7011 -0.3546  0.7694
13541SOL    HW242824   3.399   1.783   2.196  0.3900 -0.3803 -0.2800
13542SOL     OW42825   4.897   6.193   2.460 -0.2788  0.4102  0.3865
13542SOL    HW142826   4.930   6.141   2.387 -0.0885  0.1601  0.6437
13542SOL    HW242827   4.918   6.283   2.438  0.6215  0.2526  0.5589
13543SOL     OW42828   0.068   3.935   4.492 -0.1411  0.0583 -0.0132
13543SOL    HW142829   0.157   3.918   4.521  0.0775  3.3052  1.5764
13543SOL    HW242830   0.078   3.985   4.411 -0.6327 -1.6101 -1.1607
13544SOL     OW42831   3.235   2.098   6.869  0.0082 -0.2379 -0.1661
13544SOL    HW142832   3.274   2.082   6.955 -0.8556  0.8330  0.4535
13544SOL    HW242833   3.153   2.048   6.870 -0.0904 -0.0804 -0.3079
13545SOL     OW42834   9.197   8.228   8.164  0.3560  0.3288  0.5856
13545SOL    HW142835   9.139   8.190   8.098  0.9754  1.8802 -0.9290
13545SOL    HW242836   9.139   8.275   8.224 -0.0315  2.5486 -1.3690
13546SOL     OW42837   7.511   7.339   4.848 -0.2864  0.3070  0.4737
13546SOL    HW142838   7.436   7.283   4.869 -0.0452 -0.9011 -1.5737
13546SOL    HW242839   7.475   7.409   4.793  0.0543 -0.3074 -0.5621
13547SOL     OW42840   0.512   1.168   6.194 -0.9261 -0.1791  0.0720
13547SOL    HW142841   0.541   1.206   6.277 -2.8751 -0.8217  1.1154
13547SOL    HW242842   0.430   1.124   6.216 -2.3583  1.0125 -2.5173
13548SOL     OW42843   6.056   6.005   0.146 -0.0193 -0.0264  0.2614
13548SOL    HW142844   6.056   5.995   0.051  1.2976 -1.0687  0.3462
13548SOL    HW242845   6.003   5.933   0.179  0.7406 -0.5388  0.3781
13549SOL     OW42846   1.437   0.528   9.533  0.3474 -0.2217  0.2618
13549SOL    HW142847   1.495   0.529   9.457 -0.8542 -0.2148 -0.6808
13549SOL    HW242848   1.448   0.441   9.571  2.5401  0.4608  1.3793
13550SOL     OW42849   9.466   2.034   2.010 -0.2553  0.5693 -0.0073
13550SOL    HW142850   9.437   2.125   2.007 -0.9287  0.3490 -0.3245
13550SOL    HW242851   9.527   2.031   2.084  0.5917  1.5021 -0.6309
13551SOL     OW42852   7.672   8.014   6.646 -0.0768 -0.1252 -0.3865
13551SOL    HW142853   7.739   8.034   6.580  1.4378 -3.8987 -0.2128
13551SOL    HW242854   7.635   8.100   6.668  2.8632  1.8849 -2.4049
13552SOL     OW42855   5.148   9.517   8.469 -0.0640  0.1381 -0.4321
13552SOL    HW142856   5.231   9.559   8.494  0.7057 -1.7437  0.4081
13552SOL    HW242857   5.173   9.426   8.450 -1.5424  0.1384 -2.7367
13553SOL     OW42858   3.515   5.270   3.145  0.0748 -0.1490  0.0719
13553SOL    HW142859   3.553   5.233   3.224  2.1350 -0.9231 -1.2090
13553SOL    HW242860   3.438   5.216   3.127  1.0764 -1.6181  0.1278
13554SOL     OW42861   8.843   1.161   4.595 -0.3811  0.6144 -0.1340
13554SOL    HW142862   8.761   1.190   4.633  0.0771  0.3010  1.1559
13554SOL    HW242863   8.877   1.096   4.657  0.6412  0.4400 -0.8385
13555SOL     OW42864   2.949   2.848   4.449  0.4646 -0.0911 -0.0062
13555SOL    HW142865   2.976   2.883   4.534 -0.0248 -1.2745  0.6674
13555SOL    HW242866   2.859   2.817   4.463  0.6121 -0.9092 -0.7574
13556SOL     OW42867   6.596   1.297   6.760 -0.0792 -0.6137  0.5710
13556SOL    HW142868   6.596   1.205   6.736 -2.8035 -1.0608  1.9622
13556SOL    HW242869   6.687   1.316   6.784  0.4424 -3.0172  0.6814
13557SOL     OW42870   9.391   5.620   5.887 -0.6914  0.4415  0.1719
13557SOL    HW142871   9.420   5.533   5.912 -2.1681  0.2961  1.5874
13557SOL    HW242872   9.470   5.664   5.857  0.6834 -0.4538  2.2251
13558SOL     OW42873   4.780   4.430   0.114 -0.3584  0.0872  0.6723
13558SOL    HW142874   4.780   4.393   0.026 -0.3971  0.6044  0.4555
13558SOL    HW242875   4.867   4.467   0.125  0.2235 -1.4257  1.4742
13559SOL     OW42876   4.253   3.992   8.175  0.3277 -0.5542  0.2146
13559SOL    HW142877   4.199   4.047   8.232 -0.5263 -0.1714 -0.9307
13559SOL    HW242878   4.310   4.054   8.130 -0.5437 -0.5879 -0.9819
13560SOL     OW42879   0.513   9.391   6.734  0.2793 -0.4043  0.1915
13560SOL    HW142880   0.489   9.384   6.826 -0.4072 -3.0904 -0.0826
13560SOL    HW242881   0.608   9.398   6.734  0.1936  0.9735  1.1100
13561SOL     OW42882   0.954   9.549   5.278  0.2411  0.3995 -0.3007
13561SOL    HW142883   0.916   9.482   5.335  0.8966  0.3090  0.0382
13561SOL    HW242884   0.918   9.530   5.191  1.0799 -0.9308 -0.3893
13562SOL     OW42885   2.902   4.656   2.891 -0.2134 -0.0263  0.6171
13562SOL    HW142886   2.825   4.711   2.905  0.8968  1.6925  0.4481
13562SOL    HW242887   2.959   4.710   2.836  0.7285 -1.6136 -0.0291
13563SOL     OW42888   7.809   8.489   9.217  0.2345  0.6615  0.4754
13563SOL    HW142889   7.756   8.520   9.290  1.2523  1.9283  0.6986
13563SOL    HW242890   7.746   8.470   9.148 -0.8209 -1.1541  1.8289
13564SOL     OW42891   2.676   4.049   3.530  0.0082 -0.1230 -0.1199
13564SOL    HW142892   2.750   3.997   3.501  0.3185 -0.0983  0.6067
13564SOL    HW242893   2.661   4.021   3.620 -0.1266  0.6988  0.1179
13565SOL     OW42894   8.007   4.082   1.353 -0.3413  0.3905 -0.1423
13565SOL    HW142895   8.003   4.143   1.279 -2.1464  0.8269  0.2701
13565SOL    HW242896   7.960   4.004   1.323  0.4200 -0.1153 -0.0428
13566SOL     OW42897   8.694   0.288   7.357 -0.1873 -0.3741 -0.0356
13566SOL    HW142898   8.630   0.251   7.418 -0.1227 -0.7845 -0.2165
13566SOL    HW242899   8.643   0.308   7.278  0.1915 -2.3350 -0.8506
13567SOL     OW42900   0.592   1.456   7.390  0.4685  0.2086  0.4556
13567SOL    HW142901   0.617   1.488   7.476 -2.3335 -0.8533  1.8006
13567SOL    HW242902   0.550   1.371   7.408 -2.5193  1.1075 -1.5662
13568SOL     OW42903   9.016   0.041   6.786  0.2361 -0.1967  0.2565
13568SOL    HW142904   9.110   0.062   6.786 -0.0478  1.3774 -1.3847
13568SOL    HW242905   8.994   0.030   6.878  1.8892  0.0916  0.7313
13569SOL     OW42906   5.552   9.020   4.060 -0.2542  0.7697  0.1801
13569SOL    HW142907   5.562   9.110   4.027  2.6529  0.9173  1.1469
13569SOL    HW242908   5.499   8.976   3.994 -2.6356  3.4000  0.1724
13570SOL     OW42909   4.239   6.401   3.946  0.3160  0.4626 -0.6358
13570SOL    HW142910   4.247   6.306   3.937 -0.6038  0.2099  0.8899
13570SOL    HW242911   4.203   6.430   3.862  0.1378 -0.6008 -0.9428
13571SOL     OW42912   8.831   0.195   5.370 -0.2005  0.0352  0.6208
13571SOL    HW142913   8.877   0.273   5.340 -1.8824  0.3890 -1.2296
13571SOL    HW242914   8.901   0.132   5.389  1.1324  0.4760 -2.2408
13572SOL     OW42915   8.079   6.754   6.701 -0.2115 -0.3136 -0.4797
13572SOL    HW142916   8.080   6.769   6.796 -0.4104 -1.3576 -0.2963
13572SOL    HW242917   7.999   6.797   6.671 -0.5944 -0.7050 -0.0321
13573SOL     OW42918   7.922   0.761   4.345  0.4116  0.1749  0.1091
13573SOL    HW142919   7.896   0.701   4.276  1.2903 -0.3358  0.2037
13573SOL    HW242920   7.964   0.834   4.300  0.7388 -0.0291  0.0777
13574SOL     OW42921   7.442   6.856   0.819  0.2096  0.0619  0.2838
13574SOL    HW142922   7.362   6.908   0.809  0.0906 -0.3445 -1.1690
13574SOL    HW242923   7.485   6.863   0.733  1.8469  0.4436  1.0866
13575SOL     OW42924   0.021   0.899   8.779  0.2448  0.1894 -0.4840
13575SOL    HW142925  -0.034   0.822   8.765 -0.0636  0.0981  1.0896
13575SOL    HW242926   0.107   0.863   8.802  0.6062  0.3348 -1.5536
13576SOL     OW42927   1.331   0.060   5.515 -0.1493  0.5790 -0.3911
13576SOL    HW142928   1.344   0.151   5.539 -0.1413  0.3110  0.6659
13576SOL    HW242929   1.265   0.028   5.577  0.2328 -0.2720 -0.4049
13577SOL     OW42930   5.393   5.937   2.351 -0.1176  0.2154 -0.0251
13577SOL    HW142931   5.343   5.857   2.332 -0.2974  0.1599  0.6575
13577SOL    HW242932   5.336   6.008   2.321  0.3993  0.0711 -1.4191
13578SOL     OW42933   8.656   3.858   2.507 -0.0957  0.0191  0.0601
13578SOL    HW142934   8.665   3.859   2.602 -1.4195  1.5255  0.2136
13578SOL    HW242935   8.685   3.770   2.481  0.3063 -0.4114  1.8329
13579SOL     OW42936   1.877   6.504   0.812 -0.5476  0.4756  0.4636
13579SOL    HW142937   1.882   6.457   0.895  0.8519  2.0236  1.2975
13579SOL    HW242938   1.875   6.435   0.746 -4.1982 -0.8965  1.7646
13580SOL     OW42939   4.796   0.539   6.289  0.5290  0.3260  0.8102
13580SOL    HW142940   4.791   0.450   6.254 -0.9725  0.2367  1.1855
13580SOL    HW242941   4.849   0.587   6.226  1.6686 -0.9039  0.7826
13581SOL     OW42942   3.673   5.437   2.314  0.5561  0.1005  0.6745
13581SOL    HW142943   3.604   5.428   2.380 -0.7629 -2.8597 -0.8970
13581SOL    HW242944   3.745   5.383   2.347  0.0431 -1.0664 -0.0514
13582SOL     OW42945   2.161   0.903   8.646  0.1443 -0.3194 -0.3254
13582SOL    HW142946   2.132   0.994   8.659  0.0621 -0.4276  0.2728
13582SOL    HW242947   2.121   0.855   8.719  0.4512 -0.7757 -0.4601
13583SOL     OW42948   5.332   2.556   1.278  0.3794 -0.5702  0.2838
13583SOL    HW142949   5.420   2.594   1.284  0.6908 -1.4533  1.9560
13583SOL    HW242950   5.291   2.579   1.362 -1.2252  0.3518 -0.7075
13584SOL     OW42951   7.985   5.112   0.543  0.1030 -0.3982 -0.0241
13584SOL    HW142952   8.080   5.101   0.541  0.0422 -0.9153 -0.5773
13584SOL    HW242953   7.953   5.031   0.583 -0.0008  0.7042  2.2951
13585SOL     OW42954   9.198   0.310   8.762 -0.0603  0.1126 -0.3647
13585SOL    HW142955   9.175   0.279   8.675  1.6078 -1.1757 -0.3984
13585SOL    HW242956   9.145   0.388   8.775 -0.7686 -0.0091 -2.2936
13586SOL     OW42957   2.884   7.020   8.831  0.7436  0.2920  0.6395
13586SOL    HW142958   2.819   6.979   8.888 -0.9518  0.0128 -1.3704
13586SOL    HW242959   2.852   7.110   8.818  1.0114  0.3095  0.0355
13587SOL     OW42960   0.075   0.395   1.643  0.5499 -0.2488  0.6517
13587SOL    HW142961   0.102   0.440   1.724  0.7151 -0.3111  0.6317
13587SOL    HW242962   0.101   0.304   1.657  0.8425 -0.2048  0.4121
13588SOL     OW42963   5.234   1.952   3.117 -0.7230  0.1347  0.3392
13588SOL    HW142964   5.329   1.963   3.104 -0.8957  0.3633 -0.8316
13588SOL    HW242965   5.224   1.944   3.212  0.6290 -1.4434  0.4101
13589SOL     OW42966   7.028   3.210   0.013 -0.0374 -0.2946  0.2399
13589SOL    HW142967   7.035   3.204  -0.082 -1.2866 -1.0948  0.1637
13589SOL    HW242968   7.072   3.292   0.036  0.9331 -0.4655 -0.9353
13590SOL     OW42969   6.600   4.252   4.031 -0.2224  0.3241  0.3469
13590SOL    HW142970   6.539   4.321   4.059  1.4393  1.8830  0.2833
13590SOL    HW242971   6.544   4.188   3.987 -1.8051  1.8062  0.0745
13591SOL     OW42972   3.215   0.440   6.301  0.1226 -0.7323 -0.0648
13591SOL    HW142973   3.238   0.349   6.318  1.0495 -1.0354 -2.5360
13591SOL    HW242974   3.298   0.485   6.290 -0.3264 -0.1120 -1.1533
13592SOL     OW42975   5.041   1.931   2.902  0.3038 -0.9473 -0.9851
13592SOL    HW142976   5.103   1.954   2.971 -0.2765 -0.2038 -0.7006
13592SOL    HW242977   5.004   2.015   2.874 -0.3392 -1.3507 -1.3775
13593SOL     OW42978   8.132   1.125   1.206 -0.3516  0.2331  0.0412
13593SOL    HW142979   8.098   1.039   1.232  0.2666 -0.3572 -1.0294
13593SOL    HW242980   8.215   1.105   1.162  0.2615  1.4580  0.5976
13594SOL     OW42981   0.744   1.148   9.387 -0.4545 -0.0094 -0.0553
13594SOL    HW142982   0.753   1.134   9.293  1.9537 -0.4712  0.1934
13594SOL    HW242983   0.705   1.235   9.394  2.0995  1.3758 -1.5146
13595SOL     OW42984   2.180   0.265   6.778  0.0868 -0.5430  0.4355
13595SOL    HW142985   2.256   0.319   6.756  0.6251 -1.0462  0.9947
13595SOL    HW242986   2.120   0.326   6.822  0.1311 -0.1257 -0.0683
13596SOL     OW42987   1.828   2.293   2.118  0.2362 -0.2540 -1.1010
13596SOL    HW142988   1.894   2.284   2.049 -0.3524  0.1433 -1.7277
13596SOL    HW242989   1.749   2.319   2.072 -0.0509  0.4691 -0.2281
13597SOL     OW42990   4.142   6.745   2.646 -0.2881  0.1930  0.2920
13597SOL    HW142991   4.204   6.743   2.573 -0.5275 -0.3525  0.0972
13597SOL    HW242992   4.181   6.805   2.710  0.0066  0.5406 -0.2068
13598SOL     OW42993   9.022   7.035   0.726  0.0053 -0.1911 -0.1008
13598SOL    HW142994   9.084   7.108   0.725  1.4848 -1.3633  0.6306
13598SOL    HW242995   9.029   6.997   0.638  0.1459 -0.1645 -0.1021
13599SOL     OW42996   5.617   8.888   5.417 -0.0087  0.2745 -0.6482
13599SOL    HW142997   5.676   8.950   5.460 -0.2464  0.4718 -0.6015
13599SOL    HW242998   5.657   8.873   5.331  1.3734 -1.4328  0.2397
13600SOL     OW42999   9.341   0.329   3.907  0.1357 -0.5317  0.0047
13600SOL    HW143000   9.395   0.386   3.852 -1.2875  0.5528 -0.3253
13600SOL    HW243001   9.257   0.373   3.912 -0.1931 -1.2755  1.9970
13601SOL     OW43002   1.545   0.804   9.568  0.2222  0.5940 -0.4331
13601SOL    HW143003   1.546   0.870   9.499  1.5839 -0.2142 -1.2400
13601SOL    HW243004   1.511   0.726   9.526 -3.0695  1.1121  0.9497
13602SOL     OW43005   7.694   6.579   7.402  0.1103  0.0481 -0.6046
13602SOL    HW143006   7.687   6.632   7.481 -1.9904  0.5993 -1.0986
13602SOL    HW243007   7.711   6.641   7.332 -1.2179 -0.0086 -1.0144
13603SOL     OW43008   1.525   0.437   1.225  0.3906  0.4944  0.0449
13603SOL    HW143009   1.591   0.381   1.263 -1.3512 -2.0399 -0.4306
13603SOL    HW243010   1.473   0.468   1.299  0.9112  0.9232  0.2383
13604SOL     OW43011   7.343   2.809   9.255 -0.8750  0.3254 -0.1868
13604SOL    HW143012   7.412   2.743   9.255 -1.0835  0.0881  1.0999
13604SOL    HW243013   7.357   2.859   9.174  1.1119  0.6173  0.2958
13605SOL     OW43014   7.547   8.927   4.511 -0.2257  0.2797 -0.1582
13605SOL    HW143015   7.601   8.952   4.436 -1.2796  1.4542 -0.5736
13605SOL    HW243016   7.550   9.003   4.569 -2.9652  1.2619 -1.1225
13606SOL     OW43017   7.171   0.874   9.091 -0.3001  0.3631 -0.0034
13606SOL    HW143018   7.166   0.897   9.184 -0.6344 -0.2470  0.1361
13606SOL    HW243019   7.104   0.929   9.050 -1.1861 -0.4231  0.3450
13607SOL     OW43020   2.505   9.261   3.203  0.1206 -0.7314 -0.3108
13607SOL    HW143021   2.578   9.259   3.265  2.1423 -2.7118 -2.5189
13607SOL    HW243022   2.528   9.331   3.142 -1.5189  0.7574  0.6788
13608SOL     OW43023   0.696   5.643   3.614 -0.8061  0.6700  0.7722
13608SOL    HW143024   0.695   5.726   3.566 -2.0805  0.8547  1.0964
13608SOL    HW243025   0.786   5.610   3.603 -1.1372  0.4801 -2.0993
13609SOL     OW43026   7.373   8.677   8.187  0.1725 -0.0240 -0.0335
13609SOL    HW143027   7.397   8.691   8.096 -0.8805  0.0793 -0.3016
13609SOL    HW243028   7.400   8.757   8.232  0.6310 -0.0481 -0.2535
13610SOL     OW43029   6.527   1.460   6.496 -0.2687  0.2248 -0.3512
13610SOL    HW143030   6.585   1.500   6.561 -0.5719 -0.5989  0.4432
13610SOL    HW243031   6.565   1.374   6.480 -2.4241 -1.2793  1.8680
13611SOL     OW43032   0.819   6.039   2.672  0.0014  0.0714 -0.4264
13611SOL    HW143033   0.728   6.066   2.664 -0.1122 -0.6708 -2.2078
13611SOL    HW243034   0.844   6.011   2.584  1.8395 -0.1198  0.0940
13612SOL     OW43035   3.115   6.613   8.291 -0.4756 -0.3698 -0.2499
13612SOL    HW143036   3.034   6.584   8.333 -0.8250  0.2938 -0.4454
13612SOL    HW243037   3.157   6.669   8.355  0.6529 -1.9681  0.4827
13613SOL     OW43038   4.958   6.549   6.152  0.4923  0.3357 -0.9370
13613SOL    HW143039   5.045   6.561   6.114  0.0450  3.2040 -1.3406
13613SOL    HW243040   4.906   6.622   6.116 -1.6607 -0.4253  0.4265
13614SOL     OW43041   4.725   1.216   3.105  0.4125 -0.3068 -0.0469
13614SOL    HW143042   4.721   1.121   3.100  0.7531 -0.4082  1.3788
13614SOL    HW243043   4.813   1.236   3.136  0.0341  0.4272  0.5964
13615SOL     OW43044   5.192   5.473   6.766  0.4592  0.3280  0.3728
13615SOL    HW143045   5.261   5.432   6.714  2.3661  0.8123  2.3860
13615SOL    HW243046   5.111   5.453   6.719  1.9260 -0.4166 -1.9912
13616SOL     OW43047   5.320   4.408   0.707  0.4318 -0.4999  0.1025
13616SOL    HW143048   5.291   4.331   0.658 -1.5166  1.6120 -2.3508
13616SOL    HW243049   5.278   4.482   0.663  1.4177  1.9394  2.9022
13617SOL     OW43050   8.230   4.461   1.626 -0.2030  0.4077  0.9668
13617SOL    HW143051   8.241   4.542   1.577  1.1110 -1.5010 -2.1943
13617SOL    HW243052   8.141   4.432   1.604  0.5694 -0.7168 -0.9152
13618SOL     OW43053   7.400   0.498   8.598 -0.5820  0.1720  0.1832
13618SOL    HW143054   7.369   0.466   8.514  1.4960  0.6806 -0.8557
13618SOL    HW243055   7.380   0.592   8.597  1.2855  0.6101 -0.7194
13619SOL     OW43056   1.034   8.373   1.858  0.3480 -0.2227 -0.1874
13619SOL    HW143057   1.089   8.383   1.780 -0.2690  0.2616 -0.5731
13619SOL    HW243058   0.973   8.447   1.854  1.5265  0.9343  1.7809
13620SOL     OW43059   7.850   5.825   0.195 -0.3166  0.4322  0.3956
13620SOL    HW143060   7.931   5.833   0.245 -0.2447  1.5445  0.1214
13620SOL    HW243061   7.852   5.735   0.161  0.9177  0.5078  0.2006
13621SOL     OW43062   6.175   3.185   8.518  0.0346  0.3996 -0.0969
13621SOL    HW143063   6.210   3.120   8.578  0.2893 -1.6669 -2.3172
13621SOL    HW243064   6.101   3.224   8.564 -1.4808 -2.9996  0.5994
13622SOL     OW43065   3.740   2.132   5.631  0.4632  0.1600 -0.0004
13622SOL    HW143066   3.827   2.133   5.671  0.9784 -0.5509 -1.0357
13622SOL    HW243067   3.679   2.137   5.704  1.3761  1.4948  0.7053
13623SOL     OW43068   1.065   8.451   7.139  0.4895  0.2288  0.0770
13623SOL    HW143069   1.033   8.371   7.098 -0.0725  0.1406  0.6903
13623SOL    HW243070   1.069   8.515   7.067 -1.7997  0.4745  0.1019
13624SOL     OW43071   1.222   2.937   0.953  0.1294  0.1623  0.1327
13624SOL    HW143072   1.248   2.929   1.045  3.1925 -1.8870 -0.7488
13624SOL    HW243073   1.218   3.032   0.938  0.8266  0.5517  2.0618
13625SOL     OW43074   4.178   3.704   3.762  0.0470 -0.0457 -0.0187
13625SOL    HW143075   4.163   3.624   3.711  0.9975 -0.6040  0.5407
13625SOL    HW243076   4.092   3.744   3.770 -0.3771 -0.8074 -0.6501
13626SOL     OW43077   4.795   0.284   6.195 -0.0848  0.1809 -0.2798
13626SOL    HW143078   4.732   0.215   6.210  0.4916  0.1137  2.1611
13626SOL    HW243079   4.794   0.297   6.100  0.5960 -3.9153 -1.0242
13627SOL     OW43080   7.355   7.179   0.319  0.0143  0.4300  0.1614
13627SOL    HW143081   7.282   7.122   0.293  0.4924 -0.1546  0.0813
13627SOL    HW243082   7.398   7.201   0.237  0.8802 -0.5361  0.3403
13628SOL     OW43083   1.746   3.226   9.097  0.0214 -0.1724  0.3931
13628SOL    HW143084   1.737   3.137   9.131 -0.1086 -0.5003 -0.4524
13628SOL    HW243085   1.813   3.218   9.028 -1.9581 -0.2208 -1.6344
13629SOL     OW43086   8.543   7.270   8.049  0.1386  0.0435 -0.7473
13629SOL    HW143087   8.550   7.178   8.020 -1.2600 -0.8894  1.6169
13629SOL    HW243088   8.607   7.278   8.119 -1.9232 -0.1357  1.2490
13630SOL     OW43089   7.306   2.135   5.389  0.0952 -0.4922  0.2382
13630SOL    HW143090   7.392   2.171   5.412 -0.7191  1.1419  0.8443
13630SOL    HW243091   7.320   2.040   5.389  2.1943 -0.2633 -0.8923
13631SOL     OW43092   1.982   8.425   8.818 -0.3512  0.1488 -0.2109
13631SOL    HW143093   1.964   8.412   8.911 -1.1254 -1.5760 -0.5620
13631SOL    HW243094   2.043   8.499   8.816 -1.2505  1.0187  1.5674
13632SOL     OW43095   1.995   6.448   3.930  0.0228  0.3412  0.7195
13632SOL    HW143096   1.968   6.383   3.995  0.5582 -1.2979 -0.6327
13632SOL    HW243097   2.088   6.459   3.944 -0.2092  1.4737  1.4791
13633SOL     OW43098   9.335   6.005   2.049 -0.1320  0.4462  0.3096
13633SOL    HW143099   9.358   6.019   1.957 -0.6021  4.2428  0.6225
13633SOL    HW243100   9.261   5.944   2.047 -1.5702  2.1099 -2.0616
13634SOL     OW43101   7.789   4.279   4.985 -0.3019  0.0686 -0.0282
13634SOL    HW143102   7.831   4.196   4.961 -0.9390  0.2558 -1.9741
13634SOL    HW243103   7.858   4.331   5.026 -0.1605 -1.8190  2.3478
13635SOL     OW43104   7.691   5.637   1.827 -0.3367 -0.5746 -0.6938
13635SOL    HW143105   7.643   5.625   1.744 -0.8058 -2.3402 -0.2214
13635SOL    HW243106   7.653   5.715   1.866 -1.6028 -0.9067 -1.1934
13636SOL     OW43107   6.521   8.730   1.888 -0.1906 -0.1301 -0.8996
13636SOL    HW143108   6.458   8.736   1.960  1.2098 -0.2943  0.4015
13636SOL    HW243109   6.483   8.667   1.828 -1.2991 -0.1674 -0.1962
13637SOL     OW43110   2.658   1.700   5.964  0.1345 -0.0223  0.0701
13637SOL    HW143111   2.709   1.664   5.891  1.9953 -2.1670  2.2591
13637SOL    HW243112   2.634   1.788   5.935 -0.4003 -1.2100 -3.6167
13638SOL     OW43113   9.489   5.942   2.825  0.1538  0.0864  0.3686
13638SOL    HW143114   9.431   5.941   2.901  0.3125 -0.7170  0.4822
13638SOL    HW243115   9.437   5.981   2.755 -0.5617 -0.7121  0.4440
13639SOL     OW43116   0.009   8.878   9.402 -0.7139  0.1597 -0.2518
13639SOL    HW143117   0.067   8.886   9.478  0.0803 -1.3345 -0.6765
13639SOL    HW243118  -0.075   8.912   9.433 -0.2731  0.0558  1.1305
13640SOL     OW43119   3.288   6.795   8.397 -0.0405 -0.5939  0.1205
13640SOL    HW143120   3.322   6.802   8.308  0.0518  0.3377  0.2179
13640SOL    HW243121   3.359   6.752   8.446 -0.6097 -2.3358 -0.5057
13641SOL     OW43122   6.052   5.687   8.527 -0.9150  0.9307  0.2652
13641SOL    HW143123   5.960   5.713   8.531 -0.7952  2.0731 -2.3421
13641SOL    HW243124   6.082   5.717   8.441  1.8946  0.5322  0.9962
13642SOL     OW43125   1.134   2.556   2.030 -0.3286  0.0645 -0.1373
13642SOL    HW143126   1.187   2.585   2.104 -0.6182  0.3998 -0.0587
13642SOL    HW243127   1.064   2.504   2.068 -0.4688  0.2244 -0.1722
13643SOL     OW43128   9.104   0.727   3.616  0.7002  0.1855  0.0933
13643SOL    HW143129   9.130   0.797   3.556 -1.0732 -0.2129 -1.2410
13643SOL    HW243130   9.183   0.675   3.628  1.3078  0.7330 -1.2848
13644SOL     OW43131   0.645   1.014   4.305 -0.3336  0.6572 -0.3032
13644SOL    HW143132   0.564   0.972   4.277  0.7157 -0.3420 -2.0387
13644SOL    HW243133   0.660   1.084   4.241  1.2974 -0.6511 -1.4514
13645SOL     OW43134   5.284   7.731   6.027 -0.0603 -0.1217 -0.3075
13645SOL    HW143135   5.210   7.684   6.064  0.0160  0.0503  0.0664
13645SOL    HW243136   5.358   7.670   6.038  0.2574  0.4949  1.1564
13646SOL     OW43137   2.876   7.180   2.855  0.3736  0.2892  0.2019
13646SOL    HW143138   2.812   7.243   2.886 -0.1134  0.4610 -1.0970
13646SOL    HW243139   2.943   7.233   2.812 -0.6323 -0.0641 -1.9697
13647SOL     OW43140   8.760   8.466   6.560  0.4408  0.0491 -0.5310
13647SOL    HW143141   8.684   8.473   6.502  0.4801 -0.1032 -0.6018
13647SOL    HW243142   8.805   8.387   6.530  0.4062 -0.0850 -0.2229
13648SOL     OW43143   9.425   5.780   1.662 -1.1653  0.2849  0.5478
13648SOL    HW143144   9.507   5.822   1.636 -0.3522 -0.0464  2.4736
13648SOL    HW243145   9.394   5.738   1.581  1.2625 -0.7356  0.0436
13649SOL     OW43146   8.229   3.244   0.432  0.0269  0.4928 -0.0623
13649SOL    HW143147   8.145   3.239   0.478 -0.1402  1.1503 -0.2898
13649SOL    HW243148   8.219   3.184   0.358 -0.1318  0.3361  0.0834
13650SOL     OW43149   5.838   5.711   5.508  0.0978  0.3938 -0.0920
13650SOL    HW143150   5.771   5.763   5.465  1.2598  1.3301 -0.8196
13650SOL    HW243151   5.883   5.773   5.566  2.3758  0.6035 -1.9656
13651SOL     OW43152   5.123   5.362   9.326  0.6287  0.0575  0.1898
13651SOL    HW143153   5.030   5.373   9.349  0.7076  1.0850  0.0758
13651SOL    HW243154   5.121   5.330   9.236  0.3746  2.2928 -0.6701
13652SOL     OW43155   9.508   6.070   7.694 -0.0020 -0.0562  0.9840
13652SOL    HW143156   9.524   5.993   7.639  0.4149  0.8307 -0.1566
13652SOL    HW243157   9.593   6.090   7.733  0.3769  1.0250 -0.3276
13653SOL     OW43158   8.349   6.675   8.977 -0.5976 -0.1809 -0.1083
13653SOL    HW143159   8.342   6.580   8.990  1.9870 -0.1192  2.7856
13653SOL    HW243160   8.277   6.712   9.028  0.7735 -0.5449  2.2348
13654SOL     OW43161   7.696   4.683   1.735  0.3990  0.5359 -0.0913
13654SOL    HW143162   7.601   4.694   1.735  0.5938  2.6565 -0.3600
13654SOL    HW243163   7.719   4.670   1.827 -0.3440 -3.0140 -0.2499
13655SOL     OW43164   1.648   7.026   2.244 -0.0616  0.4128 -0.5717
13655SOL    HW143165   1.714   6.966   2.279 -1.4443 -0.6624  0.2766
13655SOL    HW243166   1.664   7.109   2.289 -0.2515 -0.2733  0.8190
13656SOL     OW43167   9.448   3.141   3.815 -0.3393 -0.1378 -0.1980
13656SOL    HW143168   9.461   3.070   3.878  0.6321 -1.5335 -1.8803
13656SOL    HW243169   9.536   3.178   3.803 -0.7810  1.1879  0.4149
13657SOL     OW43170   4.947   3.105   2.765  0.5285 -0.4411 -0.5235
13657SOL    HW143171   4.866   3.139   2.726  0.0775 -0.6086  0.2498
13657SOL    HW243172   4.929   3.012   2.779  0.9243 -0.5146 -0.5061
13658SOL     OW43173   8.319   7.784   2.829  0.7352 -0.0252 -0.1874
13658SOL    HW143174   8.341   7.692   2.839  1.5105  0.1420 -0.2597
13658SOL    HW243175   8.336   7.823   2.914  1.8228  0.3142 -0.5377
13659SOL     OW43176   1.272   9.333   8.434  0.1264 -0.2499 -0.2735
13659SOL    HW143177   1.244   9.250   8.472 -0.4524 -1.2381 -2.6603
13659SOL    HW243178   1.207   9.397   8.464 -1.0052 -1.2255 -0.5529
13660SOL     OW43179   1.389   4.588   4.362  0.4873 -0.6768  0.2186
13660SOL    HW143180   1.329   4.515   4.352  1.5217 -1.8628  2.0774
13660SOL    HW243181   1.469   4.549   4.397  1.6614  1.1278 -0.2845
13661SOL     OW43182   6.697   0.384   3.136  0.8084 -0.1853 -0.4491
13661SOL    HW143183   6.666   0.474   3.138  1.2784 -0.0226 -0.0087
13661SOL    HW243184   6.618   0.331   3.144  0.6193  0.2145  0.4671
13662SOL     OW43185   6.089   0.372   7.230  0.2153  0.0327 -0.3432
13662SOL    HW143186   6.047   0.451   7.264  0.6648  0.3614 -0.5335
13662SOL    HW243187   6.019   0.326   7.183 -0.6023 -0.8080  1.6034
13663SOL     OW43188   1.429   0.667   5.398 -0.6536 -0.0414 -0.0822
13663SOL    HW143189   1.426   0.573   5.381 -0.5777 -0.4586  2.0513
13663SOL    HW243190   1.447   0.675   5.491 -0.1373  2.1083 -0.3074
13664SOL     OW43191   0.310   4.503   9.008 -0.2694 -0.6051  0.7703
13664SOL    HW143192   0.293   4.495   8.915  0.8404  0.7225  0.4173
13664SOL    HW243193   0.300   4.414   9.042  1.6202 -1.5933 -1.0327
13665SOL     OW43194   7.029   1.262   2.044  0.8316 -0.2269  0.2916
13665SOL    HW143195   7.065   1.240   1.958  0.8248 -1.0204  0.4808
13665SOL    HW243196   6.940   1.226   2.043 -0.9675  3.7587 -1.0487
13666SOL     OW43197   6.901   5.016   9.378 -0.0581  0.0468  0.0574
13666SOL    HW143198   6.854   5.042   9.457 -0.3423 -0.2099 -0.0257
13666SOL    HW243199   6.951   4.939   9.403 -0.8942 -0.6194 -0.2532
13667SOL     OW43200   5.320   5.089   5.769  0.3466  0.2188 -0.6186
13667SOL    HW143201   5.296   5.058   5.856 -0.9755  1.9489 -0.3100
13667SOL    HW243202   5.404   5.047   5.751  1.2536  0.7221  1.9924
13668SOL     OW43203   1.667   8.347   0.862  0.2379  0.4083  0.2311
13668SOL    HW143204   1.603   8.374   0.927 -0.5553 -2.7852  0.9785
13668SOL    HW243205   1.631   8.377   0.779 -0.4323  1.6940  0.9618
13669SOL     OW43206   3.712   5.076   3.290 -0.0821  0.5833 -0.0721
13669SOL    HW143207   3.686   4.985   3.305 -1.6824  1.3050  1.9270
13669SOL    HW243208   3.773   5.071   3.216 -1.1617 -1.9399 -0.9120
13670SOL     OW43209   7.629   1.913   7.801  0.3182 -0.1979  0.7518
13670SOL    HW143210   7.617   1.976   7.730  0.3824 -1.1965 -0.1829
13670SOL    HW243211   7.723   1.909   7.814  0.3533 -0.5016  0.4231
13671SOL     OW43212   7.465   3.212   4.616 -0.3868 -0.0948 -0.2884
13671SOL    HW143213   7.453   3.170   4.531  0.0721  0.9032 -0.8627
13671SOL    HW243214   7.528   3.157   4.661  0.5701  0.2151 -1.2144
13672SOL     OW43215   8.068   7.853   0.483  0.0945  0.2392 -0.1838
13672SOL    HW143216   8.026   7.922   0.536 -1.5276 -0.8134 -0.0234
13672SOL    HW243217   8.095   7.787   0.546 -0.8657 -0.5236 -0.5511
13673SOL     OW43218   1.533   3.911   7.882  0.0484  0.1567  0.1840
13673SOL    HW143219   1.494   3.897   7.968 -0.6995 -2.9137 -0.5614
13673SOL    HW243220   1.472   3.968   7.837  0.3276  1.6102  1.5339
13674SOL     OW43221   9.282   0.852   2.369 -0.2054  0.0579  0.2661
13674SOL    HW143222   9.230   0.914   2.421 -0.4233 -0.4357  0.6346
13674SOL    HW243223   9.344   0.814   2.431 -1.3448 -1.5216  0.4862
13675SOL     OW43224   2.996   9.566   5.556 -0.1684 -0.0340  0.2589
13675SOL    HW143225   3.070   9.550   5.615 -0.2067 -1.0339  0.0544
13675SOL    HW243226   3.034   9.618   5.485  0.1321  0.2204  0.5972
13676SOL     OW43227   5.789   2.262   7.756  0.0226 -0.1476 -0.0759
13676SOL    HW143228   5.766   2.292   7.668  0.4691 -0.8750 -0.4466
13676SOL    HW243229   5.744   2.179   7.766  1.5886 -1.0725 -0.4106
13677SOL     OW43230   5.859   0.250   3.472  0.0728  0.0279 -0.3027
13677SOL    HW143231   5.911   0.174   3.443  0.6372 -0.1153  1.0008
13677SOL    HW243232   5.924   0.311   3.507 -0.4953  0.5790 -0.1972
13678SOL     OW43233   2.747   5.092   1.008  0.1674  0.0242  0.3844
13678SOL    HW143234   2.664   5.113   1.050 -0.2336  2.9365 -1.5383
13678SOL    HW243235   2.812   5.144   1.057  0.1613  0.9981 -0.5979
13679SOL     OW43236   3.092   8.326   9.438  0.0387  0.2865  0.0526
13679SOL    HW143237   3.041   8.370   9.507 -0.4996 -1.9137  1.1423
13679SOL    HW243238   3.085   8.233   9.459  3.4375 -0.2243 -0.5321
13680SOL     OW43239   0.540   7.234   4.398 -0.5561  0.6484  0.4522
13680SOL    HW143240   0.601   7.301   4.429  0.0804  0.6295 -0.7295
13680SOL    HW243241   0.585   7.190   4.327 -1.9281  0.6159 -0.4412
13681SOL     OW43242   9.557   3.228   6.520  0.1567  0.3179 -0.0540
13681SOL    HW143243   9.625   3.251   6.458 -1.2189  2.4620 -0.8653
13681SOL    HW243244   9.591   3.256   6.605  0.7644  0.2465 -0.2710
13682SOL     OW43245   3.816   2.074   0.700 -0.0545  0.2877 -0.4331
13682SOL    HW143246   3.746   2.040   0.644 -0.3374 -0.1432  0.1774
13682SOL    HW243247   3.809   2.023   0.781  0.9978  0.2058 -0.3838
13683SOL     OW43248   9.256   2.344   4.944  0.2603 -0.1054 -0.3258
13683SOL    HW143249   9.223   2.434   4.936  1.2109  0.4722  1.6301
13683SOL    HW243250   9.182   2.295   4.980 -0.2168 -0.0979 -1.2601
13684SOL     OW43251   1.929   5.245   6.965  0.5793  0.7884  0.4910
13684SOL    HW143252   1.963   5.227   7.053 -0.0172  0.2428  0.6194
13684SOL    HW243253   1.939   5.163   6.918 -2.7686 -0.2458  1.2762
13685SOL     OW43254   3.687   1.831   2.778 -0.1975 -0.1578 -0.3722
13685SOL    HW143255   3.658   1.839   2.687 -0.5052 -1.8646 -0.4643
13685SOL    HW243256   3.651   1.907   2.822 -0.8024  0.2265 -1.4934
13686SOL     OW43257   2.697   6.574   9.092 -0.2400  0.2594 -0.0640
13686SOL    HW143258   2.752   6.499   9.114 -1.4662 -0.6271  0.1005
13686SOL    HW243259   2.617   6.561   9.143 -0.8148  1.2373 -0.6736
13687SOL     OW43260   4.201   1.370   8.404  1.1307 -0.1173  0.1915
13687SOL    HW143261   4.108   1.392   8.401  1.3377  1.0299  1.1854
13687SOL    HW243262   4.204   1.275   8.402 -0.0620 -0.1668  0.0695
13688SOL     OW43263   4.404   4.188   8.084 -0.0807 -0.2523 -0.3755
13688SOL    HW143264   4.394   4.220   8.174 -1.7429 -0.4856 -0.4498
13688SOL    HW243265   4.380   4.263   8.029  2.2707  0.3448 -0.7050
13689SOL     OW43266   5.268   9.125   8.761  0.4806  0.1214 -0.0065
13689SOL    HW143267   5.349   9.148   8.808 -0.9371  0.0098  2.6687
13689SOL    HW243268   5.257   9.032   8.778 -0.0361  0.0650 -0.6464
13690SOL     OW43269   4.312   4.680   1.901  0.3753  0.1233  0.1875
13690SOL    HW143270   4.347   4.640   1.821 -1.2913 -1.8207  0.3423
13690SOL    HW243271   4.324   4.613   1.968 -0.1620  0.8964  1.0724
13691SOL     OW43272   8.894   4.410   4.403 -0.4887 -0.6149  0.5559
13691SOL    HW143273   8.870   4.502   4.397 -1.0751 -0.8026 -0.1601
13691SOL    HW243274   8.919   4.386   4.314  1.6249 -0.6438  1.1043
13692SOL     OW43275   7.620   3.539   4.874  0.2443  0.3449  0.2946
13692SOL    HW143276   7.601   3.512   4.963 -0.9939  1.7747  0.5053
13692SOL    HW243277   7.658   3.627   4.883  0.7768  0.2148 -0.5441
13693SOL     OW43278   2.703   2.167   7.251 -0.1122  0.6701 -0.3356
13693SOL    HW143279   2.617   2.144   7.286 -0.0582  0.6776 -0.1932
13693SOL    HW243280   2.718   2.257   7.282  0.7450  0.0304  1.2411
13694SOL     OW43281   3.502   6.292   0.898 -0.2045 -0.8389  0.2477
13694SOL    HW143282   3.583   6.281   0.847 -0.0886 -1.0977  0.4819
13694SOL    HW243283   3.527   6.268   0.987 -0.2973  0.0608  0.5187
13695SOL     OW43284   5.703   3.109   6.067  0.0990 -0.0804 -0.1049
13695SOL    HW143285   5.727   3.119   5.975 -0.0294  0.5082 -0.0766
13695SOL    HW243286   5.608   3.094   6.065 -0.1537  1.3714  0.0089
13696SOL     OW43287   8.278   4.924   8.285  0.5953 -0.1629 -0.3846
13696SOL    HW143288   8.366   4.945   8.316  0.5745 -0.2091 -0.2970
13696SOL    HW243289   8.259   4.993   8.220  0.1562  0.6449  0.5763
13697SOL     OW43290   2.495   0.982   2.890  0.5276 -0.4010  0.2897
13697SOL    HW143291   2.541   0.989   2.807 -0.6220 -0.7238 -0.4015
13697SOL    HW243292   2.404   0.965   2.866 -0.1782  1.2394  1.5766
13698SOL     OW43293   4.881   6.373   3.840  0.0621  0.3986 -0.3019
13698SOL    HW143294   4.906   6.282   3.858  0.1143  0.6875  1.2409
13698SOL    HW243295   4.964   6.420   3.836  0.0533  0.3449 -1.4255
13699SOL     OW43296   3.474   9.485   7.362  0.0435  0.7916  0.4148
13699SOL    HW143297   3.522   9.492   7.445 -0.6828  1.0405  0.8286
13699SOL    HW243298   3.434   9.398   7.365 -0.9034  1.2187  0.8594
13700SOL     OW43299   3.089   4.586   6.041  0.1579 -0.4987 -0.0577
13700SOL    HW143300   3.003   4.602   6.004  0.6873  0.8712 -0.7531
13700SOL    HW243301   3.133   4.532   5.975 -0.1923 -1.3179  0.3611
13701SOL     OW43302   1.262   7.697   8.048 -0.6365 -0.3007 -0.6485
13701SOL    HW143303   1.296   7.771   7.998 -1.3221  0.5083  0.0458
13701SOL    HW243304   1.293   7.620   8.001 -0.5484  0.4268 -1.8226
13702SOL     OW43305   3.057   6.637   4.462  0.3902  0.2648 -0.4284
13702SOL    HW143306   3.057   6.584   4.382  1.6525  1.0220 -0.9503
13702SOL    HW243307   2.969   6.624   4.499  0.0926 -0.8060 -1.4459
13703SOL     OW43308   5.739   7.569   9.503  0.1922  0.0564 -0.6461
13703SOL    HW143309   5.664   7.611   9.461  1.4098  0.7751 -2.1923
13703SOL    HW243310   5.762   7.628   9.575 -1.0433 -0.4638  0.2082
13704SOL     OW43311   2.433   7.220   5.657  1.0457 -0.5612 -0.1751
13704SOL    HW143312   2.510   7.253   5.703 -0.5369  0.5767  1.8165
13704SOL    HW243313   2.420   7.132   5.693  0.5198 -0.1363  0.7179
13705SOL     OW43314   6.010   3.041   9.393 -0.3737 -0.3072 -1.0544
13705SOL    HW143315   5.950   2.985   9.442 -0.1129  0.2923 -0.0198
13705SOL    HW243316   5.972   3.129   9.399  1.6483  0.5084  1.4931
13706SOL     OW43317   8.386   0.132   6.124  0.6175  1.0011  0.0431
13706SOL    HW143318   8.310   0.178   6.089 -0.4733 -1.2626 -0.7306
13706SOL    HW243319   8.430   0.096   6.048 -0.2420 -1.6655  0.6884
13707SOL     OW43320   9.152   4.567   4.130 -0.4580 -0.4951  0.8362
13707SOL    HW143321   9.075   4.607   4.088  1.1965 -0.2945 -2.3544
13707SOL    HW243322   9.201   4.642   4.165 -0.7847 -0.4356  1.1699
13708SOL     OW43323   4.656   6.961   2.643  0.2092 -0.4653 -0.0879
13708SOL    HW143324   4.597   7.032   2.621 -1.0158 -0.9468  1.4474
13708SOL    HW243325   4.601   6.883   2.642  1.1059 -1.1210  0.1432
13709SOL     OW43326   6.374   4.006   9.540  0.8159 -0.5398 -0.0963
13709SOL    HW143327   6.429   4.080   9.564 -0.4448  0.3224  0.2340
13709SOL    HW243328   6.386   3.944   9.612 -0.5644  0.7263  1.2982
13710SOL     OW43329   3.031   6.835   8.740 -0.2491 -0.0356 -0.1214
13710SOL    HW143330   2.967   6.898   8.771  0.3099 -0.1669  1.3700
13710SOL    HW243331   3.069   6.798   8.819 -0.2130 -1.9088 -0.9663
13711SOL     OW43332   2.845   8.529   0.398  0.0386  0.0680  0.7223
13711SOL    HW143333   2.788   8.503   0.326 -0.1292  0.9618  0.5221
13711SOL    HW243334   2.880   8.446   0.432 -0.8846 -0.4498  0.4526
13712SOL     OW43335   5.017   1.108   3.886  0.0633 -0.5016 -0.5342
13712SOL    HW143336   5.105   1.143   3.888  0.8432 -2.3850  1.2016
13712SOL    HW243337   4.968   1.158   3.951  0.2953 -0.5065 -0.3571
13713SOL     OW43338   0.144   5.188   7.483 -0.0257 -0.2791 -0.8378
13713SOL    HW143339   0.224   5.171   7.433  0.0219 -0.8573 -0.5784
13713SOL    HW243340   0.108   5.267   7.445  1.7496  1.1880  0.3449
13714SOL     OW43341   1.266   9.380   3.438 -0.1658  0.7504  0.0385
13714SOL    HW143342   1.319   9.312   3.479 -1.4531  0.0171  0.5358
13714SOL    HW243343   1.276   9.456   3.496  1.0859  0.9428 -0.3929
13715SOL     OW43344   8.333   5.136   4.187  0.1008  0.0143 -0.2396
13715SOL    HW143345   8.418   5.164   4.152  0.6547 -0.6964  0.5114
13715SOL    HW243346   8.330   5.173   4.275 -0.7771  0.8064 -0.5911
13716SOL     OW43347   6.858   0.170   2.569  0.2683  0.5839  0.2628
13716SOL    HW143348   6.935   0.208   2.527  0.4016  1.6954  1.4557
13716SOL    HW243349   6.852   0.082   2.532  2.1385  0.4527  0.1774
13717SOL     OW43350   6.843   8.504   5.920  0.1666  0.0325 -0.2028
13717SOL    HW143351   6.834   8.457   6.003 -0.7309  1.0514  0.2941
13717SOL    HW243352   6.935   8.530   5.917  0.3566 -0.5823  0.1475
13718SOL     OW43353   4.792   1.782   6.347  0.2481  0.2431  0.1900
13718SOL    HW143354   4.697   1.778   6.336  0.1224  0.9279  0.9278
13718SOL    HW243355   4.811   1.720   6.417  0.0206  1.8281  1.7387
13719SOL     OW43356   6.551   8.390   5.997 -0.3552  0.4093 -0.5028
13719SOL    HW143357   6.531   8.403   5.904  0.9758  0.3501 -0.8163
13719SOL    HW243358   6.543   8.478   6.036 -1.0011  0.4189 -0.6376
13720SOL     OW43359   5.334   4.061   4.142 -0.4520 -0.0685  0.2610
13720SOL    HW143360   5.278   4.017   4.205 -0.1583 -0.3447  0.3346
13720SOL    HW243361   5.330   4.153   4.166 -1.6363  0.0577 -0.3308
13721SOL     OW43362   8.685   5.491   7.667 -0.0648 -0.4587  0.0781
13721SOL    HW143363   8.702   5.517   7.577  1.5794 -0.4829  0.3501
13721SOL    HW243364   8.681   5.395   7.665  2.1312 -0.6213  0.2989
13722SOL     OW43365   3.177   7.266   8.133  0.6858 -0.2822 -0.1881
13722SOL    HW143366   3.179   7.362   8.133  3.1366 -0.2711 -0.0792
13722SOL    HW243367   3.159   7.243   8.224 -0.3476  0.0600 -0.2989
13723SOL     OW43368   1.816   6.673   4.781 -0.1484 -0.1796  0.0529
13723SOL    HW143369   1.738   6.672   4.837 -0.3930  0.8937 -0.2586
13723SOL    HW243370   1.802   6.600   4.719 -0.8364 -0.0804  0.0895
13724SOL     OW43371   7.268   2.930   7.605 -0.4228  0.0184  0.3428
13724SOL    HW143372   7.297   2.940   7.514 -0.9526  2.1575  0.3468
13724SOL    HW243373   7.205   2.859   7.603  0.1750 -0.5041 -0.8133
13725SOL     OW43374   3.804   6.363   2.603 -0.7317  0.4114 -0.3677
13725SOL    HW143375   3.882   6.417   2.591  0.0694 -0.5082  0.4347
13725SOL    HW243376   3.836   6.273   2.591 -1.2800 -0.1007  1.6852
13726SOL     OW43377   2.754   1.375   2.310 -0.1911  0.0683 -0.2967
13726SOL    HW143378   2.838   1.339   2.338  0.2532  1.9627  0.9418
13726SOL    HW243379   2.690   1.336   2.370 -0.1402 -0.8875 -0.8439
13727SOL     OW43380   6.340   2.124   3.788 -0.4640  0.7190  0.4136
13727SOL    HW143381   6.253   2.103   3.823 -0.5598  1.0934  0.4044
13727SOL    HW243382   6.328   2.206   3.741 -0.3147  0.2614 -0.4393
13728SOL     OW43383   2.158   9.059   4.428 -0.1120 -0.2550  0.4774
13728SOL    HW143384   2.195   9.021   4.508  0.3763  0.4627  0.5935
13728SOL    HW243385   2.097   8.992   4.396  1.2411 -1.4521  0.3006
13729SOL     OW43386   2.106   2.658   0.595  0.2820  0.1024 -0.3145
13729SOL    HW143387   2.177   2.603   0.561 -1.1876 -1.4258 -1.0282
13729SOL    HW243388   2.100   2.635   0.687 -1.0973 -1.9131 -0.8457
13730SOL     OW43389   8.976   3.699   3.124  0.2364 -0.1516  0.2254
13730SOL    HW143390   8.940   3.643   3.192 -0.7263 -0.0194 -0.1574
13730SOL    HW243391   8.965   3.788   3.158  1.6277 -0.1676  0.7691
13731SOL     OW43392   4.542   0.001   0.263 -0.0200 -0.0110  0.2373
13731SOL    HW143393   4.615  -0.061   0.267  0.1584  0.2565  1.6857
13731SOL    HW243394   4.551   0.054   0.342 -2.0191 -0.2222  0.6622
13732SOL     OW43395   3.999   7.962   9.238  0.4278  0.1887  0.7745
13732SOL    HW143396   4.038   8.039   9.279 -1.7459  2.4424 -1.1236
13732SOL    HW243397   4.024   7.969   9.145 -0.0183 -1.2684  0.5170
13733SOL     OW43398   0.557   2.114   9.428 -0.5872  1.0412  0.6799
13733SOL    HW143399   0.629   2.138   9.369 -0.2128 -1.7597 -0.1714
13733SOL    HW243400   0.562   2.178   9.499  1.5724  2.0588 -0.2817
13734SOL     OW43401   3.322   3.416   6.230 -0.4601  0.3561 -0.5971
13734SOL    HW143402   3.370   3.496   6.250 -1.4629  0.4697  1.5822
13734SOL    HW243403   3.230   3.442   6.228 -0.8499 -0.7789  0.6880
13735SOL     OW43404   9.331   1.934   0.606 -0.1559  0.2016  0.0097
13735SOL    HW143405   9.277   1.951   0.683 -0.0878  1.6433 -0.2448
13735SOL    HW243406   9.411   1.896   0.641 -1.7458 -3.2986  0.3132
13736SOL     OW43407   8.186   2.211   3.264  0.4702 -0.2338  0.5315
13736SOL    HW143408   8.176   2.256   3.180 -2.3543  0.3131  1.0678
13736SOL    HW243409   8.280   2.216   3.282  0.9066  1.2769 -1.6968
13737SOL     OW43410   9.177   0.796   9.377  0.5674  0.3630 -0.6645
13737SOL    HW143411   9.129   0.722   9.413  0.1771  1.2076  0.5950
13737SOL    HW243412   9.110   0.861   9.357  0.8635  0.2646 -2.1159
13738SOL     OW43413   6.552   6.454   1.691  0.7552 -0.1042 -0.0151
13738SOL    HW143414   6.528   6.521   1.755 -0.3267 -0.8570  0.3875
13738SOL    HW243415   6.469   6.428   1.651  1.4219  0.5054 -1.9190
13739SOL     OW43416   0.552   3.710   3.562 -0.0002 -0.0202  0.1378
13739SOL    HW143417   0.617   3.675   3.501 -1.0261 -1.9388  0.0642
13739SOL    HW243418   0.468   3.696   3.518 -0.5097  2.4929  0.1898
13740SOL     OW43419   7.233   1.784   6.560 -0.1385  0.3393 -0.0983
13740SOL    HW143420   7.233   1.857   6.498 -1.1524 -0.7193 -1.4362
13740SOL    HW243421   7.309   1.732   6.535 -1.2827 -0.7998 -1.4418
13741SOL     OW43422   8.069   6.254   1.403 -0.5950 -0.0742  0.1865
13741SOL    HW143423   8.069   6.260   1.307 -0.2401 -1.2693  0.0846
13741SOL    HW243424   8.002   6.315   1.431 -0.3571  0.6752 -0.7951
13742SOL     OW43425   3.024   5.531   4.389  0.0417 -0.0701  0.0329
13742SOL    HW143426   3.093   5.468   4.407 -0.2678 -0.9175 -1.5700
13742SOL    HW243427   2.944   5.491   4.423 -0.3568 -1.1563 -2.0460
13743SOL     OW43428   0.117   0.051   3.900 -0.0689 -0.3756 -0.0391
13743SOL    HW143429   0.194  -0.006   3.893 -0.1785 -1.0741  3.0207
13743SOL    HW243430   0.147   0.124   3.954 -1.7336 -1.1412  2.0378
13744SOL     OW43431   6.700   8.483   8.223  0.3263 -0.1746  0.3308
13744SOL    HW143432   6.661   8.562   8.186  0.0715 -0.8868 -0.9646
13744SOL    HW243433   6.651   8.469   8.305 -1.0603 -0.1375 -0.4590
13745SOL     OW43434   1.533   2.558   7.381  0.0796  1.0430 -0.2455
13745SOL    HW143435   1.565   2.593   7.297  1.7058 -0.3617 -0.2731
13745SOL    HW243436   1.540   2.631   7.442 -1.1231  2.0911 -1.2992
13746SOL     OW43437   2.432   4.410   3.554 -0.6098 -0.0497 -0.5148
13746SOL    HW143438   2.388   4.331   3.522  0.6772 -1.0781  0.1385
13746SOL    HW243439   2.431   4.401   3.649  0.8127 -0.0387 -0.4758
13747SOL     OW43440   1.204   2.915   3.650 -0.8727  0.3765 -0.1333
13747SOL    HW143441   1.217   2.826   3.618 -1.2362  0.2073  0.1797
13747SOL    HW243442   1.139   2.906   3.720 -0.3700  0.7916  0.3882
13748SOL     OW43443   7.740   5.902   4.115 -0.2683  0.0580 -0.1271
13748SOL    HW143444   7.739   5.879   4.208 -0.9040  1.6028  0.2931
13748SOL    HW243445   7.832   5.904   4.091 -0.0044  1.0769  0.8871
13749SOL     OW43446   4.366   4.640   5.073 -0.1155 -0.4996 -0.1172
13749SOL    HW143447   4.392   4.549   5.087  0.0534 -0.6123 -1.0594
13749SOL    HW243448   4.338   4.643   4.981 -0.2922  0.3550 -0.0450
13750SOL     OW43449   3.161   5.603   2.478  0.1642 -0.2820  0.2763
13750SOL    HW143450   3.096   5.667   2.508  1.0391  0.5805  0.3931
13750SOL    HW243451   3.159   5.534   2.545  1.0889  0.9324  1.6346
13751SOL     OW43452   7.509   2.278   8.174  0.3827  0.3328  0.3266
13751SOL    HW143453   7.597   2.246   8.196  0.7568  1.5421  0.6680
13751SOL    HW243454   7.482   2.224   8.100  0.8844 -0.9108  1.0164
13752SOL     OW43455   6.512   0.707   5.123 -0.4297 -0.3175 -0.3711
13752SOL    HW143456   6.546   0.627   5.164  0.5500  0.5495  0.5791
13752SOL    HW243457   6.543   0.702   5.033  0.8831 -0.3579  0.0491
13753SOL     OW43458   4.840   6.584   4.411 -1.2407 -0.1134 -0.2056
13753SOL    HW143459   4.771   6.647   4.428 -0.3341  0.9460 -0.3429
13753SOL    HW243460   4.894   6.624   4.343  0.8073  0.1632  1.4643
13754SOL     OW43461   7.040   2.138   6.258 -0.2524  0.0295  0.4196
13754SOL    HW143462   6.972   2.071   6.271  0.4668 -0.8030 -0.0014
13754SOL    HW243463   7.001   2.198   6.195 -0.4978 -0.6198 -0.0654
13755SOL     OW43464   5.929   5.462   5.350 -0.0235  0.1539  0.2602
13755SOL    HW143465   5.859   5.463   5.414  0.5598  0.1942  0.9054
13755SOL    HW243466   5.925   5.549   5.309 -0.0801  0.3080  0.5905
13756SOL     OW43467   2.599   5.458   9.324 -0.0921 -0.4411 -0.2778
13756SOL    HW143468   2.521   5.415   9.359 -0.5968  0.8274  0.2173
13756SOL    HW243469   2.612   5.534   9.380  1.0758 -0.2296 -0.8098
13757SOL     OW43470   5.295   4.613   9.510  0.4887  0.3272 -0.5811
13757SOL    HW143471   5.246   4.677   9.562 -0.7020 -1.1030  0.1179
13757SOL    HW243472   5.302   4.654   9.424 -0.0726  1.4850 -0.1080
13758SOL     OW43473   6.223   7.424   3.397  0.3885  0.0337  0.1639
13758SOL    HW143474   6.149   7.458   3.346 -1.2406 -0.6895  1.9259
13758SOL    HW243475   6.191   7.340   3.431  1.7925  0.0062  1.4984
13759SOL     OW43476   8.824   6.352   0.724  0.3048  0.2341  0.0004
13759SOL    HW143477   8.915   6.338   0.751  0.4804 -1.3715 -1.2823
13759SOL    HW243478   8.819   6.315   0.636 -1.2150  1.7316 -0.6014
13760SOL     OW43479   8.345   6.730   8.498  0.3426 -0.0696 -0.5991
13760SOL    HW143480   8.426   6.710   8.546  0.0718 -1.0798 -0.5259
13760SOL    HW243481   8.286   6.767   8.564  0.6727  0.4681 -0.6061
13761SOL     OW43482   4.945   0.838   4.099  0.2788 -0.7322  0.1971
13761SOL    HW143483   4.992   0.854   4.018 -2.0212 -0.6868 -1.2049
13761SOL    HW243484   4.881   0.909   4.105 -0.0349 -1.0930  1.7267
13762SOL     OW43485   7.183   4.197   4.101  0.6851  0.5535 -0.4591
13762SOL    HW143486   7.199   4.112   4.143  2.4053  1.4899  0.8918
13762SOL    HW243487   7.108   4.233   4.149  2.2037  1.3131  1.4511
13763SOL     OW43488   0.463   2.698   8.344 -0.2805 -0.2509  0.3434
13763SOL    HW143489   0.539   2.748   8.316  1.5025 -2.5033  0.8401
13763SOL    HW243490   0.453   2.630   8.277 -2.0521  0.1589  0.1417
13764SOL     OW43491   1.637   0.044   4.507  0.0519  0.7625  0.3330
13764SOL    HW143492   1.664   0.113   4.568 -0.9939  0.7769  0.8057
13764SOL    HW243493   1.552   0.074   4.473  0.5417  0.6652 -1.0142
13765SOL     OW43494   1.431   8.988   2.476 -0.0736 -0.0454 -0.0954
13765SOL    HW143495   1.396   8.939   2.402  2.5101 -0.4099 -1.1862
13765SOL    HW243496   1.460   9.071   2.439  0.1170  0.2817  0.7477
13766SOL     OW43497   3.991   0.109   4.076  0.0123 -0.0692  0.1095
13766SOL    HW143498   4.026   0.056   4.004 -0.9653 -0.2065 -0.2809
13766SOL    HW243499   4.012   0.059   4.155 -0.5891 -0.8931 -0.2270
13767SOL     OW43500   5.087   4.662   3.008 -0.2614 -0.0105  0.0364
13767SOL    HW143501   5.130   4.610   3.075 -0.3221 -0.2960 -0.1428
13767SOL    HW243502   5.015   4.706   3.054 -1.2812 -1.4189 -0.1339
13768SOL     OW43503   2.802   0.960   7.104 -0.2897  0.5183  0.7834
13768SOL    HW143504   2.726   0.999   7.149  0.5131  0.4228  2.2886
13768SOL    HW243505   2.851   1.035   7.070 -1.1354  0.5732 -0.3803
13769SOL     OW43506   4.524   2.790   2.312  0.0719 -0.2451 -0.0166
13769SOL    HW143507   4.585   2.786   2.385  2.6149  1.8522 -1.8170
13769SOL    HW243508   4.453   2.847   2.343  2.6282  3.2746  0.0408
13770SOL     OW43509   0.356   6.124   3.847  0.4552 -0.0967 -0.5210
13770SOL    HW143510   0.397   6.158   3.926 -0.6673  0.5123 -0.1818
13770SOL    HW243511   0.360   6.196   3.784 -0.8314  0.2666 -0.2047
13771SOL     OW43512   2.143   5.223   8.179  0.8435 -0.2896  0.3916
13771SOL    HW143513   2.130   5.130   8.164 -0.6521 -0.2307  1.1281
13771SOL    HW243514   2.078   5.246   8.245  2.0382  1.0190  1.1858
13772SOL     OW43515   9.001   3.834   0.420  0.1475  0.5366 -0.3178
13772SOL    HW143516   8.979   3.892   0.347  0.5733 -0.4656 -1.2673
13772SOL    HW243517   9.042   3.758   0.379  0.4588 -0.0230  0.9783
13773SOL     OW43518   9.352   1.633   2.887  0.4318 -0.5849  0.5366
13773SOL    HW143519   9.325   1.655   2.976 -0.3330 -1.2418  0.4693
13773SOL    HW243520   9.447   1.650   2.887  0.4797 -0.7455  1.5235
13774SOL     OW43521   8.696   2.724   4.855 -0.3953 -0.9016  0.5353
13774SOL    HW143522   8.626   2.693   4.914 -0.7077  1.0755  1.2807
13774SOL    HW243523   8.651   2.778   4.790  0.2706 -0.8688  0.0893
13775SOL     OW43524   2.226   4.911   1.836  0.4617 -0.2328  0.0516
13775SOL    HW143525   2.208   4.854   1.912 -0.7211  2.6728  2.1285
13775SOL    HW243526   2.310   4.952   1.857 -0.2525  1.1879  0.2612
13776SOL     OW43527   5.809   3.970   8.181  0.3531  0.4939 -0.2239
13776SOL    HW143528   5.867   4.026   8.130  2.1868  1.1736  2.3982
13776SOL    HW243529   5.796   4.017   8.263  0.7409 -2.1776  1.4992
13777SOL     OW43530   7.749   4.220   7.696  0.2192 -0.0471 -0.1875
13777SOL    HW143531   7.831   4.236   7.743 -0.6453 -1.3059  1.9014
13777SOL    HW243532   7.735   4.125   7.705 -1.9715  0.2885  0.4655
13778SOL     OW43533   5.897   2.225   9.366 -0.5424  0.0041  0.1952
13778SOL    HW143534   5.830   2.288   9.339  1.2064  0.6488 -3.1336
13778SOL    HW243535   5.975   2.279   9.382  0.2500 -1.0893  0.0837
13779SOL     OW43536   7.412   7.438   4.442 -0.2098 -0.2446 -0.0612
13779SOL    HW143537   7.440   7.525   4.471  0.1519  0.6883 -2.9413
13779SOL    HW243538   7.372   7.399   4.520  0.0360  2.2909  1.4489
13780SOL     OW43539   3.502   7.227   7.263  0.4671 -0.5128  0.2076
13780SOL    HW143540   3.526   7.201   7.174  0.8525  0.5309 -0.0125
13780SOL    HW243541   3.556   7.304   7.280  0.4106 -0.7133  1.3582
13781SOL     OW43542   8.948   3.251   7.806  0.6202 -0.2466  0.2710
13781SOL    HW143543   8.984   3.299   7.732 -0.3235  0.1535  0.0604
13781SOL    HW243544   8.881   3.194   7.768  1.3893 -1.3982  0.5798
13782SOL     OW43545   9.026   8.812   7.797  0.4686  0.2334 -0.2641
13782SOL    HW143546   9.107   8.764   7.783  0.3877  0.5286 -1.9733
13782SOL    HW243547   9.039   8.896   7.752 -0.7919  0.2479 -0.6559
13783SOL     OW43548   5.593   7.222   9.384  0.0971 -0.2101 -0.1456
13783SOL    HW143549   5.638   7.254   9.462 -0.1895  0.4923 -0.2608
13783SOL    HW243550   5.516   7.279   9.375  0.1514 -0.2449 -0.9619
13784SOL     OW43551   9.227   4.849   3.342 -0.0424  0.2466  0.0141
13784SOL    HW143552   9.287   4.888   3.405  0.4943  1.0853 -0.9737
13784SOL    HW243553   9.179   4.783   3.391  1.2110  0.0386  0.9995
13785SOL     OW43554   1.630   8.686   6.184  0.1542  0.3174  0.1748
13785SOL    HW143555   1.623   8.606   6.236  0.0665 -0.4724 -1.0242
13785SOL    HW243556   1.550   8.735   6.206 -0.0684 -0.1760  0.4969
13786SOL     OW43557   0.740   7.332   3.554  0.1674  0.1425 -0.2603
13786SOL    HW143558   0.700   7.246   3.571 -2.4483  1.0437 -1.4374
13786SOL    HW243559   0.782   7.354   3.637  0.3696 -1.9803  0.2799
13787SOL     OW43560   7.387   8.730   9.261 -0.5479 -0.0565  0.0536
13787SOL    HW143561   7.388   8.731   9.357 -0.2002 -2.9490  0.1961
13787SOL    HW243562   7.464   8.781   9.235  0.0590 -0.2575  1.3837
13788SOL     OW43563   6.394   8.451   5.038 -0.7019  0.2907  0.1108
13788SOL    HW143564   6.484   8.478   5.054 -0.4804  1.8229 -3.0822
13788SOL    HW243565   6.402   8.378   4.976 -1.6644  0.5109 -0.2806
13789SOL     OW43566   5.495   7.706   1.175 -0.7450 -0.6936  0.1072
13789SOL    HW143567   5.442   7.635   1.213 -0.7051 -0.3432  0.8282
13789SOL    HW243568   5.554   7.732   1.246  0.4104 -1.0821 -0.6819
13790SOL     OW43569   0.694   5.668   2.830  0.5932  0.1361  0.5610
13790SOL    HW143570   0.678   5.692   2.921  1.9082 -0.5755  1.0077
13790SOL    HW243571   0.685   5.750   2.781  0.1147  0.5654  1.3591
13791SOL     OW43572   4.145   6.031   4.973  0.6207  0.3465 -0.8184
13791SOL    HW143573   4.104   6.100   4.919 -1.7349 -2.0401 -2.3216
13791SOL    HW243574   4.071   5.985   5.013  1.9266 -2.5487 -1.4908
13792SOL     OW43575   9.392   3.484   5.976  0.3131  0.3328  0.2764
13792SOL    HW143576   9.332   3.412   5.990 -0.9481  1.0619 -1.0792
13792SOL    HW243577   9.448   3.485   6.053 -1.1903 -0.5855  1.4230
13793SOL     OW43578   5.898   2.642   6.143  0.0794 -0.2249 -0.4794
13793SOL    HW143579   5.829   2.706   6.127 -0.8485 -1.3125 -0.9373
13793SOL    HW243580   5.932   2.621   6.056  1.6547  0.9730 -0.2053
13794SOL     OW43581   3.925   0.682   8.465  0.7820  0.2546  0.2495
13794SOL    HW143582   3.845   0.727   8.437 -0.3907 -0.4210  2.3163
13794SOL    HW243583   3.904   0.589   8.458  1.1224  0.0713  1.4499
13795SOL     OW43584   8.708   5.766   1.658  0.4400  0.4272 -0.2648
13795SOL    HW143585   8.769   5.810   1.598 -0.1711 -0.1020 -1.2893
13795SOL    HW243586   8.639   5.831   1.672 -0.5772 -0.2326 -1.9555
13796SOL     OW43587   6.065   7.576   8.822 -0.0859 -0.1659 -0.2155
13796SOL    HW143588   5.984   7.527   8.837 -0.3618 -0.1096 -1.4477
13796SOL    HW243589   6.071   7.585   8.727  1.3699 -0.1684 -0.1490
13797SOL     OW43590   5.960   5.701   0.532  0.1583 -0.3170  0.1350
13797SOL    HW143591   6.047   5.701   0.491  0.5128 -0.3416  0.8789
13797SOL    HW243592   5.971   5.749   0.613 -0.8483  0.8534 -0.3930
13798SOL     OW43593   3.132   5.366   5.807  0.0708 -0.2701 -0.5428
13798SOL    HW143594   3.188   5.317   5.866 -0.7712  0.6773  1.1204
13798SOL    HW243595   3.045   5.364   5.848 -0.5508  0.4252 -1.7473
13799SOL     OW43596   2.043   9.042   9.161 -0.4330  0.1083 -0.2546
13799SOL    HW143597   2.101   8.994   9.101 -0.6176  1.7105 -1.8101
13799SOL    HW243598   1.976   9.079   9.104 -0.5356  1.8232  0.9237
13800SOL     OW43599   6.516   4.400   4.336 -0.3329 -1.0579  0.0302
13800SOL    HW143600   6.511   4.312   4.374  0.3923 -0.1322  2.4877
13800SOL    HW243601   6.610   4.416   4.324 -0.4046 -0.3911  0.2859
13801SOL     OW43602   0.022   1.317   2.285  0.1759 -0.0573  0.4607
13801SOL    HW143603   0.053   1.400   2.249 -0.1834 -0.2463 -0.3212
13801SOL    HW243604  -0.069   1.333   2.307 -0.6260 -0.8476 -1.8937
13802SOL     OW43605   4.821   8.515   2.866 -0.2645  0.0086 -0.1270
13802SOL    HW143606   4.738   8.559   2.883  0.0574 -0.2945  2.6065
13802SOL    HW243607   4.851   8.553   2.783 -2.2960  1.3566 -0.3201
13803SOL     OW43608   5.327   8.557   3.496 -0.4641 -0.6908 -0.2744
13803SOL    HW143609   5.285   8.624   3.550 -1.2238 -1.2750 -0.1181
13803SOL    HW243610   5.418   8.584   3.491 -0.1308 -1.1347  2.1486
13804SOL     OW43611   7.672   5.046   6.654 -0.3048  0.5162 -0.3147
13804SOL    HW143612   7.676   5.016   6.744  2.6730  2.3720  0.3245
13804SOL    HW243613   7.646   5.138   6.661  1.9520  1.2748 -1.0727
13805SOL     OW43614   0.006   5.693   3.475  0.0465  0.0443  0.2903
13805SOL    HW143615  -0.007   5.734   3.561 -2.3899  0.0937 -0.0481
13805SOL    HW243616  -0.015   5.762   3.413 -0.0787 -0.5511 -0.3351
13806SOL     OW43617   3.321   0.782   8.356 -0.2425 -0.3117  0.1507
13806SOL    HW143618   3.279   0.866   8.342  0.0289 -0.1160  0.4996
13806SOL    HW243619   3.272   0.721   8.300 -0.8212 -0.0398  0.3507
13807SOL     OW43620   6.744   6.324   2.030 -0.4010  0.1337 -0.3092
13807SOL    HW143621   6.649   6.320   2.018 -0.4192  1.4331 -0.8677
13807SOL    HW243622   6.768   6.237   2.062 -1.8676  0.0138  0.5763
13808SOL     OW43623   6.599   5.969   9.430  0.4345  0.0818 -0.4357
13808SOL    HW143624   6.614   5.876   9.414 -0.2684  0.2563 -2.2841
13808SOL    HW243625   6.601   6.009   9.344 -0.4609  1.6096  0.2123
13809SOL     OW43626   1.111   2.075   8.975  0.4169 -0.6318 -0.2620
13809SOL    HW143627   1.135   2.073   9.068  2.7636 -1.5042 -0.8134
13809SOL    HW243628   1.022   2.040   8.973  0.2216 -0.3576  1.6777
13810SOL     OW43629   1.621   9.339   3.349 -0.5433 -0.2089 -0.2592
13810SOL    HW143630   1.587   9.313   3.435 -0.7810  0.6062 -0.1058
13810SOL    HW243631   1.715   9.346   3.361 -0.2684 -2.3407 -0.6499
13811SOL     OW43632   2.821   9.540   3.673 -0.0257  0.1170  0.4384
13811SOL    HW143633   2.897   9.482   3.664 -0.0496  0.2719 -1.0605
13811SOL    HW243634   2.746   9.485   3.654  0.0163  0.7828 -1.9935
13812SOL     OW43635   1.179   8.717   7.506  0.2331 -0.5681  0.2913
13812SOL    HW143636   1.147   8.661   7.436 -0.2055 -1.7567  1.4089
13812SOL    HW243637   1.272   8.731   7.485  0.3782 -1.8029  0.0458
13813SOL     OW43638   0.108   6.967   2.571 -0.1215  0.4892  0.3529
13813SOL    HW143639   0.039   6.973   2.504  0.6331  0.0105 -0.4927
13813SOL    HW243640   0.115   6.874   2.590  3.0617 -0.0934 -2.6459
13814SOL     OW43641   5.901   8.985   8.689 -0.4518  0.0277  0.0612
13814SOL    HW143642   5.934   8.900   8.720 -0.2973 -1.1877 -3.0061
13814SOL    HW243643   5.810   8.987   8.716 -0.2033 -0.6694  0.9994
13815SOL     OW43644   4.150   6.928   4.398  0.5894  0.0240  0.9082
13815SOL    HW143645   4.067   6.881   4.404 -0.3391  1.6114  1.1739
13815SOL    HW243646   4.178   6.918   4.307  0.3351 -0.8732  0.9200
13816SOL     OW43647   0.871   1.107   0.379 -0.1988  0.0886 -0.3603
13816SOL    HW143648   0.884   1.101   0.285 -0.9837 -0.9881 -0.4142
13816SOL    HW243649   0.791   1.059   0.396 -0.5293  0.9781  0.7650
13817SOL     OW43650   3.872   6.384   2.126  0.3968  0.2634  0.2864
13817SOL    HW143651   3.854   6.478   2.118 -1.0089 -0.1485 -3.1999
13817SOL    HW243652   3.786   6.343   2.131  0.7982 -0.9574 -1.6260
13818SOL     OW43653   0.237   9.180   3.242  0.4260 -0.0633  0.2546
13818SOL    HW143654   0.265   9.256   3.191 -0.4003 -0.2998 -0.5795
13818SOL    HW243655   0.149   9.160   3.210 -0.6757  0.5193  2.6139
13819SOL     OW43656   7.098   6.821   0.661  0.8335  0.0696  0.2308
13819SOL    HW143657   7.043   6.867   0.598  2.2015 -1.8032 -2.5664
13819SOL    HW243658   7.141   6.890   0.710  0.2173  1.6826 -1.3784
13820SOL     OW43659   6.139   5.619   3.021 -0.2653 -0.0797  0.1449
13820SOL    HW143660   6.046   5.630   3.002 -0.1247  1.1090  0.0638
13820SOL    HW243661   6.183   5.633   2.938  0.0932  1.2754  0.5305
13821SOL     OW43662   5.243   5.218   6.216 -0.1381  0.4486  0.2641
13821SOL    HW143663   5.335   5.194   6.230 -0.7844 -1.7824  1.0685
13821SOL    HW243664   5.209   5.150   6.157 -1.7931 -0.0315  1.6976
13822SOL     OW43665   7.642   3.888   6.691  0.1950 -0.0919  0.3597
13822SOL    HW143666   7.567   3.831   6.706  0.0803 -0.0484 -0.0512
13822SOL    HW243667   7.674   3.863   6.604 -1.0129  1.7463 -0.6814
13823SOL     OW43668   2.131   3.524   9.327  0.1036  0.1251  0.2204
13823SOL    HW143669   2.073   3.592   9.361 -0.8800 -0.5738 -0.0081
13823SOL    HW243670   2.096   3.443   9.363  1.6876 -0.2208  1.0739
13824SOL     OW43671   8.085   2.453   6.296  0.2096 -0.0364  0.1525
13824SOL    HW143672   8.120   2.540   6.278 -0.3322  0.3762  1.0470
13824SOL    HW243673   8.000   2.452   6.253  0.4646 -0.3546 -0.3674
13825SOL     OW43674   3.823   5.028   5.780  0.0558  0.3292 -0.0114
13825SOL    HW143675   3.759   5.033   5.850  0.2023  0.5126  0.1095
13825SOL    HW243676   3.879   4.954   5.803 -1.6283 -1.4955 -1.3953
13826SOL     OW43677   3.222   9.113   5.213 -0.1518 -0.5857 -0.0804
13826SOL    HW143678   3.219   9.018   5.217  1.1806 -0.6120  1.4946
13826SOL    HW243679   3.298   9.137   5.266 -0.0519  1.3310 -0.9840
13827SOL     OW43680   8.710   5.148   3.432  0.1350  0.0469 -0.0547
13827SOL    HW143681   8.620   5.130   3.405 -0.2802 -1.9790  2.2209
13827SOL    HW243682   8.714   5.243   3.443 -1.8853  0.1562  0.1852
13828SOL     OW43683   7.169   6.978   0.113  0.2123  0.1770 -0.1465
13828SOL    HW143684   7.084   6.941   0.137 -0.4998  2.5856  1.3559
13828SOL    HW243685   7.165   6.987   0.018 -2.3246  2.5517  0.0543
13829SOL     OW43686   8.279   4.625   3.904 -0.6441  0.1432  0.9886
13829SOL    HW143687   8.370   4.620   3.873 -0.8681 -0.1154  0.3660
13829SOL    HW243688   8.229   4.574   3.841 -0.8730 -1.9727  2.7539
13830SOL     OW43689   0.484   0.819   5.677 -0.0580 -0.4151 -0.0642
13830SOL    HW143690   0.413   0.756   5.666 -0.8261  0.1375  1.4372
13830SOL    HW243691   0.528   0.793   5.758 -1.2888  1.7317  1.3969
13831SOL     OW43692   6.866   1.163   4.477 -0.9986 -0.5140 -0.2754
13831SOL    HW143693   6.957   1.185   4.496 -1.1168  0.2031 -0.5154
13831SOL    HW243694   6.846   1.089   4.535 -0.5775 -0.0218  0.5077
13832SOL     OW43695   1.911   1.147   9.147 -0.0518 -0.6184 -0.3580
13832SOL    HW143696   1.892   1.055   9.127  0.2323 -1.3017  2.2192
13832SOL    HW243697   1.858   1.166   9.224  0.3365  1.2419 -0.4995
13833SOL     OW43698   3.771   1.185   6.255  0.1504 -0.4846  0.2132
13833SOL    HW143699   3.841   1.249   6.243 -0.5409  0.4712  0.9947
13833SOL    HW243700   3.703   1.234   6.302  0.1551 -2.1886  2.1007
13834SOL     OW43701   0.472   4.308   8.677  0.2581 -0.1905  0.4503
13834SOL    HW143702   0.535   4.281   8.745 -0.0174 -2.1405  0.0048
13834SOL    HW243703   0.526   4.342   8.606  0.5549  1.8058  1.5721
13835SOL     OW43704   4.108   2.632   8.270  0.1860  0.4986 -0.3544
13835SOL    HW143705   4.183   2.670   8.317 -0.6191 -1.5755  2.9169
13835SOL    HW243706   4.039   2.697   8.281  0.5778  0.9498 -0.4934
13836SOL     OW43707   7.969   3.637   6.222  0.0264 -0.2962  0.7250
13836SOL    HW143708   7.979   3.726   6.255 -0.2794  0.1302 -0.3169
13836SOL    HW243709   8.059   3.607   6.207  0.1639 -0.4284  1.7275
13837SOL     OW43710   3.529   4.555   0.254 -0.1644  0.7216 -0.3893
13837SOL    HW143711   3.558   4.639   0.218 -1.1088  1.1807 -0.0875
13837SOL    HW243712   3.455   4.577   0.311 -0.9120 -0.4035 -0.9021
13838SOL     OW43713   0.023   1.132   5.184 -0.2075  0.5274  0.0234
13838SOL    HW143714   0.029   1.110   5.277 -0.4969  0.2312 -0.0282
13838SOL    HW243715  -0.068   1.158   5.171 -0.2666  0.1867 -0.2591
13839SOL     OW43716   5.404   7.287   6.068  0.3373  0.5486  0.3549
13839SOL    HW143717   5.434   7.371   6.034  1.2427  0.3484  0.6262
13839SOL    HW243718   5.434   7.286   6.159 -2.0622  1.1031  1.2397
13840SOL     OW43719   2.048   5.519   4.903 -0.0694  0.1962  0.1246
13840SOL    HW143720   2.141   5.535   4.889  0.5772 -0.3598  3.0846
13840SOL    HW243721   2.006   5.553   4.825  2.5807  0.7126 -1.1981
13841SOL     OW43722   3.590   2.723   2.371 -0.3733 -0.0543 -1.0300
13841SOL    HW143723   3.496   2.733   2.384 -0.7635 -2.2730 -1.5880
13841SOL    HW243724   3.609   2.635   2.405  1.8270  0.9462  0.5618
13842SOL     OW43725   5.748   4.756   4.418  0.1189 -0.0934 -0.2516
13842SOL    HW143726   5.796   4.673   4.427  0.5463  0.1026 -0.6519
13842SOL    HW243727   5.798   4.818   4.471  0.4040  0.1495 -0.7959
13843SOL     OW43728   3.297   0.728   6.531  0.2165 -0.3224 -0.1468
13843SOL    HW143729   3.359   0.707   6.601 -0.1683  1.3747  0.7584
13843SOL    HW243730   3.319   0.667   6.460  2.4269 -0.2734  0.4170
13844SOL     OW43731   6.302   4.954   9.337  0.3827  0.2717  0.1252
13844SOL    HW143732   6.384   4.986   9.375  0.5523 -0.7891  0.7159
13844SOL    HW243733   6.329   4.898   9.264  0.2272 -0.4356  0.5937
13845SOL     OW43734   4.586   7.646   6.420 -0.5020 -0.1595 -0.4888
13845SOL    HW143735   4.608   7.718   6.478 -0.8388 -0.9825  0.6861
13845SOL    HW243736   4.660   7.639   6.360 -0.6370  1.3876 -0.8676
13846SOL     OW43737   6.859   8.116   8.059 -0.7940 -0.5367  0.1507
13846SOL    HW143738   6.821   8.128   7.972 -0.2695 -0.2651 -0.0418
13846SOL    HW243739   6.878   8.205   8.090 -0.2959 -0.6675  0.2337
13847SOL     OW43740   7.039   3.452   8.227  0.0407  0.1041  0.2707
13847SOL    HW143741   7.000   3.502   8.298 -0.1842 -0.5508  0.6209
13847SOL    HW243742   7.066   3.517   8.163  0.4952  0.7191  1.0814
13848SOL     OW43743   7.099   6.512   1.498  0.1813  0.2974  0.1945
13848SOL    HW143744   7.065   6.422   1.494  1.3762 -0.2526 -5.4727
13848SOL    HW243745   7.034   6.565   1.453  2.2175  0.9499 -2.2141
13849SOL     OW43746   9.283   1.964   7.412 -0.1829 -0.0769  0.5150
13849SOL    HW143747   9.299   1.978   7.319  1.8343  2.3450  1.1511
13849SOL    HW243748   9.318   1.876   7.430 -0.9738 -0.7419 -1.0374
13850SOL     OW43749   4.326   6.432   0.320  0.1981  0.1428 -0.2389
13850SOL    HW143750   4.325   6.408   0.413  0.0341 -0.2529 -0.3438
13850SOL    HW243751   4.363   6.521   0.319  0.5171  0.0193  0.1736
13851SOL     OW43752   2.227   1.520   2.049 -0.6602 -0.5602  0.2171
13851SOL    HW143753   2.263   1.449   1.995 -0.2349 -0.9499  0.9899
13851SOL    HW243754   2.292   1.533   2.118 -0.1994  1.3537 -0.5285
13852SOL     OW43755   4.486   3.362   8.162 -0.2031  0.1348 -0.4486
13852SOL    HW143756   4.551   3.428   8.186 -0.4068  0.5720 -1.0689
13852SOL    HW243757   4.454   3.327   8.246  0.8800 -0.1413 -0.1425
13853SOL     OW43758   8.340   2.558   0.765  0.2690  0.2583 -0.4535
13853SOL    HW143759   8.333   2.635   0.709 -1.3493  1.2505  0.9844
13853SOL    HW243760   8.257   2.512   0.753 -0.0296  0.3895  0.9240
13854SOL     OW43761   7.029   7.830   1.450  0.3398 -0.1460 -0.2575
13854SOL    HW143762   6.953   7.812   1.506  1.2136 -1.2488  0.6303
13854SOL    HW243763   7.002   7.904   1.396 -1.5562 -0.8388 -0.3382
13855SOL     OW43764   6.186   4.687   9.554 -0.1179 -0.4087  0.4336
13855SOL    HW143765   6.214   4.754   9.491  0.0148 -0.3572  0.5473
13855SOL    HW243766   6.189   4.731   9.639  2.2533 -1.2074  0.8243
13856SOL     OW43767   4.359   4.657   6.662 -0.5945 -0.9317 -0.4519
13856SOL    HW143768   4.404   4.587   6.711  1.1816  0.3865 -0.0850
13856SOL    HW243769   4.370   4.735   6.716 -2.3207 -0.2780 -0.9708
13857SOL     OW43770   9.012   4.521   4.969  0.0506  0.3786 -0.2796
13857SOL    HW143771   8.958   4.549   4.895 -0.1015  1.5500  0.2586
13857SOL    HW243772   9.044   4.602   5.008  1.7216 -0.2648 -0.2064
13858SOL     OW43773   0.128   2.965   4.468 -0.0589  0.0289  0.0123
13858SOL    HW143774   0.178   3.010   4.536 -0.8781  0.5470  0.2824
13858SOL    HW243775   0.074   3.033   4.429 -0.7465 -0.5678 -0.0952
13859SOL     OW43776   0.509   7.549   6.013  0.1157 -0.8640 -0.2987
13859SOL    HW143777   0.549   7.634   5.995  0.1285 -0.5729  1.0339
13859SOL    HW243778   0.423   7.570   6.050 -0.4863 -1.4601 -1.3031
13860SOL     OW43779   2.415   1.349   4.243 -0.3758  0.0809 -0.1070
13860SOL    HW143780   2.341   1.407   4.230 -0.0303  0.8822  1.2504
13860SOL    HW243781   2.448   1.331   4.155 -1.1549  1.0619 -0.6162
13861SOL     OW43782   2.211   8.998   3.045 -0.5444 -0.9610  0.1293
13861SOL    HW143783   2.186   9.078   3.091 -1.1006 -1.5266  0.8349
13861SOL    HW243784   2.142   8.935   3.066  1.1343 -2.4095  1.7068
13862SOL     OW43785   1.522   5.581   0.541 -0.2882  0.5360 -0.4580
13862SOL    HW143786   1.460   5.611   0.608  0.7704  0.4924  0.5723
13862SOL    HW243787   1.608   5.592   0.582  0.2714 -1.6305 -0.9596
13863SOL     OW43788   1.777   6.641   7.372  0.7271  0.1226  0.1797
13863SOL    HW143789   1.744   6.698   7.441 -3.5414 -3.2611  1.3513
13863SOL    HW243790   1.712   6.648   7.302  2.7077  0.2266 -1.7791
13864SOL     OW43791   3.316   0.584   2.664 -0.0042  0.3383 -0.2179
13864SOL    HW143792   3.349   0.656   2.717  0.2783  0.6439 -0.7987
13864SOL    HW243793   3.221   0.586   2.676  0.1257 -0.2156  1.0450
13865SOL     OW43794   1.899   3.564   6.290 -0.0312  0.1639 -0.4300
13865SOL    HW143795   1.917   3.490   6.232  0.3338 -0.0966  0.0198
13865SOL    HW243796   1.970   3.626   6.273 -0.0068  0.1525 -0.3687
13866SOL     OW43797   0.752   5.660   5.982  0.1106  0.3058  0.1671
13866SOL    HW143798   0.769   5.672   5.888  1.4504 -1.1269  0.1796
13866SOL    HW243799   0.839   5.645   6.020 -0.6384 -1.8068  1.1991
13867SOL     OW43800   4.011   7.184   8.071  0.2015 -0.2510  0.1242
13867SOL    HW143801   3.962   7.186   8.153 -0.1601 -3.7125  0.1591
13867SOL    HW243802   3.945   7.198   8.003  0.3446  1.6555  0.3343
13868SOL     OW43803   7.863   4.355   0.804  0.3104  0.3265  0.4409
13868SOL    HW143804   7.779   4.322   0.772 -0.2817  0.1757  2.0545
13868SOL    HW243805   7.915   4.369   0.725 -1.2609  0.5109 -0.5990
13869SOL     OW43806   5.675   7.029   7.233  0.5229 -0.2268  0.0082
13869SOL    HW143807   5.649   7.095   7.298  0.6074 -0.2408  0.0576
13869SOL    HW243808   5.646   6.946   7.270 -0.6213 -0.1113 -0.5946
13870SOL     OW43809   4.167   1.780   6.707 -0.4567 -0.2535 -0.0452
13870SOL    HW143810   4.218   1.762   6.628 -0.5982  0.1621 -0.2320
13870SOL    HW243811   4.076   1.769   6.680 -0.4720 -3.6064  0.9066
13871SOL     OW43812   4.459   2.349   6.763 -0.5873 -0.4354  0.1817
13871SOL    HW143813   4.512   2.272   6.742 -1.4395 -1.4341  1.5131
13871SOL    HW243814   4.388   2.348   6.699  0.6499  0.6052 -1.2734
13872SOL     OW43815   3.518   3.640   7.384  0.5850  0.4246  0.1684
13872SOL    HW143816   3.585   3.702   7.357 -0.0507  0.9047 -0.3330
13872SOL    HW243817   3.443   3.659   7.327 -0.1906  0.3057  1.1245
13873SOL     OW43818   4.866   6.328   6.277 -0.0318  0.5513  0.4127
13873SOL    HW143819   4.921   6.398   6.243  0.1299  0.3353  0.2218
13873SOL    HW243820   4.804   6.309   6.206 -0.7854  1.2456  0.8786
13874SOL     OW43821   5.933   6.553   0.236 -0.1942 -0.5375  0.2711
13874SOL    HW143822   5.944   6.467   0.196  1.6947 -0.0019 -0.4524
13874SOL    HW243823   6.014   6.568   0.285  0.6446  1.8050 -1.6081
13875SOL     OW43824   2.803   2.582   5.373 -0.3731  0.3044  0.5064
13875SOL    HW143825   2.733   2.646   5.389  0.9414  1.7703  0.5814
13875SOL    HW243826   2.758   2.497   5.371 -1.8985  0.9778  2.5947
13876SOL     OW43827   1.152   7.949   4.680 -0.1688  0.2872 -0.0869
13876SOL    HW143828   1.153   7.934   4.775  1.0638  1.2509  0.0783
13876SOL    HW243829   1.064   7.922   4.653  0.4710 -3.2100  0.7740
13877SOL     OW43830   9.526   1.317   3.198 -0.1482  0.0589 -0.2506
13877SOL    HW143831   9.468   1.382   3.239 -0.4159 -0.3975  0.1027
13877SOL    HW243832   9.609   1.328   3.243  0.0777  0.7800 -0.8226
13878SOL     OW43833   7.105   4.399   5.006  0.2646  0.4970  0.6924
13878SOL    HW143834   7.148   4.360   4.930  0.8591 -1.4930  1.9981
13878SOL    HW243835   7.169   4.462   5.039  0.8234 -0.0564  0.6847
13879SOL     OW43836   0.706   8.697   3.739 -0.0762  0.0753 -0.1741
13879SOL    HW143837   0.750   8.648   3.669  1.0981  1.0311 -0.1316
13879SOL    HW243838   0.695   8.633   3.809  0.3431 -0.4448 -0.5696
13880SOL     OW43839   7.008   4.521   5.481 -0.2247  0.1318 -0.5307
13880SOL    HW143840   7.005   4.588   5.412  1.4068  1.5329  0.6778
13880SOL    HW243841   7.067   4.454   5.448 -2.7091 -1.3812 -2.2221
13881SOL     OW43842   9.499   7.621   3.163  0.1368  0.0523  0.2139
13881SOL    HW143843   9.491   7.598   3.256 -0.0774  0.5892  0.3286
13881SOL    HW243844   9.560   7.695   3.162 -0.6257  0.6844  0.0205
13882SOL     OW43845   2.691   9.212   3.982 -0.4321 -0.0380 -0.8382
13882SOL    HW143846   2.690   9.231   3.888  0.4423 -1.4106 -1.1490
13882SOL    HW243847   2.644   9.129   3.990  2.4147 -1.7580 -0.5644
13883SOL     OW43848   1.122   8.020   0.769  0.5655  0.6732  0.1014
13883SOL    HW143849   1.112   7.988   0.859  0.2459  0.8194  0.1207
13883SOL    HW243850   1.216   8.031   0.758  0.7431 -0.7851 -0.0866
13884SOL     OW43851   3.133   0.452   7.934 -0.0313 -0.3150 -0.0623
13884SOL    HW143852   3.177   0.396   7.998  0.8851  0.1252 -0.2881
13884SOL    HW243853   3.161   0.417   7.849 -3.2613 -2.5527 -0.3743
13885SOL     OW43854   4.672   4.157   0.844 -0.2607 -0.9067 -0.4111
13885SOL    HW143855   4.669   4.111   0.760 -1.2904 -1.6200 -0.0030
13885SOL    HW243856   4.688   4.088   0.909 -0.3091 -0.4787  0.0629
13886SOL     OW43857   4.291   5.312   2.379 -0.6200  0.3321  0.0797
13886SOL    HW143858   4.318   5.242   2.439  1.9503  1.6157  0.5533
13886SOL    HW243859   4.241   5.372   2.433  0.8838  1.0027  0.7862
13887SOL     OW43860   6.811   6.388   1.645  0.3103 -0.0028  0.5007
13887SOL    HW143861   6.789   6.362   1.556  1.1797 -2.0875  0.8324
13887SOL    HW243862   6.727   6.412   1.685 -0.0512  1.2605 -0.9301
13888SOL     OW43863   3.173   5.723   6.605 -0.0872 -0.3731  0.5131
13888SOL    HW143864   3.203   5.728   6.696  1.2090 -0.0548  0.0840
13888SOL    HW243865   3.090   5.675   6.610 -0.9571  1.1703  2.0651
13889SOL     OW43866   1.812   0.929   5.073 -0.5173  0.1803 -0.0935
13889SOL    HW143867   1.889   0.902   5.024 -0.5702 -1.1146  0.4956
13889SOL    HW243868   1.763   0.985   5.013 -0.2897 -0.8933 -1.3159
13890SOL     OW43869   8.911   3.537   4.584 -0.2183 -0.3019 -0.0393
13890SOL    HW143870   8.985   3.506   4.636  0.9597  1.5679 -0.4912
13890SOL    HW243871   8.881   3.459   4.537  0.2468 -1.4978  1.5463
13891SOL     OW43872   1.429   7.947   0.682  0.6042 -0.2779 -0.2308
13891SOL    HW143873   1.437   7.861   0.724 -0.2036  0.1640  0.9102
13891SOL    HW243874   1.476   8.006   0.741 -2.8859  0.8395  1.7715
13892SOL     OW43875   3.980   1.493   6.027 -0.5674 -0.3781  0.1304
13892SOL    HW143876   4.024   1.427   6.081  0.9278 -0.2371 -0.8630
13892SOL    HW243877   4.041   1.567   6.025 -1.3071  0.2349 -0.4580
13893SOL     OW43878   7.789   0.833   0.019 -0.1612 -0.3589 -0.7330
13893SOL    HW143879   7.876   0.796   0.026 -0.7358 -1.8589 -1.1159
13893SOL    HW243880   7.784   0.868  -0.070  0.6206  1.3356 -0.1455
13894SOL     OW43881   3.234   3.680   4.818 -0.0057  0.5067  0.1271
13894SOL    HW143882   3.231   3.736   4.895 -1.0150 -0.6672  0.9986
13894SOL    HW243883   3.297   3.611   4.840 -1.3437 -0.6435  0.5451
13895SOL     OW43884   3.073   1.180   7.300  0.0830 -0.5554 -0.3883
13895SOL    HW143885   3.091   1.100   7.351  1.3307  0.1267  0.2845
13895SOL    HW243886   3.153   1.231   7.307 -0.5330  0.5552 -1.2157
13896SOL     OW43887   5.991   1.340   7.651 -0.1112  0.3306  0.2922
13896SOL    HW143888   6.086   1.336   7.653 -0.1637 -1.9525  0.5408
13896SOL    HW243889   5.965   1.336   7.743 -0.4532 -2.7586  0.1594
13897SOL     OW43890   3.080   4.470   7.927 -0.1162 -0.1486  0.0780
13897SOL    HW143891   3.100   4.420   7.848 -0.8350 -0.1363 -0.1156
13897SOL    HW243892   3.024   4.411   7.979  0.8706 -0.4115  0.8770
13898SOL     OW43893   3.608   8.713   6.970  0.5169 -0.2561  0.4145
13898SOL    HW143894   3.550   8.650   6.928 -1.2431  0.4555  1.6431
13898SOL    HW243895   3.602   8.792   6.915  0.2738 -0.1639  0.5730
13899SOL     OW43896   4.129   8.447   2.487  0.0680 -0.0207  0.0137
13899SOL    HW143897   4.197   8.385   2.460  2.0553  2.2339 -0.5535
13899SOL    HW243898   4.102   8.490   2.406 -1.4107 -0.2315  0.3628
13900SOL     OW43899   5.494   5.678   2.759  0.1827  0.1635  0.0473
13900SOL    HW143900   5.419   5.714   2.712 -0.3561 -0.3092  0.5319
13900SOL    HW243901   5.471   5.586   2.773 -0.7953  0.7801  3.3499
13901SOL     OW43902   1.219   6.123   5.319 -0.2843 -0.4485 -0.6457
13901SOL    HW143903   1.240   6.187   5.387 -1.3292 -0.3587 -0.3928
13901SOL    HW243904   1.268   6.044   5.344  0.1589 -0.0941 -0.3767
13902SOL     OW43905   7.268   9.045   5.807 -0.2293  0.1499 -0.2670
13902SOL    HW143906   7.323   8.977   5.844 -1.0130 -2.1693 -3.0483
13902SOL    HW243907   7.304   9.061   5.720 -2.9487 -0.4053 -1.6134
13903SOL     OW43908   4.385   1.451   1.885  0.1494 -0.2594  0.2796
13903SOL    HW143909   4.478   1.456   1.905  0.1771 -1.4105  0.5027
13903SOL    HW243910   4.341   1.475   1.967  0.2462  0.0724  0.2351
13904SOL     OW43911   7.187   5.450   9.437 -0.3239  0.7716 -0.1510
13904SOL    HW143912   7.280   5.438   9.418  0.1294  2.5608  0.6992
13904SOL    HW243913   7.183   5.532   9.486 -2.1493 -0.1703  1.4413
13905SOL     OW43914   2.092   6.169   1.733  0.4618  0.2197  0.3358
13905SOL    HW143915   2.153   6.135   1.798  2.1458  1.0802 -0.7058
13905SOL    HW243916   2.126   6.256   1.712  0.3040 -0.2334 -2.0635
13906SOL     OW43917   6.687   6.738   0.805  0.8569  0.2260 -0.5370
13906SOL    HW143918   6.602   6.779   0.790 -1.1782 -3.0504  0.8362
13906SOL    HW243919   6.732   6.798   0.865 -0.8528  1.6004 -0.5434
13907SOL     OW43920   5.610   2.506   0.124 -0.1846  0.5524  0.4634
13907SOL    HW143921   5.539   2.503   0.059 -0.4831  1.8490  0.6900
13907SOL    HW243922   5.638   2.415   0.134 -3.3166 -0.3920  1.9887
13908SOL     OW43923   0.632   4.698   0.274  0.7344  0.2626 -0.3965
13908SOL    HW143924   0.726   4.703   0.256  1.3891  2.0459  2.7580
13908SOL    HW243925   0.620   4.613   0.317  1.1959  0.5731  0.3724
13909SOL     OW43926   8.250   7.035   7.551  0.2154 -0.3119 -0.6809
13909SOL    HW143927   8.192   7.020   7.476  1.5201 -1.6034 -1.4855
13909SOL    HW243928   8.335   7.056   7.512  0.6078  0.3184  0.4651
13910SOL     OW43929   6.607   5.817   4.668  0.7045  0.0725  0.1597
13910SOL    HW143930   6.658   5.829   4.588  0.0226  0.6981 -0.1973
13910SOL    HW243931   6.583   5.725   4.669 -0.4243  0.3215 -1.0788
13911SOL     OW43932   6.383   8.452   4.403 -0.0947  0.4744  0.2987
13911SOL    HW143933   6.476   8.432   4.413  0.0945  1.9646  2.1251
13911SOL    HW243934   6.338   8.390   4.460 -0.1425  0.3457  0.1201
13912SOL     OW43935   6.944   6.170   4.984 -0.5433 -0.4841  0.2171
13912SOL    HW143936   6.862   6.141   4.943 -0.2087 -0.5736 -0.4041
13912SOL    HW243937   6.923   6.179   5.077 -0.7499 -2.4350  0.3923
13913SOL     OW43938   7.379   2.836   2.929 -0.9165 -0.4239  0.5276
13913SOL    HW143939   7.396   2.814   3.021 -1.6833 -1.2701  0.4775
13913SOL    HW243940   7.298   2.791   2.908 -0.7436 -0.2469 -0.5780
13914SOL     OW43941   7.205   9.182   6.447 -0.0992 -0.1628 -0.1682
13914SOL    HW143942   7.111   9.198   6.449 -0.0152  0.3961 -0.4111
13914SOL    HW243943   7.243   9.264   6.414  0.5037 -0.2394  0.3052
13915SOL     OW43944   3.518   3.724   8.073  0.2211 -0.2864 -0.2468
13915SOL    HW143945   3.609   3.717   8.102  0.1862 -0.9759 -0.2819
13915SOL    HW243946   3.494   3.815   8.091  1.4464  0.3916 -1.8095
13916SOL     OW43947   0.204   5.572   6.271  0.1675 -0.8313 -0.0617
13916SOL    HW143948   0.209   5.533   6.184 -0.5511 -2.5891  0.6361
13916SOL    HW243949   0.252   5.654   6.263  2.4041 -2.1819 -1.4351
13917SOL     OW43950   5.841   6.466   1.577  0.1824  0.1905 -0.5704
13917SOL    HW143951   5.765   6.456   1.521 -2.2950  1.0332  2.3775
13917SOL    HW243952   5.830   6.400   1.645 -0.0970  2.6748  2.0181
13918SOL     OW43953   7.850   2.772   4.252 -0.4124 -0.3856 -0.3020
13918SOL    HW143954   7.796   2.851   4.254  0.5405  0.2854  0.1667
13918SOL    HW243955   7.932   2.801   4.212 -0.3536 -1.3548 -0.9160
13919SOL     OW43956   6.489   3.534   4.194 -0.3843  0.7335 -0.3983
13919SOL    HW143957   6.499   3.531   4.289 -0.0399  1.7773 -0.3805
13919SOL    HW243958   6.430   3.608   4.179 -1.1450  0.0172 -0.9574
13920SOL     OW43959   2.384   7.196   0.783 -0.1423 -0.0286 -0.1845
13920SOL    HW143960   2.329   7.119   0.764  0.7016 -0.7877  0.3775
13920SOL    HW243961   2.373   7.252   0.706  0.7824 -1.6353 -1.5655
13921SOL     OW43962   0.948   5.728   8.837  0.0572  0.1228  0.9526
13921SOL    HW143963   0.937   5.773   8.753  3.3414 -2.0141 -0.7947
13921SOL    HW243964   0.864   5.684   8.851 -0.5060  0.3063 -1.3783
13922SOL     OW43965   4.417   8.943   0.647 -0.1721  0.7502 -0.1723
13922SOL    HW143966   4.466   8.958   0.566 -1.6058  1.5723 -0.9087
13922SOL    HW243967   4.342   8.890   0.621 -0.7104  1.1177  0.5994
13923SOL     OW43968   5.244   7.405   6.668  0.6039 -0.1068  0.1920
13923SOL    HW143969   5.188   7.479   6.644 -0.3434 -1.6882 -3.1712
13923SOL    HW243970   5.194   7.358   6.735 -0.2173  0.6281  0.1106
13924SOL     OW43971   5.956   4.362   8.193 -0.0320  0.5036 -0.4125
13924SOL    HW143972   5.918   4.439   8.150  1.4769  0.1404 -2.5296
13924SOL    HW243973   6.042   4.352   8.153 -0.0268 -2.0837  0.0917
13925SOL     OW43974   0.488   2.130   8.890  0.1692 -0.1548 -0.2155
13925SOL    HW143975   0.479   2.080   8.809 -0.1004  0.6184 -0.6835
13925SOL    HW243976   0.410   2.110   8.940  0.2319 -0.4721 -0.2435
13926SOL     OW43977   6.299   8.179   4.846  0.2411 -0.0521 -0.0002
13926SOL    HW143978   6.386   8.168   4.883  0.0977 -1.8687 -0.0847
13926SOL    HW243979   6.239   8.151   4.916 -0.3460  1.9486  0.3488
13927SOL     OW43980   7.174   2.983   0.459 -0.2757 -0.3052 -0.6311
13927SOL    HW143981   7.088   3.020   0.480  0.0465 -0.2679  0.7062
13927SOL    HW243982   7.179   2.988   0.363 -2.5221 -1.9881 -0.9415
13928SOL     OW43983   8.733   9.400   9.388  0.1627  0.3856  0.1631
13928SOL    HW143984   8.707   9.346   9.463 -1.3187  1.6557  0.6311
13928SOL    HW243985   8.751   9.486   9.425  1.6762  0.4611 -0.6702
13929SOL     OW43986   1.773   8.365   7.992  0.2841  0.0554 -0.3517
13929SOL    HW143987   1.703   8.359   8.058  0.6454  1.0757  0.1358
13929SOL    HW243988   1.817   8.280   7.997 -0.3447 -0.2638 -0.0225
13930SOL     OW43989   2.101   3.951   0.292 -0.7157 -0.1158  0.5499
13930SOL    HW143990   2.155   3.995   0.357  0.9057 -0.8056 -0.2770
13930SOL    HW243991   2.021   3.927   0.339 -1.7965  3.7373  1.0092
13931SOL     OW43992   4.860   0.480   3.300  0.3061  0.6071  0.7099
13931SOL    HW143993   4.867   0.505   3.207  1.6707 -0.3266  0.5439
13931SOL    HW243994   4.772   0.510   3.325 -0.6363 -0.3013 -1.2439
13932SOL     OW43995   8.680   7.179   2.631  0.0025 -0.0285  0.6747
13932SOL    HW143996   8.691   7.271   2.606 -1.7241  0.4670  1.5951
13932SOL    HW243997   8.678   7.180   2.727  0.3029 -1.0907  0.7120
13933SOL     OW43998   6.964   9.073   6.644  0.0416 -0.4187 -0.5791
13933SOL    HW143999   6.930   9.143   6.589 -0.7030  0.4247  0.8920
13933SOL    HW244000   6.975   9.113   6.730  1.8114 -1.5181 -0.2361
13934SOL     OW44001   6.298   4.888   7.506  0.5321  0.4881  0.1676
13934SOL    HW144002   6.276   4.901   7.598  1.7678  0.1208  0.5186
13934SOL    HW244003   6.215   4.905   7.460  0.0973  1.4816  1.2642
13935SOL     OW44004   8.551   0.486   2.891  0.1708 -0.4257 -0.3370
13935SOL    HW144005   8.543   0.547   2.818 -0.2118 -0.7520 -0.5685
13935SOL    HW244006   8.486   0.514   2.954  0.7838  0.1110  0.0685
13936SOL     OW44007   3.954   1.474   4.570  0.5275  0.0752 -0.0610
13936SOL    HW144008   3.879   1.531   4.554  2.3093  3.0347  1.3007
13936SOL    HW244009   4.015   1.493   4.498  1.6150  0.8596  1.0209
13937SOL     OW44010   2.239   8.325   8.146  0.7967 -0.5066  0.0919
13937SOL    HW144011   2.304   8.362   8.206  0.2158  0.5708  0.0812
13937SOL    HW244012   2.227   8.235   8.177  0.9246 -0.1504  1.2493
13938SOL     OW44013   8.557   3.207   1.533 -0.0128  0.0477 -0.2138
13938SOL    HW144014   8.617   3.136   1.512  1.3171  1.4268 -1.3229
13938SOL    HW244015   8.483   3.194   1.474 -0.9136 -1.6964  1.1952
13939SOL     OW44016   4.373   7.388   6.742  0.3234  0.5287 -0.7791
13939SOL    HW144017   4.379   7.465   6.799 -1.3197 -0.5851  1.0246
13939SOL    HW244018   4.281   7.362   6.747  0.6254 -0.9510 -2.1905
13940SOL     OW44019   4.434   0.849   8.355  0.3124  0.8934  0.3338
13940SOL    HW144020   4.357   0.795   8.372  0.1391  0.4785 -1.4873
13940SOL    HW244021   4.399   0.938   8.347 -0.1223  0.6271 -1.0959
13941SOL     OW44022   3.354   8.066   4.031 -0.1427  0.5964 -0.4504
13941SOL    HW144023   3.264   8.035   4.024  0.2214 -1.7416  2.9285
13941SOL    HW244024   3.355   8.118   4.111  1.5269  0.5018 -0.3835
13942SOL     OW44025   4.755   6.145   7.355  0.5923  0.2103 -0.3076
13942SOL    HW144026   4.805   6.075   7.397  0.3494 -1.4206 -2.6049
13942SOL    HW244027   4.739   6.114   7.266 -1.6929  2.1206 -0.6613
13943SOL     OW44028   7.381   4.901   6.712  0.1539  0.0998 -0.3554
13943SOL    HW144029   7.399   4.980   6.662 -0.0453 -0.2710 -1.0353
13943SOL    HW244030   7.458   4.845   6.698  0.3799  0.2458  0.2781
13944SOL     OW44031   0.237   2.495   8.434  0.5840  0.4444 -0.7206
13944SOL    HW144032   0.313   2.445   8.465  0.1686 -0.1115 -0.5975
13944SOL    HW244033   0.276   2.567   8.384  1.2159  0.5978 -0.0239
13945SOL     OW44034   0.652   8.789   6.177  0.4371  0.0187 -0.0484
13945SOL    HW144035   0.612   8.832   6.252  0.3575 -1.8101  1.0131
13945SOL    HW244036   0.712   8.855   6.141  0.2158  1.0580  1.3933
13946SOL     OW44037   3.256   3.346   4.586 -0.0779  0.5814 -0.1261
13946SOL    HW144038   3.296   3.374   4.504  0.7347  0.4509  0.2144
13946SOL    HW244039   3.182   3.405   4.598  0.8825  1.8204 -0.0336
13947SOL     OW44040   4.879   4.682   3.798 -0.7232 -0.2960  0.3344
13947SOL    HW144041   4.831   4.663   3.879  1.6483 -1.9458  1.4839
13947SOL    HW244042   4.964   4.714   3.828 -0.3310  0.5447 -1.5592
13948SOL     OW44043   3.204   3.353   5.925 -0.3599  0.3704 -0.0198
13948SOL    HW144044   3.160   3.355   6.010 -1.2199 -1.3925 -0.3794
13948SOL    HW244045   3.286   3.401   5.939 -0.1121 -0.5503  2.0311
13949SOL     OW44046   7.724   2.351   4.733 -0.2236  0.4191 -0.9391
13949SOL    HW144047   7.693   2.272   4.777 -0.5674  0.8469 -0.4008
13949SOL    HW244048   7.812   2.366   4.769 -0.5274  0.8015 -0.3413
13950SOL     OW44049   2.958   8.433   2.168 -0.3030 -0.2669 -0.3922
13950SOL    HW144050   2.910   8.383   2.103  0.1536 -0.5783 -0.4979
13950SOL    HW244051   3.045   8.446   2.129  0.3249 -1.3499  0.5769
13951SOL     OW44052   7.615   1.131   2.966 -0.5485  0.3568  0.3553
13951SOL    HW144053   7.696   1.141   3.017 -0.2616 -0.6220  0.1274
13951SOL    HW244054   7.553   1.094   3.029 -0.0050 -1.4765 -0.1125
13952SOL     OW44055   2.858   0.944   0.654 -0.1507  0.0652 -0.4303
13952SOL    HW144056   2.879   0.858   0.616  0.0150 -0.2687  0.3890
13952SOL    HW244057   2.784   0.927   0.712  1.0524  0.0868  1.1738
13953SOL     OW44058   6.332   3.057   8.814 -0.9089  0.5316  0.4238
13953SOL    HW144059   6.280   3.138   8.816 -1.6874  0.0304  1.4132
13953SOL    HW244060   6.273   2.992   8.775 -1.6622 -0.4249  2.9410
13954SOL     OW44061   8.397   4.618   3.293 -0.0803  0.3804  0.7192
13954SOL    HW144062   8.354   4.587   3.214 -0.6093  1.7532  0.4435
13954SOL    HW244063   8.361   4.706   3.307  0.5866  0.4667  2.0403
13955SOL     OW44064   8.618   5.838   9.056 -0.3941 -0.1005  0.5773
13955SOL    HW144065   8.630   5.744   9.071  0.5923  0.1763  1.7072
13955SOL    HW244066   8.529   5.856   9.086 -0.6692 -0.7016  0.1470
13956SOL     OW44067   1.737   7.650   7.650 -0.1712 -0.1899 -0.2840
13956SOL    HW144068   1.704   7.578   7.703 -2.0586 -1.0108 -2.4190
13956SOL    HW244069   1.705   7.729   7.694 -1.7859 -0.8572 -0.1901
13957SOL     OW44070   3.928   3.348   5.679  0.1175  0.1639 -0.2145
13957SOL    HW144071   3.959   3.437   5.696 -2.0793  0.6689  1.6904
13957SOL    HW244072   3.935   3.303   5.764 -1.3831 -0.5975 -0.4600
13958SOL     OW44073   9.403   5.886   8.738 -0.0655 -0.0338  0.1841
13958SOL    HW144074   9.377   5.874   8.829  0.1439 -1.4852  0.0836
13958SOL    HW244075   9.340   5.948   8.703  0.0179  0.7623  1.3765
13959SOL     OW44076   0.461   0.306   4.418  0.1413 -0.1711 -0.7135
13959SOL    HW144077   0.402   0.279   4.488  0.6965 -0.9224 -0.5175
13959SOL    HW244078   0.487   0.395   4.441 -0.3706 -0.0909 -0.4352
13960SOL     OW44079   6.662   2.315   2.743  0.3079  0.8259  0.9561
13960SOL    HW144080   6.677   2.259   2.819  0.0666  1.1303  1.2329
13960SOL    HW244081   6.569   2.337   2.748 -0.6269 -2.0053 -1.4009
13961SOL     OW44082   9.356   6.930   1.379 -0.0305  0.3070  0.0223
13961SOL    HW144083   9.346   6.984   1.301 -0.1228  0.5636  0.2101
13961SOL    HW244084   9.266   6.915   1.410 -0.2426 -2.1800 -1.5242
13962SOL     OW44085   0.274   3.479   2.894  0.1205 -0.5403 -0.4117
13962SOL    HW144086   0.310   3.563   2.923 -1.8651  0.5150 -0.8243
13962SOL    HW244087   0.259   3.430   2.975  0.0709  0.0387 -0.0660
13963SOL     OW44088   8.574   6.867   3.719 -0.1419  0.6220  0.5889
13963SOL    HW144089   8.609   6.904   3.638 -1.8555 -0.8378 -0.8895
13963SOL    HW244090   8.482   6.894   3.720 -0.4731 -0.4702  1.3738
13964SOL     OW44091   6.642   4.633   7.185  0.3281  0.4818 -0.2709
13964SOL    HW144092   6.575   4.599   7.126 -0.4935  0.8786  0.4096
13964SOL    HW244093   6.722   4.589   7.157  0.1698  1.3336 -2.2716
13965SOL     OW44094   8.072   2.842   4.860 -0.3527 -0.6489 -0.3690
13965SOL    HW144095   8.106   2.803   4.940  1.3002 -1.0437 -1.2136
13965SOL    HW244096   8.082   2.937   4.873  0.6806 -0.7441 -0.4253
13966SOL     OW44097   4.362   7.724   1.891  0.4132  0.0847 -0.2244
13966SOL    HW144098   4.409   7.780   1.829 -1.1541  0.9049 -0.7281
13966SOL    HW244099   4.425   7.708   1.962  0.5518  3.7067  0.6733
13967SOL     OW44100   7.967   6.394   3.437 -0.3896  0.2083 -0.4305
13967SOL    HW144101   7.963   6.486   3.463 -1.7962 -0.1681  0.8233
13967SOL    HW244102   7.985   6.347   3.518  0.0054 -0.6568 -1.0035
13968SOL     OW44103   6.558   9.408   0.119  0.3087  0.0310  0.1003
13968SOL    HW144104   6.464   9.416   0.099  0.3084 -0.1897  0.0072
13968SOL    HW244105   6.592   9.351   0.050  0.5501  0.2659  0.0233
13969SOL     OW44106   4.461   4.767   3.732  0.4712  0.5474 -0.1568
13969SOL    HW144107   4.419   4.850   3.753  0.1977  0.8429 -1.7754
13969SOL    HW244108   4.531   4.790   3.671  0.9004 -0.3261 -0.0134
13970SOL     OW44109   0.944   2.390   2.118 -0.3324 -0.2513  0.3112
13970SOL    HW144110   0.850   2.407   2.128 -0.8310  0.1446 -3.5166
13970SOL    HW244111   0.949   2.311   2.064  1.5352 -0.0444  0.1082
13971SOL     OW44112   3.212   0.176   0.755  0.1583 -0.2316  0.7416
13971SOL    HW144113   3.205   0.192   0.661 -1.2574  1.2875  1.0554
13971SOL    HW244114   3.155   0.243   0.795  0.9488 -0.6514  2.6856
13972SOL     OW44115   3.840   1.916   2.498  0.2838  0.3902  0.5852
13972SOL    HW144116   3.782   1.854   2.453  1.6629 -2.4853  2.4294
13972SOL    HW244117   3.792   1.998   2.498 -1.8443 -0.7092 -1.7419
13973SOL     OW44118   0.931   2.993   6.356  0.1888  0.2609 -0.0540
13973SOL    HW144119   0.845   2.952   6.359  1.1148 -1.9082 -0.5817
13973SOL    HW244120   0.936   3.046   6.435 -2.0752  1.4770 -0.6545
13974SOL     OW44121   3.200   0.386   1.922  0.3376  0.0664  0.4405
13974SOL    HW144122   3.209   0.470   1.966 -0.5679  0.0229  0.7279
13974SOL    HW244123   3.264   0.389   1.851  0.8195  0.7005  0.8965
13975SOL     OW44124   1.738   9.319   3.903  0.3242 -0.0659  0.1534
13975SOL    HW144125   1.786   9.402   3.914  0.5410 -0.2204  0.3845
13975SOL    HW244126   1.696   9.306   3.988 -2.9089  1.7836 -1.0084
13976SOL     OW44127   2.157   2.649   3.923  0.0433  0.0161  0.5936
13976SOL    HW144128   2.129   2.660   3.832  1.3913  1.1166  0.2648
13976SOL    HW244129   2.161   2.738   3.957  0.6420 -0.3003  1.3757
13977SOL     OW44130   8.462   9.310   4.014 -0.0489 -0.2512 -0.6096
13977SOL    HW144131   8.412   9.356   3.947 -0.8319  0.1336  0.2116
13977SOL    HW244132   8.494   9.380   4.072 -1.7996 -0.7199  1.0224
13978SOL     OW44133   6.679   7.289   4.055  0.0726  0.6169  0.1925
13978SOL    HW144134   6.664   7.332   3.971 -0.9856 -0.5641 -0.2532
13978SOL    HW244135   6.624   7.338   4.117 -1.0688 -0.0064 -0.2960
13979SOL     OW44136   0.913   4.042   4.203  0.0689  0.3366  0.4504
13979SOL    HW144137   0.948   4.003   4.283 -0.7542  1.7171  1.5206
13979SOL    HW244138   0.989   4.078   4.158  0.4020  0.4959  1.1445
13980SOL     OW44139   4.076   4.996   2.406  0.4782  0.1655 -0.2040
13980SOL    HW144140   4.076   4.998   2.501  0.6824 -2.9307 -0.0400
13980SOL    HW244141   4.169   4.999   2.382  0.4475  0.4035 -0.3020
13981SOL     OW44142   1.114   3.040   1.737  0.2033 -0.2305  0.4157
13981SOL    HW144143   1.183   3.106   1.736 -1.0584  1.1580  0.9653
13981SOL    HW244144   1.060   3.062   1.813 -2.6435  0.7433 -1.7034
13982SOL     OW44145   1.420   4.858   9.051  0.0689 -0.1630 -0.1810
13982SOL    HW144146   1.494   4.797   9.047  0.7228  0.6522 -0.7060
13982SOL    HW244147   1.396   4.873   8.960 -0.9474 -0.6476 -0.0047
13983SOL     OW44148   0.425   8.760   2.970 -0.1472  0.1679  0.1544
13983SOL    HW144149   0.402   8.837   3.021 -3.1197 -1.2849  1.2351
13983SOL    HW244150   0.350   8.701   2.979  0.7212 -1.6882 -2.9817
13984SOL     OW44151   5.968   6.913   6.446  0.0584 -0.0584 -0.1283
13984SOL    HW144152   5.887   6.876   6.409 -0.2426 -2.0766  2.2395
13984SOL    HW244153   5.961   7.007   6.430 -1.3992 -0.4717 -2.4311
13985SOL     OW44154   4.610   5.294   7.277  0.2916 -0.0702  0.0421
13985SOL    HW144155   4.545   5.250   7.222 -2.0746  0.9019  1.8830
13985SOL    HW244156   4.670   5.335   7.215 -2.6144  1.5811 -1.9264
13986SOL     OW44157   3.013   3.198   9.328 -0.6605 -0.1054  0.1284
13986SOL    HW144158   3.018   3.107   9.356 -0.9113 -0.6309 -1.4637
13986SOL    HW244159   3.024   3.195   9.233 -0.2818  1.5646  0.0914
13987SOL     OW44160   7.478   2.522   0.523 -0.4822 -0.4450  0.5017
13987SOL    HW144161   7.386   2.534   0.500 -0.3724 -0.5962 -0.0347
13987SOL    HW244162   7.477   2.453   0.589 -0.6695 -1.1986 -0.2740
13988SOL     OW44163   2.633   4.579   8.343  1.0010  0.4033  0.6668
13988SOL    HW144164   2.617   4.674   8.340  0.0607  0.3429  2.3799
13988SOL    HW244165   2.704   4.569   8.407  0.3874 -0.1083  1.2780
13989SOL     OW44166   4.963   0.103   2.137 -0.0538 -0.3478 -0.4271
13989SOL    HW144167   4.961   0.011   2.112  0.2994 -0.3129 -0.5865
13989SOL    HW244168   4.958   0.102   2.233  0.7684 -0.5710 -0.3780
13990SOL     OW44169   1.687   1.649   8.130  0.2114 -0.0998  0.8236
13990SOL    HW144170   1.719   1.666   8.219 -0.3127 -2.0346  1.4114
13990SOL    HW244171   1.661   1.558   8.131 -0.6380  0.0899 -1.0946
13991SOL     OW44172   5.419   3.310   1.947  0.3813  0.1924 -0.4331
13991SOL    HW144173   5.355   3.380   1.932 -0.2358 -0.4483 -0.8093
13991SOL    HW244174   5.494   3.334   1.893 -0.8539 -0.8063 -2.7358
13992SOL     OW44175   0.505   4.520   2.134 -0.5732  0.4968  0.0032
13992SOL    HW144176   0.465   4.433   2.143 -0.6476  0.7215  2.8935
13992SOL    HW244177   0.597   4.505   2.155 -0.3012  0.8926 -0.9079
13993SOL     OW44178   6.619   5.074   3.476 -0.2812 -0.9187  0.0163
13993SOL    HW144179   6.638   4.982   3.459 -1.6661 -1.2245  0.0185
13993SOL    HW244180   6.592   5.109   3.391  0.4039 -0.4554 -0.0222
13994SOL     OW44181   7.232   6.081   1.803  0.1533 -0.2952  0.2172
13994SOL    HW144182   7.156   6.024   1.795  0.1116 -0.0427 -1.5191
13994SOL    HW244183   7.275   6.076   1.718  0.9716  1.1288  0.5137
13995SOL     OW44184   6.532   1.828   3.284  0.3392  1.0184 -0.3417
13995SOL    HW144185   6.514   1.804   3.374  0.8438  2.6688  0.2396
13995SOL    HW244186   6.615   1.785   3.263  1.5351  2.6199  0.8704
13996SOL     OW44187   4.982   8.156   0.812  0.3754 -0.2002 -0.4071
13996SOL    HW144188   5.004   8.084   0.871  0.5640  0.4246  0.3177
13996SOL    HW244189   4.894   8.135   0.780 -0.0180 -0.2374  0.6363
13997SOL     OW44190   0.834   0.105   0.770 -0.2998  0.1684 -0.6664
13997SOL    HW144191   0.920   0.067   0.751  0.2558  1.8946 -1.9242
13997SOL    HW244192   0.779   0.031   0.795  2.0722 -0.7445  2.3402
13998SOL     OW44193   5.250   7.233   2.088 -0.5229  0.5097 -0.0949
13998SOL    HW144194   5.172   7.207   2.138  0.4106 -1.9318  0.2605
13998SOL    HW244195   5.318   7.245   2.154  0.2793 -1.0428 -0.5670
13999SOL     OW44196   3.530   1.137   1.171 -0.0635  0.3785  0.2712
13999SOL    HW144197   3.558   1.187   1.095 -0.5528  2.2492  1.2491
13999SOL    HW244198   3.593   1.159   1.239 -1.4490  1.3384  1.3065
14000SOL     OW44199   2.252   0.588   9.277  0.5595  0.3645  0.1981
14000SOL    HW144200   2.342   0.557   9.285  0.5925  0.5761  0.6886
14000SOL    HW244201   2.239   0.598   9.183  0.2095 -2.1205 -0.0912
14001SOL     OW44202   7.676   6.366   8.528 -0.0624  0.1116 -0.1512
14001SOL    HW144203   7.606   6.420   8.565  0.0769  1.0796 -1.2444
14001SOL    HW244204   7.692   6.404   8.442  1.6554 -0.2524 -0.0181
14002SOL     OW44205   2.223   2.433   3.641  0.1374  0.3904  0.3362
14002SOL    HW144206   2.313   2.461   3.658  0.0807  0.6662  0.1842
14002SOL    HW244207   2.192   2.403   3.726  0.5589 -0.2475  0.2732
14003SOL     OW44208   8.790   2.202   0.141 -0.1570  0.2562 -0.1503
14003SOL    HW144209   8.826   2.178   0.055  0.8377  0.5056  0.1852
14003SOL    HW244210   8.833   2.284   0.163  0.2891 -0.2743  1.0013
14004SOL     OW44211   4.801   2.073   9.327 -0.0466  0.0818 -0.2700
14004SOL    HW144212   4.765   2.051   9.241 -0.4289  0.7516 -0.2849
14004SOL    HW244213   4.893   2.092   9.310 -0.1635  0.3907 -0.5591
14005SOL     OW44214   6.637   1.826   5.834 -0.2192 -0.1805  0.0164
14005SOL    HW144215   6.721   1.823   5.879 -0.3365  0.5967  0.3208
14005SOL    HW244216   6.572   1.823   5.905 -0.3987  1.8820  0.0134
14006SOL     OW44217   4.459   2.407   9.453 -0.0906 -0.0960  0.6496
14006SOL    HW144218   4.466   2.312   9.444  1.4815 -0.1262  1.7215
14006SOL    HW244219   4.499   2.441   9.373 -1.6574 -0.3023 -0.2594
14007SOL     OW44220   7.059   4.968   7.193  0.2516 -0.1251  0.2864
14007SOL    HW144221   7.130   5.028   7.170  1.8436 -2.1188 -0.3049
14007SOL    HW244222   7.033   4.928   7.110 -2.5624  1.4777  0.2611
14008SOL     OW44223   8.721   9.106   5.928  0.1484 -0.1215 -0.3582
14008SOL    HW144224   8.787   9.174   5.926 -0.0253  0.0949  0.6902
14008SOL    HW244225   8.754   9.042   5.991  0.1120 -0.8091 -1.0161
14009SOL     OW44226   4.520   5.671   1.448  0.3388 -0.0800 -0.0846
14009SOL    HW144227   4.603   5.713   1.474  0.2232 -0.6676  1.2994
14009SOL    HW244228   4.453   5.733   1.477  0.2466 -0.1921 -0.0634
14010SOL     OW44229   4.358   3.485   0.175  0.5254  0.1507 -0.3992
14010SOL    HW144230   4.375   3.405   0.126  0.7332 -0.5504  0.7660
14010SOL    HW244231   4.291   3.460   0.239  1.0423  0.7235  0.3918
14011SOL     OW44232   8.104   6.211   3.251  0.1604 -0.0772  0.0478
14011SOL    HW144233   8.056   6.278   3.299  2.1617  0.2267  1.7732
14011SOL    HW244234   8.041   6.177   3.187 -1.7035  1.5892  0.8977
14012SOL     OW44235   2.966   0.782   8.653  0.1093  0.1946  0.5844
14012SOL    HW144236   2.877   0.804   8.680 -0.6752 -0.1798 -1.4641
14012SOL    HW244237   3.016   0.863   8.665 -0.5829  0.5106  1.4249
14013SOL     OW44238   4.834   6.422   0.367  0.1559  0.4625  0.5837
14013SOL    HW144239   4.771   6.400   0.299  1.3185 -1.3606  0.0086
14013SOL    HW244240   4.782   6.461   0.437 -1.3214  0.6956 -0.5967
14014SOL     OW44241   4.911   4.668   9.329  0.0104  0.0673  0.3090
14014SOL    HW144242   4.952   4.586   9.359  1.6736 -0.2695 -2.4890
14014SOL    HW244243   4.967   4.737   9.363 -0.1281 -0.0664  0.8226
14015SOL     OW44244   1.075   7.945   3.651 -0.5516 -0.0063 -0.4825
14015SOL    HW144245   1.105   8.036   3.649 -0.0430 -0.1727 -0.5832
14015SOL    HW244246   1.071   7.920   3.559  1.1753 -0.6808 -0.4099
14016SOL     OW44247   4.647   9.045   0.250  0.0530  0.2200  1.3524
14016SOL    HW144248   4.632   9.136   0.226 -0.6506 -0.2843 -0.2504
14016SOL    HW244249   4.574   8.997   0.212  2.9470 -1.6898 -2.5326
14017SOL     OW44250   4.850   2.898   2.955  0.0227 -0.0563  0.3209
14017SOL    HW144251   4.764   2.940   2.965  0.4774  1.2101 -0.9287
14017SOL    HW244252   4.839   2.813   2.999 -1.4391  0.6310  1.3903
14018SOL     OW44253   6.731   5.322   6.830  0.5750  0.2411  0.0831
14018SOL    HW144254   6.741   5.362   6.744  1.4547  0.0802  0.1061
14018SOL    HW244255   6.754   5.391   6.893  1.1515 -0.0101  0.1504
14019SOL     OW44256   7.324   7.668   9.353  0.4676  0.0089 -0.1750
14019SOL    HW144257   7.307   7.598   9.415 -1.9480  0.5079 -0.1810
14019SOL    HW244258   7.297   7.748   9.398  0.4900  0.6063 -1.1765
14020SOL     OW44259   7.424   3.479   5.509 -0.0853  0.6974  0.0025
14020SOL    HW144260   7.411   3.497   5.603  0.9141  1.3111  0.0367
14020SOL    HW244261   7.430   3.383   5.504 -1.2062  0.5846  0.4061
14021SOL     OW44262   1.792   0.957   7.640 -0.0392  0.5791  0.2446
14021SOL    HW144263   1.722   0.917   7.691 -0.2221 -1.1441 -1.2766
14021SOL    HW244264   1.756   0.967   7.552  1.9029 -1.3043 -0.8536
14022SOL     OW44265   4.427   5.206   7.774  0.4890  0.7407 -0.5651
14022SOL    HW144266   4.482   5.166   7.706  0.1825 -0.4499 -0.1431
14022SOL    HW244267   4.473   5.286   7.798  1.5725  0.2300 -0.8644
14023SOL     OW44268   6.246   7.066   3.741 -0.0465 -0.0554  0.4354
14023SOL    HW144269   6.269   7.035   3.828 -1.9447 -0.2638  0.9099
14023SOL    HW244270   6.283   7.000   3.682 -0.4424 -0.9964  1.2049
14024SOL     OW44271   3.058   1.163   1.743  0.5210  0.0419  0.0350
14024SOL    HW144272   3.030   1.231   1.681  2.0700  0.9052  0.2176
14024SOL    HW244273   3.054   1.082   1.693 -0.7584  0.3355 -0.3860
14025SOL     OW44274   9.497   8.410   8.037 -0.6963  0.3105  0.0203
14025SOL    HW144275   9.471   8.336   8.093  1.0715 -0.2971  0.1214
14025SOL    HW244276   9.499   8.374   7.949  0.6717  0.0493  0.1313
14026SOL     OW44277   7.582   6.612   2.708  0.1284  0.1853 -0.2752
14026SOL    HW144278   7.526   6.594   2.632  0.9450  1.2176 -1.1621
14026SOL    HW244279   7.621   6.528   2.730 -0.8027 -0.3012 -0.4378
14027SOL     OW44280   2.976   1.151   2.356 -0.0393 -0.3200  0.1816
14027SOL    HW144281   3.027   1.129   2.278 -0.8031  0.2661 -0.4982
14027SOL    HW244282   2.967   1.068   2.402 -0.7941 -0.9846 -1.0914
14028SOL     OW44283   6.356   6.708   7.185 -0.4108 -0.1735 -0.3213
14028SOL    HW144284   6.449   6.710   7.207 -0.6382  1.8136  0.6623
14028SOL    HW244285   6.325   6.624   7.219  0.6291  0.0079  1.1697
14029SOL     OW44286   2.409   2.928   2.704 -0.2359  0.3358  0.2357
14029SOL    HW144287   2.504   2.917   2.696 -0.1699  1.0766 -0.0564
14029SOL    HW244288   2.391   3.012   2.663 -0.9466  0.4745  0.8196
14030SOL     OW44289   2.393   5.448   6.077  0.5474  1.3226 -0.4889
14030SOL    HW144290   2.460   5.413   6.135 -0.7381 -1.1037 -0.3411
14030SOL    HW244291   2.327   5.486   6.135  0.7176  1.6624 -0.5180
14031SOL     OW44292   0.585   0.754   0.479 -0.3264  0.1585 -0.4735
14031SOL    HW144293   0.669   0.721   0.448 -0.1985  0.5371 -0.5290
14031SOL    HW244294   0.521   0.689   0.448 -0.1329  0.2158 -1.0073
14032SOL     OW44295   2.129   5.856   7.937 -0.2104 -0.0312 -0.2747
14032SOL    HW144296   2.193   5.815   7.879 -2.0075 -1.2640 -1.4692
14032SOL    HW244297   2.148   5.950   7.931 -0.3186 -0.1001 -2.9055
14033SOL     OW44298   4.021   5.970   6.234 -0.2969  0.4220 -0.4277
14033SOL    HW144299   4.097   5.918   6.260 -0.8932 -0.7765 -0.9829
14033SOL    HW244300   4.055   6.059   6.224  0.7130  0.1981  0.7551
14034SOL     OW44301   0.865   8.376   0.227  0.1076 -0.1645 -0.4081
14034SOL    HW144302   0.838   8.298   0.275 -0.4723 -0.6186 -1.4407
14034SOL    HW244303   0.936   8.346   0.171  1.1545  0.4848  0.5253
14035SOL     OW44304   6.827   6.303   0.883 -0.7615 -0.6619  0.3340
14035SOL    HW144305   6.816   6.253   0.802 -2.8624  1.1963 -0.6565
14035SOL    HW244306   6.761   6.372   0.877  0.4544  0.8319  2.6697
14036SOL     OW44307   6.071   6.118   5.601  0.3761 -0.3686 -0.3626
14036SOL    HW144308   6.023   6.045   5.640  0.4059 -0.7993 -1.1083
14036SOL    HW244309   6.163   6.095   5.612  0.5206  1.0114  2.1381
14037SOL     OW44310   7.735   5.060   9.229  0.5003 -0.0502 -0.6671
14037SOL    HW144311   7.818   5.017   9.249 -0.2135 -0.2759  2.1959
14037SOL    HW244312   7.681   4.992   9.189  1.0218 -0.4496 -0.7035
14038SOL     OW44313   0.056   0.215   0.311 -0.1816 -0.6014 -0.4866
14038SOL    HW144314   0.110   0.219   0.232  0.6854 -1.5460  0.0365
14038SOL    HW244315   0.108   0.259   0.378 -0.1116 -1.3813 -0.0162
14039SOL     OW44316   0.002   3.907   5.481 -0.3349 -0.2067  0.0011
14039SOL    HW144317  -0.091   3.889   5.467 -0.1485  0.1134 -2.0752
14039SOL    HW244318   0.043   3.821   5.487 -0.6507 -0.3672 -0.1362
14040SOL     OW44319   9.029   1.612   2.007 -0.2680 -0.3113 -0.4717
14040SOL    HW144320   9.125   1.611   2.003 -0.1393 -0.8136  1.6209
14040SOL    HW244321   9.001   1.591   1.918  1.5751 -1.1146 -0.9070
14041SOL     OW44322   4.671   7.905   6.492 -0.6039 -0.1876 -0.1072
14041SOL    HW144323   4.732   7.976   6.473 -1.6809  1.0576  0.8577
14041SOL    HW244324   4.650   7.916   6.585 -0.2456 -2.2426  0.2650
14042SOL     OW44325   5.971   2.742   8.562  1.0246  0.6549 -0.1228
14042SOL    HW144326   5.971   2.647   8.553 -0.9648  0.3809  1.8149
14042SOL    HW244327   5.944   2.774   8.476 -0.0164 -0.6598 -0.3272
14043SOL     OW44328   3.188   8.113   9.196  0.0416  0.1428  0.0855
14043SOL    HW144329   3.112   8.089   9.144 -0.5776  0.1788  0.9670
14043SOL    HW244330   3.159   8.107   9.287  1.2169 -0.2862  0.4515
14044SOL     OW44331   7.440   4.787   5.576  0.1891 -0.3566 -0.6261
14044SOL    HW144332   7.387   4.851   5.529  0.3684  0.3715  0.1461
14044SOL    HW244333   7.388   4.706   5.571 -0.1531 -0.1008 -1.3924
14045SOL     OW44334   2.765   5.566   7.387 -0.3345 -0.2586 -0.0526
14045SOL    HW144335   2.686   5.615   7.366 -0.5301  0.5907  2.3600
14045SOL    HW244336   2.740   5.511   7.461  1.0180 -0.8934 -0.0369
14046SOL     OW44337   6.110   1.439   0.629 -0.4021  0.1233 -0.6806
14046SOL    HW144338   6.151   1.374   0.571 -0.0097 -0.7158  0.5060
14046SOL    HW244339   6.108   1.397   0.715 -1.5540  1.0998 -0.1983
14047SOL     OW44340   7.086   3.202   4.912  1.0388 -0.5379 -0.4970
14047SOL    HW144341   7.076   3.288   4.951 -0.6429 -1.0212  0.2728
14047SOL    HW244342   7.174   3.174   4.935  1.3931  0.7378 -0.2709
14048SOL     OW44343   2.212   1.432   5.965  0.3425  0.4898 -0.5241
14048SOL    HW144344   2.131   1.458   6.009  1.0013  3.1079 -0.7359
14048SOL    HW244345   2.198   1.456   5.873  1.4010  1.1390 -0.5287
14049SOL     OW44346   6.644   2.862   4.109  0.1198  0.0011 -0.4797
14049SOL    HW144347   6.651   2.866   4.204  3.3031 -1.6134 -0.5207
14049SOL    HW244348   6.586   2.788   4.092 -1.0426  0.7277  0.1282
14050SOL     OW44349   8.492   4.132   8.316 -0.0412 -0.1929 -0.4514
14050SOL    HW144350   8.428   4.090   8.372 -1.7793  2.0460 -0.5770
14050SOL    HW244351   8.563   4.158   8.375 -0.8711  0.3035  0.3514
14051SOL     OW44352   4.953   6.578   9.377  0.1029 -0.1884 -0.0421
14051SOL    HW144353   4.895   6.654   9.386  1.2791  0.5755  1.6300
14051SOL    HW244354   5.041   6.614   9.387  0.7405 -1.6824 -0.0196
14052SOL     OW44355   7.477   7.144   3.075 -0.9322 -0.7123 -0.0964
14052SOL    HW144356   7.452   7.117   2.987 -0.7099  0.0719 -0.4034
14052SOL    HW244357   7.451   7.236   3.081  0.8884 -0.1560 -0.0749
14053SOL     OW44358   3.248   3.402   8.311 -0.1632  0.4517  0.1500
14053SOL    HW144359   3.341   3.424   8.308 -0.1486  0.7586  1.8177
14053SOL    HW244360   3.215   3.426   8.224  1.2491  0.5920 -0.3761
14054SOL     OW44361   0.048   4.506   5.315  0.5532  0.1877 -0.0982
14054SOL    HW144362  -0.029   4.523   5.370  0.8073  0.2744  0.2327
14054SOL    HW244363   0.012   4.496   5.227 -0.0994 -1.9635  0.3508
14055SOL     OW44364   2.141   1.404   3.159  0.1403 -0.0870 -0.3654
14055SOL    HW144365   2.112   1.393   3.250  2.1576  1.2072  0.5050
14055SOL    HW244366   2.178   1.492   3.156  0.8232 -0.3868 -2.2503
14056SOL     OW44367   0.448   9.535   3.385  0.3628  0.2793  0.6914
14056SOL    HW144368   0.506   9.467   3.351 -0.4865 -0.6066  0.9738
14056SOL    HW244369   0.377   9.487   3.428 -1.0236  1.3038 -0.3476
14057SOL     OW44370   0.032   8.612   5.404  0.7271  0.3454 -0.3773
14057SOL    HW144371   0.089   8.542   5.374  0.7049 -0.2272  0.8636
14057SOL    HW244372  -0.053   8.592   5.367  0.2992 -1.2854  1.3609
14058SOL     OW44373   7.873   6.877   3.896  0.1157 -0.2298  0.2300
14058SOL    HW144374   7.894   6.948   3.957  0.3146 -0.3572  0.3112
14058SOL    HW244375   7.885   6.797   3.948 -1.7352 -0.2754  0.6573
14059SOL     OW44376   2.116   2.688   6.628  0.1602 -0.1583  0.0714
14059SOL    HW144377   2.177   2.683   6.701  2.3531  0.7659 -1.5785
14059SOL    HW244378   2.109   2.781   6.608 -0.7202 -0.3593 -0.6085
14060SOL     OW44379   7.277   4.432   2.418 -0.2658  0.2293 -0.1020
14060SOL    HW144380   7.195   4.413   2.372 -0.1900  0.0137 -0.1482
14060SOL    HW244381   7.336   4.465   2.350 -0.7402  1.6845  0.1614
14061SOL     OW44382   4.801   3.363   0.571 -0.5051 -0.0076 -0.0139
14061SOL    HW144383   4.893   3.362   0.544 -0.9335 -0.9229 -1.5276
14061SOL    HW244384   4.792   3.287   0.628 -0.5337 -0.4501 -0.6090
14062SOL     OW44385   1.847   9.207   1.571  0.1735  0.3647  0.0643
14062SOL    HW144386   1.880   9.239   1.654  1.0507 -0.5530  0.0858
14062SOL    HW244387   1.844   9.284   1.514  1.3754  0.6548  0.3798
14063SOL     OW44388   2.060   1.150   8.639 -0.0510  0.3564  0.1557
14063SOL    HW144389   1.975   1.193   8.630 -0.9256 -1.3377 -0.0388
14063SOL    HW244390   2.113   1.186   8.568 -0.7411  1.1362  0.0282
14064SOL     OW44391   4.504   8.743   7.245  0.2686  0.2086  0.6006
14064SOL    HW144392   4.450   8.756   7.167 -0.4756 -1.3257  0.8118
14064SOL    HW244393   4.490   8.822   7.297  1.5470  1.7246 -1.2066
14065SOL     OW44394   1.003   1.933   1.355  0.5018 -0.0164  0.5189
14065SOL    HW144395   0.944   2.007   1.375  1.8599  0.6531  2.3184
14065SOL    HW244396   0.958   1.857   1.390 -0.2694  0.1417 -0.0898
14066SOL     OW44397   1.593   3.307   0.098  0.1064  0.5617 -0.5498
14066SOL    HW144398   1.614   3.281   0.188 -3.5716  1.4873  0.7550
14066SOL    HW244399   1.599   3.227   0.047  0.4987 -0.3577  0.8808
14067SOL     OW44400   9.145   8.985   2.633 -0.1510  0.4730 -0.6403
14067SOL    HW144401   9.060   8.966   2.594 -0.6495  1.6025 -0.1525
14067SOL    HW244402   9.134   9.071   2.673 -0.1308 -1.2087  3.3532
14068SOL     OW44403   5.215   6.090   3.129  0.4685  0.2897  0.2368
14068SOL    HW144404   5.182   6.129   3.048 -0.7513  2.5400  1.7144
14068SOL    HW244405   5.145   6.103   3.192  0.8634 -2.5513  1.4103
14069SOL     OW44406   2.868   0.664   7.125 -0.4376 -0.3867 -0.1706
14069SOL    HW144407   2.922   0.739   7.100  1.5936 -1.9064 -0.6534
14069SOL    HW244408   2.811   0.697   7.195  0.5561  1.5211 -0.1974
14070SOL     OW44409   2.493   3.426   6.976  0.2391 -0.1781 -0.3114
14070SOL    HW144410   2.462   3.495   7.035 -0.0656 -0.8602  0.3317
14070SOL    HW244411   2.439   3.437   6.897 -2.6492 -2.1299  1.2302
14071SOL     OW44412   4.539   9.486   5.949  0.0981 -0.9778  0.1599
14071SOL    HW144413   4.508   9.395   5.951  0.5650 -1.1971 -1.3788
14071SOL    HW244414   4.589   9.492   5.868  0.6030  0.4947  0.5599
14072SOL     OW44415   8.723   1.682   8.479 -0.0161  0.5350  0.1550
14072SOL    HW144416   8.658   1.612   8.478 -0.0285  0.5436 -0.7933
14072SOL    HW244417   8.681   1.753   8.528  0.5051 -0.5507  2.2780
14073SOL     OW44418   7.235   7.880   5.422 -0.0477  0.1124 -0.4119
14073SOL    HW144419   7.235   7.868   5.327  1.7374 -0.9786 -0.3237
14073SOL    HW244420   7.144   7.895   5.444 -0.4185  1.0873 -2.3675
14074SOL     OW44421   6.274   3.042   0.562 -0.2090  0.4950  0.2480
14074SOL    HW144422   6.213   3.037   0.488  0.3027  0.6170 -0.1927
14074SOL    HW244423   6.302   3.134   0.562  1.1389  0.1156 -0.5230
14075SOL     OW44424   4.913   8.625   9.300  0.4998 -0.4939 -0.1029
14075SOL    HW144425   4.913   8.708   9.252  1.1345 -0.8415 -0.7216
14075SOL    HW244426   4.957   8.564   9.241  1.7429 -0.8219  1.1192
14076SOL     OW44427   7.543   4.153   8.735 -0.1754 -0.2023  0.1962
14076SOL    HW144428   7.623   4.180   8.689  1.0133 -2.5218  0.6917
14076SOL    HW244429   7.472   4.178   8.678  0.9542  1.2988 -0.6163
14077SOL     OW44430   9.062   7.738   7.899 -0.5620 -0.4921 -0.1034
14077SOL    HW144431   9.049   7.685   7.977  0.6989  0.5786  0.8753
14077SOL    HW244432   9.109   7.815   7.930 -0.6386  0.2783 -1.8105
14078SOL     OW44433   7.815   4.587   5.423 -0.2348 -0.6229 -0.5579
14078SOL    HW144434   7.815   4.655   5.490 -0.5924 -0.3911 -0.7891
14078SOL    HW244435   7.888   4.609   5.366  0.7220 -1.4032  0.3307
14079SOL     OW44436   3.823   2.685   1.365  0.2203  0.2395  0.1321
14079SOL    HW144437   3.757   2.690   1.435  0.2644 -0.1537  0.2035
14079SOL    HW244438   3.825   2.593   1.341  1.1709  0.1431  0.5385
14080SOL     OW44439   2.325   4.403   7.896 -0.2838  0.2596 -0.0111
14080SOL    HW144440   2.242   4.403   7.943 -0.1270 -1.5503  0.3209
14080SOL    HW244441   2.318   4.329   7.835  1.0874  0.0775  0.0306
14081SOL     OW44442   0.096   5.494   2.594  0.4524 -0.0556 -0.2432
14081SOL    HW144443   0.130   5.541   2.670 -2.1036  1.2412  0.1970
14081SOL    HW244444   0.042   5.558   2.549 -2.1254 -2.1790 -0.3831
14082SOL     OW44445   1.661   2.049   0.265 -0.1264 -0.0153  0.0703
14082SOL    HW144446   1.673   1.970   0.213  1.6372  0.4292 -0.2399
14082SOL    HW244447   1.590   2.027   0.326 -1.4891 -0.9081 -1.7613
14083SOL     OW44448   0.368   8.973   3.147 -0.5220 -0.6221  0.2448
14083SOL    HW144449   0.315   9.042   3.187  0.0960 -0.0120  0.0400
14083SOL    HW244450   0.384   8.911   3.218 -0.8716 -0.4285  0.4976
14084SOL     OW44451   0.985   4.085   1.725 -0.0203  0.7416  0.0610
14084SOL    HW144452   1.026   4.093   1.639  0.6005  1.1843  0.3938
14084SOL    HW244453   1.019   4.158   1.776  1.7801 -1.0161  1.5434
14085SOL     OW44454   7.787   0.901   0.284  0.4647 -0.1759 -0.5120
14085SOL    HW144455   7.799   0.875   0.192 -1.1956 -1.7643 -0.3228
14085SOL    HW244456   7.794   0.996   0.282  0.8478 -0.1981 -2.2330
14086SOL     OW44457   6.008   4.893   2.565 -0.2004 -0.0496  0.0576
14086SOL    HW144458   5.966   4.933   2.489  0.3420  4.4010  1.8046
14086SOL    HW244459   5.936   4.859   2.618 -0.6847 -1.7142 -1.5566
14087SOL     OW44460   5.477   8.760   6.399 -0.4275 -0.3152 -0.0696
14087SOL    HW144461   5.503   8.705   6.472 -1.6464 -0.4624  0.2898
14087SOL    HW244462   5.503   8.712   6.321 -0.3350 -0.8012  0.2584
14088SOL     OW44463   0.237   8.347   2.294  0.3376 -0.3496 -0.5331
14088SOL    HW144464   0.302   8.369   2.227 -0.1229  0.4255 -0.7458
14088SOL    HW244465   0.154   8.343   2.246 -0.0485  0.5346  0.0314
14089SOL     OW44466   1.566   8.996   5.810 -0.6111  0.5438 -0.0865
14089SOL    HW144467   1.472   8.998   5.796 -0.5796  3.0188 -0.3792
14089SOL    HW244468   1.604   9.016   5.725  0.1696  0.0618  0.1321
14090SOL     OW44469   1.149   8.425   5.299 -0.1485  0.0836  0.2642
14090SOL    HW144470   1.223   8.380   5.258  0.9518  1.2271  0.9529
14090SOL    HW244471   1.159   8.408   5.393 -1.3504 -0.5901  0.2948
14091SOL     OW44472   3.168   1.370   6.571  0.4168  0.0473  0.1483
14091SOL    HW144473   3.262   1.379   6.555  0.1227  0.9373 -1.3380
14091SOL    HW244474   3.158   1.285   6.613  1.9812  0.4351  1.3784
14092SOL     OW44475   1.237   0.829   3.416  0.7527  0.3014 -0.0548
14092SOL    HW144476   1.170   0.790   3.361  0.1691  0.6998  0.3662
14092SOL    HW244477   1.190   0.891   3.472  1.3296 -0.0841  0.8891
14093SOL     OW44478   2.448   8.132   5.124  0.0470 -0.3134 -0.3025
14093SOL    HW144479   2.408   8.077   5.191 -1.6130  2.4458  1.1422
14093SOL    HW244480   2.525   8.169   5.167 -0.7113  1.0309 -0.0433
14094SOL     OW44481   4.698   9.265   7.375  0.1036 -0.3054 -0.2553
14094SOL    HW144482   4.675   9.357   7.363 -2.3503 -0.7847  0.0242
14094SOL    HW244483   4.628   9.231   7.431 -0.2707 -2.8071 -2.0771
14095SOL     OW44484   1.658   8.462   8.463 -0.6172  0.6213  0.0492
14095SOL    HW144485   1.586   8.434   8.407  0.7612 -1.6418 -0.7323
14095SOL    HW244486   1.621   8.461   8.552 -2.0776  1.6083 -0.5086
14096SOL     OW44487   1.860   0.766   0.055 -0.2600  0.5009  0.0917
14096SOL    HW144488   1.859   0.675   0.026  0.8727 -0.0054  1.4991
14096SOL    HW244489   1.770   0.784   0.081 -0.1300 -0.9569  1.8092
14097SOL     OW44490   4.971   0.326   8.692  0.7246 -0.3659  0.3236
14097SOL    HW144491   4.954   0.410   8.648  1.2956  0.0002  0.7877
14097SOL    HW244492   4.901   0.320   8.758  0.1089 -0.7229 -0.3458
14098SOL     OW44493   2.397   3.114   2.271 -0.0917 -0.8106  0.3302
14098SOL    HW144494   2.310   3.099   2.310 -1.7965 -1.2349 -3.2436
14098SOL    HW244495   2.400   3.208   2.256 -0.3941 -0.9134 -0.4259
14099SOL     OW44496   0.301   5.751   3.580  0.0737  0.3837 -0.1798
14099SOL    HW144497   0.304   5.665   3.622 -1.7940  1.0912  1.6219
14099SOL    HW244498   0.278   5.732   3.489 -0.3236 -1.0366  0.1794
14100SOL     OW44499   4.437   9.566   6.420  0.4124  0.1528  0.2102
14100SOL    HW144500   4.344   9.580   6.441  0.4565 -0.8672  1.1358
14100SOL    HW244501   4.483   9.582   6.502  0.8011 -1.7312  0.3955
14101SOL     OW44502   2.484   3.675   5.902 -0.0084 -0.2688  0.8235
14101SOL    HW144503   2.567   3.659   5.947  0.3652  0.4383  0.4053
14101SOL    HW244504   2.510   3.697   5.813 -0.5690  1.2412  1.0155
14102SOL     OW44505   8.683   6.490   7.832  0.0567  0.5651  0.3419
14102SOL    HW144506   8.767   6.461   7.796  0.3528  1.3551  0.3824
14102SOL    HW244507   8.650   6.552   7.767 -0.3845  0.4359  0.4435
14103SOL     OW44508   9.393   6.765   7.046  0.2199 -1.0970 -0.4710
14103SOL    HW144509   9.341   6.810   6.979  0.6852 -0.0439 -0.1495
14103SOL    HW244510   9.448   6.834   7.084  0.8282 -1.9118  0.1705
14104SOL     OW44511   2.361   6.215   8.724 -0.1591  0.2517  0.0548
14104SOL    HW144512   2.314   6.176   8.651 -0.1403 -0.3656  0.3664
14104SOL    HW244513   2.434   6.262   8.683  0.7996 -1.4201 -0.2476
14105SOL     OW44514   7.687   7.657   6.299 -0.0591 -0.2445 -0.5627
14105SOL    HW144515   7.766   7.619   6.337 -0.0240  0.1875 -0.1951
14105SOL    HW244516   7.649   7.587   6.246 -0.5671 -1.1180  0.9283
14106SOL     OW44517   2.015   1.236   0.311 -0.6378  0.5342 -0.2726
14106SOL    HW144518   1.953   1.304   0.283 -1.0811 -0.4180 -1.6865
14106SOL    HW244519   1.959   1.166   0.346 -0.1638  1.0223  1.5885
14107SOL     OW44520   4.282   3.655   6.608 -0.0961 -0.5159  0.0790
14107SOL    HW144521   4.280   3.751   6.605 -0.2573 -0.4943  0.7234
14107SOL    HW244522   4.284   3.634   6.702  0.5178 -1.1336 -0.0608
14108SOL     OW44523   2.362   5.893   6.196 -0.2595 -0.8158 -0.4974
14108SOL    HW144524   2.454   5.888   6.172 -0.0186  0.1418  0.1973
14108SOL    HW244525   2.333   5.978   6.162 -0.3017 -0.1189  1.2033
14109SOL     OW44526   1.937   5.607   3.267  0.2476  0.6175  0.4187
14109SOL    HW144527   1.956   5.682   3.211  0.7768 -0.2153 -0.5688
14109SOL    HW244528   2.022   5.564   3.279 -0.2278 -0.5122 -0.0862
14110SOL     OW44529   4.032   6.803   0.907  0.0695 -0.2121  0.4036
14110SOL    HW144530   4.108   6.762   0.949 -0.1744  1.2293  2.3927
14110SOL    HW244531   4.031   6.892   0.941 -1.9064  0.1212 -0.4019
14111SOL     OW44532   1.765   4.508   1.649 -0.2829 -0.1689  0.3091
14111SOL    HW144533   1.714   4.585   1.674  2.1963  2.1235 -1.0758
14111SOL    HW244534   1.841   4.509   1.708  0.1495 -1.1273 -0.2068
14112SOL     OW44535   4.980   3.467   1.480  0.2104 -0.2428 -0.4232
14112SOL    HW144536   4.922   3.481   1.405  0.2377 -1.5931 -0.7217
14112SOL    HW244537   5.064   3.504   1.454  0.0490 -0.1580 -0.8289
14113SOL     OW44538   1.484   7.214   2.075  0.1942  0.2688  0.5961
14113SOL    HW144539   1.536   7.176   2.145  0.4564 -1.1306 -0.3207
14113SOL    HW244540   1.429   7.142   2.043  0.9448  0.5181 -1.4102
14114SOL     OW44541   4.868   9.096   6.528 -1.0455  0.1336 -0.0594
14114SOL    HW144542   4.810   9.171   6.514  2.1645  2.7588 -0.4549
14114SOL    HW244543   4.893   9.102   6.620 -0.0129  0.1663 -0.3335
14115SOL     OW44544   0.906   3.525   6.532 -0.2904 -0.3380  0.1152
14115SOL    HW144545   0.956   3.491   6.605 -1.5487 -1.8949  0.2903
14115SOL    HW244546   0.853   3.596   6.570 -0.3955 -0.6496  0.5529
14116SOL     OW44547   2.416   6.951   7.266 -0.3648  0.1759  0.2104
14116SOL    HW144548   2.450   6.878   7.214  0.9289  0.1969  0.9867
14116SOL    HW244549   2.481   6.964   7.335 -1.5641  0.7740  1.2754
14117SOL     OW44550   1.067   0.995   2.785  0.2076 -0.1251 -0.2727
14117SOL    HW144551   1.145   1.043   2.756 -0.0260 -0.0707 -0.8054
14117SOL    HW244552   0.996   1.059   2.781  0.2649  0.0471  0.9550
14118SOL     OW44553   9.520   6.976   7.166  0.4932  0.0982  0.5886
14118SOL    HW144554   9.539   7.016   7.251 -0.7952  1.5837  0.2283
14118SOL    HW244555   9.537   7.046   7.103 -1.7294  0.1031 -0.0838
14119SOL     OW44556   1.810   1.507   3.187 -0.0691  0.3156  0.1778
14119SOL    HW144557   1.752   1.490   3.262  1.6057 -0.1418  1.4196
14119SOL    HW244558   1.806   1.426   3.136 -1.0548  0.5484 -0.1396
14120SOL     OW44559   5.007   5.125   8.433  0.1831  0.1936 -0.3328
14120SOL    HW144560   5.015   5.103   8.340  0.2984  0.6371 -0.4288
14120SOL    HW244561   5.032   5.217   8.438 -2.1421  0.8796 -0.2337
14121SOL     OW44562   1.317   6.585   8.586 -0.2273  0.2087 -0.0606
14121SOL    HW144563   1.285   6.660   8.536  0.1965 -1.0841 -2.4040
14121SOL    HW244564   1.239   6.532   8.603 -0.1957  0.0600 -0.3878
14122SOL     OW44565   7.389   4.093   2.035 -0.4646  0.6623 -0.2714
14122SOL    HW144566   7.424   4.180   2.055 -0.2220  0.4315  0.3275
14122SOL    HW244567   7.295   4.108   2.022 -0.3887  1.0488 -0.3911
14123SOL     OW44568   1.814   8.856   5.450  0.3215 -0.1159 -0.0726
14123SOL    HW144569   1.818   8.861   5.354  0.3820 -0.1989 -0.0744
14123SOL    HW244570   1.749   8.922   5.475  0.9331  0.5186 -0.1115
14124SOL     OW44571   9.190   8.666   3.312  0.4314 -0.5453 -0.0949
14124SOL    HW144572   9.162   8.696   3.398  1.5034 -2.0263  0.7950
14124SOL    HW244573   9.155   8.732   3.252  0.0907  0.7879  1.4964
14125SOL     OW44574   6.251   3.309   1.496  0.0479 -0.5147  0.1186
14125SOL    HW144575   6.332   3.317   1.445 -0.4751 -1.8034 -0.9945
14125SOL    HW244576   6.196   3.250   1.443 -1.5421  0.1902  0.9304
14126SOL     OW44577   2.363   3.527   8.742 -0.3227 -0.2899 -0.1262
14126SOL    HW144578   2.273   3.516   8.773  0.3194 -0.9899  1.6300
14126SOL    HW244579   2.378   3.451   8.684 -0.2800 -1.2772  1.1267
14127SOL     OW44580   7.418   2.396   1.593  0.3410  0.2040 -0.0002
14127SOL    HW144581   7.388   2.460   1.528 -0.9806 -1.5287 -1.2019
14127SOL    HW244582   7.342   2.384   1.650  0.2489 -0.8920 -0.3240
14128SOL     OW44583   5.614   5.189   9.034 -0.1583  0.5197 -0.1906
14128SOL    HW144584   5.700   5.150   9.018 -0.6553 -0.3337 -0.8490
14128SOL    HW244585   5.590   5.230   8.950 -0.4214  0.6922 -0.0329
14129SOL     OW44586   1.907   8.770   4.950  0.5686  0.1357 -0.7180
14129SOL    HW144587   1.839   8.713   4.915  0.7232 -0.5162  0.0340
14129SOL    HW244588   1.938   8.820   4.873  0.0746 -0.4130 -1.2812
14130SOL     OW44589   5.758   5.453   3.317  0.2885  0.3057 -0.0850
14130SOL    HW144590   5.676   5.495   3.341 -0.1532 -0.1088 -0.8410
14130SOL    HW244591   5.826   5.506   3.360 -0.3151  1.1820 -0.1952
14131SOL     OW44592   2.920   0.124   2.381 -0.4477  0.4756 -0.7556
14131SOL    HW144593   2.984   0.078   2.435 -0.3232  1.0058 -0.4420
14131SOL    HW244594   2.877   0.055   2.330 -0.1501  0.0355 -0.4178
14132SOL     OW44595   2.129   8.610   7.596  0.1822  0.2535 -0.2710
14132SOL    HW144596   2.160   8.623   7.686 -1.5272 -2.3807  0.8323
14132SOL    HW244597   2.071   8.685   7.580  2.3185  2.0359 -0.1739
14133SOL     OW44598   9.160   8.356   1.609  0.3921  0.2722  0.1337
14133SOL    HW144599   9.104   8.285   1.579 -0.6350  1.3144 -0.4640
14133SOL    HW244600   9.167   8.416   1.534  3.0830 -0.2550 -0.1613
14134SOL     OW44601   2.920   5.087   8.827  0.2703  0.1963 -0.1551
14134SOL    HW144602   2.883   4.998   8.828 -1.7628  0.9863 -0.0233
14134SOL    HW244603   2.952   5.101   8.916 -1.2118  0.2688  0.3932
14135SOL     OW44604   2.127   7.155   3.222 -0.6375  0.3731  0.2067
14135SOL    HW144605   2.114   7.146   3.317  0.1076 -1.1381  0.2018
14135SOL    HW244606   2.220   7.175   3.213 -0.5812 -0.0855 -0.2296
14136SOL     OW44607   0.224   4.100   3.649  0.5908 -0.3101  0.1047
14136SOL    HW144608   0.255   4.191   3.644 -3.0332  1.1276  0.8440
14136SOL    HW244609   0.144   4.099   3.597 -0.4894 -2.5947  1.6457
14137SOL     OW44610   3.473   5.038   8.111 -0.3937 -0.0350 -0.2596
14137SOL    HW144611   3.558   5.080   8.112 -0.9313  1.1125 -0.8958
14137SOL    HW244612   3.463   5.001   8.199  1.2382 -1.2203 -0.5378
14138SOL     OW44613   3.567   0.906   1.021 -0.3768  0.4745  0.0992
14138SOL    HW144614   3.583   0.962   1.097  0.0214 -1.6619  1.6550
14138SOL    HW244615   3.573   0.966   0.946  0.7460  2.3714  1.6109
14139SOL     OW44616   0.909   6.055   7.601  0.2107  0.2712 -0.0531
14139SOL    HW144617   0.878   6.079   7.514  0.8625  1.6279  0.0649
14139SOL    HW244618   1.002   6.078   7.601  0.1775  0.4596  1.0404
14140SOL     OW44619   9.007   3.282   7.242 -0.1772  0.2684  0.0010
14140SOL    HW144620   8.994   3.367   7.284 -0.2131 -0.0472  0.6441
14140SOL    HW244621   8.932   3.272   7.184 -1.6370 -0.4898  1.9013
14141SOL     OW44622   0.544   7.736   4.907  0.0971 -0.1603 -0.0673
14141SOL    HW144623   0.538   7.815   4.961 -0.2682 -1.3897  1.7828
14141SOL    HW244624   0.490   7.672   4.953 -0.5124 -1.1774 -2.1198
14142SOL     OW44625   8.313   6.814   7.772 -0.6886 -0.1303 -0.8330
14142SOL    HW144626   8.344   6.881   7.711 -0.6345 -0.3950 -1.1000
14142SOL    HW244627   8.387   6.753   7.779 -1.2984 -0.9930 -1.8027
14143SOL     OW44628   6.014   7.702   2.603 -0.3332 -0.4435  0.0030
14143SOL    HW144629   5.930   7.656   2.612 -0.3817 -0.5418 -0.8562
14143SOL    HW244630   6.030   7.740   2.690 -1.3073 -0.3600  0.1584
14144SOL     OW44631   0.873   4.271   2.836  0.1357 -0.2068  0.2281
14144SOL    HW144632   0.887   4.304   2.747  2.2188 -0.0236  0.5783
14144SOL    HW244633   0.828   4.342   2.881  0.5940  0.3858 -0.2303
14145SOL     OW44634   2.008   9.458   1.760  0.4376  0.1049 -0.0463
14145SOL    HW144635   1.948   9.512   1.811 -1.2772  0.9534 -2.6881
14145SOL    HW244636   2.084   9.513   1.745  0.0002  0.6713 -0.2094
14146SOL     OW44637   7.954   3.776   0.466  0.5313 -0.3902 -0.1501
14146SOL    HW144638   7.964   3.864   0.504  0.3021 -0.3506 -0.1824
14146SOL    HW244639   7.976   3.788   0.374 -0.0833 -0.2447 -0.2818
14147SOL     OW44640   9.446   1.450   6.416  0.1312  0.6695 -0.2718
14147SOL    HW144641   9.427   1.380   6.479  2.2887 -0.3291 -0.6331
14147SOL    HW244642   9.523   1.494   6.452 -1.9073  3.8530  0.6307
14148SOL     OW44643   4.659   5.924   5.172 -0.0201  0.4805  0.4974
14148SOL    HW144644   4.739   5.920   5.224  0.3622 -1.3699 -0.1610
14148SOL    HW244645   4.611   5.999   5.207  1.3975  0.8343  1.7680
14149SOL     OW44646   6.783   5.857   2.178 -0.2313  0.0670  0.0456
14149SOL    HW144647   6.831   5.842   2.260 -0.5189 -0.7724  0.0814
14149SOL    HW244648   6.788   5.773   2.132  1.4158  1.0093 -1.6391
14150SOL     OW44649   7.820   8.696   6.622  0.0924 -0.0978 -0.2346
14150SOL    HW144650   7.882   8.729   6.687  2.4699  0.5580 -2.6311
14150SOL    HW244651   7.866   8.623   6.580 -1.4646 -0.6911 -1.0005
14151SOL     OW44652   2.106   5.651   8.727  0.4950  0.8415 -0.3764
14151SOL    HW144653   2.138   5.675   8.640  1.3008  1.3114  0.0348
14151SOL    HW244654   2.018   5.689   8.731  0.7199  1.4208 -0.7357
14152SOL     OW44655   3.974   4.072   0.904 -0.3157  0.5756  0.1713
14152SOL    HW144656   4.019   4.148   0.867 -0.4948  0.9052  0.6117
14152SOL    HW244657   3.985   4.003   0.839  0.5545  0.7396  0.1290
14153SOL     OW44658   1.500   9.284   4.522 -0.4880  0.0395 -0.5319
14153SOL    HW144659   1.419   9.303   4.569 -0.2718 -0.7047  0.1602
14153SOL    HW244660   1.495   9.337   4.443 -1.6679 -0.0142 -0.5093
14154SOL     OW44661   9.444   2.274   4.721  0.4362  0.0820  0.4742
14154SOL    HW144662   9.383   2.279   4.648  1.0141  1.0916  0.0303
14154SOL    HW244663   9.394   2.307   4.796  0.2616  0.3443  0.2433
14155SOL     OW44664   9.040   4.037   2.389 -0.3904 -0.7479 -0.2912
14155SOL    HW144665   9.119   4.043   2.442  0.1490 -0.5821 -1.0961
14155SOL    HW244666   9.049   3.954   2.341 -1.0245 -1.0580  0.1041
14156SOL     OW44667   3.690   3.161   2.132  0.1051  0.9837 -0.0103
14156SOL    HW144668   3.741   3.096   2.180 -0.3500 -0.9972 -2.0128
14156SOL    HW244669   3.617   3.182   2.190  0.0220 -0.6740  0.5488
14157SOL     OW44670   5.410   0.806   0.736 -0.0255  0.0521 -0.1705
14157SOL    HW144671   5.434   0.828   0.646  3.0542 -0.9399  0.2695
14157SOL    HW244672   5.449   0.720   0.751 -0.1715  0.3194  2.2014
14158SOL     OW44673   1.418   4.853   8.346  0.0749  0.0582 -0.2091
14158SOL    HW144674   1.475   4.822   8.276 -0.0509 -1.6369  0.4044
14158SOL    HW244675   1.344   4.792   8.346 -0.6482  0.9046  0.4513
14159SOL     OW44676   7.483   2.745   5.269  0.0287 -0.2418  0.3002
14159SOL    HW144677   7.500   2.839   5.273 -1.4814  0.0548  0.6032
14159SOL    HW244678   7.532   2.708   5.342 -2.1964  0.8364  2.4770
14160SOL     OW44679   9.401   3.150   6.191 -0.1762  0.2778 -0.4367
14160SOL    HW144680   9.338   3.196   6.136  0.2871  1.8802  0.3128
14160SOL    HW244681   9.480   3.143   6.137  0.1135  1.3947 -0.1835
14161SOL     OW44682   3.507   6.691   4.841  0.0025 -0.0874 -0.1833
14161SOL    HW144683   3.476   6.778   4.818 -0.1875 -0.6311 -2.1740
14161SOL    HW244684   3.462   6.669   4.923 -2.2295  0.5146 -1.1885
14162SOL     OW44685   3.976   3.884   0.718  0.5048 -0.1171  0.0831
14162SOL    HW144686   3.921   3.848   0.788  0.3854  1.5323  0.8962
14162SOL    HW244687   3.943   3.843   0.638 -1.3405  0.1574  0.6501
14163SOL     OW44688   4.620   6.478   7.388  0.5478 -0.5421  0.0758
14163SOL    HW144689   4.702   6.481   7.437  0.9271 -1.2638 -0.4921
14163SOL    HW244690   4.564   6.419   7.438  1.1076 -1.6688 -0.5856
14164SOL     OW44691   9.324   8.061   5.176  0.3924  0.0289 -0.0969
14164SOL    HW144692   9.244   8.024   5.214  0.2819  1.2346  0.9123
14164SOL    HW244693   9.391   7.994   5.191 -0.1556 -0.4528  0.2141
14165SOL     OW44694   4.532   1.741   6.055 -0.1651  0.4479 -0.4313
14165SOL    HW144695   4.499   1.829   6.036  1.5944  1.3838  0.5893
14165SOL    HW244696   4.616   1.736   6.010 -0.5618 -1.0327 -1.0995
14166SOL     OW44697   8.609   8.821   8.432 -0.8320  0.1448 -0.0974
14166SOL    HW144698   8.704   8.830   8.441 -0.6887 -0.7954 -0.5591
14166SOL    HW244699   8.575   8.909   8.449  0.1808  0.6767 -0.7247
14167SOL     OW44700   3.916   4.229   7.312 -0.3277 -0.0128  0.6774
14167SOL    HW144701   3.890   4.137   7.317  0.7258 -0.3218  0.6526
14167SOL    HW244702   3.897   4.254   7.221 -1.0619 -0.0577  0.8122
14168SOL     OW44703   7.497   2.338   5.518 -0.2060  0.2285  0.6133
14168SOL    HW144704   7.499   2.337   5.613  2.1398 -0.6203  0.5996
14168SOL    HW244705   7.495   2.431   5.495 -0.2712  0.4493  1.4792
14169SOL     OW44706   9.107   8.004   4.809  0.9864 -0.3490 -0.2994
14169SOL    HW144707   9.112   7.918   4.850 -0.0759 -0.7170 -0.9163
14169SOL    HW244708   9.155   8.062   4.869 -0.4348 -0.8738  1.4159
14170SOL     OW44709   2.422   6.809   3.127 -0.1060  0.0111  0.1770
14170SOL    HW144710   2.460   6.852   3.050  0.7291 -0.2852  0.4098
14170SOL    HW244711   2.497   6.788   3.182 -0.5648 -1.0268  0.4362
14171SOL     OW44712   8.624   7.127   2.028 -0.1761  0.3401  0.3476
14171SOL    HW144713   8.627   7.163   2.117  0.5323  1.3794 -0.0700
14171SOL    HW244714   8.710   7.149   1.991 -0.8118  0.8074 -0.9148
14172SOL     OW44715   8.814   1.550   6.688 -0.3545  0.5096  0.6154
14172SOL    HW144716   8.907   1.531   6.675 -0.4906  0.4496 -0.3102
14172SOL    HW244717   8.769   1.483   6.638 -0.8683  1.8568 -0.8171
14173SOL     OW44718   6.050   2.909   6.281 -0.0795 -0.3984  0.1077
14173SOL    HW144719   5.955   2.915   6.297 -0.2712 -0.0635 -1.0609
14173SOL    HW244720   6.080   3.000   6.285  0.0106 -0.3964 -0.5141
14174SOL     OW44721   7.149   1.816   3.507  0.1477  0.5219  0.3871
14174SOL    HW144722   7.112   1.878   3.570  2.2968  0.9256  1.3622
14174SOL    HW244723   7.158   1.866   3.426 -1.8807  0.2365 -0.0602
14175SOL     OW44724   8.646   0.934   4.527  0.0029 -0.1578 -0.2172
14175SOL    HW144725   8.640   0.911   4.620 -2.1848 -0.0772 -0.2796
14175SOL    HW244726   8.739   0.936   4.509  0.5004  0.1075  2.0565
14176SOL     OW44727   9.318   3.589   5.379  0.0105 -0.2083  0.5615
14176SOL    HW144728   9.314   3.681   5.408 -0.5352 -0.0740  0.0956
14176SOL    HW244729   9.401   3.556   5.413 -0.6328 -0.0900  2.3373
14177SOL     OW44730   8.820   5.546   2.519  0.3999  0.6103  0.1820
14177SOL    HW144731   8.830   5.635   2.487  0.6537  0.3929 -0.3471
14177SOL    HW244732   8.807   5.493   2.441  1.7959 -0.0292  0.3676
14178SOL     OW44733   5.209   7.705   8.210 -0.4774  0.6547 -0.0617
14178SOL    HW144734   5.255   7.621   8.213  1.0629  1.4663 -0.1720
14178SOL    HW244735   5.258   7.762   8.268 -2.5739  1.0234  1.4502
14179SOL     OW44736   6.923   3.641   7.184  0.4357 -0.1735  0.4003
14179SOL    HW144737   6.869   3.575   7.226 -1.2194  0.6121 -0.4213
14179SOL    HW244738   6.942   3.705   7.253 -1.4004  0.5787  0.2681
14180SOL     OW44739   3.626   7.903   2.194  0.8250  0.4080  0.5210
14180SOL    HW144740   3.555   7.839   2.182  0.3334  1.1267 -0.5816
14180SOL    HW244741   3.580   7.985   2.214  1.3865  0.7116  0.5685
14181SOL     OW44742   6.917   7.251   2.671 -0.0294  0.4842  0.0165
14181SOL    HW144743   6.939   7.337   2.635  2.6446 -0.5027 -1.0357
14181SOL    HW244744   7.000   7.218   2.706 -0.1195 -2.8712 -2.4097
14182SOL     OW44745   3.786   2.838   7.510  0.0134 -0.1462 -0.6485
14182SOL    HW144746   3.775   2.823   7.416 -0.4172  0.3844 -0.6853
14182SOL    HW244747   3.835   2.919   7.516 -2.8701  1.7423 -0.4249
14183SOL     OW44748   0.398   7.973   0.542  0.0082 -0.0223 -0.3454
14183SOL    HW144749   0.451   7.906   0.585 -0.0796 -0.1366 -0.4161
14183SOL    HW244750   0.308   7.945   0.557 -0.1817  1.5119  2.0727
14184SOL     OW44751   8.840   5.107   0.659  0.2077 -0.5517  0.1080
14184SOL    HW144752   8.766   5.084   0.603 -0.0399 -0.9804  0.5962
14184SOL    HW244753   8.823   5.197   0.686  0.4978 -0.2314 -0.7651
14185SOL     OW44754   7.428   6.986   9.443 -0.1001  0.5706 -0.3530
14185SOL    HW144755   7.374   7.064   9.457  1.2485  1.5147 -0.2636
14185SOL    HW244756   7.365   6.919   9.414 -2.0022  0.4276  3.4670
14186SOL     OW44757   7.632   5.715   5.514 -0.0284 -0.5088 -0.0733
14186SOL    HW144758   7.571   5.655   5.557 -2.5610  1.1764 -1.0722
14186SOL    HW244759   7.605   5.802   5.542  3.4240  0.3010  1.1820
14187SOL     OW44760   8.475   0.017   0.614 -0.1736  0.1516 -0.9421
14187SOL    HW144761   8.567  -0.008   0.623 -0.5057 -0.5610  1.0206
14187SOL    HW244762   8.454   0.064   0.695 -1.7449 -0.4433 -0.9588
14188SOL     OW44763   4.784   4.057   7.816  0.2718 -0.0494 -0.2729
14188SOL    HW144764   4.819   4.070   7.904  1.2336 -1.9787 -0.3311
14188SOL    HW244765   4.713   3.994   7.827  0.1088  0.0324 -0.8308
14189SOL     OW44766   9.436   1.833   0.282 -0.5889  0.2713 -0.9751
14189SOL    HW144767   9.445   1.850   0.376  1.3758  2.7379 -1.5283
14189SOL    HW244768   9.481   1.750   0.269 -2.6486 -1.1947  0.4849
14190SOL     OW44769   6.663   0.911   9.516 -0.6824 -0.0364  0.5731
14190SOL    HW144770   6.724   0.882   9.448  2.4535  1.3319  2.5636
14190SOL    HW244771   6.646   0.832   9.568 -3.0901 -1.0844 -1.6338
14191SOL     OW44772   6.240   5.853   7.387  0.2044  0.2392 -0.2667
14191SOL    HW144773   6.333   5.859   7.406  0.6561 -0.9157 -1.8887
14191SOL    HW244774   6.232   5.777   7.329 -1.8536 -0.1738  0.4576
14192SOL     OW44775   7.964   1.975   3.414  0.0397  1.1329 -0.1462
14192SOL    HW144776   7.904   2.049   3.403  1.3805  2.0537 -1.9733
14192SOL    HW244777   8.020   1.979   3.336  0.6042 -1.4211  0.0574
14193SOL     OW44778   8.277   4.568   5.446 -0.3196 -0.0251 -0.2617
14193SOL    HW144779   8.256   4.656   5.478  0.0618 -0.0137 -0.0334
14193SOL    HW244780   8.330   4.583   5.368  0.2832 -0.0390  0.1302
14194SOL     OW44781   4.613   4.783   5.042 -0.0778  0.0259 -0.1445
14194SOL    HW144782   4.530   4.743   5.068  0.5093 -0.3577  1.2719
14194SOL    HW244783   4.610   4.786   4.947 -1.0532 -1.4349 -0.1963
14195SOL     OW44784   6.133   3.632   7.523 -0.1092  0.6017  0.1953
14195SOL    HW144785   6.073   3.627   7.598 -0.8615  0.8547 -0.3742
14195SOL    HW244786   6.195   3.561   7.537 -1.0631 -0.2186  0.3491
14196SOL     OW44787   8.528   8.684   2.533 -0.6093 -0.3994  0.3338
14196SOL    HW144788   8.619   8.668   2.559 -0.3999  2.1010  1.3935
14196SOL    HW244789   8.512   8.620   2.464  1.5847 -1.6509  0.8748
14197SOL     OW44790   8.167   4.445   3.730 -0.2937 -0.5043  0.6189
14197SOL    HW144791   8.079   4.408   3.732 -0.5677  0.0489 -0.5478
14197SOL    HW244792   8.224   4.372   3.756 -0.8634 -1.6377 -1.1444
14198SOL     OW44793   8.990   4.003   0.186  0.2206 -0.3847  0.4777
14198SOL    HW144794   8.919   3.985   0.124 -0.1165  1.5048  0.2414
14198SOL    HW244795   9.059   4.042   0.133  1.7287 -2.6917  0.6122
14199SOL     OW44796   7.484   3.208   1.820 -0.9921 -0.2002  0.0814
14199SOL    HW144797   7.524   3.131   1.780 -0.4367  0.1154  0.0293
14199SOL    HW244798   7.556   3.270   1.833 -1.3465  0.1168  0.5895
14200SOL     OW44799   6.444   8.776   4.761 -0.1293  0.4455 -0.4923
14200SOL    HW144800   6.416   8.857   4.804 -2.8882 -0.1361 -0.9729
14200SOL    HW244801   6.369   8.717   4.772  1.9381 -2.2459  0.2506
14201SOL     OW44802   8.270   6.231   0.132 -0.2787  0.0223 -0.7783
14201SOL    HW144803   8.208   6.303   0.140 -1.4143 -1.1028  1.4561
14201SOL    HW244804   8.217   6.155   0.108  0.0977 -1.0152  1.4038
14202SOL     OW44805   3.449   0.150   4.389  0.4112 -0.2567 -0.0506
14202SOL    HW144806   3.362   0.138   4.426  1.0455 -0.2812  1.5378
14202SOL    HW244807   3.434   0.192   4.304 -1.1059  0.3399  0.4779
14203SOL     OW44808   4.924   5.770   0.345 -0.1537  0.8509  0.6034
14203SOL    HW144809   4.982   5.760   0.269 -2.5132 -1.1446 -1.1306
14203SOL    HW244810   4.923   5.863   0.363  0.6073  1.3899 -1.8000
14204SOL     OW44811   9.391   8.542   3.493  0.1201 -0.1708 -0.8276
14204SOL    HW144812   9.434   8.489   3.426 -0.1388 -0.4707 -0.7551
14204SOL    HW244813   9.300   8.544   3.466 -0.5483 -2.5493  0.9489
14205SOL     OW44814   6.501   4.773   3.660 -0.0816  0.3828  0.0229
14205SOL    HW144815   6.509   4.725   3.577 -0.1984 -0.1556  0.3211
14205SOL    HW244816   6.424   4.735   3.702 -0.2697  0.9409  0.1979
14206SOL     OW44817   8.701   0.244   0.556  0.5601 -0.0295  0.7014
14206SOL    HW144818   8.609   0.250   0.581  0.1756  0.1711 -0.6744
14206SOL    HW244819   8.711   0.309   0.486  1.5115 -0.7083  0.1841
14207SOL     OW44820   1.167   2.591   5.001 -0.3952 -0.0816  0.2245
14207SOL    HW144821   1.108   2.576   5.075 -2.6314  1.1602 -1.1820
14207SOL    HW244822   1.178   2.505   4.961  0.6802 -0.7321  1.8217
14208SOL     OW44823   5.601   9.516   4.615 -0.6374  0.4170 -0.0557
14208SOL    HW144824   5.676   9.548   4.665 -0.5966  0.7513 -0.3297
14208SOL    HW244825   5.526   9.530   4.674 -0.8183  2.2825 -0.6508
14209SOL     OW44826   5.875   1.270   6.285  0.1368 -0.0610 -0.0857
14209SOL    HW144827   5.781   1.284   6.272  0.4504  0.5127 -1.9229
14209SOL    HW244828   5.901   1.211   6.215  1.2228  0.0311  0.2169
14210SOL     OW44829   8.084   2.732   8.530  0.2929 -0.0468 -0.1871
14210SOL    HW144830   8.012   2.787   8.498 -0.0121  0.5541  1.4709
14210SOL    HW244831   8.152   2.794   8.555  0.0905 -0.4156  1.3462
14211SOL     OW44832   1.994   1.341   3.404 -0.1812 -0.1046 -0.0054
14211SOL    HW144833   1.973   1.435   3.405  2.7475  0.6562  0.3856
14211SOL    HW244834   1.981   1.313   3.495 -1.5993 -0.2575 -0.2347
14212SOL     OW44835   5.670   8.470   8.824 -0.4547  0.0007 -0.3200
14212SOL    HW144836   5.577   8.469   8.803 -0.2622 -1.3945 -1.2810
14212SOL    HW244837   5.675   8.503   8.914 -1.7596  1.2285 -0.6623
14213SOL     OW44838   7.828   5.805   1.004 -0.1483  0.0505 -0.2042
14213SOL    HW144839   7.888   5.808   0.930  0.8793 -0.1144  0.6007
14213SOL    HW244840   7.885   5.801   1.081 -1.1669 -2.4487  0.5021
14214SOL     OW44841   8.257   1.882   7.131 -0.4634 -0.0761 -0.0703
14214SOL    HW144842   8.321   1.947   7.157  0.4492 -1.2173  0.6486
14214SOL    HW244843   8.273   1.808   7.190 -0.5365 -1.4838 -1.7363
14215SOL     OW44844   0.750   3.549   4.624 -0.2565  0.1086  0.0438
14215SOL    HW144845   0.792   3.593   4.698  0.0742 -0.6823  0.3384
14215SOL    HW244846   0.822   3.509   4.576 -0.7027 -3.3230  1.8885
14216SOL     OW44847   3.197   2.741   8.038  0.0452  0.1936 -0.2223
14216SOL    HW144848   3.211   2.834   8.057 -1.3140  0.4298 -0.2977
14216SOL    HW244849   3.280   2.712   8.000  0.1698  1.6313 -1.1577
14217SOL     OW44850   8.790   1.633   0.230  0.3700 -0.2961 -0.2204
14217SOL    HW144851   8.852   1.639   0.302  0.4899 -1.6897 -0.1893
14217SOL    HW244852   8.763   1.541   0.229 -1.4837  0.2073 -0.3993
14218SOL     OW44853   9.250   4.086   1.759  0.6871  0.4690 -0.6239
14218SOL    HW144854   9.303   4.114   1.834 -0.8736  0.3185  0.5951
14218SOL    HW244855   9.162   4.119   1.779  0.1801  0.1700 -2.2641
14219SOL     OW44856   4.849   7.538   4.849  0.2907  0.3155 -0.2299
14219SOL    HW144857   4.788   7.486   4.798  0.3004  1.1402 -1.0928
14219SOL    HW244858   4.887   7.475   4.911 -0.9318 -0.3410 -0.1075
14220SOL     OW44859   8.065   0.993   7.770  0.1220  0.0911  0.0208
14220SOL    HW144860   8.000   1.062   7.781  0.3671  0.5739 -1.2734
14220SOL    HW244861   8.052   0.963   7.680 -0.1084 -1.7029  0.6219
14221SOL     OW44862   5.521   5.140   2.782 -0.3976  0.0702  0.4655
14221SOL    HW144863   5.454   5.080   2.749 -0.0607 -0.6980  1.1514
14221SOL    HW244864   5.507   5.142   2.876  1.4909 -1.3201  0.8461
14222SOL     OW44865   2.225   4.300   4.233  0.2022 -0.4074  0.4296
14222SOL    HW144866   2.269   4.376   4.271 -0.9052  0.0259  0.8928
14222SOL    HW244867   2.273   4.225   4.266  1.6397  0.0798 -0.4436
14223SOL     OW44868   8.391   8.822   6.550 -0.5244 -0.3874  0.2685
14223SOL    HW144869   8.304   8.841   6.514 -0.1868 -1.2598 -1.0860
14223SOL    HW244870   8.376   8.749   6.609 -0.5759 -1.2724 -0.8021
14224SOL     OW44871   7.152   1.446   7.173 -0.2685 -0.0561  0.5787
14224SOL    HW144872   7.088   1.516   7.161  1.3785  1.8266  2.0161
14224SOL    HW244873   7.185   1.460   7.262  2.8014 -0.3354 -0.4282
14225SOL     OW44874   1.485   9.442   6.940 -0.0630 -0.4148  0.1505
14225SOL    HW144875   1.577   9.459   6.962 -0.2669  0.7721  0.1520
14225SOL    HW244876   1.479   9.347   6.934  0.6649 -0.6380  2.3015
14226SOL     OW44877   3.138   1.675   4.766  0.3673 -0.7757 -0.2934
14226SOL    HW144878   3.201   1.729   4.813 -0.4984 -1.3031  1.5604
14226SOL    HW244879   3.128   1.718   4.681  1.4837  0.5991  0.2318
14227SOL     OW44880   7.405   1.193   4.531 -0.3323  0.6195  0.2904
14227SOL    HW144881   7.378   1.106   4.560  1.9372 -0.5080 -0.6923
14227SOL    HW244882   7.494   1.204   4.566 -0.6951  2.7445  0.7312
14228SOL     OW44883   1.571   0.638   5.113 -0.3983  0.1824 -0.2920
14228SOL    HW144884   1.570   0.699   5.187 -0.8513 -0.1028 -0.0564
14228SOL    HW244885   1.659   0.600   5.115  0.3895  1.8368 -1.3034
14229SOL     OW44886   1.309   7.436   0.320  0.1469  0.6602 -0.6243
14229SOL    HW144887   1.331   7.444   0.227  1.6193 -0.1593 -0.3773
14229SOL    HW244888   1.262   7.517   0.340  0.8027  1.3740 -1.8256
14230SOL     OW44889   8.404   1.246   1.553 -0.2270 -0.2071  0.5664
14230SOL    HW144890   8.464   1.310   1.590  2.1170 -0.5593 -2.2494
14230SOL    HW244891   8.406   1.173   1.614  1.2203  0.3247  1.1893
14231SOL     OW44892   8.856   7.553   8.967  0.2070 -1.0547 -0.3826
14231SOL    HW144893   8.891   7.513   9.046 -0.8708  1.0930  1.2698
14231SOL    HW244894   8.930   7.604   8.932  0.9031 -2.5917 -1.2260
14232SOL     OW44895   7.377   3.006   5.765 -0.0915  0.1929  0.3924
14232SOL    HW144896   7.459   3.050   5.788  0.4123 -0.1666 -0.6577
14232SOL    HW244897   7.380   2.923   5.813  0.2127  0.1227  0.2499
14233SOL     OW44898   6.108   1.351   0.243  0.8126  0.0140  0.0479
14233SOL    HW144899   6.165   1.276   0.224  1.8421  0.9235 -0.5298
14233SOL    HW244900   6.141   1.386   0.326  0.3769 -0.1153  0.2810
14234SOL     OW44901   0.974   8.336   5.109  0.0844  0.8283 -0.3225
14234SOL    HW144902   1.022   8.362   5.187  0.7259  0.0603 -0.4592
14234SOL    HW244903   0.919   8.412   5.089 -0.7290  0.7321  1.3512
14235SOL     OW44904   7.317   2.068   6.737 -0.2249 -0.0704 -0.7312
14235SOL    HW144905   7.319   2.163   6.734  1.4456  0.0274  1.2140
14235SOL    HW244906   7.373   2.040   6.665  0.3614  0.4699 -0.4883
14236SOL     OW44907   1.101   7.147   6.324 -0.0277  0.0335  0.1367
14236SOL    HW144908   1.174   7.177   6.270  1.0540 -2.7743 -0.1585
14236SOL    HW244909   1.024   7.157   6.267  0.6397 -0.0119 -0.8020
14237SOL     OW44910   4.892   2.739   3.289 -0.1911 -0.5308  0.2737
14237SOL    HW144911   4.819   2.746   3.351  1.2353 -1.3087  2.1238
14237SOL    HW244912   4.915   2.646   3.290 -1.7385 -1.1547 -3.4712
14238SOL     OW44913   1.046   6.316   6.619  0.1399 -0.5472  0.2141
14238SOL    HW144914   1.073   6.402   6.651  1.2788 -0.7983 -0.0140
14238SOL    HW244915   1.000   6.335   6.537  0.6677 -0.1703 -0.0036
14239SOL     OW44916   4.432   1.606   4.878  0.5192  0.3302 -0.8684
14239SOL    HW144917   4.515   1.614   4.925  0.3428  1.5095 -0.7214
14239SOL    HW244918   4.452   1.550   4.803  1.1768 -0.2861 -0.2508
14240SOL     OW44919   3.905   1.281   5.810  0.1204  0.0943  0.0279
14240SOL    HW144920   3.976   1.323   5.762  0.1875  0.0706  0.1066
14240SOL    HW244921   3.826   1.302   5.760  0.0299  1.0841  0.5652
14241SOL     OW44922   6.235   4.096   2.585  0.5667 -0.7698  0.1289
14241SOL    HW144923   6.179   4.091   2.662 -2.0185 -1.7162 -1.6547
14241SOL    HW244924   6.300   4.027   2.598  1.1896  0.1289  2.1306
14242SOL     OW44925   2.681   7.802   5.808 -0.0124 -0.2592  0.2698
14242SOL    HW144926   2.647   7.755   5.733 -0.8441  1.1479 -0.2810
14242SOL    HW244927   2.649   7.753   5.884 -0.6446 -0.7192 -0.2813
14243SOL     OW44928   9.540   9.210   5.399 -0.3109 -0.6938 -0.1404
14243SOL    HW144929   9.446   9.197   5.389 -0.4226  1.2734 -2.8117
14243SOL    HW244930   9.580   9.137   5.351 -0.5578 -0.2698 -1.0093
14244SOL     OW44931   8.065   1.117   3.792  0.2747 -0.0934  0.4295
14244SOL    HW144932   8.156   1.095   3.815  0.4594  2.0389  2.0338
14244SOL    HW244933   8.045   1.060   3.717  3.0215 -0.4431 -0.1618
14245SOL     OW44934   8.946   2.186   4.164  0.6450 -0.0497 -0.0964
14245SOL    HW144935   8.991   2.140   4.093  1.5681 -0.9667  1.0381
14245SOL    HW244936   8.987   2.273   4.166 -0.1658  0.3875 -1.3744
14246SOL     OW44937   0.993   8.161   1.137  0.0700 -0.3581 -0.2692
14246SOL    HW144938   1.009   8.242   1.089  0.2124 -1.2177 -1.7291
14246SOL    HW244939   1.059   8.161   1.207 -0.3217  1.0487  0.1185
14247SOL     OW44940   3.110   0.360   4.302  0.3903  0.3720 -0.2141
14247SOL    HW144941   3.091   0.335   4.212 -0.1114  0.9856 -0.2815
14247SOL    HW244942   3.134   0.277   4.345 -1.6627 -0.3189 -0.3224
14248SOL     OW44943   9.149   9.428   1.780  0.2691 -0.0938 -0.6013
14248SOL    HW144944   9.109   9.377   1.709 -1.5581  0.2241  0.1617
14248SOL    HW244945   9.110   9.393   1.859 -1.1588  2.5324 -0.0371
14249SOL     OW44946   7.467   5.863   1.701  0.0777  0.2604 -0.0218
14249SOL    HW144947   7.423   5.785   1.735 -2.5231  1.5714 -0.1146
14249SOL    HW244948   7.440   5.866   1.609 -1.7482  2.3770  0.4970
14250SOL     OW44949   1.257   6.023   6.818  0.2732  0.1401  0.5853
14250SOL    HW144950   1.306   5.948   6.853 -2.0704 -1.8145  0.0173
14250SOL    HW244951   1.213   6.061   6.894 -0.9132 -1.0290  0.5322
14251SOL     OW44952   4.763   9.288   5.540 -0.2330 -0.1482  0.2368
14251SOL    HW144953   4.714   9.245   5.471 -1.2815  0.5749  0.4924
14251SOL    HW244954   4.851   9.298   5.505 -0.8744  0.7052 -1.2252
14252SOL     OW44955   3.707   3.452   7.250 -0.4967 -0.3562 -0.1427
14252SOL    HW144956   3.662   3.516   7.305 -1.9219  0.3506 -2.0263
14252SOL    HW244957   3.758   3.506   7.188 -1.3748 -0.9990 -1.4793
14253SOL     OW44958   8.521   2.215   8.929  0.6677 -0.2602  0.0111
14253SOL    HW144959   8.427   2.208   8.912  0.1837  1.1693  1.7370
14253SOL    HW244960   8.535   2.169   9.012  1.3459  0.1430  0.1371
14254SOL     OW44961   3.599   5.318   0.378  0.1843 -0.6944  0.4442
14254SOL    HW144962   3.557   5.343   0.461 -2.1873  1.0602 -1.1527
14254SOL    HW244963   3.675   5.376   0.371 -0.7853  0.6258  0.4775
14255SOL     OW44964   2.415   1.297   3.373 -0.0486 -0.0192  0.1787
14255SOL    HW144965   2.482   1.268   3.435  0.7589 -2.2366 -1.6170
14255SOL    HW244966   2.461   1.359   3.316 -0.4020  0.8805  0.8478
14256SOL     OW44967   4.755   1.912   4.267 -0.4603 -0.0963  0.6446
14256SOL    HW144968   4.825   1.967   4.232 -0.6022 -0.4131 -0.1438
14256SOL    HW244969   4.763   1.922   4.362  0.0505  0.6166  0.5379
14257SOL     OW44970   9.254   6.401   2.291  0.0517 -0.6540 -0.2983
14257SOL    HW144971   9.215   6.483   2.261 -0.2316 -0.2987  0.9828
14257SOL    HW244972   9.296   6.423   2.374 -0.3851 -1.8836  0.2721
14258SOL     OW44973   9.001   7.170   1.436 -0.2792  0.0342  0.3035
14258SOL    HW144974   8.998   7.078   1.408  1.4775  0.1189 -0.3067
14258SOL    HW244975   8.919   7.208   1.406 -0.4269 -1.0058 -0.6563
14259SOL     OW44976   0.819   2.539   7.825 -0.5875  0.1696  0.4022
14259SOL    HW144977   0.821   2.472   7.893  2.6122  1.6117  1.9907
14259SOL    HW244978   0.898   2.523   7.773 -0.1877  2.1248  0.3186
14260SOL     OW44979   9.102   2.617   3.069 -0.1375  0.4208 -0.1251
14260SOL    HW144980   9.036   2.548   3.072  0.7710 -0.4677 -0.3363
14260SOL    HW244981   9.072   2.676   2.999 -0.0472 -0.6664 -1.1047
14261SOL     OW44982   2.811   8.350   6.632 -0.5815 -0.1556  0.1719
14261SOL    HW144983   2.808   8.254   6.627 -2.2144 -0.1401  0.3581
14261SOL    HW244984   2.731   8.374   6.677  0.8019  1.2184  2.0578
14262SOL     OW44985   5.001   3.121   8.955 -0.3690 -0.1811  0.1089
14262SOL    HW144986   4.965   3.081   9.035 -1.7849  1.7828  0.5176
14262SOL    HW244987   5.060   3.189   8.987  0.9698 -0.9777 -0.5738
14263SOL     OW44988   3.460   8.080   0.248 -0.1340 -0.3951 -0.5091
14263SOL    HW144989   3.448   8.045   0.336  0.0471 -3.3856 -1.5669
14263SOL    HW244990   3.491   8.169   0.262 -0.9257 -0.4676  2.4125
14264SOL     OW44991   5.528   7.869   4.815  0.5132  0.2114 -0.7658
14264SOL    HW144992   5.461   7.802   4.804 -0.6335  1.3689 -1.0528
14264SOL    HW244993   5.582   7.862   4.736 -0.0883  0.1550 -1.1796
14265SOL     OW44994   3.469   7.333   6.107 -0.1193 -0.1105  0.8666
14265SOL    HW144995   3.511   7.418   6.096  0.1752 -0.1389  1.6571
14265SOL    HW244996   3.375   7.352   6.108 -0.1247 -0.0023 -0.5641
14266SOL     OW44997   2.455   7.118   9.309 -0.5183  0.2672  0.2047
14266SOL    HW144998   2.490   7.031   9.327 -1.7609 -0.8542 -2.3363
14266SOL    HW244999   2.530   7.166   9.272  0.7051  1.0321  3.3626
14267SOL     OW45000   3.267   1.485   5.145  0.0850 -0.3374  0.0368
14267SOL    HW145001   3.202   1.468   5.077  0.7802  0.2919 -0.8087
14267SOL    HW245002   3.334   1.538   5.102  1.8156 -2.0322  0.5280
14268SOL     OW45003   4.543   3.122   8.059 -0.4038 -0.5499 -0.2554
14268SOL    HW145004   4.520   3.211   8.086  0.5905 -0.0005 -1.1595
14268SOL    HW245005   4.496   3.109   7.976 -1.8401 -1.4944  0.6432
14269SOL     OW45006   6.858   0.451   0.884  0.5707 -0.1154  0.2920
14269SOL    HW145007   6.867   0.547   0.890  0.0329 -0.0452  0.0437
14269SOL    HW245008   6.855   0.422   0.975  2.0063 -0.0336  0.3888
14270SOL     OW45009   5.881   0.180   0.725 -0.4400  0.2524  0.1094
14270SOL    HW145010   5.892   0.271   0.697 -0.6551  0.7645  1.6057
14270SOL    HW245011   5.940   0.170   0.800 -1.2075 -0.5147  0.6365
14271SOL     OW45012   9.132   6.424   3.060  0.2948  0.1849  0.7428
14271SOL    HW145013   9.129   6.516   3.087  0.6002  0.5138 -0.2939
14271SOL    HW245014   9.042   6.394   3.069  0.2853  0.4413  1.5624
14272SOL     OW45015   2.100   7.549   3.332 -0.5886 -0.0435 -0.0947
14272SOL    HW145016   2.098   7.644   3.323 -0.0975 -0.0451 -0.2424
14272SOL    HW245017   2.008   7.523   3.335 -0.7291  0.4047 -0.3975
14273SOL     OW45018   8.736   5.883   5.305 -0.4224 -0.0345  0.1357
14273SOL    HW145019   8.750   5.853   5.394 -0.4496  0.3238  0.2642
14273SOL    HW245020   8.824   5.897   5.270 -0.3212  3.3887  1.3458
14274SOL     OW45021   6.715   4.236   8.809  0.2218  0.3088  0.7718
14274SOL    HW145022   6.711   4.328   8.781 -2.3402  0.8669  2.5638
14274SOL    HW245023   6.624   4.206   8.806  1.2204 -3.2995 -2.8176
14275SOL     OW45024   8.677   0.925   7.525 -0.2788 -0.0313 -0.0223
14275SOL    HW145025   8.733   0.893   7.454 -0.3816  0.1781 -0.1997
14275SOL    HW245026   8.619   0.851   7.544 -0.5309  0.0532 -0.4485
14276SOL     OW45027   1.345   5.244   4.258 -0.2420 -0.0575  0.0160
14276SOL    HW145028   1.253   5.263   4.244 -0.4221 -0.7169  0.2492
14276SOL    HW245029   1.372   5.194   4.181 -0.1806 -0.1896  0.1214
14277SOL     OW45030   8.965   0.310   7.333  0.2725  0.3536 -0.2283
14277SOL    HW145031   8.938   0.393   7.293  1.2121  0.2544 -1.0913
14277SOL    HW245032   8.882   0.268   7.358 -0.2233  1.4157 -0.0384
14278SOL     OW45033   2.254   3.242   7.115  0.1078  0.9055  0.2862
14278SOL    HW145034   2.248   3.260   7.022  1.4821 -0.4385 -0.1059
14278SOL    HW245035   2.185   3.178   7.132  0.3800  0.5356  0.0085
14279SOL     OW45036   6.420   4.085   3.873 -0.6105 -0.4234  0.6496
14279SOL    HW145037   6.501   4.034   3.869  0.1652  0.6904  1.4145
14279SOL    HW245038   6.366   4.051   3.802  0.2389 -1.6798  0.5785
14280SOL     OW45039   2.362   4.673   0.255  0.2576 -0.1079 -0.2067
14280SOL    HW145040   2.404   4.744   0.206  0.0364 -1.0065 -1.7640
14280SOL    HW245041   2.428   4.605   0.261 -0.0318 -0.3818 -0.0708
14281SOL     OW45042   6.140   4.634   8.445  0.3219 -0.2607 -0.1217
14281SOL    HW145043   6.107   4.566   8.504 -1.3479  0.8440  0.2516
14281SOL    HW245044   6.195   4.586   8.383  0.0471 -1.8029  0.7754
14282SOL     OW45045   5.914   9.461   5.302  0.4798  0.5722 -0.3215
14282SOL    HW145046   5.983   9.396   5.316 -1.8395 -1.8460  0.6279
14282SOL    HW245047   5.874   9.434   5.219 -1.3271 -0.0559  0.7210
14283SOL     OW45048   6.976   4.306   3.496  0.5510  0.4025 -0.3121
14283SOL    HW145049   7.056   4.287   3.448 -0.1714  1.5503 -2.0322
14283SOL    HW245050   6.973   4.401   3.504 -0.2650  0.3393  0.4067
14284SOL     OW45051   1.959   4.262   8.151 -0.0089 -0.4127 -0.3761
14284SOL    HW145052   2.043   4.218   8.159 -1.3039 -3.0286  0.0455
14284SOL    HW245053   1.929   4.274   8.241 -1.2752 -2.1521 -0.5048
14285SOL     OW45054   3.491   4.738   6.545  0.4337  0.6728  0.1260
14285SOL    HW145055   3.515   4.669   6.607 -1.9564 -0.5856 -0.2459
14285SOL    HW245056   3.505   4.698   6.459  3.1307  2.1976 -0.2868
14286SOL     OW45057   1.032   5.415   7.507 -0.6357 -0.2128 -0.6601
14286SOL    HW145058   1.107   5.365   7.540 -0.9448 -0.7394 -0.7570
14286SOL    HW245059   0.980   5.352   7.458 -0.6410  0.3643 -1.4258
14287SOL     OW45060   8.844   2.489   0.911  0.2246  0.3240 -0.7772
14287SOL    HW145061   8.868   2.438   0.988 -0.3698 -0.3840 -1.0528
14287SOL    HW245062   8.886   2.574   0.924 -1.0256  0.7191  1.0201
14288SOL     OW45063   7.247   2.980   1.602  0.3600  0.2608 -0.2756
14288SOL    HW145064   7.191   3.053   1.630  0.9944  0.8308 -0.4779
14288SOL    HW245065   7.187   2.906   1.595 -0.5224  1.0307 -1.1909
14289SOL     OW45066   7.238   5.060   0.860  0.1560 -0.0529  0.0074
14289SOL    HW145067   7.192   5.035   0.780  1.6226  0.6810 -1.1219
14289SOL    HW245068   7.271   5.148   0.842  1.5039 -0.3251  0.9686
14290SOL     OW45069   4.539   3.185   5.931 -0.4864  1.0713  0.2042
14290SOL    HW145070   4.603   3.132   5.978 -0.8751 -0.7121 -1.1386
14290SOL    HW245071   4.575   3.273   5.930  1.0101  0.4941  1.1159
14291SOL     OW45072   7.190   7.670   1.615 -0.3191 -0.1658  0.2093
14291SOL    HW145073   7.142   7.588   1.599  0.5177 -0.7947  0.8319
14291SOL    HW245074   7.156   7.731   1.549 -1.0573 -0.9721 -0.1740
14292SOL     OW45075   9.188   2.267   1.256  0.2770  0.0988  0.6572
14292SOL    HW145076   9.234   2.230   1.181  0.2870  0.8722  0.2713
14292SOL    HW245077   9.203   2.205   1.327  0.7722 -0.3385  0.1727
14293SOL     OW45078   8.792   2.003   2.597 -0.3936 -0.1320  0.0656
14293SOL    HW145079   8.786   2.092   2.562 -0.9271 -0.0967  0.2434
14293SOL    HW245080   8.872   2.003   2.650 -1.3828  0.7926  1.6279
14294SOL     OW45081   0.185   0.673   7.841 -0.5070 -0.2196  0.0535
14294SOL    HW145082   0.167   0.673   7.935  0.6308 -0.5536  0.2900
14294SOL    HW245083   0.177   0.581   7.815 -0.8618 -0.1211 -0.1917
14295SOL     OW45084   3.565   4.597   3.264  0.6484  0.0114  0.1154
14295SOL    HW145085   3.657   4.609   3.289  0.3325  0.6970  0.9981
14295SOL    HW245086   3.516   4.652   3.325 -0.3536 -0.3197 -0.3671
14296SOL     OW45087   4.260   7.173   3.931  0.2522 -0.0735 -0.5275
14296SOL    HW145088   4.277   7.251   3.878 -1.5897  0.2765 -0.6919
14296SOL    HW245089   4.313   7.104   3.891  0.8676  0.7748 -1.2131
14297SOL     OW45090   2.858   0.414   4.374 -0.0813  0.5629  0.4653
14297SOL    HW145091   2.844   0.481   4.441  1.2272  2.2622 -0.8464
14297SOL    HW245092   2.952   0.400   4.373 -0.1582  0.0153 -0.4858
14298SOL     OW45093   4.390   2.414   7.476 -0.2826 -0.5763  0.1277
14298SOL    HW145094   4.371   2.325   7.504 -0.9361 -0.9791 -1.4802
14298SOL    HW245095   4.310   2.444   7.432  0.5448  0.0988 -0.9902
14299SOL     OW45096   7.266   5.555   7.338 -0.4826  0.3015  0.0141
14299SOL    HW145097   7.198   5.580   7.401  0.3233  0.8601  0.6939
14299SOL    HW245098   7.338   5.523   7.392  0.2669  0.8803 -0.6197
14300SOL     OW45099   3.982   0.366   6.094 -0.1489 -0.3371 -0.3781
14300SOL    HW145100   3.950   0.308   6.163  1.7411 -1.1105 -0.1137
14300SOL    HW245101   4.031   0.308   6.035  0.7392  0.7942 -0.7723
14301SOL     OW45102   2.694   8.007   2.406 -0.3160 -0.4507  0.6001
14301SOL    HW145103   2.614   7.968   2.371 -0.1943  1.6897 -2.4663
14301SOL    HW245104   2.748   7.932   2.433 -2.6139 -1.9970  1.1772
14302SOL     OW45105   3.456   8.889   5.100 -0.3586 -0.2095  0.4491
14302SOL    HW145106   3.488   8.956   5.039  2.1541 -1.9815 -0.3252
14302SOL    HW245107   3.417   8.822   5.044 -1.5762 -0.0682  1.1055
14303SOL     OW45108   1.574   8.247   4.762 -0.0804 -0.1242  0.6591
14303SOL    HW145109   1.552   8.191   4.687 -1.1784 -0.7448  1.4260
14303SOL    HW245110   1.501   8.309   4.767  0.7879  0.9605  0.2452
14304SOL     OW45111   0.163   2.576   5.873  0.3476  0.3643 -0.0466
14304SOL    HW145112   0.182   2.513   5.804 -0.3648 -0.3159  0.3598
14304SOL    HW245113   0.094   2.631   5.836 -0.2448 -0.1869  0.2147
14305SOL     OW45114   5.655   1.388   6.805  0.0798  0.3669 -0.3078
14305SOL    HW145115   5.748   1.371   6.819  0.6338  0.9215 -2.7781
14305SOL    HW245116   5.652   1.475   6.765 -1.7484  1.4312  1.8969
14306SOL     OW45117   7.528   4.616   5.877 -0.0026  0.0476 -0.3984
14306SOL    HW145118   7.436   4.594   5.893  0.6820 -1.8792  1.4795
14306SOL    HW245119   7.560   4.544   5.822  0.2631  1.0543 -1.6072
14307SOL     OW45120   8.305   3.432   0.242 -0.6818  0.2485 -0.2004
14307SOL    HW145121   8.320   3.352   0.292 -0.2177  1.7785  2.2695
14307SOL    HW245122   8.211   3.448   0.249 -1.4047 -1.6466 -3.4217
14308SOL     OW45123   1.055   1.851   1.890 -0.0927  0.5189 -0.6405
14308SOL    HW145124   1.092   1.936   1.916 -0.4201  0.8594 -1.2430
14308SOL    HW245125   0.975   1.843   1.942 -0.5339  1.0089 -1.2225
14309SOL     OW45126   1.402   8.265   7.367 -0.6764 -0.3854  0.5244
14309SOL    HW145127   1.407   8.323   7.444 -0.4811  0.3312 -0.0192
14309SOL    HW245128   1.492   8.261   7.334 -0.4366 -1.9957  1.2550
14310SOL     OW45129   1.221   8.766   4.398 -0.8490  1.0115  0.0162
14310SOL    HW145130   1.135   8.780   4.437 -1.1766  1.1036 -0.7364
14310SOL    HW245131   1.212   8.685   4.348 -0.0007  0.0417  1.3330
14311SOL     OW45132   5.267   1.025   5.979  0.0592  0.4141  0.3769
14311SOL    HW145133   5.342   1.081   5.997 -0.3050  1.6389 -1.6388
14311SOL    HW245134   5.305   0.938   5.966  1.1208  0.9634 -0.3221
14312SOL     OW45135   3.511   2.022   2.934 -0.0306  0.5490  0.2177
14312SOL    HW145136   3.557   1.995   3.013  0.7926  1.8669  0.2235
14312SOL    HW245137   3.422   2.043   2.964 -0.5581 -1.5442  0.2862
14313SOL     OW45138   4.924   2.559   0.498 -0.2507  0.6562  0.0467
14313SOL    HW145139   4.835   2.570   0.463 -0.0114 -0.0364 -0.8100
14313SOL    HW245140   4.975   2.627   0.454 -0.2445  0.7274  0.1621
14314SOL     OW45141   9.479   1.960   4.140  0.0300 -0.4393  0.1409
14314SOL    HW145142   9.571   1.935   4.143 -0.0462 -0.8613 -0.6370
14314SOL    HW245143   9.432   1.877   4.132 -0.3471 -0.1719 -0.5432
14315SOL     OW45144   9.294   2.943   2.952 -0.0082  0.1590 -0.1161
14315SOL    HW145145   9.353   2.869   2.964  0.8071  0.7284 -0.5907
14315SOL    HW245146   9.210   2.903   2.929  0.0687 -0.6687  0.9723
14316SOL     OW45147   5.435   8.865   4.806 -0.0548 -0.0281  0.3763
14316SOL    HW145148   5.353   8.846   4.852 -1.0133 -0.9160 -1.5923
14316SOL    HW245149   5.430   8.959   4.787 -1.0891 -0.2559 -0.5622
14317SOL     OW45150   5.450   8.756   8.181  0.1587  0.1171  0.0439
14317SOL    HW145151   5.423   8.770   8.091 -0.0253  2.0861  0.3744
14317SOL    HW245152   5.398   8.681   8.211 -1.2139  0.6739 -0.8798
14318SOL     OW45153   0.770   2.199   8.474 -0.4275  0.2390  0.7452
14318SOL    HW145154   0.830   2.133   8.506 -1.8149 -0.1435  2.7621
14318SOL    HW245155   0.825   2.275   8.454  0.8663 -0.6045  1.0181
14319SOL     OW45156   3.192   5.130   3.417 -0.1762  0.0638  0.3540
14319SOL    HW145157   3.172   5.223   3.412 -0.2649  0.0183 -0.1704
14319SOL    HW245158   3.108   5.089   3.437  0.0318  0.1715  1.5369
14320SOL     OW45159   7.505   6.560   3.532 -0.2129 -0.2642 -0.6276
14320SOL    HW145160   7.579   6.617   3.553 -0.1743 -0.6755  0.4391
14320SOL    HW245161   7.437   6.620   3.500  0.4102  0.1699 -1.1415
14321SOL     OW45162   3.831   7.874   7.255 -0.7975  0.5000  0.2718
14321SOL    HW145163   3.809   7.877   7.348  0.0581  0.7578  0.4680
14321SOL    HW245164   3.773   7.938   7.214 -0.8598  0.7112  0.6910
14322SOL     OW45165   8.214   0.897   8.772 -0.1728 -0.3122 -0.0386
14322SOL    HW145166   8.217   0.892   8.676 -3.6401  1.9090 -0.4451
14322SOL    HW245167   8.259   0.979   8.793 -0.1086 -0.3998  0.1644
14323SOL     OW45168   5.902   0.521   7.742 -1.1214 -0.0643  0.4779
14323SOL    HW145169   5.881   0.519   7.835 -0.3025 -1.3522  0.6632
14323SOL    HW245170   5.818   0.512   7.697 -1.4337 -0.3353  1.1141
14324SOL     OW45171   7.743   1.132   3.781  0.4177 -0.3791  0.1649
14324SOL    HW145172   7.788   1.189   3.718  0.9606  0.4701  1.2931
14324SOL    HW245173   7.705   1.062   3.727 -0.6331  1.2449 -1.3337
14325SOL     OW45174   3.886   9.176   6.973 -0.1775 -0.1450 -0.1255
14325SOL    HW145175   3.916   9.255   7.018  1.1728 -0.4829 -0.3846
14325SOL    HW245176   3.791   9.178   6.981 -0.1594  1.4760 -0.0772
14326SOL     OW45177   6.486   1.448   3.671  0.1344  0.0792 -0.7882
14326SOL    HW145178   6.469   1.359   3.701  1.2644 -0.7275 -2.4330
14326SOL    HW245179   6.500   1.498   3.752  0.0492 -1.3326  0.1277
14327SOL     OW45180   3.935   1.647   5.661 -0.4108  0.2209  0.1825
14327SOL    HW145181   3.961   1.705   5.732 -0.4044  0.8356 -0.3137
14327SOL    HW245182   3.841   1.659   5.653 -0.4771 -0.1545  0.3487
14328SOL     OW45183   6.341   4.034   0.674  0.2677 -0.7215  0.0690
14328SOL    HW145184   6.365   3.996   0.758  1.5131  2.1410  1.1429
14328SOL    HW245185   6.424   4.044   0.627 -0.2638 -1.0904 -0.9936
14329SOL     OW45186   7.688   7.656   3.162  0.4158 -0.5415 -0.3608
14329SOL    HW145187   7.731   7.596   3.223  0.7112 -1.3684 -1.3469
14329SOL    HW245188   7.617   7.605   3.124  0.4061 -0.1347 -0.9078
14330SOL     OW45189   8.702   1.098   9.199  0.2396  0.4258 -0.3098
14330SOL    HW145190   8.788   1.090   9.160 -0.3919  2.0839 -2.2060
14330SOL    HW245191   8.706   1.179   9.251  0.8686 -1.3994  2.7513
14331SOL     OW45192   7.606   6.748   8.497  0.3369  0.0372 -0.3979
14331SOL    HW145193   7.606   6.702   8.413 -0.1853  1.4461 -1.1996
14331SOL    HW245194   7.645   6.834   8.478  0.7552  0.1729  0.9302
14332SOL     OW45195   6.198   6.735   4.788  0.1367 -0.1074 -0.0640
14332SOL    HW145196   6.283   6.777   4.772  0.8352 -1.5606 -0.3179
14332SOL    HW245197   6.203   6.705   4.879 -0.4527  0.5431  0.1923
14333SOL     OW45198   2.767   5.156   6.454  0.1710  0.2658  0.2511
14333SOL    HW145199   2.711   5.187   6.383 -0.6467 -0.1043  0.7168
14333SOL    HW245200   2.847   5.127   6.410 -0.1087  0.5405 -0.4573
14334SOL     OW45201   1.165   2.654   7.048 -0.5408  0.5046  0.0210
14334SOL    HW145202   1.137   2.745   7.038  0.0923  0.9593  1.9672
14334SOL    HW245203   1.190   2.646   7.140  3.2088 -0.5819 -0.9256
14335SOL     OW45204   7.758   6.658   6.833 -0.3707  0.6617  0.9163
14335SOL    HW145205   7.792   6.595   6.896 -1.2653  0.0744  0.8234
14335SOL    HW245206   7.758   6.741   6.880  1.1706  0.6854  0.9172
14336SOL     OW45207   2.044   9.371   1.256  0.1292 -0.4302  0.3213
14336SOL    HW145208   1.986   9.395   1.328  0.3348  0.4523  0.1997
14336SOL    HW245209   2.121   9.334   1.299 -0.7518 -2.1942  0.4659
14337SOL     OW45210   3.467   6.546   0.377 -0.1266 -0.3884 -0.4218
14337SOL    HW145211   3.413   6.540   0.456  0.5676 -0.5217  0.0557
14337SOL    HW245212   3.494   6.456   0.360  1.6634 -0.1084  0.5964
14338SOL     OW45213   7.699   5.050   3.165  0.8813 -0.0181  0.0744
14338SOL    HW145214   7.640   4.975   3.168  1.3308 -0.3372  1.2922
14338SOL    HW245215   7.785   5.013   3.147  0.7805  0.4306 -1.5114
14339SOL     OW45216   9.467   5.384   5.976  0.0255 -0.7042 -0.5605
14339SOL    HW145217   9.417   5.354   6.052  2.0230  0.3014  1.2558
14339SOL    HW245218   9.439   5.326   5.904 -1.1369 -2.4302  1.1862
14340SOL     OW45219   4.657   7.074   7.075  0.3196  0.1626  0.0042
14340SOL    HW145220   4.594   7.080   7.147 -1.0779 -0.6734 -1.0919
14340SOL    HW245221   4.640   6.989   7.035  2.1149 -0.0595 -0.4048
14341SOL     OW45222   5.710   4.728   0.132  0.7711 -0.4264  0.3822
14341SOL    HW145223   5.682   4.727   0.223 -0.9151 -0.8437 -0.1082
14341SOL    HW245224   5.687   4.642   0.098 -1.2352  0.6287 -1.1473
14342SOL     OW45225   1.851   4.649   3.107  0.0979 -0.2122 -0.5697
14342SOL    HW145226   1.873   4.704   3.182  0.0771 -0.9372 -0.0237
14342SOL    HW245227   1.783   4.698   3.060  1.3941  1.0885 -1.1441
14343SOL     OW45228   8.075   3.116   7.828  0.0548 -0.3460 -0.3784
14343SOL    HW145229   8.025   3.173   7.768  0.5280  0.1963 -0.2572
14343SOL    HW245230   8.039   3.135   7.914 -0.9810 -1.5009 -0.5328
14344SOL     OW45231   2.576   0.227   2.676  0.0658 -0.0897 -0.5356
14344SOL    HW145232   2.619   0.171   2.611  1.4868  1.0447 -0.6077
14344SOL    HW245233   2.636   0.230   2.750 -0.7259  0.0717  0.1114
14345SOL     OW45234   4.720   9.453   5.142  0.0879 -0.9684  0.4556
14345SOL    HW145235   4.773   9.533   5.139 -1.5454  0.1298 -1.1226
14345SOL    HW245236   4.650   9.473   5.204 -0.6587 -0.9318 -0.3804
14346SOL     OW45237   5.460   0.702   9.264 -0.1126 -0.0733  0.0528
14346SOL    HW145238   5.429   0.654   9.186  0.9830  0.4518 -0.7370
14346SOL    HW245239   5.391   0.688   9.329 -1.3573 -0.0456 -1.1876
14347SOL     OW45240   1.459   6.988   4.310 -0.8677  0.1162  0.4649
14347SOL    HW145241   1.408   6.990   4.391 -0.9987 -1.1951  0.4373
14347SOL    HW245242   1.481   7.080   4.293  0.8078  0.2480  2.9906
14348SOL     OW45243   3.951   0.698   9.383  0.6469 -0.4186  0.3627
14348SOL    HW145244   3.888   0.743   9.439  1.9315  0.9908  0.7286
14348SOL    HW245245   3.903   0.679   9.303 -0.3789  0.1952  0.8157
14349SOL     OW45246   8.164   5.784   5.648 -0.2668  0.3265  0.1019
14349SOL    HW145247   8.223   5.859   5.656 -0.0351 -0.0171  2.5153
14349SOL    HW245248   8.089   5.806   5.704 -1.4280 -0.1659 -1.2140
14350SOL     OW45249   2.144   0.402   8.578 -0.2842 -0.1269 -0.1242
14350SOL    HW145250   2.212   0.342   8.611 -0.7186 -0.5825 -0.0376
14350SOL    HW245251   2.169   0.488   8.611  1.7687  0.2223 -2.3477
14351SOL     OW45252   8.086   4.285   5.136 -0.0736  0.5604  0.2176
14351SOL    HW145253   8.087   4.353   5.069  0.6208 -0.7023 -1.1050
14351SOL    HW245254   8.166   4.235   5.122  0.0408  0.1782  1.9380
14352SOL     OW45255   4.822   1.257   0.395  0.0346 -0.6642 -0.2945
14352SOL    HW145256   4.735   1.219   0.382 -0.0305 -0.7812  0.4393
14352SOL    HW245257   4.816   1.344   0.357 -0.7683 -0.2332  0.7535
14353SOL     OW45258   3.071   1.710   3.939  0.3110 -0.3199 -0.3018
14353SOL    HW145259   3.136   1.699   3.869 -0.8181  0.2752 -1.4795
14353SOL    HW245260   3.005   1.769   3.902 -1.2115 -1.3531  0.6240
14354SOL     OW45261   1.151   0.675   8.315 -0.0809  0.0991  0.0259
14354SOL    HW145262   1.079   0.652   8.256 -0.9773 -0.8217  1.4289
14354SOL    HW245263   1.114   0.667   8.403  1.1115  1.8005  0.7388
14355SOL     OW45264   5.961   0.741   8.698 -0.4365  0.1355  0.5594
14355SOL    HW145265   5.956   0.716   8.790 -0.2418  2.0256  1.1221
14355SOL    HW245266   5.893   0.808   8.687  0.5903  1.0790 -0.2564
14356SOL     OW45267   0.805   0.379   6.115  0.6226  0.0338 -0.0180
14356SOL    HW145268   0.900   0.373   6.129  0.5893  0.5019  0.4168
14356SOL    HW245269   0.792   0.466   6.077  0.5415 -0.6364 -1.6170
14357SOL     OW45270   4.037   5.858   1.562 -0.6169 -0.4249  0.0803
14357SOL    HW145271   4.071   5.896   1.482  1.1446  0.8811  1.3615
14357SOL    HW245272   3.946   5.889   1.567 -0.9151 -0.9757 -1.6399
14358SOL     OW45273   7.853   3.526   8.891  0.5795  0.0876  0.9989
14358SOL    HW145274   7.821   3.445   8.853 -0.6457  1.1416 -0.3277
14358SOL    HW245275   7.901   3.569   8.820  1.6180  0.3470  1.8163
14359SOL     OW45276   1.083   3.732   0.282 -0.9015  0.0224  0.3419
14359SOL    HW145277   1.090   3.753   0.189 -0.2240  0.4588  0.4874
14359SOL    HW245278   1.008   3.672   0.288 -0.0498 -1.1975 -0.6791
14360SOL     OW45279   8.080   3.587   4.826  0.3519 -0.1649 -0.8773
14360SOL    HW145280   8.173   3.610   4.838  0.6065 -0.6357 -1.8236
14360SOL    HW245281   8.066   3.512   4.884  0.5220  0.0009 -0.6197
14361SOL     OW45282   8.364   7.942   4.991  0.6112  0.1038 -0.4308
14361SOL    HW145283   8.287   7.944   5.047  1.0934 -1.9817  0.3723
14361SOL    HW245284   8.335   7.983   4.909 -1.1795 -0.1813  0.0207
14362SOL     OW45285   2.530   8.038   7.033 -0.0112  0.0848 -0.0696
14362SOL    HW145286   2.502   7.950   7.010  0.6718  0.1852 -1.3826
14362SOL    HW245287   2.454   8.093   7.012  0.0287 -0.0320 -0.5248
14363SOL     OW45288   9.157   1.233   4.262  0.6163 -0.3617  0.2157
14363SOL    HW145289   9.202   1.188   4.333  0.1712 -0.1598  0.6314
14363SOL    HW245290   9.070   1.193   4.260  0.5071 -0.1159  0.0246
14364SOL     OW45291   1.349   1.138   9.351  0.2403  0.7565  0.1737
14364SOL    HW145292   1.277   1.114   9.293  0.2749 -1.5295  0.9677
14364SOL    HW245293   1.309   1.195   9.417 -0.8965 -0.5162  0.6230
14365SOL     OW45294   9.276   6.958   8.420  0.0843 -0.0335 -0.7068
14365SOL    HW145295   9.189   6.923   8.401 -0.4487  0.0510  1.3319
14365SOL    HW245296   9.275   7.047   8.386 -1.0732  0.3679  0.2982
14366SOL     OW45297   6.412   3.118   3.732  0.6721 -0.1048  0.2293
14366SOL    HW145298   6.503   3.128   3.703  0.3689  0.2640 -0.6372
14366SOL    HW245299   6.419   3.091   3.823  1.6894 -1.6239 -0.2550
14367SOL     OW45300   9.573   2.938   9.195 -0.1953  0.1747  0.3236
14367SOL    HW145301   9.531   2.916   9.279  0.3992 -0.0278  0.5739
14367SOL    HW245302   9.593   3.031   9.202 -0.0956  0.1458  0.4304
14368SOL     OW45303   9.254   4.720   8.039 -0.3727 -0.4045  0.5658
14368SOL    HW145304   9.275   4.717   7.946 -1.0591  0.9593  0.3507
14368SOL    HW245305   9.331   4.757   8.080 -0.4305 -0.1111  0.4127
14369SOL     OW45306   6.207   2.168   6.540  0.3320  1.2376 -0.7543
14369SOL    HW145307   6.222   2.110   6.614 -1.3083  1.6545 -0.0558
14369SOL    HW245308   6.208   2.111   6.464 -0.6903  0.3709 -0.1387
14370SOL     OW45309   3.378   0.945   8.905  0.4032  0.4891  0.1412
14370SOL    HW145310   3.368   0.870   8.847  1.5750 -0.6438  1.3218
14370SOL    HW245311   3.311   0.932   8.973 -0.9291  1.7800 -0.8317
14371SOL     OW45312   0.757   0.046   4.167  0.2777 -0.2766  0.3709
14371SOL    HW145313   0.725  -0.020   4.228  0.3883 -1.0726 -0.4113
14371SOL    HW245314   0.751   0.004   4.081 -0.1248  0.9031 -0.2064
14372SOL     OW45315   7.982   0.340   6.913  0.0275  0.1708  0.6845
14372SOL    HW145316   7.892   0.371   6.923 -0.1089 -0.5910  2.1383
14372SOL    HW245317   7.975   0.245   6.919  0.9136  0.0927  0.6362
14373SOL     OW45318   3.363   9.157   3.345 -0.5229  0.3701 -0.2176
14373SOL    HW145319   3.439   9.158   3.403 -0.0457  1.8015 -0.8347
14373SOL    HW245320   3.337   9.249   3.337 -1.2587  0.0882 -1.3909
14374SOL     OW45321   1.249   5.062   5.505 -0.0794 -0.1704  0.0460
14374SOL    HW145322   1.238   4.970   5.484  1.7730 -0.2222 -0.9169
14374SOL    HW245323   1.211   5.109   5.431 -1.8537 -0.0800  0.9501
14375SOL     OW45324   1.134   8.123   9.438 -0.7682 -0.0210 -0.3700
14375SOL    HW145325   1.051   8.076   9.445 -1.0768  0.1097 -2.5057
14375SOL    HW245326   1.198   8.056   9.417 -0.5631  0.0717 -0.0589
14376SOL     OW45327   8.408   5.164   3.355  0.4525  0.1788 -0.0129
14376SOL    HW145328   8.405   5.215   3.274  0.0180  0.8202  0.4019
14376SOL    HW245329   8.414   5.229   3.425  1.5297 -0.3823  0.4440
14377SOL     OW45330   6.196   5.153   3.785  0.0403 -0.0720 -0.0626
14377SOL    HW145331   6.210   5.245   3.804  1.3785  0.2007 -2.0017
14377SOL    HW245332   6.103   5.139   3.798 -0.5706  2.0811 -1.6442
14378SOL     OW45333   6.395   8.120   5.823  0.3369  0.3842  0.0755
14378SOL    HW145334   6.442   8.125   5.740 -1.4383 -0.5006 -1.0488
14378SOL    HW245335   6.315   8.170   5.808 -1.9714 -3.0843 -0.2399
14379SOL     OW45336   4.893   5.491   7.212  0.4017 -0.3089 -0.5087
14379SOL    HW145337   4.879   5.423   7.146  2.0278  0.1532 -1.3871
14379SOL    HW245338   4.913   5.570   7.162  1.8340  0.0189  0.5004
14380SOL     OW45339   0.936   8.934   4.049  0.1229 -0.8021 -0.7226
14380SOL    HW145340   0.931   8.901   3.959  2.7448  0.9694 -1.6363
14380SOL    HW245341   1.026   8.966   4.058 -0.8102  1.5725  1.6340
14381SOL     OW45342   9.312   8.712   1.262  0.1827 -0.3178  0.1414
14381SOL    HW145343   9.283   8.643   1.322 -0.0785  0.6590  1.1898
14381SOL    HW245344   9.264   8.790   1.291  1.2426  0.5418 -0.3324
14382SOL     OW45345   9.271   0.367   9.021  0.3835 -0.7045 -0.2426
14382SOL    HW145346   9.322   0.305   9.074 -0.0692 -1.0873 -0.2463
14382SOL    HW245347   9.301   0.352   8.931  0.5230 -0.6704 -0.2022
14383SOL     OW45348   6.035   2.451   8.295  0.0279  0.3153 -0.2603
14383SOL    HW145349   5.958   2.477   8.245 -1.0877 -1.4013  0.4977
14383SOL    HW245350   6.100   2.430   8.228 -0.0428  1.9700 -0.9015
14384SOL     OW45351   8.313   4.420   6.270  0.1575 -0.2086  0.0910
14384SOL    HW145352   8.241   4.453   6.217  0.7447 -1.3259 -1.4804
14384SOL    HW245353   8.271   4.389   6.350 -0.8369  0.9116  0.0354
14385SOL     OW45354   7.447   7.587   8.304  0.4775 -0.3086  0.3807
14385SOL    HW145355   7.517   7.640   8.264 -1.9593  1.6853 -1.6155
14385SOL    HW245356   7.471   7.497   8.283  2.9091  0.2035  0.6391
14386SOL     OW45357   1.092   6.549   6.120  0.0125  0.2444 -0.1431
14386SOL    HW145358   1.123   6.508   6.040  1.0933 -0.8618  0.8029
14386SOL    HW245359   0.996   6.542   6.116  0.1452 -2.2886 -0.1025
14387SOL     OW45360   9.044   5.930   6.092  0.1439 -0.3298  0.0175
14387SOL    HW145361   9.097   5.882   6.156  1.2482  0.5916 -0.1732
14387SOL    HW245362   9.067   5.892   6.008 -2.0936 -2.2742  0.1666
14388SOL     OW45363   7.857   0.453   6.515  0.0394  0.2456 -0.3274
14388SOL    HW145364   7.797   0.496   6.453 -0.0743  1.1863  0.4152
14388SOL    HW245365   7.944   0.482   6.488  0.0308  0.2241 -0.3777
14389SOL     OW45366   3.587   5.153   0.174 -0.0028  0.0444 -0.0121
14389SOL    HW145367   3.636   5.196   0.104 -0.4726 -0.5288 -0.7082
14389SOL    HW245368   3.576   5.220   0.241 -0.2582  0.8485 -0.8494
14390SOL     OW45369   4.802   6.581   5.011  0.8241  0.6300 -0.3243
14390SOL    HW145370   4.791   6.618   4.924  1.9513  0.8363 -0.3936
14390SOL    HW245371   4.896   6.573   5.023  0.7055  0.8472  0.9803
14391SOL     OW45372   3.465   1.276   8.164 -0.3122  0.1421 -0.4498
14391SOL    HW145373   3.385   1.280   8.111 -1.5255  1.7964  1.3451
14391SOL    HW245374   3.442   1.217   8.236  0.5806 -0.4362 -0.6259
14392SOL     OW45375   3.910   1.745   4.179 -0.3630 -0.0199  0.2784
14392SOL    HW145376   3.892   1.671   4.121  1.8842 -0.4257  0.0110
14392SOL    HW245377   3.915   1.821   4.121 -0.4798 -0.0301  0.2552
14393SOL     OW45378   0.647   3.336   2.234 -0.0382  0.1853  0.1316
14393SOL    HW145379   0.618   3.245   2.239 -0.1973  0.2942  1.8983
14393SOL    HW245380   0.718   3.336   2.170  1.4362 -1.6136  1.6446
14394SOL     OW45381   1.252   8.661   8.066 -0.0335 -0.2570  0.1482
14394SOL    HW145382   1.197   8.711   8.006 -0.3705 -1.3133 -0.4406
14394SOL    HW245383   1.195   8.592   8.100  0.9067 -1.3787 -0.4713
14395SOL     OW45384   5.464   0.729   2.260 -0.2850 -0.5544  0.4207
14395SOL    HW145385   5.488   0.738   2.168 -0.6115  0.4471  0.4120
14395SOL    HW245386   5.374   0.696   2.258  0.0723 -1.5426  0.4041
14396SOL     OW45387   3.372   8.488   1.043  0.2722  0.0586  0.3899
14396SOL    HW145388   3.292   8.436   1.041  0.2173  0.0519  1.9119
14396SOL    HW245389   3.434   8.435   1.094  1.7619 -0.6097 -1.9544
14397SOL     OW45390   1.134   0.538   1.768  1.0059  0.4466  0.3236
14397SOL    HW145391   1.145   0.608   1.703  0.9065  0.1216 -0.0504
14397SOL    HW245392   1.210   0.481   1.754  1.4933  0.8770  1.1397
14398SOL     OW45393   0.682   2.884   6.738 -0.8540 -0.1850 -0.0488
14398SOL    HW145394   0.629   2.814   6.777 -1.2685  0.0516 -0.1780
14398SOL    HW245395   0.717   2.933   6.812 -1.0911 -0.1422  0.0370
14399SOL     OW45396   2.376   5.739   9.360  0.0666  0.4309 -0.2733
14399SOL    HW145397   2.420   5.668   9.313  1.4738  1.8279 -1.1836
14399SOL    HW245398   2.387   5.717   9.453  1.3220 -0.0872 -0.5178
14400SOL     OW45399   6.328   5.206   1.519 -0.2770  0.3512 -0.0154
14400SOL    HW145400   6.300   5.135   1.461 -0.4406 -0.3581  0.9000
14400SOL    HW245401   6.349   5.162   1.601  0.7233  1.2370  0.2195
14401SOL     OW45402   0.351   8.711   5.192  0.0289  0.1490 -0.5530
14401SOL    HW145403   0.349   8.679   5.102  1.7769 -1.5734 -0.0532
14401SOL    HW245404   0.428   8.669   5.231  0.0107  1.7583  1.4229
14402SOL     OW45405   0.115   8.954   1.931 -0.3841 -0.3530 -0.1254
14402SOL    HW145406   0.075   9.036   1.901 -0.7821  0.9046  3.3445
14402SOL    HW245407   0.198   8.949   1.883 -0.6422  1.7673 -0.9068
14403SOL     OW45408   6.955   6.133   7.030  0.2927  0.4821 -0.0669
14403SOL    HW145409   7.039   6.141   7.076  0.9595  1.7799 -1.4118
14403SOL    HW245410   6.920   6.222   7.030  0.7188  0.7138 -2.7397
14404SOL     OW45411   0.753   6.548   6.644  0.2356  0.0504 -0.2439
14404SOL    HW145412   0.798   6.551   6.728  0.6464 -0.3685 -0.4429
14404SOL    HW245413   0.771   6.633   6.604 -0.1410  0.3331  0.1763
14405SOL     OW45414   0.643   7.528   4.321 -0.1576  0.4056  0.0317
14405SOL    HW145415   0.621   7.620   4.306  0.6678  0.8663  1.4546
14405SOL    HW245416   0.726   7.515   4.274  0.6782  0.9209  1.3078
14406SOL     OW45417   2.576   0.695   5.454  0.2586  0.1676 -0.6788
14406SOL    HW145418   2.527   0.664   5.377  0.5861 -1.5349 -0.2459
14406SOL    HW245419   2.661   0.722   5.419  0.4373 -0.6838 -0.9311
14407SOL     OW45420   1.115   3.144   2.394 -0.3264 -0.0088 -0.4148
14407SOL    HW145421   1.067   3.065   2.418  1.6347 -1.7402 -1.7769
14407SOL    HW245422   1.112   3.199   2.472 -0.2451 -2.2255  1.2666
14408SOL     OW45423   4.820   0.799   5.109 -0.5626 -0.2845  0.5286
14408SOL    HW145424   4.725   0.788   5.101 -0.9031  0.7063  2.6512
14408SOL    HW245425   4.847   0.733   5.173  0.2988 -0.8835 -0.4120
14409SOL     OW45426   0.326   6.745   6.626  0.1021 -0.2461  0.3198
14409SOL    HW145427   0.361   6.755   6.714  0.6584  0.9923 -0.0249
14409SOL    HW245428   0.233   6.765   6.634  0.6512  2.8756  0.1669
14410SOL     OW45429   4.154   5.127   1.083  0.5487 -0.2619 -0.3377
14410SOL    HW145430   4.132   5.069   1.156  0.9173  0.0539  0.0348
14410SOL    HW245431   4.211   5.075   1.027 -0.4493 -0.8016 -0.8701
14411SOL     OW45432   6.375   3.408   8.685 -0.3537  0.2451  0.6172
14411SOL    HW145433   6.422   3.458   8.618 -1.5255  0.0009 -0.4365
14411SOL    HW245434   6.433   3.336   8.707 -0.7905 -0.9416 -1.7739
14412SOL     OW45435   9.011   6.031   3.441 -0.3806 -0.5664  0.3237
14412SOL    HW145436   9.046   5.943   3.456 -0.0125 -0.3683  0.6402
14412SOL    HW245437   8.936   6.037   3.499 -0.5208 -0.7375  0.1634
14413SOL     OW45438   2.958   9.311   7.583 -0.1332  0.7394 -0.0142
14413SOL    HW145439   2.887   9.320   7.646 -0.7220  0.9522 -0.6835
14413SOL    HW245440   3.037   9.328   7.633 -0.5595  0.5703  0.7328
14414SOL     OW45441   3.077   9.384   1.274 -0.1092 -0.1099 -0.5575
14414SOL    HW145442   2.997   9.337   1.294  1.4611 -1.3259  3.8963
14414SOL    HW245443   3.116   9.336   1.200 -2.4155 -0.6634 -1.4911
14415SOL     OW45444   4.371   1.365   7.255  0.3661  0.7064  0.6737
14415SOL    HW145445   4.460   1.393   7.233  0.3090  1.5292  1.3983
14415SOL    HW245446   4.318   1.390   7.179  0.4778  1.7844  0.9374
14416SOL     OW45447   2.653   6.003   9.442 -0.2135 -0.2936 -0.5048
14416SOL    HW145448   2.609   6.006   9.527  0.9854 -1.4110  0.1853
14416SOL    HW245449   2.744   6.028   9.461  0.7147 -2.9988 -0.9521
14417SOL     OW45450   4.661   8.700   9.401 -0.5141 -0.6938 -0.3749
14417SOL    HW145451   4.740   8.652   9.376  0.7053  1.8387 -1.9432
14417SOL    HW245452   4.617   8.718   9.318 -1.8605 -0.6359  0.3268
14418SOL     OW45453   0.666   8.235   0.739  0.3003  0.3736  0.0174
14418SOL    HW145454   0.577   8.233   0.773  0.2979  0.5746  0.0271
14418SOL    HW245455   0.705   8.153   0.768 -0.2758 -0.3024 -1.0751
14419SOL     OW45456   9.348   0.916   0.928  0.5565  0.4826  0.7937
14419SOL    HW145457   9.358   1.010   0.918  1.6751  0.4071  1.0342
14419SOL    HW245458   9.437   0.882   0.928  0.2017 -0.5123  1.2970
14420SOL     OW45459   4.752   3.983   3.187  0.5434 -0.2173 -0.2379
14420SOL    HW145460   4.673   3.945   3.226  0.2796 -0.4671 -0.9984
14420SOL    HW245461   4.726   4.071   3.162  0.8601  0.1203  0.5995
14421SOL     OW45462   5.388   4.160   8.338  0.4028  0.0281  0.2365
14421SOL    HW145463   5.445   4.159   8.415  1.6434  0.3667 -0.6361
14421SOL    HW245464   5.449   4.161   8.264 -0.7515  0.9056 -0.7304
14422SOL     OW45465   5.641   7.126   2.107  0.1514 -0.4459 -0.0443
14422SOL    HW145466   5.581   7.123   2.181 -1.7970  0.9077 -1.4687
14422SOL    HW245467   5.640   7.037   2.071  0.3237 -0.8456  0.9028
14423SOL     OW45468   7.717   0.053   0.975 -0.3089  0.5884  0.1920
14423SOL    HW145469   7.776   0.051   0.901 -1.5102 -1.2226 -0.8116
14423SOL    HW245470   7.769   0.019   1.048 -0.0137 -0.8423 -0.6364
14424SOL     OW45471   0.314   3.800   4.543 -0.3273 -0.4538 -0.2294
14424SOL    HW145472   0.310   3.722   4.487  0.2527 -1.4041  1.0163
14424SOL    HW245473   0.339   3.767   4.629  1.2661  1.2533  0.0392
14425SOL     OW45474   4.007   3.620   1.653  0.2375  0.2708 -0.0519
14425SOL    HW145475   3.955   3.681   1.705  0.2964 -0.8346  1.3728
14425SOL    HW245476   3.961   3.536   1.660  2.1280 -0.7321  1.2309
14426SOL     OW45477   5.216   1.825   2.431  0.1928 -0.8422  0.0326
14426SOL    HW145478   5.253   1.750   2.385 -0.5980 -0.7130 -0.8353
14426SOL    HW245479   5.143   1.789   2.482  0.2521 -0.7674  0.1736
14427SOL     OW45480   2.141   4.674   1.602 -0.6995 -0.0962  0.3848
14427SOL    HW145481   2.140   4.596   1.658  0.2074 -1.1736 -1.0031
14427SOL    HW245482   2.111   4.642   1.517 -0.3143  1.0821 -0.2134
14428SOL     OW45483   7.924   6.753   8.253 -0.5159 -0.2556  0.0363
14428SOL    HW145484   7.904   6.661   8.235  0.0490 -0.4301  0.2688
14428SOL    HW245485   8.009   6.751   8.297 -1.8500  0.1171  2.8371
14429SOL     OW45486   1.548   3.297   9.286 -0.0443  0.6383  0.1010
14429SOL    HW145487   1.599   3.242   9.346 -0.7953 -0.7409 -0.4822
14429SOL    HW245488   1.600   3.300   9.206  0.0955  0.9552  0.2035
14430SOL     OW45489   2.126   5.290   1.113  0.4465 -0.2018  0.1147
14430SOL    HW145490   2.075   5.213   1.088 -0.0906  0.3923 -0.6443
14430SOL    HW245491   2.069   5.364   1.092  0.2674  0.3766  2.3613
14431SOL     OW45492   7.644   6.234   8.954 -0.0202  0.4351  0.1731
14431SOL    HW145493   7.627   6.239   8.860 -1.6637 -0.1482  0.4210
14431SOL    HW245494   7.666   6.324   8.979  1.0328  0.4875 -0.8524
14432SOL     OW45495   5.057   2.987   6.349  0.0399 -0.0139  0.0669
14432SOL    HW145496   5.075   3.010   6.258  2.9344 -2.1170 -0.0163
14432SOL    HW245497   5.059   3.071   6.395  0.4506  0.8949 -1.5258
14433SOL     OW45498   9.154   0.920   6.946 -0.1247  0.3310  0.2531
14433SOL    HW145499   9.127   0.928   6.854  1.6328  2.0242 -0.1869
14433SOL    HW245500   9.113   0.995   6.989  2.7647  2.3313 -0.2112
14434SOL     OW45501   4.764   7.521   1.670  0.2303 -0.6005  0.2199
14434SOL    HW145502   4.813   7.529   1.752 -0.6954  0.2679  0.7099
14434SOL    HW245503   4.751   7.611   1.641 -0.4825 -0.8488 -0.2517
14435SOL     OW45504   3.089   0.427   9.416 -0.3289  0.2581 -0.3836
14435SOL    HW145505   3.104   0.499   9.355  1.0392 -0.0186 -0.4060
14435SOL    HW245506   3.078   0.350   9.361 -0.2804  0.2056 -0.3207
14436SOL     OW45507   4.309   6.579   8.349  0.1499 -0.0652 -0.2036
14436SOL    HW145508   4.372   6.523   8.395  2.5924  1.7011 -1.2019
14436SOL    HW245509   4.235   6.585   8.410  2.4355  0.6563  2.7910
14437SOL     OW45510   8.774   2.068   0.379  0.5023 -0.2226 -0.2167
14437SOL    HW145511   8.774   2.120   0.299 -1.3670  0.8958  0.4307
14437SOL    HW245512   8.838   2.112   0.435 -0.3560  0.8680 -0.0386
14438SOL     OW45513   3.344   8.500   1.737 -0.9140  0.4870 -0.3058
14438SOL    HW145514   3.398   8.457   1.671 -2.3413 -0.0744 -1.1708
14438SOL    HW245515   3.347   8.593   1.714 -0.3546  0.4596 -0.3577
14439SOL     OW45516   7.792   4.872   2.625 -0.4470 -0.2134 -0.3384
14439SOL    HW145517   7.856   4.809   2.658  2.4577  2.7107  0.0620
14439SOL    HW245518   7.800   4.867   2.530  0.4776  0.1846 -0.2886
14440SOL     OW45519   9.244   5.169   7.416  0.1522  0.6467  0.4759
14440SOL    HW145520   9.282   5.081   7.412  0.0846  0.6670 -1.0214
14440SOL    HW245521   9.275   5.213   7.337 -0.8271  1.5523  0.5665
14441SOL     OW45522   9.030   8.182   8.815  0.1666 -0.2937 -0.1602
14441SOL    HW145523   9.009   8.124   8.742  0.7123 -1.8866  0.8952
14441SOL    HW245524   8.995   8.137   8.892 -0.9288  1.6271  0.5409
14442SOL     OW45525   4.439   8.147   1.670  0.7980  0.0536 -0.0769
14442SOL    HW145526   4.375   8.193   1.724  0.9874 -0.8155  0.9268
14442SOL    HW245527   4.386   8.091   1.613  0.6469 -1.5044  1.5231
14443SOL     OW45528   0.932   6.040   5.618 -0.4430 -0.3801  0.6431
14443SOL    HW145529   0.920   5.982   5.542 -0.0190 -0.4309  0.6136
14443SOL    HW245530   0.905   6.126   5.586  1.5019 -0.0140 -0.1578
14444SOL     OW45531   6.212   3.505   5.899  0.7488 -0.1038 -0.2047
14444SOL    HW145532   6.142   3.534   5.840  0.0055  0.0012  0.7012
14444SOL    HW245533   6.213   3.571   5.968  0.6258 -0.9958  0.6614
14445SOL     OW45534   4.670   9.050   7.815 -0.1104  0.5325  0.7029
14445SOL    HW145535   4.638   9.020   7.900  1.9700 -0.3586  1.2460
14445SOL    HW245536   4.628   9.135   7.802 -0.2547  0.8318  2.7844
14446SOL     OW45537   2.108   5.266   2.036  0.7104  0.0104  0.3867
14446SOL    HW145538   2.132   5.328   2.105 -0.3054  0.3240  0.4769
14446SOL    HW245539   2.158   5.187   2.056  1.3051  0.4855  0.8109
14447SOL     OW45540   0.495   2.848   1.343  0.0373 -0.1219 -0.2046
14447SOL    HW145541   0.424   2.817   1.288 -0.4473  0.5164  0.0436
14447SOL    HW245542   0.531   2.924   1.296 -0.5834  0.6219  0.4824
14448SOL     OW45543   8.203   7.020   7.917 -0.0895 -0.0552 -0.1413
14448SOL    HW145544   8.254   6.960   7.864  0.0518 -1.4734  1.5043
14448SOL    HW245545   8.118   6.977   7.927 -1.6634  2.1578 -2.6457
14449SOL     OW45546   1.061   7.517   8.649 -0.3969 -0.5173  0.0634
14449SOL    HW145547   0.996   7.447   8.659 -0.2344 -0.8046 -0.8353
14449SOL    HW245548   1.024   7.574   8.582  0.9588 -1.5191 -1.6252
14450SOL     OW45549   1.401   3.895   3.477  1.1229 -0.0803  0.3644
14450SOL    HW145550   1.397   3.973   3.422  3.3253  0.9957  1.5484
14450SOL    HW245551   1.425   3.824   3.417  0.2847  0.3792 -0.5402
14451SOL     OW45552   2.942   5.272   0.526 -0.0768  0.1015  0.7178
14451SOL    HW145553   2.867   5.232   0.482 -0.4255  0.2200  1.1993
14451SOL    HW245554   2.929   5.252   0.618 -0.6501  1.9388  1.0729
14452SOL     OW45555   7.869   1.887   7.521  0.7369  0.0196  0.2595
14452SOL    HW145556   7.946   1.911   7.572  2.0583  0.1658 -1.6996
14452SOL    HW245557   7.860   1.958   7.457  0.4019 -1.1449 -1.0269
14453SOL     OW45558   5.261   6.598   4.690  0.2375  0.5399 -0.3432
14453SOL    HW145559   5.345   6.561   4.663 -0.6955  0.5576 -3.7309
14453SOL    HW245560   5.278   6.634   4.777  3.3413 -0.6247 -0.3250
14454SOL     OW45561   5.290   7.447   1.742  0.1363 -0.5217  0.0988
14454SOL    HW145562   5.359   7.380   1.748  0.9486  0.4217  2.2887
14454SOL    HW245563   5.336   7.530   1.748 -1.1197  0.1475  0.9693
14455SOL     OW45564   1.229   9.146   4.933  0.0977  0.4842  0.5532
14455SOL    HW145565   1.205   9.222   4.880  4.3707  2.1905  0.6933
14455SOL    HW245566   1.239   9.180   5.021 -0.1336 -0.7943  1.0931
14456SOL     OW45567   3.324   9.039   6.836 -0.2829 -0.0022  0.9752
14456SOL    HW145568   3.318   8.980   6.760 -0.3535 -0.3350  1.2382
14456SOL    HW245569   3.290   9.122   6.803 -2.2220 -0.6695  1.1811
14457SOL     OW45570   1.659   3.114   3.702  0.1645 -0.1147  0.2398
14457SOL    HW145571   1.687   3.077   3.618  0.2758  1.7694 -0.6003
14457SOL    HW245572   1.588   3.056   3.731  0.5991 -1.2063 -0.7908
14458SOL     OW45573   7.864   9.123   5.103 -0.3913 -0.4140  0.2980
14458SOL    HW145574   7.881   9.198   5.159 -0.3572 -1.1720  1.3250
14458SOL    HW245575   7.916   9.139   5.025  2.9431 -1.3255  2.1716
14459SOL     OW45576   7.706   6.640   6.557  0.2945  0.0516 -0.1571
14459SOL    HW145577   7.630   6.590   6.587  1.1017 -1.0090  0.1753
14459SOL    HW245578   7.756   6.657   6.637  1.1505 -0.5334 -0.5609
14460SOL     OW45579   0.063   6.013   2.350 -0.0527 -0.1696  0.0259
14460SOL    HW145580   0.062   5.983   2.259  2.4798 -1.5424  0.3521
14460SOL    HW245581   0.091   6.104   2.345  1.8345 -0.7462 -0.5291
14461SOL     OW45582   2.861   1.462   8.657 -0.0731 -0.0466  0.1881
14461SOL    HW145583   2.787   1.442   8.714 -0.2594 -2.0486 -0.6834
14461SOL    HW245584   2.828   1.530   8.598 -1.0682 -0.5398  0.1508
14462SOL     OW45585   6.782   9.001   8.090 -0.3440 -0.3930 -0.0276
14462SOL    HW145586   6.820   8.941   8.026 -0.3554 -1.8171  1.2658
14462SOL    HW245587   6.852   9.065   8.108 -0.8179  0.9502 -2.5004
14463SOL     OW45588   3.348   7.892   0.830 -0.1079 -0.0827  0.5375
14463SOL    HW145589   3.325   7.974   0.786  0.5526 -0.9289 -1.4725
14463SOL    HW245590   3.361   7.829   0.759 -0.8020 -2.0165  2.0214
14464SOL     OW45591   3.968   4.037   1.491 -0.2677 -0.1325 -1.1485
14464SOL    HW145592   3.910   4.099   1.536  2.0812  0.5515  1.1617
14464SOL    HW245593   4.009   4.088   1.421 -0.3656  0.1668 -0.9881
14465SOL     OW45594   5.441   2.401   9.497  0.6497  0.3489  0.1920
14465SOL    HW145595   5.449   2.389   9.402  0.2136  2.5004 -0.1884
14465SOL    HW245596   5.449   2.313   9.534  2.7863 -0.3330 -1.6821
14466SOL     OW45597   7.946   0.703   9.159  0.5521 -0.5430  0.2181
14466SOL    HW145598   8.027   0.740   9.125  1.0291  0.6590  2.4279
14466SOL    HW245599   7.891   0.779   9.178 -0.5719 -1.2741 -0.0141
14467SOL     OW45600   7.939   0.019   2.090  0.2521  0.2019  0.2942
14467SOL    HW145601   7.935  -0.048   2.022 -0.0363  0.3802  0.1315
14467SOL    HW245602   8.020   0.001   2.137  0.8311  0.5254 -0.5663
14468SOL     OW45603   5.129   3.521   5.381  0.0267  0.2781 -0.4357
14468SOL    HW145604   5.165   3.453   5.324  0.1080 -0.6162  0.6456
14468SOL    HW245605   5.036   3.498   5.390  0.1666  0.0026  0.3451
14469SOL     OW45606   3.304   4.384   8.146  0.3851 -0.2855  0.3428
14469SOL    HW145607   3.342   4.472   8.140  0.1527  0.0081  2.2996
14469SOL    HW245608   3.222   4.390   8.098  0.2325  0.6745  0.6996
14470SOL     OW45609   1.170   9.275   1.063 -0.0730 -0.3108 -0.1640
14470SOL    HW145610   1.249   9.234   1.029  1.1849  1.3072  0.6859
14470SOL    HW245611   1.174   9.365   1.031 -1.3356 -0.0678  0.2996
14471SOL     OW45612   7.401   2.861   4.995  0.5915  0.2577 -0.3363
14471SOL    HW145613   7.366   2.806   4.925  1.3427  0.8387 -1.1881
14471SOL    HW245614   7.439   2.800   5.057 -2.0151 -0.4346  0.7399
14472SOL     OW45615   1.574   1.814   1.669 -0.0032 -0.3799 -0.3621
14472SOL    HW145616   1.508   1.746   1.678 -0.8036  0.4910  0.6697
14472SOL    HW245617   1.524   1.895   1.654  0.8932  0.0786 -0.9843
14473SOL     OW45618   0.233   3.733   1.891 -0.2251  0.1021 -0.7027
14473SOL    HW145619   0.196   3.797   1.952  2.7486  0.3088  1.0766
14473SOL    HW245620   0.278   3.786   1.825  1.6313 -0.0421  0.3737
14474SOL     OW45621   9.451   7.488   3.935 -0.0053 -0.2730 -1.0802
14474SOL    HW145622   9.450   7.394   3.919  2.0105 -0.7296  0.9796
14474SOL    HW245623   9.388   7.502   4.006  1.2588 -0.4480  0.1113
14475SOL     OW45624   2.547   1.603   4.051 -0.6872 -0.4281  0.3575
14475SOL    HW145625   2.626   1.587   3.999 -0.2073  0.4751  0.7853
14475SOL    HW245626   2.480   1.627   3.987 -0.4449 -0.5751  0.0453
14476SOL     OW45627   1.194   8.456   1.627  0.5579 -0.1691 -0.3108
14476SOL    HW145628   1.153   8.537   1.659  2.2243 -0.0761  1.8791
14476SOL    HW245629   1.271   8.486   1.578  0.9102 -0.4005  0.0952
14477SOL     OW45630   4.956   5.723   4.613  0.1316 -0.4038 -0.1148
14477SOL    HW145631   4.988   5.634   4.599 -1.5885 -1.5156  2.3394
14477SOL    HW245632   5.018   5.760   4.677 -1.2295 -1.2871  1.8325
14478SOL     OW45633   6.806   4.584   6.422  0.1612 -0.1109 -0.0730
14478SOL    HW145634   6.881   4.574   6.364  0.1069 -1.4821  0.0605
14478SOL    HW245635   6.759   4.501   6.415  0.5018 -0.5830  2.4101
14479SOL     OW45636   4.668   4.303   7.400 -0.0945  0.5692 -0.6455
14479SOL    HW145637   4.665   4.307   7.304 -0.7522  0.4426 -0.6309
14479SOL    HW245638   4.659   4.210   7.421 -0.6552  0.6718 -0.4358
14480SOL     OW45639   2.971   2.874   6.434 -0.2585 -0.6550  0.2831
14480SOL    HW145640   3.035   2.816   6.393 -1.6157 -2.0404  0.0602
14480SOL    HW245641   3.000   2.881   6.525  2.2174  1.6673 -0.5387
14481SOL     OW45642   2.401   8.637   4.055 -0.4168  0.2047  0.3570
14481SOL    HW145643   2.362   8.711   4.102  1.7096  0.3824  1.9938
14481SOL    HW245644   2.448   8.678   3.982  0.2034  0.4169  0.8699
14482SOL     OW45645   0.345   4.071   8.294 -0.0344  0.0106 -0.4903
14482SOL    HW145646   0.305   4.131   8.231 -2.2538 -1.6986 -0.8748
14482SOL    HW245647   0.289   4.077   8.371  1.3107  0.3765  0.4969
14483SOL     OW45648   9.547   2.340   0.604 -0.0504 -0.3123 -0.0632
14483SOL    HW145649   9.558   2.265   0.663 -0.3181 -0.6699 -0.4594
14483SOL    HW245650   9.457   2.331   0.572  0.0126  0.0249 -0.3295
14484SOL     OW45651   9.117   4.359   3.461 -0.2638 -0.2773 -0.0556
14484SOL    HW145652   9.179   4.349   3.533  0.4390  2.0458 -0.2255
14484SOL    HW245653   9.165   4.329   3.383  1.1602  2.3305 -0.3362
14485SOL     OW45654   6.517   5.202   0.325 -0.4323  0.1226 -0.3403
14485SOL    HW145655   6.552   5.127   0.276  0.4618  0.5463 -0.3630
14485SOL    HW245656   6.495   5.167   0.411  1.7320  0.1997  0.2951
14486SOL     OW45657   9.074   3.908   6.313 -0.3071 -0.3710  0.5984
14486SOL    HW145658   9.027   3.991   6.323 -1.0270 -0.5641 -1.0189
14486SOL    HW245659   9.167   3.934   6.309 -0.3921  0.1903  1.7237
14487SOL     OW45660   4.425   5.605   8.311  0.0287 -0.2718 -0.2669
14487SOL    HW145661   4.443   5.699   8.319  2.1511 -0.6478  0.0063
14487SOL    HW245662   4.396   5.594   8.220  1.1058  0.4604 -0.7205
14488SOL     OW45663   6.446   4.130   7.515 -0.3030  0.3637  0.5279
14488SOL    HW145664   6.495   4.059   7.556 -1.2356 -0.2015  0.7021
14488SOL    HW245665   6.474   4.209   7.561  0.4655  0.0597  0.5886
14489SOL     OW45666   8.033   9.193   9.282  0.1129 -0.0169  0.0967
14489SOL    HW145667   8.078   9.111   9.304 -2.4494 -1.3766  0.6749
14489SOL    HW245668   7.989   9.175   9.199 -0.1761  0.9324  0.0275
14490SOL     OW45669   3.343   9.392   2.910 -0.2095  0.1856 -0.2758
14490SOL    HW145670   3.340   9.302   2.943  1.9558  0.2002  0.0537
14490SOL    HW245671   3.413   9.434   2.959 -1.1410  2.0616 -0.4762
14491SOL     OW45672   4.324   3.251   3.830  0.2459  1.1029 -0.0751
14491SOL    HW145673   4.251   3.293   3.876 -0.0152  0.3187  0.2386
14491SOL    HW245674   4.332   3.165   3.871 -1.1210 -0.3343 -2.5349
14492SOL     OW45675   5.354   4.090   5.560  0.1225  0.1863  0.2457
14492SOL    HW145676   5.410   4.129   5.627  0.6059  0.7709 -0.4781
14492SOL    HW245677   5.398   4.008   5.537 -0.1386 -0.0999  0.7715
14493SOL     OW45678   7.977   3.884   1.969  0.2786  0.3148  0.3482
14493SOL    HW145679   8.018   3.873   1.883  0.0202  1.5864  0.0352
14493SOL    HW245680   8.036   3.943   2.016 -0.1354  0.4998  0.6400
14494SOL     OW45681   5.567   2.321   7.071  0.0515 -0.3593 -0.1469
14494SOL    HW145682   5.523   2.339   6.988 -0.2944  2.6229  0.5577
14494SOL    HW245683   5.514   2.253   7.113 -0.4100 -1.0879 -1.8315
14495SOL     OW45684   3.489   8.128   2.282  0.1136  0.0356 -0.2620
14495SOL    HW145685   3.492   8.139   2.377  1.1821 -0.0580 -0.2718
14495SOL    HW245686   3.401   8.157   2.258  1.0000  3.8041  0.3357
14496SOL     OW45687   7.611   5.789   8.627 -0.5429 -0.1246 -0.8636
14496SOL    HW145688   7.524   5.822   8.605 -1.0635 -1.1507 -0.4367
14496SOL    HW245689   7.599   5.742   8.710  0.7136  0.9340 -0.0390
14497SOL     OW45690   8.717   6.656   5.487  0.1659 -0.0395  0.3302
14497SOL    HW145691   8.665   6.729   5.520  1.6624 -0.3385  3.8401
14497SOL    HW245692   8.686   6.580   5.537  0.1941 -1.4114 -1.6072
14498SOL     OW45693   0.706   1.278   4.805 -0.9279  0.5707  0.3381
14498SOL    HW145694   0.691   1.254   4.897 -2.5051 -0.4344 -0.1255
14498SOL    HW245695   0.625   1.253   4.761 -0.4623  1.6701 -1.2268
14499SOL     OW45696   3.578   2.489   1.649 -0.6326 -0.1675 -0.6582
14499SOL    HW145697   3.522   2.487   1.727  0.5487 -0.2349  0.2214
14499SOL    HW245698   3.520   2.462   1.577 -1.4126 -1.4856  0.4166
14500SOL     OW45699   3.499   1.135   4.401 -0.0794 -0.2083  0.0661
14500SOL    HW145700   3.549   1.212   4.428 -1.7937  0.9677  0.0289
14500SOL    HW245701   3.441   1.117   4.475 -2.2020  0.7603 -1.2738
14501SOL     OW45702   8.356   7.171   5.278  0.0391 -0.1087  0.3047
14501SOL    HW145703   8.441   7.128   5.273  1.3722  1.8013  3.3562
14501SOL    HW245704   8.376   7.261   5.305 -2.8956  0.8801 -0.4039
14502SOL     OW45705   5.679   5.790   7.391  0.3414  0.1579  0.0945
14502SOL    HW145706   5.653   5.809   7.482 -2.7106  1.5112 -0.9332
14502SOL    HW245707   5.751   5.850   7.374  1.2988 -0.4515  1.7358
14503SOL     OW45708   4.672   0.489   0.745  0.3305  0.3454 -0.3281
14503SOL    HW145709   4.651   0.407   0.788 -1.1871  0.0379 -1.5623
14503SOL    HW245710   4.762   0.478   0.713 -0.0822 -1.1056 -1.0577
14504SOL     OW45711   8.283   7.046   8.167  0.3800  0.2806  0.0858
14504SOL    HW145712   8.273   7.044   8.072  0.1757 -0.2071  0.1118
14504SOL    HW245713   8.194   7.052   8.201  0.5333  2.7378  0.2262
14505SOL     OW45714   1.186   1.931   6.196  0.0281 -0.1617 -0.1670
14505SOL    HW145715   1.106   1.908   6.150 -0.0374  0.4034 -0.3513
14505SOL    HW245716   1.255   1.884   6.149  0.2519  2.0445 -2.2594
14506SOL     OW45717   5.629   7.365   5.089 -0.0566  0.1711  0.4138
14506SOL    HW145718   5.624   7.456   5.062  0.1064 -0.2048 -0.9712
14506SOL    HW245719   5.562   7.320   5.036  0.2630 -0.5988  0.6415
14507SOL     OW45720   0.990   4.241   2.414  0.4458 -0.4836  0.4544
14507SOL    HW145721   1.079   4.266   2.391  1.0298 -2.3380  0.5420
14507SOL    HW245722   0.942   4.244   2.332  0.4180  1.0882  0.5049
14508SOL     OW45723   8.211   5.123   0.983  0.0185 -0.4916  0.4708
14508SOL    HW145724   8.259   5.093   1.059  2.7496  0.8883 -0.5607
14508SOL    HW245725   8.263   5.095   0.908 -0.5426  1.4070 -0.7243
14509SOL     OW45726   3.457   6.312   3.233  0.2452  0.2326 -0.1789
14509SOL    HW145727   3.403   6.233   3.234  0.7149 -0.1270 -1.2512
14509SOL    HW245728   3.546   6.280   3.242  0.5483  0.5047 -1.8295
14510SOL     OW45729   6.706   8.374   8.526  0.0093 -0.3807 -0.0590
14510SOL    HW145730   6.684   8.285   8.551 -0.8636 -0.1588 -0.0321
14510SOL    HW245731   6.650   8.430   8.580  0.0941  0.1713 -0.5259
14511SOL     OW45732   6.278   4.454   7.397 -0.5751  0.4674 -0.0387
14511SOL    HW145733   6.212   4.498   7.345 -1.6694  0.7439  1.5093
14511SOL    HW245734   6.257   4.361   7.390 -0.6892  0.5006 -0.1301
14512SOL     OW45735   9.326   6.877   3.268 -0.8699  0.0165 -0.1840
14512SOL    HW145736   9.318   6.969   3.245  1.0578  0.3266  0.2437
14512SOL    HW245737   9.384   6.875   3.344  0.5100 -1.6455 -1.2079
14513SOL     OW45738   4.643   0.532   8.953 -0.6344  0.7357 -0.2276
14513SOL    HW145739   4.586   0.605   8.979  1.2542  1.7837  1.2391
14513SOL    HW245740   4.659   0.547   8.859 -2.3761  0.6498 -0.5680
14514SOL     OW45741   5.960   1.227   4.896 -0.0282  0.3990  0.4678
14514SOL    HW145742   5.981   1.208   4.804  0.4889  0.6118  0.5374
14514SOL    HW245743   5.892   1.294   4.891 -0.1608  0.2497  0.2377
14515SOL     OW45744   8.544   0.351   3.198  0.0443 -0.1448 -0.5095
14515SOL    HW145745   8.527   0.399   3.279 -0.3705 -1.4702  0.2118
14515SOL    HW245746   8.633   0.317   3.207  0.3039  0.3818 -0.9805
14516SOL     OW45747   0.134   8.079   2.951 -0.9127 -0.1114 -0.1780
14516SOL    HW145748   0.061   8.123   2.906 -1.6233 -2.4592 -1.4624
14516SOL    HW245749   0.113   7.986   2.945  2.1272 -0.8672 -0.4219
14517SOL     OW45750   1.666   1.475   0.408 -0.0443 -0.2247  0.3564
14517SOL    HW145751   1.625   1.418   0.344 -1.3881  3.1954 -2.0801
14517SOL    HW245752   1.759   1.477   0.383  0.0643 -1.3690  0.5999
14518SOL     OW45753   7.384   2.178   4.918 -0.0401  0.5847  0.0128
14518SOL    HW145754   7.335   2.101   4.946  2.1119 -1.5288 -1.6181
14518SOL    HW245755   7.342   2.205   4.837  0.3286 -0.0912 -0.4163
14519SOL     OW45756   5.649   7.986   0.504 -0.3500  0.3615 -0.1915
14519SOL    HW145757   5.594   7.960   0.430 -0.5934 -1.4619  0.5897
14519SOL    HW245758   5.735   8.002   0.465 -0.4687 -0.5915 -0.8741
14520SOL     OW45759   8.925   8.631   8.573 -0.0088 -0.2208  0.2585
14520SOL    HW145760   8.873   8.575   8.630 -0.9558 -0.3773 -0.7301
14520SOL    HW245761   8.912   8.595   8.485  2.6279 -0.9277  0.0880
14521SOL     OW45762   1.794   2.335   0.197 -0.5084  0.3668  0.0754
14521SOL    HW145763   1.858   2.405   0.187  0.8072 -1.0601 -2.6750
14521SOL    HW245764   1.835   2.259   0.156 -3.1555 -1.1649  0.0301
14522SOL     OW45765   1.349   4.496   8.399 -0.0152  0.2039 -0.0213
14522SOL    HW145766   1.279   4.550   8.436  0.5724  0.2912  0.9958
14522SOL    HW245767   1.377   4.544   8.322  0.2912  1.2243  0.7005
14523SOL     OW45768   8.152   8.867   1.040 -0.2481  0.5046  0.4865
14523SOL    HW145769   8.068   8.819   1.040  0.9559 -1.7550  0.3526
14523SOL    HW245770   8.214   8.806   1.081  1.6390  1.5178 -0.7225
14524SOL     OW45771   8.190   2.223   7.638  0.1273 -0.4238  0.2339
14524SOL    HW145772   8.139   2.297   7.605  2.0884  0.9054  0.0462
14524SOL    HW245773   8.280   2.242   7.613  0.6944 -3.0113 -0.0167
14525SOL     OW45774   3.724   3.845   0.898 -0.4819 -1.1863 -0.0461
14525SOL    HW145775   3.639   3.804   0.914 -0.1783 -1.4172  1.0519
14525SOL    HW245776   3.739   3.900   0.975 -0.6488  0.6315 -1.2483
14526SOL     OW45777   2.554   6.911   4.435  0.3941 -0.4338  0.1513
14526SOL    HW145778   2.466   6.881   4.413  1.0564 -0.7444 -2.4393
14526SOL    HW245779   2.547   7.007   4.439 -0.1867 -0.4936  0.6665
14527SOL     OW45780   7.382   5.665   9.311  0.4006 -0.7814 -0.0486
14527SOL    HW145781   7.435   5.626   9.381  0.4763 -0.6513 -0.0328
14527SOL    HW245782   7.442   5.722   9.264 -0.0633  0.5413  0.8940
14528SOL     OW45783   2.953   7.501   1.083  0.6336  0.2038 -0.4014
14528SOL    HW145784   2.924   7.427   1.030 -0.8219  0.3992  0.0835
14528SOL    HW245785   3.014   7.463   1.146 -1.2826 -0.9000  0.8659
14529SOL     OW45786   7.379   8.101   3.516 -0.1920  0.0435  0.7237
14529SOL    HW145787   7.406   8.178   3.567 -1.1084 -1.2086  3.3099
14529SOL    HW245788   7.459   8.069   3.476  0.5663  1.1961  1.2572
14530SOL     OW45789   3.093   9.269   5.951 -0.4289 -0.1214  0.1938
14530SOL    HW145790   3.027   9.334   5.974  0.0601  0.7912 -0.8842
14530SOL    HW245791   3.049   9.210   5.890 -0.5213 -0.0847  0.2251
14531SOL     OW45792   9.540   3.091   1.599 -0.4254 -0.1130  0.6073
14531SOL    HW145793   9.481   3.128   1.665 -0.1333  0.3503  0.6156
14531SOL    HW245794   9.500   3.007   1.575 -0.2191 -0.5685  1.8050
14532SOL     OW45795   3.529   2.634   3.822 -0.5346  0.4461 -0.8016
14532SOL    HW145796   3.500   2.686   3.746 -0.8588  0.5753 -0.5947
14532SOL    HW245797   3.464   2.564   3.828 -0.7955  0.7191 -0.3518
14533SOL     OW45798   6.768   7.676   4.062 -0.4353 -0.1672 -0.0070
14533SOL    HW145799   6.821   7.601   4.089  2.4531  1.5083 -0.5840
14533SOL    HW245800   6.808   7.705   3.980 -2.3441  1.2088 -0.5249
14534SOL     OW45801   0.439   8.519   8.802  0.0288 -0.0602 -0.2085
14534SOL    HW145802   0.460   8.612   8.807 -0.3743 -0.0210  1.3488
14534SOL    HW245803   0.343   8.516   8.797 -0.0757 -0.3984  1.4406
14535SOL     OW45804   1.209   4.593   7.437  0.0594 -0.1399  0.4880
14535SOL    HW145805   1.182   4.658   7.501 -2.1036  1.0649 -1.4895
14535SOL    HW245806   1.300   4.615   7.416 -0.4713  1.9890  0.2294
14536SOL     OW45807   2.099   0.683   6.142 -0.9145 -0.8474  0.0961
14536SOL    HW145808   2.064   0.739   6.073  0.9509  2.4892  1.5676
14536SOL    HW245809   2.193   0.679   6.124 -0.5038 -0.5052  1.9432
14537SOL     OW45810   3.304   4.123   3.166 -0.1022 -0.1794  0.0205
14537SOL    HW145811   3.346   4.181   3.230 -0.2506  1.4675 -1.3039
14537SOL    HW245812   3.224   4.093   3.210 -0.1736  0.8669  0.6384
14538SOL     OW45813   4.388   8.631   3.281 -0.2780  0.8782  0.3226
14538SOL    HW145814   4.364   8.622   3.373 -0.8072 -0.2656  0.0917
14538SOL    HW245815   4.480   8.606   3.277 -0.9212 -1.8367  0.1771
14539SOL     OW45816   3.284   5.110   7.943  0.4189  0.1068 -0.7698
14539SOL    HW145817   3.349   5.113   8.013  0.0689  1.4253 -0.4651
14539SOL    HW245818   3.286   5.020   7.911  1.5436 -0.1674  0.0293
14540SOL     OW45819   8.267   1.449   2.252 -0.1209  0.2601 -0.0095
14540SOL    HW145820   8.190   1.506   2.250  0.3829  0.9404 -1.9734
14540SOL    HW245821   8.319   1.475   2.176  0.4122 -2.4680 -0.6808
14541SOL     OW45822   1.646   5.751   1.912  0.2718  0.0195  0.0945
14541SOL    HW145823   1.721   5.707   1.872  0.7698  1.0873 -0.1916
14541SOL    HW245824   1.635   5.708   1.997 -0.7670 -2.2564 -1.1189
14542SOL     OW45825   0.138   4.572   1.643  0.5769  0.0408  0.0364
14542SOL    HW145826   0.200   4.642   1.621  1.3783 -1.2399 -2.0480
14542SOL    HW245827   0.057   4.597   1.598  0.3959  0.3294  0.5069
14543SOL     OW45828   5.367   8.870   5.522 -0.4989 -0.1953  0.2474
14543SOL    HW145829   5.294   8.841   5.468 -0.0737  0.3833 -0.6690
14543SOL    HW245830   5.432   8.901   5.459  0.0924  0.3235  1.0910
14544SOL     OW45831   3.949   2.704   3.990 -0.2635  0.1139  0.4259
14544SOL    HW145832   3.954   2.776   4.053  0.2607  0.4828 -0.0291
14544SOL    HW245833   4.040   2.686   3.967 -0.1750 -2.1603  2.1470
14545SOL     OW45834   1.125   0.505   7.216  0.6068 -0.1813  0.1595
14545SOL    HW145835   1.218   0.529   7.221  0.1897  1.5944  0.1590
14545SOL    HW245836   1.087   0.572   7.159 -0.5740 -1.2411 -0.3257
14546SOL     OW45837   3.446   9.277   6.562  0.3647  0.0008 -0.0832
14546SOL    HW145838   3.363   9.230   6.565  2.0821 -3.2887  0.1063
14546SOL    HW245839   3.493   9.238   6.488  1.8369  1.6406 -0.0809
14547SOL     OW45840   6.280   1.513   1.763  0.3944  0.4762  0.0453
14547SOL    HW145841   6.361   1.543   1.722  0.5363 -0.5995 -0.4887
14547SOL    HW245842   6.265   1.426   1.725 -2.2981  1.6027 -1.7298
14548SOL     OW45843   3.692   7.313   6.923 -0.1377  0.3356 -0.4325
14548SOL    HW145844   3.626   7.382   6.909 -1.3607 -0.2497  2.0092
14548SOL    HW245845   3.774   7.361   6.930 -0.7985  1.4427  0.0652
14549SOL     OW45846   5.632   1.149   5.232 -0.0114  0.0527 -0.1723
14549SOL    HW145847   5.595   1.061   5.234 -1.7926  0.7654 -0.5590
14549SOL    HW245848   5.599   1.188   5.152  0.4578  1.2169  0.1813
14550SOL     OW45849   5.579   3.142   8.197 -0.0117  0.1432 -0.1247
14550SOL    HW145850   5.664   3.185   8.197  0.2505 -0.3624 -0.4907
14550SOL    HW245851   5.581   3.084   8.121 -0.4296 -0.3634  0.2365
14551SOL     OW45852   8.241   7.760   5.912 -0.3178 -0.0175 -0.0327
14551SOL    HW145853   8.169   7.821   5.928 -1.4867 -0.1327 -3.8089
14551SOL    HW245854   8.198   7.674   5.905  0.5880 -0.5085  0.2777
14552SOL     OW45855   8.687   7.212   4.988  0.1178 -0.4661 -0.2426
14552SOL    HW145856   8.730   7.127   4.974  1.4729 -0.1668  1.7203
14552SOL    HW245857   8.734   7.272   4.930  0.6622 -0.6237  0.0314
14553SOL     OW45858   5.143   5.727   3.143  0.0119  0.0765 -0.0221
14553SOL    HW145859   5.180   5.639   3.138 -0.0548  0.1130 -1.5672
14553SOL    HW245860   5.109   5.744   3.056  1.3627  2.2072 -0.2078
14554SOL     OW45861   3.855   3.932   6.924  0.7264  0.1255  0.4081
14554SOL    HW145862   3.807   4.013   6.941 -0.1107 -0.4978  1.0973
14554SOL    HW245863   3.929   3.959   6.870  0.2070  1.2794  0.2420
14555SOL     OW45864   7.767   8.280   9.472 -0.2645  0.2029 -0.2385
14555SOL    HW145865   7.691   8.323   9.511  0.2609 -1.1566  2.5442
14555SOL    HW245866   7.804   8.347   9.414 -2.5811  1.4858 -0.3916
14556SOL     OW45867   2.216   2.362   2.026 -0.3843 -0.6159  1.0172
14556SOL    HW145868   2.145   2.378   1.965  0.1193 -0.2281  0.5241
14556SOL    HW245869   2.244   2.272   2.009 -0.0875 -0.4278  0.5136
14557SOL     OW45870   5.239   8.896   8.902 -0.3010 -0.0062  0.4694
14557SOL    HW145871   5.203   8.884   8.991  0.3925  0.8901  0.8855
14557SOL    HW245872   5.214   8.816   8.856 -0.9425 -0.3586  1.3813
14558SOL     OW45873   0.225   2.424   2.344 -0.4893  0.2409  0.1774
14558SOL    HW145874   0.270   2.407   2.426 -0.1786  0.6117  0.0832
14558SOL    HW245875   0.133   2.432   2.369 -0.2512  1.6853  0.6951
14559SOL     OW45876   0.049   7.125   1.176 -0.1785 -0.0984  0.0085
14559SOL    HW145877  -0.042   7.132   1.148 -0.1224 -1.4122 -0.5278
14559SOL    HW245878   0.074   7.215   1.198 -0.6130  0.8228 -2.9047
14560SOL     OW45879   3.444   7.066   9.174 -0.2616  0.1645 -0.1361
14560SOL    HW145880   3.422   7.087   9.265 -1.3093 -2.9112  0.4161
14560SOL    HW245881   3.450   6.971   9.172 -1.4834  0.0392 -3.5602
14561SOL     OW45882   0.967   2.086   6.909 -0.5537  0.1471 -0.0241
14561SOL    HW145883   0.940   2.158   6.853 -0.3164 -1.4997 -2.4065
14561SOL    HW245884   0.900   2.083   6.977 -2.1599  0.8585 -1.4844
14562SOL     OW45885   9.312   2.355   7.145 -0.0259 -0.1747  1.1375
14562SOL    HW145886   9.286   2.421   7.081  0.7945 -0.2243  0.7460
14562SOL    HW245887   9.253   2.369   7.219 -0.2090  0.6452  0.8444
14563SOL     OW45888   8.932   3.895   5.951  0.2514  0.0220  0.0536
14563SOL    HW145889   8.889   3.850   6.024  2.0860  0.8706  1.7759
14563SOL    HW245890   9.009   3.937   5.991  1.1026  0.8953 -2.3126
14564SOL     OW45891   9.234   6.702   9.561 -0.0348  0.2653  0.0226
14564SOL    HW145892   9.181   6.736   9.634 -0.1660  0.1183 -0.0032
14564SOL    HW245893   9.189   6.733   9.482 -0.1575  0.0290 -0.0010
14565SOL     OW45894   8.662   5.845   7.100 -0.2644  0.1279 -0.4796
14565SOL    HW145895   8.715   5.787   7.045 -0.3261 -0.6873  0.3027
14565SOL    HW245896   8.607   5.786   7.150 -3.2361  0.9782 -2.5024
14566SOL     OW45897   6.268   3.534   2.162 -0.3560 -0.0082 -0.3855
14566SOL    HW145898   6.205   3.564   2.097 -1.0390  2.6515  1.3449
14566SOL    HW245899   6.286   3.611   2.216  1.3331 -1.6830  1.6417
14567SOL     OW45900   6.514   1.999   2.169  0.1954 -0.0479 -0.1586
14567SOL    HW145901   6.556   1.916   2.194 -2.1569 -1.8164 -1.6154
14567SOL    HW245902   6.514   1.997   2.073 -0.1107  1.5542 -0.2099
14568SOL     OW45903   7.203   5.245   6.736 -0.3451  0.1753  0.7172
14568SOL    HW145904   7.183   5.297   6.658 -0.1480  2.0146  1.8367
14568SOL    HW245905   7.157   5.163   6.722 -3.7237  1.9332  0.4581
14569SOL     OW45906   6.212   5.714   2.260 -0.4865 -0.1754 -0.2564
14569SOL    HW145907   6.189   5.622   2.244 -2.3920  0.2183 -0.0603
14569SOL    HW245908   6.255   5.742   2.180 -0.1400 -1.1596 -0.4287
14570SOL     OW45909   5.652   4.223   2.390  0.0827 -0.2888  0.0698
14570SOL    HW145910   5.657   4.283   2.465 -0.2528  0.1993 -0.2904
14570SOL    HW245911   5.657   4.136   2.429  0.5105 -0.0300  0.6097
14571SOL     OW45912   4.672   2.534   9.310 -0.1216  0.0580 -0.3677
14571SOL    HW145913   4.719   2.517   9.391  0.7158  1.9353 -0.3943
14571SOL    HW245914   4.737   2.518   9.241 -0.5700 -0.6816 -0.6303
14572SOL     OW45915   0.415   4.607   2.562 -1.0008  0.1780 -0.6854
14572SOL    HW145916   0.400   4.659   2.483  2.5152  1.2239 -0.8175
14572SOL    HW245917   0.452   4.525   2.531  2.5761  1.4408 -0.2729
14573SOL     OW45918   2.066   8.057   8.456 -0.3950 -0.1502  0.0682
14573SOL    HW145919   1.990   8.101   8.495 -2.2546 -1.7116 -1.5635
14573SOL    HW245920   2.137   8.071   8.519 -2.1677  0.8888  1.9587
14574SOL     OW45921   6.201   9.172   0.742  0.2481  0.5484 -0.2829
14574SOL    HW145922   6.285   9.143   0.777 -0.5754  1.3036  2.5072
14574SOL    HW245923   6.154   9.091   0.722  1.0304  0.1097 -0.3856
14575SOL     OW45924   8.264   5.074   0.703  0.1457  0.6375  0.1888
14575SOL    HW145925   8.250   5.161   0.666 -1.5814  0.0952 -0.5238
14575SOL    HW245926   8.279   5.017   0.627 -2.0079 -0.2411  0.3586
14576SOL     OW45927   6.471   7.104   1.237  0.3502  0.0861  0.2686
14576SOL    HW145928   6.394   7.048   1.219  0.0335  0.3707  0.7336
14576SOL    HW245929   6.461   7.177   1.176 -0.7937  1.1149  1.6208
14577SOL     OW45930   7.556   7.559   9.475 -0.4377 -0.1082 -0.7221
14577SOL    HW145931   7.620   7.629   9.488 -0.8962  0.0882  0.5696
14577SOL    HW245932   7.544   7.556   9.380  0.3880  0.8370 -0.8780
14578SOL     OW45933   3.284   8.857   5.677  0.2395  0.3534 -0.0222
14578SOL    HW145934   3.259   8.914   5.750  1.0129 -0.5882  1.0101
14578SOL    HW245935   3.232   8.889   5.603 -1.2324  0.7688  1.1464
14579SOL     OW45936   7.801   7.544   1.951 -0.5576  0.3577  0.3361
14579SOL    HW145937   7.824   7.476   2.015  0.0843  0.3982  0.1602
14579SOL    HW245938   7.730   7.506   1.900 -0.7110  0.1106  0.7283
14580SOL     OW45939   0.387   7.835   1.732  0.1039  0.5147  0.4764
14580SOL    HW145940   0.295   7.822   1.755  0.0319  2.1386  1.2395
14580SOL    HW245941   0.385   7.867   1.642  0.1977 -2.7997 -0.8466
14581SOL     OW45942   9.061   1.678   7.350 -0.4834 -0.3208  0.0470
14581SOL    HW145943   8.986   1.619   7.345 -0.0075 -0.8406 -1.3706
14581SOL    HW245944   9.039   1.739   7.420 -1.2310 -1.8444  1.1977
14582SOL     OW45945   3.482   6.111   1.544  0.0251 -0.0080 -0.5078
14582SOL    HW145946   3.481   6.162   1.463 -0.7454 -1.4104 -1.4099
14582SOL    HW245947   3.574   6.087   1.556  0.1456  0.2230 -0.9501
14583SOL     OW45948   0.651   2.767   4.446  0.0336 -0.3427 -0.1840
14583SOL    HW145949   0.658   2.681   4.487  1.8999 -0.5271 -0.8020
14583SOL    HW245950   0.670   2.829   4.516 -2.2712 -0.3363  0.4991
14584SOL     OW45951   1.121   0.336   5.476  0.1294  0.1070 -0.0982
14584SOL    HW145952   1.114   0.382   5.559 -0.4194  0.5088 -0.3651
14584SOL    HW245953   1.054   0.267   5.481  0.0976  0.1303 -0.2077
14585SOL     OW45954   0.742   0.647   6.539  0.1923 -0.4125 -0.2326
14585SOL    HW145955   0.679   0.594   6.588 -0.5526  0.4558 -0.2221
14585SOL    HW245956   0.728   0.622   6.447  0.1640 -0.5675 -0.1863
14586SOL     OW45957   9.470   3.333   7.183 -0.2191 -0.6165  0.5411
14586SOL    HW145958   9.387   3.382   7.186 -1.1054 -2.0282  0.2790
14586SOL    HW245959   9.524   3.373   7.251 -1.2394  0.1292  0.9493
14587SOL     OW45960   8.610   4.623   5.637  0.3251 -0.0611 -0.3182
14587SOL    HW145961   8.638   4.549   5.583  0.8560  1.6359 -2.5175
14587SOL    HW245962   8.571   4.684   5.575  0.5232  1.8245  1.3311
14588SOL     OW45963   4.442   8.742   2.579  0.6184  0.2268 -0.1225
14588SOL    HW145964   4.438   8.663   2.525  1.5922  0.1131 -0.0500
14588SOL    HW245965   4.377   8.727   2.648  2.3660 -1.5694  1.2432
14589SOL     OW45966   2.473   4.342   3.870  0.2307  0.4295  0.2684
14589SOL    HW145967   2.462   4.367   3.962 -1.8026  0.9194 -0.0660
14589SOL    HW245968   2.545   4.398   3.839  0.4440  0.7867  1.3468
14590SOL     OW45969   5.124   1.564   9.448  0.3523 -0.2630  0.0199
14590SOL    HW145970   5.205   1.612   9.464 -0.4048  1.0840 -0.0008
14590SOL    HW245971   5.105   1.520   9.531  0.7363 -0.0074  0.2433
14591SOL     OW45972   4.832   7.324   2.123  0.0017 -0.1295  0.1052
14591SOL    HW145973   4.799   7.275   2.049 -3.0503 -0.2181  1.3637
14591SOL    HW245974   4.883   7.261   2.174 -1.3977 -1.2529  0.1786
14592SOL     OW45975   9.559   1.722   3.368 -0.6829 -0.0421  0.1011
14592SOL    HW145976   9.529   1.799   3.416 -1.5154  0.3839 -1.0537
14592SOL    HW245977   9.490   1.656   3.381 -0.2479 -0.4034  0.6149
14593SOL     OW45978   4.467   2.304   4.664  0.4166 -0.4623 -0.7248
14593SOL    HW145979   4.550   2.257   4.651  1.0569  0.0527  1.2086
14593SOL    HW245980   4.402   2.235   4.674  1.3020 -1.0606  1.8010
14594SOL     OW45981   7.838   8.949   7.629  0.3228 -0.3275 -0.3989
14594SOL    HW145982   7.868   8.904   7.550  2.2158  0.8796 -0.4460
14594SOL    HW245983   7.800   9.031   7.597 -1.1689 -0.9171 -0.1864
14595SOL     OW45984   0.406   7.878   7.139 -0.1489 -0.0200  0.0979
14595SOL    HW145985   0.315   7.907   7.146  0.7268  3.0882  0.1300
14595SOL    HW245986   0.414   7.849   7.048 -0.8708  1.0093 -0.3182
14596SOL     OW45987   1.195   0.216   8.371 -0.0259  0.1123 -0.5716
14596SOL    HW145988   1.166   0.244   8.284 -0.5918 -0.2471 -0.5064
14596SOL    HW245989   1.248   0.288   8.403 -1.3613  1.0701 -0.4417
14597SOL     OW45990   7.330   6.742   2.770 -0.1780 -0.0215  0.1219
14597SOL    HW145991   7.402   6.801   2.749 -0.3472  0.6153  1.2605
14597SOL    HW245992   7.325   6.683   2.695  0.0019  1.4003 -1.0732
14598SOL     OW45993   4.082   1.856   8.995  0.0021  0.3678 -0.3146
14598SOL    HW145994   4.079   1.951   8.981 -0.2311  0.3923 -0.0924
14598SOL    HW245995   3.992   1.831   9.014 -0.0499  0.0046 -0.9927
14599SOL     OW45996   9.144   1.876   6.854  0.0636 -0.1908 -0.3954
14599SOL    HW145997   9.069   1.900   6.909 -1.3102 -1.9956 -1.4061
14599SOL    HW245998   9.171   1.790   6.886  1.6971  0.3994 -0.0979
14600SOL     OW45999   1.876   0.830   6.947  0.6283 -0.0635  0.4572
14600SOL    HW146000   1.849   0.799   6.861  2.0495 -0.5239  0.1502
14600SOL    HW246001   1.968   0.855   6.936  0.4537  1.1493  1.5186
14601SOL     OW46002   7.641   8.635   3.877 -0.1142 -0.2547  0.2802
14601SOL    HW146003   7.641   8.569   3.946 -0.4567 -0.2313  0.3017
14601SOL    HW246004   7.622   8.717   3.922 -0.7205 -0.2969  0.1025
14602SOL     OW46005   2.173   5.667   1.388  0.0080  0.2270 -0.2726
14602SOL    HW146006   2.227   5.728   1.437 -1.9103  1.7014  0.1491
14602SOL    HW246007   2.154   5.596   1.449 -1.6341  1.6182  0.9363
14603SOL     OW46008   2.002   7.623   6.450 -0.3211  0.3433 -0.1302
14603SOL    HW146009   2.032   7.603   6.362 -0.1081 -0.2127  0.0593
14603SOL    HW246010   2.030   7.713   6.466 -0.9991  0.6991 -0.8892
14604SOL     OW46011   4.181   1.886   0.781 -0.5899 -0.1489 -0.4615
14604SOL    HW146012   4.263   1.916   0.820 -1.8592  1.9063  0.7835
14604SOL    HW246013   4.192   1.900   0.687  0.0417  1.2912 -0.1905
14605SOL     OW46014   3.065   2.437   6.324  0.2099 -0.4574 -0.0055
14605SOL    HW146015   2.995   2.437   6.260  0.1886  1.0296 -0.0116
14605SOL    HW246016   3.034   2.378   6.393  0.4022 -2.3696 -1.4941
14606SOL     OW46017   8.534   3.213   7.413 -0.6946 -0.7232 -0.2775
14606SOL    HW146018   8.499   3.126   7.394 -3.1254  0.4509 -1.5440
14606SOL    HW246019   8.474   3.251   7.476 -0.2851  0.4369 -0.5565
14607SOL     OW46020   6.854   8.819   6.234 -0.7229  0.1426  0.0106
14607SOL    HW146021   6.837   8.895   6.290 -1.9606  0.4483 -0.7354
14607SOL    HW246022   6.860   8.745   6.294 -0.7728  0.6521  0.6453
14608SOL     OW46023   2.641   6.816   6.631 -0.5781  0.5748  0.3089
14608SOL    HW146024   2.697   6.861   6.568  0.9577 -2.2126 -0.5307
14608SOL    HW246025   2.647   6.868   6.711 -0.3247  2.7058 -1.0219
14609SOL     OW46026   3.740   6.241   1.083 -0.2169 -0.2471  0.1355
14609SOL    HW146027   3.748   6.219   1.176  0.7711  1.1429  0.4140
14609SOL    HW246028   3.799   6.316   1.071 -1.7306  0.8035 -1.1919
14610SOL     OW46029   2.093   0.108   8.897 -0.0279  0.8594 -0.2929
14610SOL    HW146030   2.071   0.084   8.987  3.4020  0.0750  0.4700
14610SOL    HW246031   2.116   0.201   8.902 -1.7409  1.3504 -0.8347
14611SOL     OW46032   6.386   0.172   4.981  0.1226  0.1197  0.6550
14611SOL    HW146033   6.397   0.230   4.906  0.7552  0.0618  0.7004
14611SOL    HW246034   6.310   0.118   4.959  0.4937 -0.1095 -0.0759
14612SOL     OW46035   2.658   2.024   5.940 -0.1699 -0.2779  0.1092
14612SOL    HW146036   2.617   2.001   6.023  0.4213 -1.2821  0.1341
14612SOL    HW246037   2.644   2.119   5.933  0.5318  0.0018  1.7939
14613SOL     OW46038   1.282   4.527   3.119  0.2821 -0.3991 -0.1396
14613SOL    HW146039   1.192   4.557   3.124  0.1127 -0.7708 -0.8015
14613SOL    HW246040   1.293   4.497   3.028  0.6232 -1.7473  0.3150
14614SOL     OW46041   8.528   8.219   5.030  0.1655 -0.1669  0.1973
14614SOL    HW146042   8.492   8.257   4.950 -1.0485  0.5300  1.0362
14614SOL    HW246043   8.454   8.176   5.072  0.5523  0.2856  1.4016
14615SOL     OW46044   2.891   1.150   8.095 -0.0794 -0.2236 -0.6537
14615SOL    HW146045   2.841   1.229   8.071 -0.2362 -0.0941  0.0630
14615SOL    HW246046   2.838   1.108   8.163 -0.1505 -1.1231 -1.2519
14616SOL     OW46047   4.377   2.199   5.125  0.1933 -1.2230  0.1180
14616SOL    HW146048   4.355   2.153   5.205  1.0462 -1.9477 -0.0495
14616SOL    HW246049   4.469   2.177   5.109 -0.0832 -1.4441 -1.2820
14617SOL     OW46050   1.210   2.214   6.231 -0.4322  0.6229 -0.4597
14617SOL    HW146051   1.184   2.258   6.150  1.5250 -2.0059 -2.7027
14617SOL    HW246052   1.193   2.121   6.214  1.3561 -0.1587  1.6232
14618SOL     OW46053   1.754   7.818   6.934  0.0531 -0.2121  0.2321
14618SOL    HW146054   1.724   7.761   6.863  0.1489 -0.1349  0.1309
14618SOL    HW246055   1.766   7.903   6.893 -2.2520  0.4609  0.8113
14619SOL     OW46056   8.750   5.671   2.817 -0.4689 -0.0453 -0.0847
14619SOL    HW146057   8.844   5.656   2.809 -0.3604  0.3515  0.3752
14619SOL    HW246058   8.737   5.694   2.909 -1.0814 -0.5307 -0.0405
14620SOL     OW46059   4.127   0.868   5.059  0.1825  0.5279 -1.2938
14620SOL    HW146060   4.121   0.925   5.136  3.4195  2.7345 -2.4428
14620SOL    HW246061   4.060   0.901   4.999  0.3340  1.5043 -0.9411
14621SOL     OW46062   6.058   1.791   4.191  0.0874  0.1428  0.1724
14621SOL    HW146063   6.139   1.830   4.159  0.3978  0.3856  1.2090
14621SOL    HW246064   6.086   1.731   4.259 -0.5752 -0.0772  0.2539
14622SOL     OW46065   1.814   2.972   7.333  0.2141  0.3871 -0.0304
14622SOL    HW146066   1.778   2.883   7.338  2.3925 -0.7070 -2.1149
14622SOL    HW246067   1.739   3.029   7.352 -1.6216 -1.8320 -0.1674
14623SOL     OW46068   3.214   3.328   6.896  0.1159  0.3260 -0.2513
14623SOL    HW146069   3.299   3.366   6.918 -1.1118  3.7425 -0.8451
14623SOL    HW246070   3.187   3.373   6.816 -1.4332 -2.1072 -1.2154
14624SOL     OW46071   6.029   5.022   8.270 -0.0634 -0.1793 -0.2585
14624SOL    HW146072   6.102   4.963   8.249  0.5231  0.5957 -0.4146
14624SOL    HW246073   5.979   4.974   8.336  1.9919  0.2793  1.7623
14625SOL     OW46074   1.235   3.493   0.495  0.1500  0.4583 -0.4339
14625SOL    HW146075   1.195   3.510   0.410  1.7070  0.4637 -1.1856
14625SOL    HW246076   1.298   3.563   0.508  1.7656 -0.9119 -0.4747
14626SOL     OW46077   2.489   4.580   1.582 -0.0037 -0.3351  0.4294
14626SOL    HW146078   2.565   4.612   1.534 -0.4648  1.6160  0.8876
14626SOL    HW246079   2.422   4.567   1.515  0.3192 -0.7526  0.1824
14627SOL     OW46080   4.845   9.302   2.986 -0.3368 -0.5078  0.2541
14627SOL    HW146081   4.857   9.385   3.031 -0.9393  0.7149 -1.7331
14627SOL    HW246082   4.907   9.304   2.914 -0.7035 -1.5629 -0.1090
14628SOL     OW46083   6.306   6.163   7.424  0.1150 -0.6312  0.2104
14628SOL    HW146084   6.362   6.085   7.419  1.0159  0.0392 -0.5827
14628SOL    HW246085   6.220   6.129   7.446  0.1266 -2.0361 -1.6749
14629SOL     OW46086   8.402   4.856   4.082  0.0609  0.3850 -0.0863
14629SOL    HW146087   8.356   4.809   4.012  1.9266 -0.3264 -0.8826
14629SOL    HW246088   8.438   4.934   4.039  0.3532  0.4794  0.3278
14630SOL     OW46089   1.996   4.677   1.291 -0.0543 -0.5471 -0.0839
14630SOL    HW146090   2.057   4.713   1.228  0.3158 -1.2683 -0.1428
14630SOL    HW246091   2.010   4.582   1.288  1.6326 -0.4968  2.7180
14631SOL     OW46092   3.033   0.659   9.272  0.0325 -0.3270 -0.5416
14631SOL    HW146093   3.047   0.720   9.344  2.2749  1.4317 -2.2833
14631SOL    HW246094   2.957   0.608   9.297  0.1734  0.8219  2.6116
14632SOL     OW46095   6.238   6.195   5.286 -0.5595 -0.1010 -0.0979
14632SOL    HW146096   6.150   6.158   5.290 -0.6728 -0.0223 -1.4669
14632SOL    HW246097   6.241   6.257   5.359 -1.0595 -1.2972  0.9683
14633SOL     OW46098   4.982   7.106   0.960 -0.0228  0.1134 -0.5126
14633SOL    HW146099   5.065   7.104   1.008  0.1140  0.0505 -0.7495
14633SOL    HW246100   4.971   7.197   0.934  1.0697 -0.2543 -2.3729
14634SOL     OW46101   8.763   0.906   7.948  0.4132 -0.1809  1.1423
14634SOL    HW146102   8.786   0.816   7.925  0.6054  0.1348  0.0090
14634SOL    HW246103   8.847   0.952   7.950  0.1993  0.2696  0.2810
14635SOL     OW46104   3.299   0.864   9.305  0.2886  0.4621 -0.3123
14635SOL    HW146105   3.346   0.785   9.334 -1.8938 -1.2980 -1.2586
14635SOL    HW246106   3.292   0.918   9.384  1.9235 -0.2180  0.3455
14636SOL     OW46107   2.443   9.267   7.320 -0.1388  0.4362 -0.4616
14636SOL    HW146108   2.452   9.339   7.382 -2.0522 -0.0156  0.4299
14636SOL    HW246109   2.503   9.200   7.351  1.3300  1.4368 -1.0437
14637SOL     OW46110   6.029   4.420   5.008  0.0515 -0.3717 -0.5502
14637SOL    HW146111   5.994   4.505   5.034 -1.1265 -1.0808  0.2546
14637SOL    HW246112   6.120   4.422   5.038 -0.0333  0.5044 -0.3105
14638SOL     OW46113   0.276   9.080   7.375  0.0172 -0.1006  0.0400
14638SOL    HW146114   0.226   9.001   7.398 -0.3882  0.3521  0.7798
14638SOL    HW246115   0.260   9.139   7.448 -0.4752  1.0307 -0.9523
14639SOL     OW46116   5.919   2.624   7.430 -0.4988  0.5622 -0.2759
14639SOL    HW146117   6.006   2.617   7.391  0.5899 -1.0678  2.2164
14639SOL    HW246118   5.862   2.649   7.357  1.5313 -1.3460 -2.6929
14640SOL     OW46119   8.056   3.074   0.759  0.0703 -0.1587 -0.2787
14640SOL    HW146120   8.114   3.103   0.689 -1.4106  1.6661 -0.8503
14640SOL    HW246121   7.983   3.136   0.756 -1.8034 -2.1911  0.5317
14641SOL     OW46122   1.473   0.113   2.010 -0.5174 -0.4195 -0.6677
14641SOL    HW146123   1.545   0.133   1.951 -0.0878 -0.3657 -0.1363
14641SOL    HW246124   1.505   0.138   2.097 -0.9402 -0.9779 -0.3404
14642SOL     OW46125   8.236   3.631   4.324 -0.6698 -0.0513  0.2559
14642SOL    HW146126   8.292   3.573   4.273 -1.5158 -0.8774  0.2490
14642SOL    HW246127   8.234   3.592   4.411 -2.2498 -0.7552 -0.0713
14643SOL     OW46128   0.099   5.844   4.833 -0.7902  0.5559 -0.0796
14643SOL    HW146129   0.156   5.780   4.876 -0.7850 -0.9212 -2.1433
14643SOL    HW246130   0.151   5.924   4.827  0.5835 -0.3609 -0.6978
14644SOL     OW46131   4.467   7.696   2.442 -0.1270 -0.2606 -0.7641
14644SOL    HW146132   4.560   7.687   2.422 -0.6294 -1.9285 -2.7446
14644SOL    HW246133   4.452   7.790   2.447  1.2151  0.1374 -2.9340
14645SOL     OW46134   5.557   7.316   4.189  0.2539 -0.2471  0.5495
14645SOL    HW146135   5.518   7.294   4.104 -0.7479  1.3246  0.5664
14645SOL    HW246136   5.597   7.402   4.175 -1.2255  0.7362  2.0359
14646SOL     OW46137   1.103   2.099   2.533  0.3674 -0.5560  0.4380
14646SOL    HW146138   1.107   2.156   2.456  1.9081 -0.8906  0.2321
14646SOL    HW246139   1.046   2.027   2.507 -0.9689  0.4659  0.4290
14647SOL     OW46140   3.272   9.567   0.975  0.4920  0.5176  0.2550
14647SOL    HW146141   3.264   9.626   0.900 -0.6540  0.2144  0.1181
14647SOL    HW246142   3.244   9.619   1.050 -1.9977 -0.2210 -0.0682
14648SOL     OW46143   8.911   5.815   2.476 -0.1580  0.3975 -0.4033
14648SOL    HW146144   8.883   5.876   2.545 -1.1090 -0.8992  0.4245
14648SOL    HW246145   9.006   5.809   2.485  0.1524  2.8139 -1.4524
14649SOL     OW46146   8.040   5.761   0.756  0.1427 -0.1428  0.0094
14649SOL    HW146147   7.970   5.821   0.731 -0.7608 -0.9854  0.4608
14649SOL    HW246148   8.084   5.741   0.674  1.2144  2.0060 -0.0195
14650SOL     OW46149   0.663   4.185   5.723 -0.1718 -0.2804 -0.3389
14650SOL    HW146150   0.707   4.248   5.780 -1.4509  1.6514 -1.4094
14650SOL    HW246151   0.692   4.207   5.635 -2.5395  0.4891 -0.9883
14651SOL     OW46152   0.059   7.806   8.259  0.2085  0.1582 -0.1559
14651SOL    HW146153   0.129   7.809   8.325  0.7468  0.0889 -0.7076
14651SOL    HW246154   0.083   7.875   8.196  1.2264 -1.5555 -1.7486
14652SOL     OW46155   8.630   7.015   6.180  0.2279  0.0232 -0.1361
14652SOL    HW146156   8.568   6.966   6.233  1.1817 -0.8364  0.2411
14652SOL    HW246157   8.608   7.107   6.195  1.2704 -0.0988  2.8486
14653SOL     OW46158   2.507   7.438   1.999  0.1846  0.1132 -0.4560
14653SOL    HW146159   2.585   7.390   2.026  0.1533  0.6779  0.6772
14653SOL    HW246160   2.467   7.383   1.932  0.9778 -0.6884 -0.2852
14654SOL     OW46161   8.510   8.984   5.187 -0.1346 -0.0098 -0.1419
14654SOL    HW146162   8.539   8.915   5.128  1.4099 -0.1611  0.7450
14654SOL    HW246163   8.482   9.055   5.129  1.7765  0.0182 -1.1048
14655SOL     OW46164   7.959   1.334   6.064 -0.7904  0.3168 -0.0989
14655SOL    HW146165   7.878   1.290   6.088 -0.4307 -0.1311  0.3237
14655SOL    HW246166   7.939   1.379   5.982 -1.1399 -0.7455 -0.6190
14656SOL     OW46167   6.538   2.177   8.518 -0.1985  0.1458 -0.6711
14656SOL    HW146168   6.455   2.222   8.505  0.2074  1.1947  0.2630
14656SOL    HW246169   6.600   2.246   8.540  0.4883 -0.8308  0.5559
14657SOL     OW46170   0.567   8.781   4.202  0.4931  0.2987 -0.2380
14657SOL    HW146171   0.589   8.809   4.113  3.1665 -0.4266  0.1272
14657SOL    HW246172   0.568   8.686   4.198  1.4896  0.2520  0.7249
14658SOL     OW46173   8.551   6.705   5.934 -0.0042  0.4712 -0.0126
14658SOL    HW146174   8.486   6.773   5.915 -0.2872 -0.0042 -0.7766
14658SOL    HW246175   8.508   6.648   5.998 -1.3092 -1.1993 -2.2533
14659SOL     OW46176   7.873   8.512   6.254 -0.3056  0.1161  0.7433
14659SOL    HW146177   7.844   8.587   6.306 -2.3967  1.2305 -1.8327
14659SOL    HW246178   7.966   8.529   6.238 -0.9394  2.8357 -0.6828
14660SOL     OW46179   0.251   8.476   3.390 -0.0848 -0.7251 -0.0486
14660SOL    HW146180   0.223   8.556   3.344 -1.5556 -1.4093 -0.3788
14660SOL    HW246181   0.264   8.504   3.480  0.8874  0.1996 -0.4476
14661SOL     OW46182   8.463   9.222   4.579  0.1362 -0.2288  0.1194
14661SOL    HW146183   8.385   9.237   4.525  0.5031  1.0011 -0.1030
14661SOL    HW246184   8.434   9.233   4.669 -0.2776 -1.3779  0.1498
14662SOL     OW46185   4.467   6.310   2.091  0.3090 -0.0879 -0.3403
14662SOL    HW146186   4.536   6.249   2.119  0.7631  0.8789  0.7094
14662SOL    HW246187   4.397   6.297   2.155  0.3586  0.3959 -0.1845
14663SOL     OW46188   0.257   6.906   5.729 -0.0650 -0.4746 -0.7354
14663SOL    HW146189   0.333   6.874   5.777  0.8989  4.5241  1.7666
14663SOL    HW246190   0.186   6.907   5.793 -0.3213  1.0854 -1.0001
14664SOL     OW46191   2.692   3.325   3.744 -0.6310 -0.2811 -0.6773
14664SOL    HW146192   2.744   3.313   3.824 -0.7999 -2.5590 -0.8482
14664SOL    HW246193   2.656   3.413   3.752  0.2010 -0.0689  1.2665
14665SOL     OW46194   5.351   8.441   7.189  0.0128 -0.2656 -0.1188
14665SOL    HW146195   5.260   8.453   7.163 -0.6729 -2.0406  1.2082
14665SOL    HW246196   5.401   8.444   7.108 -1.2761  0.2996 -0.9159
14666SOL     OW46197   4.802   2.722   0.926 -0.7901 -0.1371  0.2672
14666SOL    HW146198   4.795   2.626   0.919 -1.0024 -0.4274  3.2142
14666SOL    HW246199   4.863   2.747   0.857  1.5473 -2.7853  1.1881
14667SOL     OW46200   5.499   2.532   8.903 -0.3166  0.6113 -0.8236
14667SOL    HW146201   5.523   2.439   8.899 -1.5168  0.2854 -0.8583
14667SOL    HW246202   5.560   2.570   8.965 -1.5578 -0.7869  1.3822
14668SOL     OW46203   3.983   8.398   7.378  0.0393 -0.1717 -0.2422
14668SOL    HW146204   3.976   8.318   7.430  5.1259 -0.3516  0.7561
14668SOL    HW246205   4.012   8.369   7.292 -3.6450  0.4621 -1.8913
14669SOL     OW46206   5.296   3.090   0.336  0.0813  0.2078 -0.1390
14669SOL    HW146207   5.272   3.092   0.429 -0.1233  1.1703 -0.1966
14669SOL    HW246208   5.345   3.009   0.325  0.4232  0.2599  0.8953
14670SOL     OW46209   7.422   2.693   2.496  0.4937 -0.7140 -0.0978
14670SOL    HW146210   7.463   2.611   2.470 -0.1473 -1.3514  0.8623
14670SOL    HW246211   7.355   2.668   2.559  0.1956  0.5383  0.1126
14671SOL     OW46212   8.668   4.315   2.695 -0.0376 -0.1095  0.6446
14671SOL    HW146213   8.573   4.319   2.704 -0.0198  0.1923  0.6810
14671SOL    HW246214   8.691   4.392   2.643  0.1081 -0.5798  0.0013
14672SOL     OW46215   8.250   7.677   9.092  0.1067 -0.1986 -0.1490
14672SOL    HW146216   8.161   7.709   9.077 -0.1057 -0.0887  1.1873
14672SOL    HW246217   8.294   7.748   9.138  0.5169 -0.7043  0.2651
14673SOL     OW46218   6.507   7.903   5.957  0.2061  0.0356 -0.5422
14673SOL    HW146219   6.438   7.952   5.913 -1.0014 -0.4950  0.6799
14673SOL    HW246220   6.585   7.959   5.950 -0.8951  1.7184  0.0108
14674SOL     OW46221   7.517   0.572   7.909  0.5519 -0.1165 -0.1245
14674SOL    HW146222   7.565   0.492   7.931 -0.3846 -0.3366  1.2168
14674SOL    HW246223   7.434   0.542   7.872  0.7285  0.2601 -0.8585
14675SOL     OW46224   8.191   6.602   4.463  0.3477 -0.1444 -0.3836
14675SOL    HW146225   8.118   6.588   4.523  0.7738  0.3599  0.2719
14675SOL    HW246226   8.205   6.697   4.464 -0.4956  0.0529 -2.3259
14676SOL     OW46227   8.271   6.937   6.171 -0.0396  0.1516 -0.1724
14676SOL    HW146228   8.247   6.871   6.236  0.8874 -0.1168 -0.0752
14676SOL    HW246229   8.270   7.020   6.220 -1.2399  0.2291 -0.3034
14677SOL     OW46230   7.563   4.516   1.527  0.1554 -0.1756 -0.1036
14677SOL    HW146231   7.565   4.463   1.607  0.6265 -0.6056 -0.3980
14677SOL    HW246232   7.604   4.598   1.552  0.4535 -0.3709  0.0530
14678SOL     OW46233   5.834   1.068   5.693  0.0846  0.1238  0.0856
14678SOL    HW146234   5.794   1.105   5.614  0.0789 -0.5696 -0.2377
14678SOL    HW246235   5.793   1.116   5.765  0.4023  1.0732 -0.3367
14679SOL     OW46236   2.974   6.044   8.491  0.2426 -0.5732 -0.2526
14679SOL    HW146237   2.881   6.023   8.500 -0.2883  0.4622 -2.4697
14679SOL    HW246238   3.007   5.979   8.429  0.7105 -0.2249 -0.3750
14680SOL     OW46239   2.177   1.164   9.390 -0.4518 -0.4311  0.4565
14680SOL    HW146240   2.137   1.246   9.361 -1.4842 -0.8517  0.6542
14680SOL    HW246241   2.170   1.167   9.486 -0.7136 -0.8533  0.4525
14681SOL     OW46242   4.651   2.728   1.181 -0.3474  0.4252  0.6214
14681SOL    HW146243   4.679   2.743   1.091  2.3583  1.7573  1.5458
14681SOL    HW246244   4.556   2.724   1.177 -0.4899  3.0690 -1.9667
14682SOL     OW46245   0.191   3.396   3.138  0.0937 -0.0850 -0.0125
14682SOL    HW146246   0.146   3.455   3.198 -0.9720 -0.9671  0.0694
14682SOL    HW246247   0.258   3.354   3.192  0.0090  0.0990  0.2373
14683SOL     OW46248   9.497   2.557   1.185 -0.1563  0.1079  0.1311
14683SOL    HW146249   9.515   2.594   1.099  0.7036  1.2158  0.7560
14683SOL    HW246250   9.565   2.594   1.241 -0.6319 -0.6860  1.2637
14684SOL     OW46251   4.796   9.232   1.605  0.7317 -0.7809  0.2851
14684SOL    HW146252   4.879   9.198   1.572  0.1609 -1.3690 -0.6024
14684SOL    HW246253   4.735   9.219   1.532 -0.6352 -2.2930  1.6208
14685SOL     OW46254   1.333   2.637   4.335  0.6183 -0.4774 -0.2866
14685SOL    HW146255   1.338   2.691   4.255  1.9619 -1.0142 -0.6012
14685SOL    HW246256   1.424   2.634   4.366  0.0437  0.1829  1.5976
14686SOL     OW46257   5.731   2.084   4.294 -0.2115 -0.4204 -0.5417
14686SOL    HW146258   5.819   2.057   4.267 -0.4495 -0.6276 -1.1316
14686SOL    HW246259   5.734   2.084   4.389  0.9178  1.1366 -0.5327
14687SOL     OW46260   1.176   4.343   3.622  0.5043 -0.3479  0.0681
14687SOL    HW146261   1.099   4.399   3.633 -1.6104 -2.9223 -0.5070
14687SOL    HW246262   1.193   4.344   3.527  0.4228 -0.6743  0.0466
14688SOL     OW46263   0.741   3.816   7.630 -0.0238  0.2738 -0.4566
14688SOL    HW146264   0.784   3.764   7.698  0.8195  0.3117 -0.9399
14688SOL    HW246265   0.661   3.769   7.610  1.2086 -1.4660 -1.6398
14689SOL     OW46266   3.367   8.505   6.566 -0.4240 -0.1205  0.2925
14689SOL    HW146267   3.283   8.550   6.551  0.1153  0.2747 -1.8586
14689SOL    HW246268   3.433   8.572   6.551  0.3281 -0.9125  0.0042
14690SOL     OW46269   5.572   3.776   3.308  0.3151 -0.3251  0.0467
14690SOL    HW146270   5.510   3.703   3.297  1.7954 -1.6309  0.0057
14690SOL    HW246271   5.617   3.757   3.390  0.8332  0.4744 -0.0474
14691SOL     OW46272   7.861   8.424   3.096  0.7138 -0.1286 -0.1154
14691SOL    HW146273   7.953   8.441   3.115  0.3725 -0.7699  2.6445
14691SOL    HW246274   7.820   8.510   3.095  1.2741  0.1426 -1.1243
14692SOL     OW46275   7.042   9.237   2.236 -0.1011 -0.3213  0.2483
14692SOL    HW146276   6.960   9.223   2.283 -1.2020  1.6663 -0.9378
14692SOL    HW246277   7.064   9.151   2.199 -3.1901 -0.3884 -1.7501
14693SOL     OW46278   0.894   1.901   0.685 -0.2784  0.3803  0.1545
14693SOL    HW146279   0.963   1.907   0.620 -1.7736 -0.1865 -1.5480
14693SOL    HW246280   0.858   1.990   0.690 -1.1123  0.1240 -0.9181
14694SOL     OW46281   4.017   4.537   6.483  0.6707  0.0193 -0.3463
14694SOL    HW146282   3.926   4.561   6.467  0.4791 -0.1816  0.3947
14694SOL    HW246283   4.067   4.613   6.455  0.0662  1.4209  2.0723
14695SOL     OW46284   5.487   1.552   1.674 -0.0253 -0.1279 -0.5266
14695SOL    HW146285   5.451   1.470   1.639 -0.3331 -0.0531 -0.3838
14695SOL    HW246286   5.425   1.579   1.742 -0.4413  0.7235 -1.2223
14696SOL     OW46287   2.148   3.938   3.924  0.1624  0.6087  0.5176
14696SOL    HW146288   2.183   4.025   3.943  0.4809  0.8772 -1.1362
14696SOL    HW246289   2.065   3.955   3.879  0.3755  0.0758 -0.0979
14697SOL     OW46290   4.889   1.579   8.773  0.4562  0.2246  0.2884
14697SOL    HW146291   4.802   1.574   8.735 -0.2404  0.7235  1.7226
14697SOL    HW246292   4.947   1.601   8.700 -0.6985  0.4629 -0.5774
14698SOL     OW46293   6.243   1.054   5.254  0.0111  0.0607  0.2181
14698SOL    HW146294   6.190   1.080   5.329 -1.1703 -2.1437  0.2346
14698SOL    HW246295   6.218   1.115   5.185 -0.7170  0.5852  0.9207
14699SOL     OW46296   6.097   3.466   9.102  0.4442  0.3525 -0.2923
14699SOL    HW146297   6.119   3.409   9.176  0.3796  0.0816 -0.4801
14699SOL    HW246298   6.009   3.499   9.122  0.7396  0.9067  0.1345
14700SOL     OW46299   5.527   3.253   0.222  0.0859 -0.3504  0.1916
14700SOL    HW146300   5.461   3.184   0.231 -0.9976  0.1015 -2.8941
14700SOL    HW246301   5.477   3.335   0.228  0.9710  0.1251  1.4065
14701SOL     OW46302   0.127   5.296   7.759 -0.2850  0.0451  0.6451
14701SOL    HW146303   0.061   5.287   7.691 -1.4941  0.1572  1.7763
14701SOL    HW246304   0.193   5.354   7.721 -1.5444  1.1029  0.0119
14702SOL     OW46305   1.961   0.669   9.268  0.3728 -0.1815  0.7889
14702SOL    HW146306   2.045   0.637   9.302  2.2471  1.6042 -1.7659
14702SOL    HW246307   1.960   0.762   9.293  0.2740  0.3562 -1.1090
14703SOL     OW46308   1.644   0.787   1.409  0.0327  0.0700  0.2723
14703SOL    HW146309   1.656   0.879   1.436  1.3913 -0.2188  0.7482
14703SOL    HW246310   1.554   0.766   1.435 -0.0879  1.0865  0.7349
14704SOL     OW46311   7.807   6.776   7.184 -0.5387  0.3899 -0.1676
14704SOL    HW146312   7.829   6.834   7.257  0.6204 -0.2760  0.0340
14704SOL    HW246313   7.751   6.829   7.127 -0.1090  1.4502  0.3799
14705SOL     OW46314   1.107   1.105   3.278  0.7665 -0.0569  0.6591
14705SOL    HW146315   1.097   1.053   3.198  1.7349 -1.5601  1.4805
14705SOL    HW246316   1.187   1.155   3.264  1.3037 -0.8240  0.9416
14706SOL     OW46317   7.080   6.794   3.870  0.3274 -0.3819  0.4927
14706SOL    HW146318   7.153   6.776   3.811  0.1603 -1.2868  0.5468
14706SOL    HW246319   7.006   6.748   3.832  0.1511 -0.7482  1.2465
14707SOL     OW46320   3.025   2.394   0.397  0.6154 -0.0088  0.0706
14707SOL    HW146321   2.981   2.325   0.348  0.8760  0.5102 -0.9106
14707SOL    HW246322   3.106   2.411   0.348  1.7700 -0.6981  1.6351
14708SOL     OW46323   4.107   8.302   8.885 -0.4697  0.1840 -0.1080
14708SOL    HW146324   4.138   8.216   8.857 -0.6726 -0.1333  0.6160
14708SOL    HW246325   4.161   8.323   8.962 -2.1769 -0.5041  1.3515
14709SOL     OW46326   3.677   4.877   7.181  0.4711 -0.4210 -0.0989
14709SOL    HW146327   3.623   4.838   7.112  1.3905 -0.5120 -0.7895
14709SOL    HW246328   3.753   4.818   7.188  2.1026  1.3696 -1.4451
14710SOL     OW46329   3.145   6.577   5.690  0.2150 -0.2321  0.6603
14710SOL    HW146330   3.077   6.560   5.754  1.1160 -0.3745  1.6029
14710SOL    HW246331   3.221   6.529   5.722  0.4758 -0.9534 -0.9283
14711SOL     OW46332   5.229   6.670   1.014 -0.1429  0.3141 -0.1424
14711SOL    HW146333   5.161   6.685   0.949 -1.0467  1.5013  1.0198
14711SOL    HW246334   5.244   6.757   1.053  0.2243 -0.3900  1.3478
14712SOL     OW46335   6.507   8.351   3.645 -0.4941 -0.2063  0.1279
14712SOL    HW146336   6.438   8.308   3.594 -1.4075  1.8037 -0.4785
14712SOL    HW246337   6.460   8.414   3.700  0.7380 -0.0866  1.0880
14713SOL     OW46338   0.144   3.531   5.310 -0.4275 -0.3113 -0.5272
14713SOL    HW146339   0.115   3.492   5.393 -1.6656  0.8300 -0.3780
14713SOL    HW246340   0.098   3.482   5.243 -0.4471 -0.3944 -0.4526
14714SOL     OW46341   3.556   1.944   9.533  0.2468  0.7807  0.0574
14714SOL    HW146342   3.507   1.871   9.570  0.7561 -0.6812 -1.9582
14714SOL    HW246343   3.506   2.022   9.559 -1.5997 -0.4347  0.3825
14715SOL     OW46344   3.281   5.644   0.702  0.1581 -0.1190 -0.3577
14715SOL    HW146345   3.243   5.610   0.621  1.1727  0.4390 -1.0785
14715SOL    HW246346   3.282   5.739   0.690  1.3831 -0.1021 -0.1708
14716SOL     OW46347   3.448   5.929   0.449  0.0630 -0.2587  0.5444
14716SOL    HW146348   3.458   5.954   0.541 -0.2665  2.7898 -0.1349
14716SOL    HW246349   3.538   5.915   0.419  0.1780 -1.2032  1.2660
14717SOL     OW46350   6.078   1.116   5.454  0.3770  0.0930 -0.4964
14717SOL    HW146351   6.095   1.201   5.494  0.7204  0.8118 -2.1043
14717SOL    HW246352   5.986   1.120   5.427  0.0566 -0.5062  0.4644
14718SOL     OW46353   3.526   6.536   4.186 -0.3633 -1.0283 -0.2328
14718SOL    HW146354   3.542   6.566   4.275 -0.3349 -0.9082 -0.2787
14718SOL    HW246355   3.613   6.531   4.146 -0.3509 -1.3423 -0.1704
14719SOL     OW46356   4.329   8.407   7.293  0.4993 -0.0252  0.0780
14719SOL    HW146357   4.261   8.341   7.281  0.7033 -0.2755  0.2932
14719SOL    HW246358   4.312   8.471   7.224  0.6048 -0.5538 -0.4419
14720SOL     OW46359   3.860   7.060   0.822 -0.3241 -0.3254 -0.3802
14720SOL    HW146360   3.818   7.012   0.893 -0.8656 -0.3046 -0.6848
14720SOL    HW246361   3.807   7.041   0.745  1.2167 -1.7199 -1.1672
14721SOL     OW46362   0.689   5.598   8.831 -0.5803  0.0499 -0.3978
14721SOL    HW146363   0.649   5.681   8.804  0.4162  0.2454 -1.3459
14721SOL    HW246364   0.646   5.576   8.914 -0.4394  1.8105  0.1711
14722SOL     OW46365   7.178   2.243   7.688 -0.0499 -0.0039 -0.5184
14722SOL    HW146366   7.235   2.179   7.730  0.3200 -0.1677 -1.2648
14722SOL    HW246367   7.223   2.327   7.699 -1.2459  0.4381  1.8208
14723SOL     OW46368   5.284   1.153   3.970  0.0857  0.0250 -0.4662
14723SOL    HW146369   5.272   1.174   4.063 -1.8464  1.7985 -1.0445
14723SOL    HW246370   5.323   1.065   3.971 -0.2123 -0.1725  1.9902
14724SOL     OW46371   2.715   1.387   1.380 -0.8619  0.4231  0.1391
14724SOL    HW146372   2.686   1.443   1.308 -1.1014 -0.8971 -0.8394
14724SOL    HW246373   2.756   1.312   1.337 -0.9701 -0.3849  1.3803
14725SOL     OW46374   1.756   1.377   1.750 -0.4601  0.1503 -0.0542
14725SOL    HW146375   1.825   1.443   1.745 -0.6691  0.5598  1.6212
14725SOL    HW246376   1.761   1.331   1.667  0.5032  1.4766 -0.7796
14726SOL     OW46377   8.476   7.840   3.465  0.0139 -0.3497 -0.0447
14726SOL    HW146378   8.412   7.827   3.535  0.4706 -0.6645  0.3216
14726SOL    HW246379   8.456   7.773   3.401  0.6243 -1.1102  0.5515
14727SOL     OW46380   5.281   9.232   3.262 -0.0620  0.1758  0.2852
14727SOL    HW146381   5.213   9.203   3.323 -1.5082  1.5244 -0.6068
14727SOL    HW246382   5.327   9.300   3.309  0.4459 -0.4758  0.7512
14728SOL     OW46383   1.872   4.670   5.408  0.3426 -0.5206  0.3898
14728SOL    HW146384   1.934   4.671   5.336  0.0287  0.0454  0.1232
14728SOL    HW246385   1.910   4.727   5.474 -0.7186  1.2724 -0.4911
14729SOL     OW46386   1.447   6.517   6.717  0.1083  0.6023  0.0184
14729SOL    HW146387   1.534   6.554   6.699 -0.0408  1.4612  0.9539
14729SOL    HW246388   1.464   6.427   6.742  0.6244  0.4420 -0.8785
14730SOL     OW46389   8.580   6.399   1.988 -0.1508 -1.0709  0.1600
14730SOL    HW146390   8.658   6.347   2.008 -0.3079 -1.9613 -1.4290
14730SOL    HW246391   8.598   6.484   2.028  1.6317 -1.2641 -0.1217
14731SOL     OW46392   0.712   8.801   1.873  0.4098 -0.1040  0.8424
14731SOL    HW146393   0.647   8.779   1.939 -0.9467  2.8436  0.6641
14731SOL    HW246394   0.664   8.798   1.790  1.0996 -0.1291  0.4328
14732SOL     OW46395   0.840   1.781   4.921  0.5290  0.1457 -0.1791
14732SOL    HW146396   0.864   1.838   4.994  1.5119  0.5472 -0.7993
14732SOL    HW246397   0.878   1.696   4.943 -0.6099 -0.2038  0.5597
14733SOL     OW46398   4.571   8.486   3.430 -0.2398  0.3126 -0.3783
14733SOL    HW146399   4.572   8.438   3.347  2.6598 -0.2784 -0.1132
14733SOL    HW246400   4.582   8.418   3.497 -0.7803  0.9550  0.3960
14734SOL     OW46401   3.736   3.945   5.139 -0.0598  0.6681  0.3409
14734SOL    HW146402   3.821   3.907   5.161  0.8680  2.4329 -0.0266
14734SOL    HW246403   3.675   3.872   5.145  1.7615 -1.1012 -1.3029
14735SOL     OW46404   2.398   8.389   1.459 -0.4107  0.1738  0.2213
14735SOL    HW146405   2.396   8.452   1.387 -4.1350 -0.1753 -0.1611
14735SOL    HW246406   2.330   8.418   1.520 -1.8639 -2.9860  0.3411
14736SOL     OW46407   9.300   1.612   2.062 -0.2192  0.0490  0.4185
14736SOL    HW146408   9.305   1.616   2.158 -0.2418 -2.3395  0.5649
14736SOL    HW246409   9.372   1.556   2.036 -0.0714  0.8429 -1.0273
14737SOL     OW46410   2.754   9.272   4.252 -0.1369  0.6954  0.3389
14737SOL    HW146411   2.811   9.295   4.178  1.5818 -1.7469  0.7537
14737SOL    HW246412   2.704   9.197   4.221  1.5791 -1.2404  1.9508
14738SOL     OW46413   4.723   8.994   3.491  0.6886  0.3941  0.1893
14738SOL    HW146414   4.723   8.981   3.397 -0.0381  0.2710  0.1981
14738SOL    HW246415   4.781   8.925   3.525 -0.1092 -0.4253 -0.0664
14739SOL     OW46416   8.449   5.047   5.287 -0.2814 -0.0736 -0.5795
14739SOL    HW146417   8.377   5.110   5.288 -0.4476 -0.1929 -2.2216
14739SOL    HW246418   8.500   5.067   5.366 -1.9971  0.1170  0.5257
14740SOL     OW46419   7.892   5.886   4.881 -0.2448  0.1300  0.4633
14740SOL    HW146420   7.924   5.796   4.890 -0.4024  0.1427  1.2164
14740SOL    HW246421   7.852   5.888   4.794  1.0320 -0.1180 -0.1454
14741SOL     OW46422   3.175   3.056   9.179  0.0166 -0.2864 -0.3207
14741SOL    HW146423   3.226   3.057   9.098 -0.6462 -0.5792 -0.7514
14741SOL    HW246424   3.104   2.994   9.162 -1.9432  1.9035 -0.6401
14742SOL     OW46425   1.430   7.720   3.157 -0.6226 -0.5335  0.6261
14742SOL    HW146426   1.420   7.720   3.062 -4.5325 -0.2654  0.8999
14742SOL    HW246427   1.407   7.809   3.184  3.1747  0.2868  1.7750
14743SOL     OW46428   1.992   4.314   8.739 -0.2125 -0.2763 -0.6301
14743SOL    HW146429   2.027   4.298   8.826  1.4749 -1.0141 -1.4020
14743SOL    HW246430   1.926   4.246   8.726  0.1708 -0.7111 -0.2829
14744SOL     OW46431   3.197   2.203   2.413  0.2331 -0.5028 -0.1119
14744SOL    HW146432   3.284   2.241   2.399  0.5530 -1.0069  0.4565
14744SOL    HW246433   3.210   2.109   2.403 -0.3903 -0.5303 -0.7070
14745SOL     OW46434   3.574   3.068   0.032 -0.3614  0.0418 -0.4943
14745SOL    HW146435   3.530   3.026   0.106  2.1372  0.6870  1.5095
14745SOL    HW246436   3.622   2.997  -0.011  0.9105  0.1631  0.6524
14746SOL     OW46437   4.222   0.105   4.428  0.0381 -0.2692 -0.0958
14746SOL    HW146438   4.212   0.160   4.351 -1.8170 -1.3965 -0.7372
14746SOL    HW246439   4.164   0.030   4.412 -0.5075 -0.4979  2.4409
14747SOL     OW46440   0.982   2.819   0.877 -0.2596  0.0716  0.6061
14747SOL    HW146441   0.912   2.883   0.867  0.5645  0.7249 -1.5496
14747SOL    HW246442   1.059   2.872   0.898  0.7081  0.0404 -2.4277
14748SOL     OW46443   7.813   8.756   4.556 -0.8017  0.1042  0.1099
14748SOL    HW146444   7.770   8.699   4.620 -2.1337  0.3261 -0.5418
14748SOL    HW246445   7.775   8.842   4.572  0.2773  0.5661  0.2648
14749SOL     OW46446   8.965   4.791   5.921  0.1029 -0.0903 -0.4032
14749SOL    HW146447   8.892   4.737   5.891 -1.6455  1.7496  0.3403
14749SOL    HW246448   9.028   4.729   5.957 -0.8996 -1.7689 -1.4206
14750SOL     OW46449   8.723   1.929   6.283  0.3006  0.1562 -0.5578
14750SOL    HW146450   8.677   1.891   6.209 -1.3690 -1.5336  1.2147
14750SOL    HW246451   8.698   2.022   6.282 -0.8341 -0.1443 -1.2892
14751SOL     OW46452   4.602   4.527   1.793  0.7491 -0.1012 -0.6920
14751SOL    HW146453   4.644   4.561   1.872 -1.8045  0.1823  0.6423
14751SOL    HW246454   4.603   4.432   1.806 -2.7067  0.0027  1.5340
14752SOL     OW46455   1.687   7.786   1.248 -0.1932  0.1347  0.2971
14752SOL    HW146456   1.777   7.758   1.267  0.4962  2.1823  0.3344
14752SOL    HW246457   1.692   7.826   1.161 -1.2024 -0.2340  0.0564
14753SOL     OW46458   0.493   7.392   9.215 -0.1905  0.0278 -0.1698
14753SOL    HW146459   0.508   7.386   9.309  1.0088 -0.9522 -0.4065
14753SOL    HW246460   0.565   7.343   9.176 -0.6683  0.4326 -1.6039
14754SOL     OW46461   8.147   8.423   7.474 -0.0869 -0.0883 -0.5400
14754SOL    HW146462   8.122   8.370   7.549 -0.4551  0.8859  0.0402
14754SOL    HW246463   8.135   8.364   7.399 -0.3295 -0.8662  0.0904
14755SOL     OW46464   7.969   3.787   1.311  0.2886  0.1579  0.4565
14755SOL    HW146465   7.913   3.815   1.239 -0.1797 -0.9616  0.3743
14755SOL    HW246466   8.054   3.768   1.270 -0.2180 -1.2953  0.0510
14756SOL     OW46467   6.342   5.046   6.256 -0.2637  0.9244  0.1500
14756SOL    HW146468   6.342   4.977   6.190  0.7850  0.5108  0.5528
14756SOL    HW246469   6.395   5.010   6.328 -1.2364  1.4217  1.1489
14757SOL     OW46470   2.356   2.736   5.996 -0.6431 -0.0011 -0.5628
14757SOL    HW146471   2.325   2.813   6.043 -0.9417 -1.0935  1.1374
14757SOL    HW246472   2.280   2.705   5.947 -0.7061  0.3970 -0.7186
14758SOL     OW46473   4.955   4.956   6.889  0.2116 -0.6979  1.0404
14758SOL    HW146474   5.003   4.906   6.955  1.8402 -0.4479  0.1137
14758SOL    HW246475   4.980   4.915   6.806  1.0834  1.1860  0.3026
14759SOL     OW46476   4.739   5.813   2.156 -0.2780 -0.4984 -0.3435
14759SOL    HW146477   4.765   5.724   2.178 -1.2633 -0.7167  0.0154
14759SOL    HW246478   4.647   5.806   2.130 -0.0099  0.2269 -1.5844
14760SOL     OW46479   0.750   7.405   6.352  0.2460 -0.3219 -0.1302
14760SOL    HW146480   0.831   7.455   6.352  0.5629 -0.8278  0.5301
14760SOL    HW246481   0.742   7.371   6.441 -0.7166 -0.2371 -0.1673
14761SOL     OW46482   6.416   5.342   4.076  0.2687 -0.0615  0.1717
14761SOL    HW146483   6.485   5.386   4.025 -0.1054  0.8672  0.4471
14761SOL    HW246484   6.435   5.248   4.066  0.4337  0.1147 -1.3371
14762SOL     OW46485   0.298   2.554   3.565 -0.1136  0.8123  0.0782
14762SOL    HW146486   0.279   2.595   3.649 -0.1348  0.5854  0.1849
14762SOL    HW246487   0.389   2.525   3.572 -0.1426  0.7155  0.0546
14763SOL     OW46488   7.922   6.985   0.054  0.2152 -0.1782 -0.2438
14763SOL    HW146489   7.971   6.903   0.048 -0.6170 -0.6391 -0.9453
14763SOL    HW246490   7.904   7.009  -0.036  1.4879  1.4439 -0.1110
14764SOL     OW46491   2.163   1.673   0.139 -0.1316 -0.5537  0.0703
14764SOL    HW146492   2.246   1.662   0.185 -0.9729 -0.3797  1.6936
14764SOL    HW246493   2.187   1.718   0.058  1.3555 -0.5786  0.4560
14765SOL     OW46494   7.933   6.322   8.596 -0.2878  0.0161 -0.2073
14765SOL    HW146495   7.844   6.343   8.566 -0.8204 -1.8955 -0.1600
14765SOL    HW246496   7.930   6.332   8.691 -0.6543 -0.6313 -0.1437
14766SOL     OW46497   1.234   8.136   6.435  0.2722  0.5715 -0.1291
14766SOL    HW146498   1.317   8.103   6.469  1.0671  0.4743 -2.0415
14766SOL    HW246499   1.176   8.139   6.511  1.1924 -1.9712  0.7534
14767SOL     OW46500   7.756   1.754   3.590  0.0121 -0.1298  0.4241
14767SOL    HW146501   7.697   1.746   3.515  1.9851 -1.7001 -1.0945
14767SOL    HW246502   7.699   1.750   3.667 -1.9014 -0.7162 -0.9624
14768SOL     OW46503   2.921   9.468   6.313 -0.0896  0.3893 -0.2203
14768SOL    HW146504   2.981   9.444   6.242  0.0548 -1.3154  0.4182
14768SOL    HW246505   2.853   9.400   6.310  0.6699 -0.5649  2.1162
14769SOL     OW46506   0.396   4.395   4.460 -0.4184  0.3716  0.5647
14769SOL    HW146507   0.424   4.438   4.379  1.1027 -0.0231  0.8405
14769SOL    HW246508   0.468   4.411   4.521 -0.0316 -2.0714  0.8406
14770SOL     OW46509   4.445   2.790   4.198  0.1813 -0.0269 -0.1094
14770SOL    HW146510   4.369   2.814   4.250  0.3638 -0.4562  0.3552
14770SOL    HW246511   4.474   2.873   4.159 -0.8457  0.0518 -0.7416
14771SOL     OW46512   3.413   1.694   7.181 -0.5974  0.1830  0.0643
14771SOL    HW146513   3.394   1.773   7.232 -0.5808  0.9182 -1.0220
14771SOL    HW246514   3.413   1.623   7.245  0.4697  1.2039  1.2514
14772SOL     OW46515   6.669   5.827   3.819  0.2204  0.0757 -0.1544
14772SOL    HW146516   6.730   5.854   3.750  1.1504 -0.2123  0.5417
14772SOL    HW246517   6.709   5.750   3.859 -1.2967 -1.0008 -0.6090
14773SOL     OW46518   0.481   2.150   8.094 -0.1809 -0.4884  0.2244
14773SOL    HW146519   0.569   2.136   8.129  0.1689  0.7149 -0.1176
14773SOL    HW246520   0.463   2.243   8.111 -0.4873 -0.1619 -1.6517
14774SOL     OW46521   1.426   5.748   8.854 -0.5399 -0.0807  0.1201
14774SOL    HW146522   1.343   5.701   8.853 -1.1242  0.9010  0.7185
14774SOL    HW246523   1.457   5.745   8.764 -0.7452 -1.2642  0.0704
14775SOL     OW46524   5.139   4.710   5.988 -0.2596 -0.2840  0.2078
14775SOL    HW146525   5.090   4.628   5.996 -2.9977  1.3942  2.6138
14775SOL    HW246526   5.191   4.715   6.068  0.7568 -0.1489 -0.4465
14776SOL     OW46527   7.154   7.664   2.609  0.1333  0.0894 -0.4663
14776SOL    HW146528   7.185   7.582   2.646 -1.6774  0.1776  1.4148
14776SOL    HW246529   7.068   7.643   2.572  0.3777  0.8021 -1.4903
14777SOL     OW46530   0.055   9.277   6.763 -0.6668 -0.1235  0.4141
14777SOL    HW146531   0.122   9.247   6.824  0.4511 -0.1129 -0.7674
14777SOL    HW246532   0.047   9.371   6.781 -1.5304 -0.4016  1.6204
14778SOL     OW46533   3.933   8.378   9.400  0.2338 -0.1994  0.4818
14778SOL    HW146534   3.932   8.468   9.433 -2.2538  0.2174 -0.4934
14778SOL    HW246535   3.889   8.383   9.315 -1.7667 -2.6196  1.2545
14779SOL     OW46536   8.167   7.970   6.569 -0.0127  0.1113 -0.4356
14779SOL    HW146537   8.119   7.993   6.648  2.7411  0.0173  1.4231
14779SOL    HW246538   8.202   8.054   6.537  0.5492 -0.0798 -0.3416
14780SOL     OW46539   1.063   4.014   4.451 -0.1447 -0.8560  0.3872
14780SOL    HW146540   1.155   3.989   4.462 -0.1790 -1.2730 -0.2175
14780SOL    HW246541   1.014   3.938   4.482 -0.3022 -0.4484  1.1622
14781SOL     OW46542   4.809   1.754   3.877 -0.7280 -1.0384  0.5057
14781SOL    HW146543   4.783   1.766   3.785  2.5564  2.0667 -0.2190
14781SOL    HW246544   4.732   1.781   3.927 -1.8445 -0.5993 -1.3263
14782SOL     OW46545   2.078   0.453   7.256 -0.2072 -0.1783 -0.3694
14782SOL    HW146546   2.066   0.548   7.252 -0.3604 -0.1471  0.6302
14782SOL    HW246547   2.025   0.425   7.330  0.3977 -0.9510 -0.2128
14783SOL     OW46548   1.731   4.193   6.578 -0.2690 -0.2486  0.2374
14783SOL    HW146549   1.714   4.247   6.655  1.2006  1.9482 -0.8733
14783SOL    HW246550   1.808   4.141   6.603  0.4506  0.7461  0.1753
14784SOL     OW46551   2.812   8.990   3.539 -0.4158 -0.3548  0.4844
14784SOL    HW146552   2.890   9.041   3.562  0.2058 -1.4353  0.8128
14784SOL    HW246553   2.784   9.026   3.455  0.5411 -0.0736  0.2758
14785SOL     OW46554   0.225   2.900   0.731 -0.0665 -0.0818 -0.3165
14785SOL    HW146555   0.264   2.898   0.643  2.3096  1.5280  0.5790
14785SOL    HW246556   0.147   2.954   0.721  1.1913  1.7143 -1.1680
14786SOL     OW46557   8.443   3.836   8.233  1.1361  0.7094 -0.2194
14786SOL    HW146558   8.439   3.930   8.252  0.7929  0.5293  0.5967
14786SOL    HW246559   8.517   3.804   8.284  1.5142  0.5977 -0.8164
14787SOL     OW46560   4.750   7.554   8.640 -0.1974  0.0134  0.2838
14787SOL    HW146561   4.782   7.602   8.716  0.0083  1.7298 -0.8451
14787SOL    HW246562   4.682   7.610   8.603 -0.3893 -0.8588 -0.7288
14788SOL     OW46563   0.329   8.692   8.496  0.4430 -0.2815  0.1414
14788SOL    HW146564   0.300   8.625   8.558  0.1475 -0.6284 -0.3663
14788SOL    HW246565   0.283   8.772   8.523  0.9749 -0.2101  0.8915
14789SOL     OW46566   0.977   0.290   1.399 -0.2660  0.3001 -0.0187
14789SOL    HW146567   0.985   0.279   1.304 -2.0670  0.5965 -0.2396
14789SOL    HW246568   0.885   0.269   1.418  0.2518 -0.5373  1.7841
14790SOL     OW46569   6.354   6.980   0.198  0.3373 -0.2290  0.4348
14790SOL    HW146570   6.416   6.983   0.126 -0.0284 -0.7199  0.0893
14790SOL    HW246571   6.377   7.055   0.253  0.6706  0.1044 -0.1482
14791SOL     OW46572   5.936   9.366   5.795 -0.8064 -0.0897 -0.4904
14791SOL    HW146573   5.907   9.276   5.808 -1.9062  0.3288  0.0785
14791SOL    HW246574   5.892   9.394   5.715 -3.2376  0.9992  1.1106
14792SOL     OW46575   2.233   6.426   8.230 -0.3548  0.2696 -0.1852
14792SOL    HW146576   2.166   6.373   8.272  0.6870 -1.6897 -0.8562
14792SOL    HW246577   2.306   6.426   8.291 -1.4690  4.0678  1.4833
14793SOL     OW46578   0.199   3.696   7.994  0.1819  0.2584 -0.6179
14793SOL    HW146579   0.269   3.663   8.050 -0.8267  1.5977  1.5616
14793SOL    HW246580   0.157   3.617   7.960  1.5681 -0.5813 -0.4731
14794SOL     OW46581   0.189   2.336   4.197 -0.0379  0.4332 -0.2099
14794SOL    HW146582   0.174   2.277   4.123  0.3130  1.3601 -1.0348
14794SOL    HW246583   0.101   2.355   4.231 -0.1204 -1.0362  0.4675
14795SOL     OW46584   2.922   7.807   7.921  0.2596  0.3264  0.1846
14795SOL    HW146585   2.929   7.849   7.835 -0.0446  1.1555  0.5555
14795SOL    HW246586   2.866   7.865   7.972 -2.1926 -1.6652  0.0071
14796SOL     OW46587   8.320   9.291   6.920 -0.6931 -0.1922  0.0866
14796SOL    HW146588   8.281   9.326   6.840 -0.6810 -1.2321 -0.3897
14796SOL    HW246589   8.332   9.198   6.902  0.6370 -0.1701  0.7770
14797SOL     OW46590   3.634   4.978   0.789  0.9496  0.0671 -0.1292
14797SOL    HW146591   3.642   5.044   0.720  0.2046 -0.4736 -0.7533
14797SOL    HW246592   3.663   4.896   0.747 -0.6753 -0.4982 -0.2061
14798SOL     OW46593   3.197   9.516   5.238  0.2398 -0.4939  0.1351
14798SOL    HW146594   3.201   9.489   5.146  0.2817  0.8140 -0.2682
14798SOL    HW246595   3.253   9.594   5.243  0.8017 -0.9520  1.4304
14799SOL     OW46596   4.988   6.825   3.981  0.1377 -0.1695  0.4928
14799SOL    HW146597   4.896   6.818   3.959  0.0589  0.3965  0.6354
14799SOL    HW246598   5.034   6.779   3.911 -0.1794  0.5768 -0.2131
14800SOL     OW46599   3.872   7.151   4.415 -0.2891 -0.1874  0.0166
14800SOL    HW146600   3.846   7.060   4.403  1.3121 -0.7055  0.1669
14800SOL    HW246601   3.923   7.172   4.337 -0.8337  0.6524 -0.1186
14801SOL     OW46602   6.333   8.286   9.491  0.6583 -0.1193 -0.2702
14801SOL    HW146603   6.238   8.288   9.478  0.7380 -1.3450 -1.2434
14801SOL    HW246604   6.366   8.357   9.437  0.3467 -0.0958 -0.4350
14802SOL     OW46605   7.670   5.658   8.118 -0.5233 -0.1676 -0.1655
14802SOL    HW146606   7.661   5.637   8.211 -2.5258  1.5669  0.1080
14802SOL    HW246607   7.701   5.748   8.116 -1.3995  0.1346 -1.1504
14803SOL     OW46608   8.902   6.552   2.389 -0.1465 -0.3034  0.3863
14803SOL    HW146609   8.813   6.546   2.423 -0.4221  0.5267 -0.1426
14803SOL    HW246610   8.922   6.463   2.358 -1.4780 -0.1328 -1.1071
14804SOL     OW46611   8.689   8.777   9.199 -0.3152 -0.0072 -0.3830
14804SOL    HW146612   8.676   8.717   9.126 -0.8074 -2.6416  1.7178
14804SOL    HW246613   8.765   8.830   9.173 -1.1648  0.0022 -3.2273
14805SOL     OW46614   7.050   5.145   1.030 -0.1372  0.4365  0.3222
14805SOL    HW146615   7.023   5.221   0.977  0.8584  0.1984 -0.5624
14805SOL    HW246616   7.123   5.107   0.981  0.3670 -0.2036  1.5385
14806SOL     OW46617   5.054   5.679   2.897  0.0345  0.3031  1.0211
14806SOL    HW146618   5.065   5.585   2.881  0.2797  0.5263 -0.2193
14806SOL    HW246619   5.106   5.721   2.828 -0.6029  1.3570  1.1653
14807SOL     OW46620   6.526   6.383   3.524 -0.4305 -0.4340 -0.0088
14807SOL    HW146621   6.596   6.418   3.578 -0.6775 -0.2836  0.2169
14807SOL    HW246622   6.450   6.380   3.582 -0.2273 -2.1131  0.2152
14808SOL     OW46623   5.344   2.984   4.548 -0.5708 -0.1130 -0.6937
14808SOL    HW146624   5.431   2.971   4.512  0.4111  0.1939  1.4262
14808SOL    HW246625   5.356   3.046   4.620 -2.2872 -1.1226  0.5576
14809SOL     OW46626   0.724   0.972   7.117 -0.2051 -0.2595  0.4567
14809SOL    HW146627   0.727   0.912   7.042  2.0750 -0.9102  0.9998
14809SOL    HW246628   0.634   0.965   7.149 -0.8506 -1.0080 -1.3745
14810SOL     OW46629   3.381   8.775   6.259 -0.0617  0.5122  0.1868
14810SOL    HW146630   3.322   8.844   6.290 -0.7439 -0.0931  0.2580
14810SOL    HW246631   3.428   8.748   6.338 -1.0066 -0.2617  0.5072
14811SOL     OW46632   3.856   1.773   7.122 -0.1682  0.3266  0.4470
14811SOL    HW146633   3.889   1.818   7.200 -0.1946  0.0915  0.5951
14811SOL    HW246634   3.935   1.755   7.070 -0.2196  1.0916  0.0918
14812SOL     OW46635   6.750   1.402   5.519 -0.0795  0.5464 -0.2172
14812SOL    HW146636   6.816   1.355   5.468 -0.0953  0.5631 -0.2530
14812SOL    HW246637   6.721   1.338   5.584 -0.2282  0.4463 -0.3781
14813SOL     OW46638   1.079   8.854   9.038  0.2132  0.3341 -0.2678
14813SOL    HW146639   1.152   8.915   9.047  0.7018 -0.0407 -1.4122
14813SOL    HW246640   1.057   8.828   9.127  3.5926 -2.0278  0.0465
14814SOL     OW46641   1.229   5.267   0.191 -0.4694 -0.3048  0.2552
14814SOL    HW146642   1.295   5.332   0.215 -0.2045  0.0671 -1.3608
14814SOL    HW246643   1.256   5.236   0.104 -1.9664 -0.7366 -0.0854
14815SOL     OW46644   4.785   9.535   3.384  0.2415 -0.1230  0.6065
14815SOL    HW146645   4.794   9.538   3.479  0.0369 -0.2971  0.6336
14815SOL    HW246646   4.869   9.566   3.350  1.2768 -2.4436  0.8477
14816SOL     OW46647   5.169   6.404   5.810 -0.3584 -0.8788  0.4936
14816SOL    HW146648   5.088   6.421   5.858 -1.1943  1.5021 -1.5258
14816SOL    HW246649   5.198   6.491   5.781  0.8724 -2.0034 -1.9658
14817SOL     OW46650   3.822   6.862   4.671  0.2242 -0.0475 -0.2299
14817SOL    HW146651   3.857   6.870   4.582 -0.6227 -0.5744 -0.6262
14817SOL    HW246652   3.748   6.922   4.673  1.2405  1.2426  0.6787
14818SOL     OW46653   2.345   9.179   6.274  0.5928 -0.4008  0.0380
14818SOL    HW146654   2.265   9.130   6.294  0.2513 -0.7435 -2.0237
14818SOL    HW246655   2.402   9.115   6.230  0.6226  0.7044 -1.6085
14819SOL     OW46656   2.868   2.634   8.444  0.0297  0.4068  0.1744
14819SOL    HW146657   2.938   2.605   8.503  0.7240  1.9697  0.1460
14819SOL    HW246658   2.909   2.635   8.357  0.0723  1.5898  0.1946
14820SOL     OW46659   1.962   6.595   5.721 -0.0628  0.2824 -0.1309
14820SOL    HW146660   2.031   6.632   5.777  0.2521 -2.3625  1.3955
14820SOL    HW246661   1.881   6.614   5.769 -0.1190  0.8146 -0.4296
14821SOL     OW46662   8.994   3.589   1.974  0.1780  0.3440  0.2392
14821SOL    HW146663   8.964   3.540   1.898  0.2069  1.2761 -0.3798
14821SOL    HW246664   8.920   3.645   1.997  0.4151  0.5570  0.4832
14822SOL     OW46665   8.465   5.526   4.038 -0.1722 -0.2345  0.4014
14822SOL    HW146666   8.407   5.585   3.989  0.9233  0.5834  0.0473
14822SOL    HW246667   8.470   5.448   3.983 -2.0526 -0.9190  1.1250
14823SOL     OW46668   3.735   0.401   3.105  0.4524  0.0739 -0.2335
14823SOL    HW146669   3.822   0.399   3.145 -0.2678  0.7288  1.4937
14823SOL    HW246670   3.736   0.477   3.048  1.2397 -0.3657 -0.8289
14824SOL     OW46671   8.087   1.120   0.564 -0.3830 -0.0143  0.4010
14824SOL    HW146672   8.120   1.032   0.548 -0.3114  0.4098 -2.2387
14824SOL    HW246673   8.164   1.172   0.585 -0.3876 -0.4739  1.6571
14825SOL     OW46674   4.589   3.057   3.437  0.3048  0.1078  0.1363
14825SOL    HW146675   4.523   3.107   3.485  0.1073  0.1985 -0.2270
14825SOL    HW246676   4.546   3.032   3.355  1.5899  2.5684 -1.3914
14826SOL     OW46677   3.065   5.919   0.155 -0.2942 -0.0468  0.4882
14826SOL    HW146678   3.107   5.833   0.146 -0.3150 -0.0477  0.3976
14826SOL    HW246679   3.099   5.953   0.238  1.0187  0.5807 -0.2824
14827SOL     OW46680   6.426   7.589   8.526 -0.1313 -0.2305  0.1873
14827SOL    HW146681   6.371   7.664   8.503 -0.2916 -0.9169 -1.8987
14827SOL    HW246682   6.371   7.535   8.582  0.1671  1.3945  2.1798
14828SOL     OW46683   5.982   7.238   6.087  0.8947  0.5381 -0.0053
14828SOL    HW146684   5.976   7.220   5.993 -0.3258 -1.0707  0.3336
14828SOL    HW246685   5.895   7.267   6.112  0.1298 -2.4447  1.2077
14829SOL     OW46686   4.147   4.889   1.881 -0.1873 -0.0404 -0.0873
14829SOL    HW146687   4.187   4.941   1.950  0.1134  0.4452 -0.6155
14829SOL    HW246688   4.200   4.810   1.875 -0.0171  0.0677  0.0107
14830SOL     OW46689   6.394   3.571   3.851 -0.0387  0.4483 -0.1357
14830SOL    HW146690   6.457   3.629   3.893  0.9747 -0.1544 -0.7740
14830SOL    HW246691   6.400   3.490   3.901  0.3455  0.1018 -0.7328
14831SOL     OW46692   6.759   3.296   4.607 -0.1894  0.1323  0.5111
14831SOL    HW146693   6.695   3.298   4.678  0.1543  0.1205  0.8233
14831SOL    HW246694   6.819   3.368   4.626  0.2500 -0.2418  0.5614
14832SOL     OW46695   5.830   5.393   1.909  0.2234  0.0694  0.0833
14832SOL    HW146696   5.839   5.456   1.837 -0.5972 -0.0351 -0.1164
14832SOL    HW246697   5.800   5.313   1.867 -1.0262  0.2319  0.6373
14833SOL     OW46698   0.582   5.856   5.258 -1.0605 -0.1590 -0.7206
14833SOL    HW146699   0.493   5.844   5.225 -2.2236  2.3785  1.1489
14833SOL    HW246700   0.630   5.893   5.184 -1.2813 -2.1682 -1.9538
14834SOL     OW46701   2.771   7.290   4.978 -0.3733  0.3422  0.0599
14834SOL    HW146702   2.752   7.380   4.952 -0.7507  0.4983  0.8356
14834SOL    HW246703   2.822   7.253   4.905 -0.7975  0.9691 -0.5619
14835SOL     OW46704   2.589   8.369   6.795  0.3420 -0.6178 -0.0228
14835SOL    HW146705   2.581   8.442   6.856 -1.1348 -1.5366  0.9754
14835SOL    HW246706   2.524   8.305   6.826  1.4609 -2.2813 -0.9436
14836SOL     OW46707   1.225   3.069   5.059  0.5199 -0.8056  0.6251
14836SOL    HW146708   1.172   3.087   4.982  1.5291 -0.4079  0.0003
14836SOL    HW246709   1.274   2.991   5.037 -0.2699 -1.5603  1.4570
14837SOL     OW46710   3.807   0.945   2.743  0.2827  0.2129  0.6110
14837SOL    HW146711   3.877   1.005   2.766 -1.3459  1.4451  2.6772
14837SOL    HW246712   3.788   0.898   2.824  0.3645 -1.9251 -0.5311
14838SOL     OW46713   1.060   5.107   3.498 -0.2572 -0.1062 -0.2424
14838SOL    HW146714   1.138   5.095   3.444  0.0253  0.2574  0.0806
14838SOL    HW246715   0.992   5.133   3.437  0.1381  0.6185 -0.3865
14839SOL     OW46716   7.890   7.631   0.383 -0.1200 -0.1046 -0.1181
14839SOL    HW146717   7.797   7.628   0.407 -0.1263  0.6661 -0.0312
14839SOL    HW246718   7.918   7.719   0.409  0.8898 -0.6742  0.7863
14840SOL     OW46719   2.348   0.098   1.565 -0.3570 -0.0310 -0.3596
14840SOL    HW146720   2.387   0.024   1.519 -0.4042 -0.7642  0.7477
14840SOL    HW246721   2.286   0.059   1.627  0.4853  0.8202  1.0948
14841SOL     OW46722   3.763   8.769   2.834  0.2744  0.3952 -0.2201
14841SOL    HW146723   3.696   8.712   2.796  0.3548 -0.1131  0.3783
14841SOL    HW246724   3.793   8.823   2.761  0.2721 -0.4081 -0.8210
14842SOL     OW46725   2.520   7.882   6.098  0.1044 -0.1473  0.1920
14842SOL    HW146726   2.538   7.790   6.119  1.4675  0.3419  1.3295
14842SOL    HW246727   2.433   7.880   6.058  1.7652 -2.4487 -3.9202
14843SOL     OW46728   1.349   1.387   5.851  0.3313  0.0137  0.2122
14843SOL    HW146729   1.402   1.462   5.877  0.2953  1.0688 -2.5057
14843SOL    HW246730   1.408   1.334   5.797 -0.6247 -0.1462 -0.6942
14844SOL     OW46731   7.307   3.682   7.435  0.1745  0.1062 -0.5170
14844SOL    HW146732   7.377   3.656   7.494 -1.3188 -1.9040  0.5181
14844SOL    HW246733   7.330   3.770   7.406  1.7324  0.5540  1.8582
14845SOL     OW46734   1.247   0.235   7.579  0.2475 -0.6674 -0.4764
14845SOL    HW146735   1.165   0.189   7.557 -0.6841  0.5090  0.4087
14845SOL    HW246736   1.221   0.326   7.592  1.1283 -0.7247  2.6266
14846SOL     OW46737   1.437   8.290   5.995 -0.0236 -0.4929  0.1981
14846SOL    HW146738   1.433   8.204   5.953 -0.7487 -1.1684  1.5939
14846SOL    HW246739   1.384   8.281   6.074 -0.8474  1.4990 -0.0679
14847SOL     OW46740   4.340   2.425   2.157 -0.0105 -0.1299 -0.0957
14847SOL    HW146741   4.270   2.359   2.159  0.4758 -0.6458  1.0852
14847SOL    HW246742   4.294   2.509   2.159 -0.6183 -0.4284 -0.8007
14848SOL     OW46743   6.677   2.183   0.156  0.5667  0.1530  0.0703
14848SOL    HW146744   6.698   2.236   0.233  2.1191 -1.9692  1.1795
14848SOL    HW246745   6.666   2.094   0.189 -0.4255 -0.5462 -1.9495
14849SOL     OW46746   4.581   5.568   3.940 -0.0061 -0.2291  0.2239
14849SOL    HW146747   4.525   5.608   4.007 -0.0271  0.6556 -0.3139
14849SOL    HW246748   4.659   5.541   3.988 -0.7358 -1.1915  0.9283
14850SOL     OW46749   8.313   0.973   9.370  0.5516  0.0404 -0.1181
14850SOL    HW146750   8.312   1.053   9.422  1.4005  0.2766 -0.4506
14850SOL    HW246751   8.221   0.961   9.344  0.3799  0.7923  0.0922
14851SOL     OW46752   8.597   4.615   2.829 -1.2820  0.1510  0.2351
14851SOL    HW146753   8.613   4.598   2.922 -1.5224  0.5529  0.3558
14851SOL    HW246754   8.678   4.656   2.798 -1.8584  1.7614  0.7341
14852SOL     OW46755   4.867   4.835   6.305  0.1493 -0.3050  0.3302
14852SOL    HW146756   4.899   4.752   6.341  1.6885  0.0754 -0.0989
14852SOL    HW246757   4.816   4.809   6.228  0.8951 -0.8370  0.0088
14853SOL     OW46758   2.035   0.058   9.171  0.1407  0.0872 -0.3738
14853SOL    HW146759   1.954   0.081   9.216 -1.2115 -1.2524 -1.9810
14853SOL    HW246760   2.093   0.133   9.186 -0.9342  0.5573  1.7998
14854SOL     OW46761   8.388   4.991   1.154  0.2375 -0.0290 -0.5111
14854SOL    HW146762   8.461   5.043   1.188 -0.1935 -0.4957  1.2129
14854SOL    HW246763   8.429   4.913   1.117  0.6592 -0.0731  0.0389
14855SOL     OW46764   3.838   4.333   4.299 -0.0641  0.5611  0.0428
14855SOL    HW146765   3.828   4.376   4.214  0.0800 -0.2510 -0.3933
14855SOL    HW246766   3.763   4.363   4.350  0.3181  1.7501 -0.0587
14856SOL     OW46767   4.257   9.546   1.786 -0.3937  0.4911 -0.4845
14856SOL    HW146768   4.186   9.502   1.738 -0.2610 -0.1652 -0.0832
14856SOL    HW246769   4.289   9.481   1.848  0.6707  0.7303 -0.7599
14857SOL     OW46770   2.355   3.885   1.295  0.1207 -0.0191  0.1220
14857SOL    HW146771   2.399   3.816   1.246 -1.5235  0.3474 -1.9990
14857SOL    HW246772   2.347   3.958   1.233 -1.9577  0.5026  0.9032
14858SOL     OW46773   2.003   8.051   5.487  0.3816 -0.1808 -0.3586
14858SOL    HW146774   2.066   8.109   5.444 -1.8751  0.8511 -2.5110
14858SOL    HW246775   1.933   8.110   5.517 -1.7237 -1.6086 -2.1408
14859SOL     OW46776   9.366   0.719   2.011  0.0976  0.5194  0.4523
14859SOL    HW146777   9.400   0.807   2.028  1.1601  0.1091  0.5538
14859SOL    HW246778   9.299   0.706   2.078  0.5643  0.9081  1.0098
14860SOL     OW46779   8.153   4.477   0.057 -0.1731 -0.0638  0.5494
14860SOL    HW146780   8.159   4.445   0.147 -1.2750 -0.8644  0.3612
14860SOL    HW246781   8.061   4.502   0.046 -0.1708 -0.4572 -0.4995
14861SOL     OW46782   0.143   7.570   6.361 -0.3917  0.0478 -0.4315
14861SOL    HW146783   0.108   7.481   6.371  0.8333 -0.3570  0.4145
14861SOL    HW246784   0.065   7.627   6.368 -1.0019 -0.8706  0.5755
14862SOL     OW46785   7.662   8.520   4.636 -0.0888 -0.2682 -0.3141
14862SOL    HW146786   7.590   8.582   4.649 -0.1218 -0.0446 -1.4810
14862SOL    HW246787   7.631   8.440   4.679 -0.6292  0.1015  0.0108
14863SOL     OW46788   8.394   0.365   4.952  0.2224 -0.5532 -0.0466
14863SOL    HW146789   8.323   0.361   5.017  0.4534 -1.5785  0.1620
14863SOL    HW246790   8.435   0.450   4.966 -0.5580 -0.2145  0.2623
14864SOL     OW46791   2.819   2.274   4.269  0.3428 -0.0855 -0.5105
14864SOL    HW146792   2.839   2.340   4.336  0.0278 -0.3961 -0.0971
14864SOL    HW246793   2.843   2.191   4.311 -1.7736 -0.4863  0.0384
14865SOL     OW46794   6.331   1.641   0.114 -0.1993  0.5706  0.2354
14865SOL    HW146795   6.301   1.580   0.047 -0.9222  1.3899 -0.2119
14865SOL    HW246796   6.257   1.648   0.175 -1.3425  3.1689 -1.2721
14866SOL     OW46797   1.137   2.737   5.476 -0.0803 -0.2246  0.2227
14866SOL    HW146798   1.208   2.800   5.460 -0.6928 -0.3177 -4.3751
14866SOL    HW246799   1.162   2.660   5.424 -2.6804 -0.9196 -0.1548
14867SOL     OW46800   8.229   6.779   7.189 -0.1569 -0.6231 -0.0706
14867SOL    HW146801   8.194   6.748   7.273 -0.0137  1.4429  0.8112
14867SOL    HW246802   8.317   6.740   7.184  0.4574  0.4781  1.5282
14868SOL     OW46803   1.519   4.952   7.175 -0.3679  0.1289 -1.1440
14868SOL    HW146804   1.473   5.013   7.232  2.7851  0.9580  0.7201
14868SOL    HW246805   1.473   4.958   7.091 -1.9257  2.8905 -0.2090
14869SOL     OW46806   7.458   3.894   6.352 -0.3800 -0.1732  0.3571
14869SOL    HW146807   7.517   3.962   6.319 -0.4210 -0.6312 -0.7350
14869SOL    HW246808   7.516   3.823   6.379 -0.3992 -1.0495 -1.6965
14870SOL     OW46809   5.275   0.151   0.626  0.0805  0.3237 -0.3008
14870SOL    HW146810   5.196   0.196   0.657 -0.0710  0.9499 -1.5403
14870SOL    HW246811   5.324   0.131   0.706 -1.0327  0.4809  0.4400
14871SOL     OW46812   3.095   1.586   6.277 -0.3107 -0.1570 -0.5439
14871SOL    HW146813   3.189   1.590   6.297 -0.2606 -1.9421 -0.3224
14871SOL    HW246814   3.085   1.646   6.202  1.3620 -1.3438 -1.7998
14872SOL     OW46815   2.089   5.480   8.390  0.1180  0.3056  0.2475
14872SOL    HW146816   2.130   5.542   8.450  1.6045  0.7062 -1.0920
14872SOL    HW246817   2.089   5.525   8.305 -0.7801 -0.7003 -0.3162
14873SOL     OW46818   7.970   2.960   2.677  0.7138 -0.2355 -0.0413
14873SOL    HW146819   7.977   2.865   2.668 -0.7089 -0.3888  0.1202
14873SOL    HW246820   7.941   2.973   2.767 -1.4322  0.1595 -0.7299
14874SOL     OW46821   8.138   8.485   5.792  0.0203  0.0190 -0.7912
14874SOL    HW146822   8.079   8.523   5.727  0.4686  0.6626 -0.8358
14874SOL    HW246823   8.222   8.527   5.775  0.3758 -0.5331 -0.4225
14875SOL     OW46824   8.041   0.572   0.598 -0.3165 -0.7343 -0.0052
14875SOL    HW146825   8.110   0.599   0.537  0.2038 -1.2899  0.3296
14875SOL    HW246826   7.968   0.632   0.579  0.2152 -0.2047 -0.4330
14876SOL     OW46827   0.379   0.133   0.754  0.4257  0.2356 -0.7479
14876SOL    HW146828   0.416   0.083   0.681  0.6675 -1.2318  0.3193
14876SOL    HW246829   0.454   0.152   0.810 -0.0219 -0.4767  0.1285
14877SOL     OW46830   4.441   7.231   1.078  0.1676  0.1835 -0.3933
14877SOL    HW146831   4.438   7.141   1.108  0.2099  0.0137 -0.8987
14877SOL    HW246832   4.534   7.247   1.059  0.1738  0.3640 -0.2190
14878SOL     OW46833   3.925   0.255   5.470 -0.1014 -0.2657  0.1492
14878SOL    HW146834   3.870   0.183   5.441 -0.0232 -0.1424 -0.3049
14878SOL    HW246835   3.997   0.259   5.406  0.1023 -0.0321  0.3855
14879SOL     OW46836   3.816   6.870   4.391  0.4639  0.9372  0.3111
14879SOL    HW146837   3.848   6.792   4.347  0.8214  1.8566 -1.1164
14879SOL    HW246838   3.720   6.862   4.386  0.4887  0.3856  0.5847
14880SOL     OW46839   0.830   6.060   4.261 -0.1171 -0.2631 -0.5041
14880SOL    HW146840   0.745   6.089   4.229  0.0114 -0.5008 -1.0760
14880SOL    HW246841   0.823   6.064   4.356 -0.1012  1.6221 -0.5512
14881SOL     OW46842   0.511   6.785   5.885 -0.6251 -0.0995  0.1350
14881SOL    HW146843   0.604   6.762   5.892 -0.4044  0.3860 -0.9231
14881SOL    HW246844   0.473   6.759   5.969  0.8202  1.3241  1.2984
14882SOL     OW46845   3.857   3.076   0.669 -0.0293 -0.0085  0.3658
14882SOL    HW146846   3.859   3.147   0.733 -0.2268  1.0706 -0.7889
14882SOL    HW246847   3.803   3.110   0.597 -1.4966 -1.9431  0.4742
14883SOL     OW46848   7.762   8.451   1.793 -0.1549  0.0241 -0.2719
14883SOL    HW146849   7.756   8.411   1.879 -0.1748  0.9988  0.1963
14883SOL    HW246850   7.819   8.394   1.742 -0.4185 -0.7348  0.2800
14884SOL     OW46851   9.397   6.297   0.998  0.1030 -0.4288 -0.1168
14884SOL    HW146852   9.490   6.291   0.975  0.0666  1.2230 -0.8245
14884SOL    HW246853   9.379   6.391   0.999 -1.5140 -0.7200  0.2622
14885SOL     OW46854   9.431   0.777   3.466  0.1109 -0.2497  0.2058
14885SOL    HW146855   9.518   0.765   3.428 -1.1466 -1.2860 -2.6655
14885SOL    HW246856   9.415   0.872   3.462  0.6364 -0.1842 -0.4532
14886SOL     OW46857   6.594   4.172   9.566  0.4800  0.8577  0.4578
14886SOL    HW146858   6.670   4.177   9.507  0.3345  0.8312  0.2648
14886SOL    HW246859   6.548   4.254   9.551 -0.1147  0.4106 -0.2382
14887SOL     OW46860   5.875   7.241   2.644 -0.0268  0.3040 -0.0721
14887SOL    HW146861   5.915   7.306   2.701  0.8589 -0.6508  0.4385
14887SOL    HW246862   5.829   7.182   2.703 -0.1892  0.0418 -0.4539
14888SOL     OW46863   4.137   1.898   7.503 -0.4451 -0.1343  0.3604
14888SOL    HW146864   4.216   1.948   7.483 -0.3610 -0.7897 -1.0371
14888SOL    HW246865   4.079   1.961   7.545 -0.0214  0.9205 -0.5910
14889SOL     OW46866   3.007   8.164   7.462 -0.6060  0.3426  0.3017
14889SOL    HW146867   3.043   8.243   7.421 -0.3349 -0.1445 -0.4241
14889SOL    HW246868   2.929   8.144   7.410 -1.4218  0.8719  1.2972
14890SOL     OW46869   3.264   5.148   5.944 -0.3865 -0.0473 -0.3440
14890SOL    HW146870   3.202   5.096   5.996 -0.9269  0.9894  0.0738
14890SOL    HW246871   3.301   5.085   5.882 -2.3633 -0.5827 -1.0552
14891SOL     OW46872   5.617   2.234   3.141 -0.3208  0.2281  0.1268
14891SOL    HW146873   5.644   2.313   3.094 -1.8654  1.7352  1.6028
14891SOL    HW246874   5.691   2.213   3.197  0.6286 -0.2162 -1.2540
14892SOL     OW46875   0.659   2.288   9.019 -0.0870  0.7988 -0.0134
14892SOL    HW146876   0.713   2.330   8.952  1.1780  0.0819  0.5319
14892SOL    HW246877   0.595   2.236   8.969  0.5957  0.5786 -0.6754
14893SOL     OW46878   0.566   4.022   2.691  0.3750 -0.5471 -0.4363
14893SOL    HW146879   0.509   3.952   2.659  1.3063 -1.6722  0.2465
14893SOL    HW246880   0.598   3.989   2.775  1.0358  0.5994 -0.2253
14894SOL     OW46881   0.594   9.163   1.411 -0.8959  0.0005 -0.3383
14894SOL    HW146882   0.559   9.213   1.337  0.0113  0.5405 -0.4146
14894SOL    HW246883   0.644   9.092   1.370  0.5597  0.9511 -0.2957
14895SOL     OW46884   3.872   6.164   1.852 -0.0348  0.1013  0.2615
14895SOL    HW146885   3.855   6.138   1.761 -1.1030  1.7374 -0.0700
14895SOL    HW246886   3.941   6.230   1.845 -0.1607  0.2743  0.6230
14896SOL     OW46887   2.420   4.840   3.423  0.2432 -0.5637 -0.5042
14896SOL    HW146888   2.398   4.893   3.346  0.0584 -0.0713 -0.1151
14896SOL    HW246889   2.378   4.755   3.406  1.3398 -0.9213 -1.5717
14897SOL     OW46890   6.597   0.152   7.572  0.2371  0.1537  0.1952
14897SOL    HW146891   6.520   0.163   7.515  0.4388 -1.0951 -0.3353
14897SOL    HW246892   6.592   0.062   7.603  0.8555  0.4215  1.1165
14898SOL     OW46893   3.731   7.988   4.243 -0.1154 -1.2085 -0.5821
14898SOL    HW146894   3.819   7.953   4.232 -0.8771 -3.3295 -0.3937
14898SOL    HW246895   3.686   7.966   4.161 -1.6834 -4.1314  0.9363
14899SOL     OW46896   1.277   5.789   3.725 -0.0736 -0.0953  0.1689
14899SOL    HW146897   1.248   5.869   3.769 -0.3490 -0.0006 -0.1794
14899SOL    HW246898   1.204   5.728   3.736 -0.0390 -0.1561  0.0634
14900SOL     OW46899   0.625   1.427   9.399  0.4352 -0.3040 -0.5790
14900SOL    HW146900   0.694   1.480   9.441  0.1680 -0.5250  0.1594
14900SOL    HW246901   0.548   1.484   9.398  0.1192 -0.6912  0.3056
14901SOL     OW46902   0.165   6.757   7.086 -0.2318  0.5934  0.0238
14901SOL    HW146903   0.236   6.821   7.095 -0.1456  0.2694  1.9659
14901SOL    HW246904   0.086   6.807   7.107  0.1658 -0.7618  7.3764
14902SOL     OW46905   6.168   8.903   6.355 -0.9299 -0.3578 -0.3015
14902SOL    HW146906   6.187   8.815   6.323  3.1499  0.2323  0.0012
14902SOL    HW246907   6.216   8.961   6.297 -0.2970  1.3414  1.7621
14903SOL     OW46908   1.274   1.963   4.060  0.2967 -0.1663 -0.1287
14903SOL    HW146909   1.291   1.923   4.145  1.7425  0.0449 -0.2789
14903SOL    HW246910   1.311   1.901   3.997 -0.7518 -0.3146 -0.6058
14904SOL     OW46911   3.727   7.031   9.331 -0.0116  0.5662 -0.0023
14904SOL    HW146912   3.685   7.049   9.246 -0.5427  1.2032  0.3891
14904SOL    HW246913   3.660   7.051   9.396  0.6617  0.8850  0.6054
14905SOL     OW46914   9.315   1.373   5.484  0.1042 -1.0151  0.3245
14905SOL    HW146915   9.348   1.436   5.548  0.7285 -1.0000 -0.0106
14905SOL    HW246916   9.324   1.288   5.527  0.2315 -0.9765  0.3727
14906SOL     OW46917   0.649   2.645   2.340 -0.5905  0.3475 -0.2009
14906SOL    HW146918   0.686   2.558   2.331 -2.3837 -0.8376  2.6217
14906SOL    HW246919   0.557   2.631   2.364 -1.5235  3.0661 -1.6582
14907SOL     OW46920   7.893   9.437   0.063  0.4104  0.5080 -0.1317
14907SOL    HW146921   7.899   9.532   0.053 -2.9527  0.9084  0.4765
14907SOL    HW246922   7.887   9.403  -0.026 -0.4212  1.1031 -0.3100
14908SOL     OW46923   8.615   1.294   2.270  0.2627 -0.3961  0.4191
14908SOL    HW146924   8.578   1.265   2.353 -0.2191 -0.1136  0.3070
14908SOL    HW246925   8.610   1.389   2.273 -0.5381 -0.3979 -0.2750
14909SOL     OW46926   8.999   6.703   3.969  0.4237  0.4354  0.0926
14909SOL    HW146927   9.073   6.663   4.015  0.5286  1.8975  1.2692
14909SOL    HW246928   8.951   6.750   4.037 -0.8300  0.6467 -0.8979
14910SOL     OW46929   6.237   3.889   5.428 -0.1956 -0.0710 -1.0294
14910SOL    HW146930   6.254   3.817   5.490 -1.5907  0.1546 -0.3307
14910SOL    HW246931   6.317   3.896   5.377  1.8674  1.0133  2.0426
14911SOL     OW46932   2.719   6.972   3.355 -0.0537 -0.1074 -0.3639
14911SOL    HW146933   2.787   6.962   3.421 -0.6200  0.5485  0.3461
14911SOL    HW246934   2.695   6.882   3.331  0.3315 -0.3471  0.1393
14912SOL     OW46935   9.242   5.300   5.209  0.2726  0.1127 -0.5955
14912SOL    HW146936   9.286   5.353   5.143 -0.9277  0.3229 -1.2566
14912SOL    HW246937   9.300   5.226   5.223  1.3989  0.9734 -0.5547
14913SOL     OW46938   3.075   0.187   5.377 -0.1182  0.0246  0.2283
14913SOL    HW146939   3.168   0.179   5.396 -0.1406 -0.8322  0.0504
14913SOL    HW246940   3.071   0.205   5.283 -0.1401 -0.6359  0.0945
14914SOL     OW46941   2.175   9.324   5.399  0.2097  0.1337  0.8113
14914SOL    HW146942   2.210   9.252   5.346 -0.9300 -0.1117  0.3561
14914SOL    HW246943   2.221   9.402   5.367 -0.4032 -0.0255 -0.4994
14915SOL     OW46944   2.408   8.864   8.197 -0.2088  0.2404 -0.0361
14915SOL    HW146945   2.331   8.874   8.143  0.8072  0.9391 -1.4168
14915SOL    HW246946   2.482   8.870   8.136  0.9696  0.5700  1.3463
14916SOL     OW46947   6.527   5.606   6.609  0.3667 -0.1322  0.2522
14916SOL    HW146948   6.537   5.675   6.544 -3.2304  0.2095 -0.1541
14916SOL    HW246949   6.439   5.571   6.593 -0.8182  0.0346  4.9135
14917SOL     OW46950   8.764   1.338   9.354 -0.0555 -0.0780  0.0308
14917SOL    HW146951   8.782   1.389   9.275 -1.3304 -0.8733 -0.8019
14917SOL    HW246952   8.671   1.351   9.371 -0.2545 -1.5220  0.2113
14918SOL     OW46953   4.328   7.820   4.083  0.5927  0.3690 -0.2133
14918SOL    HW146954   4.354   7.728   4.089 -0.5544 -0.1259 -1.9939
14918SOL    HW246955   4.233   7.818   4.090  0.6339  1.5877  0.9873
14919SOL     OW46956   3.882   4.520   8.059  0.4145  0.0360  0.1719
14919SOL    HW146957   3.809   4.574   8.090  1.1453  1.6843 -0.8397
14919SOL    HW246958   3.915   4.567   7.982  1.6679 -1.4041 -0.2125
14920SOL     OW46959   3.731   7.955   0.036  0.0684  0.3980 -0.0392
14920SOL    HW146960   3.811   7.904   0.041  1.1699  2.0169 -0.2722
14920SOL    HW246961   3.710   7.959  -0.057  0.4639  1.0537 -0.1054
14921SOL     OW46962   2.201   2.120   2.255  0.8557 -0.1460 -0.2556
14921SOL    HW146963   2.231   2.145   2.168  2.3119 -2.4613 -0.5071
14921SOL    HW246964   2.126   2.062   2.239  0.5480  0.1405  0.1028
14922SOL     OW46965   1.044   7.133   9.529  0.3959  0.2435  0.5422
14922SOL    HW146966   1.135   7.150   9.504  0.0229 -0.6262 -1.6435
14922SOL    HW246967   1.048   7.112   9.622  2.6570 -1.3572  0.1629
14923SOL     OW46968   8.684   2.314   8.427 -0.3194  0.2761 -0.0923
14923SOL    HW146969   8.654   2.237   8.379  1.3543 -1.2549  1.2052
14923SOL    HW246970   8.706   2.281   8.515 -0.2652  2.3769  0.7367
14924SOL     OW46971   3.300   6.584   1.950  0.0201  0.3279  0.2071
14924SOL    HW146972   3.361   6.513   1.971  1.4505  1.5110  0.2298
14924SOL    HW246973   3.284   6.628   2.034  1.6708  1.9253 -0.2528
14925SOL     OW46974   0.514   0.927   3.268 -0.1251 -0.0296  0.1878
14925SOL    HW146975   0.472   0.858   3.217  0.1548 -0.1287  0.0903
14925SOL    HW246976   0.451   0.999   3.266  0.3216  0.3595 -1.2070
14926SOL     OW46977   4.839   5.814   3.974  0.7381 -0.0918  0.5393
14926SOL    HW146978   4.754   5.822   3.930  0.9113  1.4107  0.4114
14926SOL    HW246979   4.835   5.730   4.020 -0.9563  0.1289  0.8465
14927SOL     OW46980   3.134   2.524   9.176 -0.6246 -0.1405 -0.2864
14927SOL    HW146981   3.205   2.529   9.240  0.5632 -0.6415 -1.5146
14927SOL    HW246982   3.097   2.612   9.175 -0.3739 -0.0049  0.7534
14928SOL     OW46983   0.929   8.307   8.290  0.1862 -0.0643  0.3492
14928SOL    HW146984   0.868   8.249   8.243 -0.4600  0.6576  0.2709
14928SOL    HW246985   0.989   8.247   8.335 -0.4325 -0.7976  0.2305
14929SOL     OW46986   8.680   2.952   2.493 -0.1343  0.2551  0.2070
14929SOL    HW146987   8.689   2.870   2.445 -0.3202  0.9763 -1.1352
14929SOL    HW246988   8.596   2.944   2.538 -0.8614  0.2506 -1.0883
14930SOL     OW46989   3.333   3.058   8.922  0.5207  0.1988 -0.1741
14930SOL    HW146990   3.343   2.981   8.866 -1.4733  0.1978 -0.5992
14930SOL    HW246991   3.320   3.131   8.862  0.0674  0.4772  0.2531
14931SOL     OW46992   5.263   4.295   4.481 -0.2825 -0.3640 -0.6024
14931SOL    HW146993   5.221   4.380   4.498  1.0134 -0.0563  1.4435
14931SOL    HW246994   5.277   4.294   4.386  0.1821  1.9827 -0.6334
14932SOL     OW46995   9.252   6.747   6.607 -0.0683  0.2733 -0.2084
14932SOL    HW146996   9.269   6.841   6.606 -0.9414  0.4526 -1.2560
14932SOL    HW246997   9.260   6.721   6.515  0.0586 -0.6580  0.0551
14933SOL     OW46998   0.265   0.099   5.990  0.0451 -0.0304  0.3290
14933SOL    HW146999   0.213   0.071   5.915  1.8048  1.6572 -1.6385
14933SOL    HW247000   0.338   0.037   5.993 -0.3493 -0.4677  1.0632
14934SOL     OW47001   3.909   3.394   1.284  0.0172  0.6731  1.0559
14934SOL    HW147002   3.897   3.325   1.218  0.7485  0.0371  1.5699
14934SOL    HW247003   3.859   3.362   1.359  0.5170  0.6058  1.3618
14935SOL     OW47004   0.482   3.807   4.183  0.3867 -0.6525 -0.2010
14935SOL    HW147005   0.528   3.791   4.266 -1.1850  0.7191  1.0262
14935SOL    HW247006   0.550   3.836   4.123  1.3010  0.3115  1.2292
14936SOL     OW47007   8.187   3.513   4.569 -0.1972  0.0239  0.4212
14936SOL    HW147008   8.202   3.436   4.624 -0.0393  0.2158  0.6514
14936SOL    HW247009   8.117   3.561   4.613  0.6515  0.7229  1.0421
14937SOL     OW47010   9.189   0.929   7.691  0.0989 -0.1821 -0.6366
14937SOL    HW147011   9.175   0.835   7.676 -1.2849 -0.2861  1.0051
14937SOL    HW247012   9.284   0.939   7.693  0.2753 -1.3622 -1.7680
14938SOL     OW47013   2.912   0.546   5.513  0.0717  0.1258 -0.3911
14938SOL    HW147014   2.989   0.506   5.554  0.7427  1.6678 -0.0726
14938SOL    HW247015   2.870   0.593   5.585 -1.8018 -1.5239 -0.3144
14939SOL     OW47016   2.366   8.203   9.153 -0.4174  0.3237  0.2785
14939SOL    HW147017   2.412   8.174   9.231 -2.4452 -0.9434  1.0660
14939SOL    HW247018   2.385   8.136   9.087 -0.5691  0.1939  0.3693
14940SOL     OW47019   9.063   8.859   3.171  0.3671  0.0831 -0.6676
14940SOL    HW147020   9.030   8.922   3.107  1.3757 -0.3321 -1.6111
14940SOL    HW247021   9.114   8.912   3.233 -0.7070  0.4979 -0.1066
14941SOL     OW47022   0.064   1.196   7.782  0.2305 -0.1535 -0.5054
14941SOL    HW147023  -0.011   1.250   7.808  1.0937  0.5535  0.6367
14941SOL    HW247024   0.078   1.139   7.857  1.3210  0.2805 -0.3599
14942SOL     OW47025   0.291   0.359   5.756  0.1459 -0.2462  0.1427
14942SOL    HW147026   0.220   0.420   5.774 -0.6108 -0.7733 -0.9327
14942SOL    HW247027   0.251   0.291   5.701  1.2584 -1.0550  0.2906
14943SOL     OW47028   3.199   8.917   8.246  0.2731 -0.2586  0.5256
14943SOL    HW147029   3.150   8.835   8.234  0.7975 -0.3986 -0.8069
14943SOL    HW247030   3.196   8.960   8.161 -0.1091  1.1977  1.2456
14944SOL     OW47031   1.380   1.633   0.696  0.4231 -0.6997 -0.2976
14944SOL    HW147032   1.326   1.580   0.637 -0.7978 -1.5772  1.5047
14944SOL    HW247033   1.467   1.632   0.657 -0.1952 -1.8098 -1.7228
14945SOL     OW47034   3.399   6.445   0.617  0.2727  0.1730 -0.6256
14945SOL    HW147035   3.495   6.443   0.608  0.3610 -0.6465  0.3491
14945SOL    HW247036   3.383   6.407   0.703 -0.9249  0.5812 -0.6585
14946SOL     OW47037   5.765   2.920   6.329  0.2063  0.4023 -0.1099
14946SOL    HW147038   5.781   2.998   6.383  0.1627  1.2057 -1.2290
14946SOL    HW247039   5.687   2.941   6.278  1.1958  0.3455 -1.7116
14947SOL     OW47040   2.229   4.981   1.270 -0.2054  0.2112 -0.4928
14947SOL    HW147041   2.281   4.942   1.340 -0.1842  0.0448 -0.6004
14947SOL    HW247042   2.171   5.043   1.315  0.0394  0.3499 -0.3662
14948SOL     OW47043   0.243   0.651   3.730 -0.1017  0.2928  0.2706
14948SOL    HW147044   0.165   0.614   3.688 -0.6721 -0.1497  1.6418
14948SOL    HW247045   0.312   0.587   3.714 -0.7991 -0.8678  1.6283
14949SOL     OW47046   7.355   8.413   7.601  0.0517 -0.3574 -0.1978
14949SOL    HW147047   7.411   8.345   7.563  1.2125  0.5357 -0.1210
14949SOL    HW247048   7.313   8.454   7.525  2.3379  1.4007 -0.6340
14950SOL     OW47049   4.606   1.363   8.601  0.4307  0.2541 -0.1692
14950SOL    HW147050   4.547   1.430   8.634  0.6745  0.6610 -0.5541
14950SOL    HW247051   4.607   1.296   8.670 -0.7928  0.0360 -0.3315
14951SOL     OW47052   8.493   9.498   2.288 -0.3648 -0.1240  0.1904
14951SOL    HW147053   8.528   9.413   2.315  0.9511 -0.1904 -1.5213
14951SOL    HW247054   8.504   9.554   2.364 -0.9775 -1.3937  1.2531
14952SOL     OW47055   0.906   2.121   6.121 -0.2745 -0.0038  0.0381
14952SOL    HW147056   0.979   2.144   6.064 -0.3569  0.5015  0.1351
14952SOL    HW247057   0.911   2.026   6.130  0.7558  0.0865  0.5571
14953SOL     OW47058   7.322   4.665   2.571 -0.0411 -0.2036 -0.6984
14953SOL    HW147059   7.417   4.669   2.584 -0.0733 -0.0141 -0.5322
14953SOL    HW247060   7.310   4.588   2.514  0.4727  1.4335 -3.1667
14954SOL     OW47061   2.108   3.605   3.324  0.0252 -0.1318 -0.1515
14954SOL    HW147062   2.190   3.618   3.275  0.8502 -0.8775  0.9720
14954SOL    HW247063   2.106   3.678   3.386 -0.4838  0.2290 -0.5893
14955SOL     OW47064   2.589   4.032   8.346 -0.1003  0.0903  0.8278
14955SOL    HW147065   2.548   4.045   8.432 -0.4501  0.7997  0.5586
14955SOL    HW247066   2.538   3.962   8.305  0.4122 -0.6444  1.4096
14956SOL     OW47067   4.180   7.525   8.481 -0.4632 -0.0851 -0.1566
14956SOL    HW147068   4.138   7.550   8.398  1.3284 -0.5371 -1.2436
14956SOL    HW247069   4.160   7.432   8.490  1.1338 -0.5742 -1.2447
14957SOL     OW47070   1.424   2.105   9.416 -0.0499 -0.5348  0.2235
14957SOL    HW147071   1.471   2.152   9.484  2.3690  0.2025 -1.8149
14957SOL    HW247072   1.444   2.012   9.432 -1.1353 -0.5629  1.6071
14958SOL     OW47073   6.488   1.498   5.736  0.2098 -0.1661 -0.0365
14958SOL    HW147074   6.405   1.538   5.711  0.9950  0.4614 -1.7251
14958SOL    HW247075   6.474   1.404   5.722  0.1291  0.0345 -1.4119
14959SOL     OW47076   6.446   0.621   8.236 -0.0730 -0.0718 -0.2237
14959SOL    HW147077   6.493   0.671   8.303  0.1336  1.2468 -1.2952
14959SOL    HW247078   6.360   0.606   8.274  0.0891  0.5244  0.4134
14960SOL     OW47079   1.248   3.563   3.678 -0.0759 -0.6625 -0.4980
14960SOL    HW147080   1.259   3.628   3.747  0.0824 -1.3894  0.1703
14960SOL    HW247081   1.165   3.520   3.698  0.0561 -0.9975 -0.6621
14961SOL     OW47082   0.134   0.923   4.346 -0.4542  0.3265  0.0975
14961SOL    HW147083   0.215   0.872   4.349 -1.0566 -0.6150  0.8129
14961SOL    HW247084   0.111   0.925   4.253  0.6524  1.0650 -0.1890
14962SOL     OW47085   5.692   9.446   6.624  0.1921  0.2812  0.4220
14962SOL    HW147086   5.694   9.416   6.533 -0.5017 -3.4602  1.4912
14962SOL    HW247087   5.781   9.432   6.656 -0.0616 -0.3482  0.8598
14963SOL     OW47088   5.108   9.567   3.034 -0.3733  0.6317  0.3175
14963SOL    HW147089   5.127   9.518   2.954 -1.0413  1.3920 -0.3218
14963SOL    HW247090   5.164   9.644   3.028 -1.6164  1.5284 -0.2579
14964SOL     OW47091   0.824   0.166   5.887  0.0764 -0.0625 -0.3766
14964SOL    HW147092   0.740   0.210   5.898  0.4858  0.6634 -0.0491
14964SOL    HW247093   0.821   0.092   5.947  0.1934  0.7642  0.6996
14965SOL     OW47094   1.439   8.311   0.021  0.4407  0.0799  0.1398
14965SOL    HW147095   1.446   8.223   0.058 -1.7516  0.6186  2.0354
14965SOL    HW247096   1.515   8.357   0.054  0.0066 -0.2698  1.6908
14966SOL     OW47097   2.015   3.332   4.713 -0.6065  0.6154 -0.1339
14966SOL    HW147098   1.991   3.240   4.699 -1.1981  1.0088 -1.9471
14966SOL    HW247099   1.966   3.358   4.791 -0.7314 -0.4969  0.1718
14967SOL     OW47100   8.468   6.638   2.643 -0.6808 -0.4262  0.1823
14967SOL    HW147101   8.431   6.680   2.721 -0.3055 -0.2763  0.2849
14967SOL    HW247102   8.558   6.617   2.669 -1.0858 -2.0169  0.4110
14968SOL     OW47103   2.681   4.920   1.910  0.2254 -0.1190 -0.3717
14968SOL    HW147104   2.713   4.855   1.973  4.6864  0.0081 -2.1659
14968SOL    HW247105   2.713   5.004   1.942 -0.2674  0.3945 -1.1662
14969SOL     OW47106   4.341   3.358   3.247  0.1752  0.3649  0.6655
14969SOL    HW147107   4.273   3.310   3.200  0.0380  1.0109  0.1966
14969SOL    HW247108   4.387   3.291   3.298  2.0965 -0.8621 -2.3936
14970SOL     OW47109   6.521   5.705   5.520  0.0084 -1.0798 -0.3089
14970SOL    HW147110   6.579   5.630   5.509  0.3450 -0.8189 -0.3103
14970SOL    HW247111   6.476   5.713   5.435  0.6226 -0.7393 -0.6142
14971SOL     OW47112   3.325   8.819   3.678  0.1608 -0.6506  0.2848
14971SOL    HW147113   3.403   8.811   3.733  0.9848  1.1385 -0.5275
14971SOL    HW247114   3.360   8.844   3.592 -1.3497  2.8572  0.5222
14972SOL     OW47115   9.578   3.155   8.037  0.2315  0.7545  0.3475
14972SOL    HW147116   9.665   3.134   8.071 -0.2093  1.2494  1.8224
14972SOL    HW247117   9.524   3.079   8.058  0.6657 -0.3456 -2.1556
14973SOL     OW47118   8.145   8.948   3.247  0.0269  0.1329  0.0612
14973SOL    HW147119   8.237   8.962   3.266 -0.2936 -0.1792  2.0382
14973SOL    HW247120   8.112   9.036   3.225  0.5311  0.4569  0.5735
14974SOL     OW47121   5.071   1.216   1.083  0.0622 -0.3528 -0.1293
14974SOL    HW147122   5.086   1.205   1.177  0.8475  0.9979 -0.0660
14974SOL    HW247123   5.158   1.207   1.044 -0.3822 -1.7732 -0.8463
14975SOL     OW47124   8.666   4.818   6.126 -0.2017 -0.4250 -0.5581
14975SOL    HW147125   8.642   4.747   6.067  1.6857 -2.0644  0.5160
14975SOL    HW247126   8.585   4.866   6.140 -0.9870 -0.6525 -3.4893
14976SOL     OW47127   1.484   4.131   6.493  0.1933  0.1541 -0.3322
14976SOL    HW147128   1.577   4.134   6.512  0.1739  1.4926 -0.3540
14976SOL    HW247129   1.455   4.222   6.497 -0.8139 -0.0563 -1.7847
14977SOL     OW47130   5.027   8.227   6.597 -0.3113 -0.1224  0.4764
14977SOL    HW147131   5.058   8.310   6.563 -0.6780  0.4249  1.4376
14977SOL    HW247132   4.964   8.250   6.665 -2.3288 -1.1877 -0.9133
14978SOL     OW47133   4.557   2.971   3.010 -0.3529  0.1170  0.1717
14978SOL    HW147134   4.502   2.923   3.071  0.3459 -0.5201  0.3118
14978SOL    HW247135   4.511   2.966   2.926 -0.6731 -0.1123  0.3605
14979SOL     OW47136   4.369   0.970   8.639 -0.2891  0.0436  0.1940
14979SOL    HW147137   4.369   1.034   8.710  1.0419 -1.3075  1.4833
14979SOL    HW247138   4.450   0.986   8.592  0.8146 -1.5358  1.4180
14980SOL     OW47139   1.530   5.436   4.296  0.4915  0.0524 -0.1065
14980SOL    HW147140   1.555   5.478   4.214  0.0935  0.8198  0.1517
14980SOL    HW247141   1.457   5.378   4.273  0.7538 -0.1634 -0.3915
14981SOL     OW47142   0.909   8.512   5.973  0.4165 -0.2412  0.0942
14981SOL    HW147143   0.864   8.441   5.927 -2.4620  0.5970  1.3959
14981SOL    HW247144   0.954   8.469   6.046 -0.4782 -0.8449  0.3003
14982SOL     OW47145   7.518   7.119   7.836  0.2263 -0.1758 -0.4418
14982SOL    HW147146   7.523   7.191   7.899  0.5782 -0.8108  0.2721
14982SOL    HW247147   7.475   7.048   7.885  0.1633 -0.5574 -1.0400
14983SOL     OW47148   0.562   8.683   9.107 -0.2579  0.6654  0.0686
14983SOL    HW147149   0.638   8.708   9.161 -0.9512  0.9678  0.9354
14983SOL    HW247150   0.589   8.602   9.063 -0.0160 -0.1746  1.6809
14984SOL     OW47151   0.758   2.142   3.486 -0.2643  0.1014  0.0743
14984SOL    HW147152   0.712   2.192   3.554  1.0601 -2.4889  3.1793
14984SOL    HW247153   0.691   2.086   3.448 -1.0108  1.5116 -0.7605
14985SOL     OW47154   5.027   3.878   5.341 -0.3095  0.1861  0.2201
14985SOL    HW147155   5.022   3.969   5.368  0.0033  0.3592 -0.2893
14985SOL    HW247156   5.121   3.858   5.340 -0.3645 -0.0750  0.1121
14986SOL     OW47157   1.771   3.298   1.858  0.1484  0.0389  0.4061
14986SOL    HW147158   1.681   3.277   1.883  0.2666 -1.2519 -0.1923
14986SOL    HW247159   1.823   3.224   1.892  0.5054 -1.0754 -2.3315
14987SOL     OW47160   0.251   5.533   7.360  0.0195 -0.0119  0.2115
14987SOL    HW147161   0.160   5.511   7.338 -0.2186 -1.7717  2.5113
14987SOL    HW247162   0.295   5.543   7.276 -2.3852  1.3975 -0.9702
14988SOL     OW47163   0.098   3.205   0.992 -0.4911  0.6451 -0.1524
14988SOL    HW147164   0.066   3.294   0.979 -2.3855  0.1586  0.8086
14988SOL    HW247165   0.100   3.194   1.087  0.0182 -0.2539 -0.2586
14989SOL     OW47166   5.450   2.089   4.996 -0.0043 -0.4389  0.6736
14989SOL    HW147167   5.545   2.091   4.988 -0.1289 -0.7862 -1.5788
14989SOL    HW247168   5.429   2.162   5.053  1.5093  0.8273 -0.2997
14990SOL     OW47169   2.554   3.513   8.926  0.5603  0.4937  0.0530
14990SOL    HW147170   2.636   3.557   8.901  0.8759 -0.1651 -0.0922
14990SOL    HW247171   2.500   3.519   8.847  0.4829  0.8993  0.1371
14991SOL     OW47172   2.911   4.411   4.103 -0.9585 -0.0412 -0.0102
14991SOL    HW147173   2.879   4.498   4.126 -0.2495 -0.2285  1.7976
14991SOL    HW247174   2.893   4.357   4.180 -1.6641 -1.6060 -1.1971
14992SOL     OW47175   7.556   2.634   6.213 -0.0529 -0.1612  0.0037
14992SOL    HW147176   7.510   2.703   6.261  1.5730  1.4599 -0.6902
14992SOL    HW247177   7.551   2.558   6.271 -0.4533  0.9800  1.5364
14993SOL     OW47178   9.219   5.391   6.174 -0.1907  0.3399 -0.6235
14993SOL    HW147179   9.151   5.368   6.111 -0.6489 -0.4911  0.1495
14993SOL    HW247180   9.177   5.381   6.260  1.0193 -0.6387 -0.1149
14994SOL     OW47181   8.224   8.264   1.365 -0.0599 -0.7368  0.4912
14994SOL    HW147182   8.141   8.292   1.326  0.0806  1.1342  1.3976
14994SOL    HW247183   8.225   8.307   1.451  2.3607  0.2828  0.0451
14995SOL     OW47184   4.933   7.650   7.318  0.6792  0.1114 -0.1966
14995SOL    HW147185   4.937   7.700   7.237  1.5854 -0.1896 -0.3448
14995SOL    HW247186   4.846   7.610   7.317  0.9705 -0.5435 -1.4148
14996SOL     OW47187   8.734   0.248   4.062 -0.4363 -0.2855 -0.4774
14996SOL    HW147188   8.685   0.233   3.981 -0.7317 -0.6527 -0.2341
14996SOL    HW247189   8.668   0.280   4.124 -0.4229 -1.0280 -0.0708
14997SOL     OW47190   7.704   3.705   4.607  0.0392 -0.0588  0.1020
14997SOL    HW147191   7.739   3.709   4.697  0.0320  0.2877  0.0885
14997SOL    HW247192   7.734   3.620   4.575  1.7809  0.6420 -0.2707
14998SOL     OW47193   8.893   8.579   5.688 -0.2732  0.2954  0.2968
14998SOL    HW147194   8.968   8.638   5.685  0.1613 -0.2861 -1.1502
14998SOL    HW247195   8.930   8.493   5.707 -0.4955 -0.0631 -0.8014
14999SOL     OW47196   0.992   5.651   2.629 -0.6661  0.0105  0.2008
14999SOL    HW147197   1.017   5.588   2.562  1.1784  1.2889 -0.3924
14999SOL    HW247198   0.973   5.598   2.706 -2.9983 -1.5237 -1.3001
15000SOL     OW47199   6.435   7.656   2.177  0.0914 -0.1533  0.0254
15000SOL    HW147200   6.340   7.651   2.187 -0.0987  0.4627 -1.2952
15000SOL    HW247201   6.465   7.702   2.255 -0.6911 -0.2961  0.4265
15001SOL     OW47202   2.590   6.502   7.174 -0.5324 -0.1158  0.0233
15001SOL    HW147203   2.635   6.568   7.120 -1.8151  2.1579  1.5915
15001SOL    HW247204   2.500   6.534   7.181 -0.7497 -1.0531  2.3563
15002SOL     OW47205   7.135   6.121   0.545  0.4998 -0.0377  0.1874
15002SOL    HW147206   7.097   6.207   0.561 -0.4234 -0.4485  0.2277
15002SOL    HW247207   7.212   6.140   0.490  0.8848  0.8944  0.9994
15003SOL     OW47208   4.170   2.966   3.092  0.3575  0.5501 -0.0462
15003SOL    HW147209   4.131   3.053   3.099 -0.4812  0.1738  0.2003
15003SOL    HW247210   4.209   2.963   3.005  2.3641  1.9391  0.7544
15004SOL     OW47211   0.730   1.911   1.926  0.2065  0.5613  0.3723
15004SOL    HW147212   0.657   1.917   1.864 -0.8402  0.6358  1.5892
15004SOL    HW247213   0.733   1.818   1.950  0.3203  0.6176  0.5760
15005SOL     OW47214   6.794   3.029   4.564 -0.1878  0.1563 -0.3273
15005SOL    HW147215   6.775   3.123   4.564 -0.2889  0.1530  0.7604
15005SOL    HW247216   6.812   3.009   4.656  1.3894 -0.5801 -0.7617
15006SOL     OW47217   1.196   0.092   4.067 -0.0706 -1.1184 -0.6322
15006SOL    HW147218   1.251   0.170   4.057 -2.1792  0.5501  0.0462
15006SOL    HW247219   1.175   0.065   3.978  0.7563 -0.9857 -0.8717
15007SOL     OW47220   6.274   8.488   6.785  0.0200 -0.0688  0.1769
15007SOL    HW147221   6.323   8.565   6.756 -0.3046 -0.0462 -0.3319
15007SOL    HW247222   6.205   8.523   6.840 -1.2037  0.2062 -1.4462
15008SOL     OW47223   5.446   3.293   3.633 -0.5665 -0.2872  0.1339
15008SOL    HW147224   5.393   3.366   3.600 -1.9490 -1.2099  0.2385
15008SOL    HW247225   5.506   3.333   3.695 -1.1059  0.8010 -0.0268
15009SOL     OW47226   1.500   8.303   4.074 -0.3222 -0.4280 -0.2885
15009SOL    HW147227   1.578   8.249   4.064  0.3391  0.8735 -3.5525
15009SOL    HW247228   1.430   8.250   4.037 -0.9643 -1.3179  2.0174
15010SOL     OW47229   6.155   3.763   1.962 -0.3647  0.4834 -0.2141
15010SOL    HW147230   6.177   3.719   1.879  0.0728  1.8320 -0.8493
15010SOL    HW247231   6.064   3.739   1.978  0.2217 -1.7107  0.1824
15011SOL     OW47232   3.071   4.407   6.282  0.3822 -0.5455  0.0891
15011SOL    HW147233   3.067   4.473   6.212 -0.3269 -0.3869  0.2669
15011SOL    HW247234   2.981   4.402   6.315  0.7124 -0.6021  1.0121
15012SOL     OW47235   2.328   8.456   6.500  0.0215  0.0836 -0.0806
15012SOL    HW147236   2.308   8.546   6.524 -0.1079 -0.3426  1.5601
15012SOL    HW247237   2.392   8.463   6.430  0.9901  1.4583  0.8916
15013SOL     OW47238   1.803   3.739   3.497 -0.0088 -0.1396 -0.0147
15013SOL    HW147239   1.787   3.827   3.529  0.0951 -1.2505  3.4893
15013SOL    HW247240   1.897   3.726   3.509  0.0027 -0.6906 -0.6410
15014SOL     OW47241   3.954   7.709   1.339 -0.2577  0.2582  0.2785
15014SOL    HW147242   4.016   7.656   1.390  2.3303  1.8482 -1.0118
15014SOL    HW247243   3.923   7.775   1.400  1.3929  1.0293  0.3250
15015SOL     OW47244   2.585   3.362   8.069  0.1889  0.0578 -0.3909
15015SOL    HW147245   2.529   3.295   8.030 -1.3540  0.6054  0.7850
15015SOL    HW247246   2.646   3.386   7.999  0.8969 -2.6050 -0.8278
15016SOL     OW47247   1.720   4.327   6.885 -0.4537 -0.1278  0.1146
15016SOL    HW147248   1.714   4.410   6.933 -0.4626 -0.0578 -0.0059
15016SOL    HW247249   1.641   4.280   6.909 -1.0663  0.4166 -0.7702
15017SOL     OW47250   2.454   2.146   7.388 -0.5849  0.8061  0.4773
15017SOL    HW147251   2.442   2.211   7.458 -1.7752  1.7678 -0.5777
15017SOL    HW247252   2.367   2.138   7.348 -0.5418 -1.6411  0.7145
15018SOL     OW47253   1.401   8.665   4.089  0.0819  0.1154  0.2997
15018SOL    HW147254   1.436   8.583   4.125  1.1784 -0.4241 -1.8516
15018SOL    HW247255   1.330   8.637   4.031 -0.8916  0.8782  1.0790
15019SOL     OW47256   7.552   7.874   3.735  0.0096 -0.1617  0.1108
15019SOL    HW147257   7.485   7.811   3.711 -1.3859  1.8133 -1.5563
15019SOL    HW247258   7.504   7.951   3.765  1.5607  0.8415  0.1743
15020SOL     OW47259   6.018   9.378   0.749 -0.5906  0.0118  0.2566
15020SOL    HW147260   6.087   9.312   0.745 -0.3252  0.2439  0.8809
15020SOL    HW247261   5.994   9.381   0.842 -2.6820 -1.3394 -0.1578
15021SOL     OW47262   1.691   7.523   4.553  0.1672  0.4289 -1.0790
15021SOL    HW147263   1.746   7.453   4.517  0.3506  0.8582 -1.6439
15021SOL    HW247264   1.606   7.480   4.568  0.4535 -0.0668 -0.8308
15022SOL     OW47265   0.095   5.255   1.213 -0.3898  0.1210  0.3795
15022SOL    HW147266   0.157   5.242   1.141  0.8337  0.7166  1.3186
15022SOL    HW247267   0.024   5.306   1.173  0.4114  0.7080 -0.3343
15023SOL     OW47268   6.706   4.286   6.937  0.0394  0.5215 -0.1293
15023SOL    HW147269   6.718   4.361   6.996  1.1020  0.0560  0.2738
15023SOL    HW247270   6.685   4.213   6.996  1.4136 -0.0166 -0.2851
15024SOL     OW47271   4.378   5.826   9.332  0.1541  0.2113  0.0898
15024SOL    HW147272   4.290   5.862   9.342 -0.3899 -0.9158 -0.3878
15024SOL    HW247273   4.369   5.762   9.261  1.0875 -0.7776  0.8280
15025SOL     OW47274   2.448   5.024   1.102 -0.2804  0.1252 -0.0734
15025SOL    HW147275   2.376   4.999   1.159 -1.7018 -0.3840 -1.9888
15025SOL    HW247276   2.486   4.941   1.074  0.8635  0.3852  0.6586
15026SOL     OW47277   4.901   6.889   4.552 -0.5088 -0.0484  0.3924
15026SOL    HW147278   4.809   6.865   4.559 -0.3054 -0.8889  0.3061
15026SOL    HW247279   4.901   6.974   4.507 -1.1860 -0.6008 -0.6690
15027SOL     OW47280   1.803   6.289   0.329 -0.3475 -0.3384  0.6367
15027SOL    HW147281   1.709   6.273   0.330 -0.2855 -0.6644  1.3623
15027SOL    HW247282   1.842   6.203   0.314 -0.1880 -0.0216 -1.0371
15028SOL     OW47283   6.875   2.480   6.800  0.3198  0.1956  0.0293
15028SOL    HW147284   6.786   2.453   6.776 -0.1112  2.3585 -0.9842
15028SOL    HW247285   6.865   2.527   6.882  0.8282 -1.1118  0.8783
15029SOL     OW47286   7.402   5.589   6.638 -0.2988 -0.2851 -0.0320
15029SOL    HW147287   7.497   5.583   6.648 -0.3753 -2.1009 -0.0427
15029SOL    HW247288   7.375   5.648   6.709  0.9141  1.1949 -0.7404
15030SOL     OW47289   3.029   6.157   5.965 -0.1054  0.1558 -0.1122
15030SOL    HW147290   3.042   6.071   6.005 -0.3830  0.2493  0.1847
15030SOL    HW247291   2.936   6.159   5.940  0.3343 -0.4216 -2.0040
15031SOL     OW47292   9.520   7.243   5.349 -0.1785 -0.3780  0.3955
15031SOL    HW147293   9.438   7.285   5.320 -0.1954  0.8639  2.1199
15031SOL    HW247294   9.562   7.216   5.267  0.0206  3.4022 -0.9487
15032SOL     OW47295   5.542   6.027   7.717 -0.3307 -0.4587 -0.1436
15032SOL    HW147296   5.590   5.946   7.700  0.4632  0.2644 -1.5342
15032SOL    HW247297   5.609   6.091   7.742 -0.5469  0.4645 -1.7493
15033SOL     OW47298   6.851   2.331   4.678 -0.1516 -0.6123  0.0677
15033SOL    HW147299   6.870   2.258   4.736  1.1153  0.9120  1.6785
15033SOL    HW247300   6.832   2.404   4.737  0.5552  0.8501 -1.4377
15034SOL     OW47301   5.929   3.644   3.494 -0.0581 -0.2198 -0.0086
15034SOL    HW147302   5.854   3.690   3.456 -0.3029 -0.1502  0.5395
15034SOL    HW247303   5.993   3.713   3.512 -0.0761 -0.2070  0.0064
15035SOL     OW47304   8.443   6.030   5.054  0.2893  0.1852  0.0623
15035SOL    HW147305   8.388   5.955   5.032  0.8046 -0.1917  0.0507
15035SOL    HW247306   8.478   6.061   4.971 -1.7551  1.9099 -0.2465
15036SOL     OW47307   3.119   3.083   6.860 -0.3515  0.3109 -0.2247
15036SOL    HW147308   3.149   3.166   6.896  0.0364  0.0441  0.0841
15036SOL    HW247309   3.035   3.103   6.818 -1.1636  0.4983  1.4129
15037SOL     OW47310   2.161   9.566   6.842 -0.3828  0.2386  0.0604
15037SOL    HW147311   2.175   9.660   6.826 -1.0510  0.4090  0.3952
15037SOL    HW247312   2.189   9.554   6.933  3.0220 -0.6370 -0.9675
15038SOL     OW47313   1.588   0.215   5.415  0.8023 -0.3837  0.1790
15038SOL    HW147314   1.562   0.137   5.367  1.8670 -0.2081 -0.7142
15038SOL    HW247315   1.517   0.278   5.399 -0.4979 -1.4191  1.6264
15039SOL     OW47316   3.569   2.425   6.504  0.2989  0.2337 -0.6131
15039SOL    HW147317   3.503   2.370   6.462 -1.1096 -0.3032  2.0759
15039SOL    HW247318   3.534   2.441   6.592  3.6359  0.1238  0.8896
15040SOL     OW47319   0.427   5.162   1.399 -0.0871 -0.5526 -0.2542
15040SOL    HW147320   0.351   5.106   1.411 -1.4204  0.9576 -1.2174
15040SOL    HW247321   0.498   5.103   1.374 -1.3950 -1.8180 -1.0808
15041SOL     OW47322   2.204   2.236   8.674  0.4812 -0.5641  0.0058
15041SOL    HW147323   2.186   2.221   8.581  0.4258 -1.5921  0.1634
15041SOL    HW247324   2.178   2.326   8.689 -0.2054 -0.6024 -0.8202
15042SOL     OW47325   9.207   0.588   6.458 -0.6849  0.0476  0.3440
15042SOL    HW147326   9.203   0.532   6.380 -0.6924 -0.6995  0.8646
15042SOL    HW247327   9.168   0.671   6.431 -0.3727 -0.0849 -0.5436
15043SOL     OW47328   2.765   0.076   9.106 -0.2560  0.0122  0.2850
15043SOL    HW147329   2.723  -0.010   9.105 -2.6056  1.0714 -0.8311
15043SOL    HW247330   2.711   0.129   9.164  0.8696  0.8842  0.5823
15044SOL     OW47331   8.948   4.909   8.583 -0.0671  0.2371  0.4117
15044SOL    HW147332   8.860   4.897   8.620  0.1986 -0.6740  0.7666
15044SOL    HW247333   8.988   4.976   8.638 -0.5813  0.7639  0.1596
15045SOL     OW47334   7.258   5.541   4.917 -0.5732 -0.0835 -0.0344
15045SOL    HW147335   7.302   5.616   4.958  1.0505 -0.1566 -1.5637
15045SOL    HW247336   7.262   5.559   4.823 -0.7448 -1.7725 -0.3923
15046SOL     OW47337   7.989   5.092   6.596 -0.5082  0.3519  0.2280
15046SOL    HW147338   8.064   5.037   6.573 -1.4395 -0.8907  0.0180
15046SOL    HW247339   7.913   5.043   6.563 -1.4815  1.0979  1.2813
15047SOL     OW47340   0.681   0.468   6.344 -0.3138 -0.4041 -0.1281
15047SOL    HW147341   0.590   0.495   6.330 -0.0106  0.2749 -0.9258
15047SOL    HW247342   0.710   0.438   6.258  0.1270 -0.8915  0.1905
15048SOL     OW47343   2.014   0.930   9.319 -0.3541 -0.2401 -0.0665
15048SOL    HW147344   2.032   0.925   9.413  0.0741 -0.1195 -0.1385
15048SOL    HW247345   2.039   1.019   9.294  0.7133 -0.6512 -0.5246
15049SOL     OW47346   3.559   5.093   2.577  0.0046 -0.1070 -0.3276
15049SOL    HW147347   3.530   5.032   2.644  2.2413  0.0842  0.9032
15049SOL    HW247348   3.647   5.063   2.553  0.2241  1.2785 -1.3867
15050SOL     OW47349   1.392   8.641   0.913  0.5127  0.0120  0.1100
15050SOL    HW147350   1.465   8.584   0.936  0.6927 -0.4956 -1.5827
15050SOL    HW247351   1.333   8.586   0.861 -1.7979  0.0199  2.5163
15051SOL     OW47352   4.585   5.852   3.819 -0.0634 -0.1160 -0.5054
15051SOL    HW147353   4.516   5.786   3.819  1.8750 -2.2814 -1.8150
15051SOL    HW247354   4.601   5.872   3.727  1.4276 -0.1349 -0.2911
15052SOL     OW47355   5.342   6.100   4.154 -0.1016  0.1346  0.4209
15052SOL    HW147356   5.295   6.151   4.220  1.8408  0.3967  1.6947
15052SOL    HW247357   5.355   6.014   4.194  3.0827  0.9564  1.5143
15053SOL     OW47358   7.208   0.805   0.846 -0.7185 -0.3920  0.9968
15053SOL    HW147359   7.113   0.795   0.846 -0.7450 -0.1385  0.8480
15053SOL    HW247360   7.223   0.896   0.874 -0.5565 -0.0738 -0.0735
15054SOL     OW47361   0.731   9.489   3.607 -0.0363 -0.2170 -0.2360
15054SOL    HW147362   0.677   9.558   3.570  1.7946  1.6511  0.3799
15054SOL    HW247363   0.793   9.467   3.538  1.0299  0.6607  0.3951
15055SOL     OW47364   6.996   7.404   8.697  0.6401 -0.0407  0.0700
15055SOL    HW147365   6.931   7.334   8.692  0.9304 -0.5039  1.9691
15055SOL    HW247366   6.949   7.479   8.734  0.6316  0.3968 -0.7950
15056SOL     OW47367   7.244   5.230   2.279  0.2467  0.1140 -0.2783
15056SOL    HW147368   7.293   5.294   2.330  0.5912  0.5931 -1.1875
15056SOL    HW247369   7.302   5.153   2.275  1.0758  0.7666 -1.5637
15057SOL     OW47370   7.555   3.826   0.927 -0.9526 -0.1671 -0.0831
15057SOL    HW147371   7.544   3.838   1.021 -1.6424 -0.6281 -0.0930
15057SOL    HW247372   7.586   3.736   0.919 -0.3789  0.0478 -0.2650
15058SOL     OW47373   4.539   6.416   9.579 -0.3111 -0.0654  0.1598
15058SOL    HW147374   4.478   6.358   9.533 -1.2997 -0.4184  1.8633
15058SOL    HW247375   4.514   6.504   9.550 -0.8684 -0.2820 -0.0285
15059SOL     OW47376   1.269   7.752   5.681  0.1044 -0.1074  0.1757
15059SOL    HW147377   1.219   7.833   5.688  1.7284  0.9804 -0.3391
15059SOL    HW247378   1.353   7.771   5.723  0.2127 -1.7980  0.8084
15060SOL     OW47379   3.734   5.096   9.172 -0.3718 -0.2193 -0.3949
15060SOL    HW147380   3.714   5.187   9.149 -1.1857 -0.7727 -2.0652
15060SOL    HW247381   3.649   5.059   9.198 -0.1915 -0.7191 -0.5130
15061SOL     OW47382   2.976   7.093   4.625  0.3914  0.0304 -0.3949
15061SOL    HW147383   2.899   7.039   4.643  0.5688  0.1550  0.8309
15061SOL    HW247384   2.960   7.175   4.672  1.3748 -0.0476  0.1098
15062SOL     OW47385   0.499   3.419   8.988 -0.5220 -0.4253 -0.6100
15062SOL    HW147386   0.487   3.508   8.955  0.6403 -0.3687 -0.8917
15062SOL    HW247387   0.461   3.422   9.076  1.4614  0.9677  0.2685
15063SOL     OW47388   1.964   7.008   7.907 -0.0091 -0.0418 -0.3105
15063SOL    HW147389   1.881   7.005   7.859 -0.4360 -0.2040  0.4210
15063SOL    HW247390   2.027   6.967   7.847 -0.2122  1.0606 -1.3147
15064SOL     OW47391   4.277   2.905   6.601  0.0330  0.7259 -0.7320
15064SOL    HW147392   4.268   2.813   6.623 -0.5771  0.8574 -0.4183
15064SOL    HW247393   4.365   2.912   6.563  0.4752  0.2029  0.1603
15065SOL     OW47394   7.950   7.305   7.714 -0.0775  0.0818 -0.1670
15065SOL    HW147395   7.858   7.292   7.740 -0.1734  1.5607  0.3394
15065SOL    HW247396   7.951   7.393   7.676  0.7683 -0.6816 -2.0074
15066SOL     OW47397   1.952   7.335   3.828 -0.8453 -0.1681 -0.3504
15066SOL    HW147398   2.036   7.378   3.812  0.1017 -1.8128 -0.0131
15066SOL    HW247399   1.920   7.312   3.741  0.2834 -1.7320 -0.3873
15067SOL     OW47400   1.493   6.292   2.827  0.5728 -0.2432 -0.0750
15067SOL    HW147401   1.575   6.261   2.790  0.8307 -0.6855  0.8516
15067SOL    HW247402   1.427   6.231   2.794  0.4215  0.7329 -1.6953
15068SOL     OW47403   1.983   0.531   0.531 -0.2801 -0.2666  0.1219
15068SOL    HW147404   1.903   0.532   0.585  0.9028 -0.9452  1.9775
15068SOL    HW247405   1.986   0.443   0.494 -0.5208 -0.1525 -0.1745
15069SOL     OW47406   7.809   5.927   8.778  0.0528  0.5373  0.2971
15069SOL    HW147407   7.736   5.888   8.730 -0.3777  1.3307  0.2933
15069SOL    HW247408   7.886   5.877   8.750 -0.2175  0.8278 -1.0371
15070SOL     OW47409   1.146   3.897   8.035  0.6721  0.0598  0.4044
15070SOL    HW147410   1.176   3.979   8.077 -0.6750 -0.3288  2.2601
15070SOL    HW247411   1.136   3.836   8.108 -0.6904 -1.0305 -0.6578
15071SOL     OW47412   6.652   6.623   5.135 -0.0891  0.5370  0.0466
15071SOL    HW147413   6.723   6.565   5.105  1.0191  2.2941 -0.9024
15071SOL    HW247414   6.611   6.654   5.054 -0.8798  0.8217  0.5465
15072SOL     OW47415   8.827   8.150   8.327 -0.2254 -0.1519  0.7976
15072SOL    HW147416   8.743   8.197   8.331  0.3081  0.7345  3.2389
15072SOL    HW247417   8.892   8.216   8.353  1.0521 -1.2069  0.3494
15073SOL     OW47418   6.152   4.206   5.711  0.5898 -0.5857  0.5718
15073SOL    HW147419   6.209   4.259   5.767 -0.0528  0.6239  0.0981
15073SOL    HW247420   6.072   4.193   5.763  0.4645 -0.4811  0.4067
15074SOL     OW47421   5.702   0.209   5.703 -0.1757  0.0371 -0.4451
15074SOL    HW147422   5.743   0.147   5.763 -0.3069 -0.3428 -0.7410
15074SOL    HW247423   5.759   0.286   5.704 -2.1829  1.7375  3.2293
15075SOL     OW47424   4.199   7.761   7.835  0.5609  0.1576  0.2911
15075SOL    HW147425   4.155   7.740   7.753 -1.1423 -0.0545  1.2127
15075SOL    HW247426   4.261   7.689   7.848  0.9446  0.2582 -0.8332
15076SOL     OW47427   2.147   4.113   0.012  0.6011  0.1267 -0.3892
15076SOL    HW147428   2.070   4.115   0.070 -0.7109 -0.4909 -2.0164
15076SOL    HW247429   2.166   4.019   0.002  0.7474  0.2207 -1.0236
15077SOL     OW47430   6.560   4.664   6.744  0.8191 -0.0187  0.4061
15077SOL    HW147431   6.608   4.746   6.748 -0.9846  1.2962 -2.1021
15077SOL    HW247432   6.623   4.597   6.770  3.4720  1.7387 -1.1284
15078SOL     OW47433   7.662   8.808   6.861  0.2701 -0.2811  0.1097
15078SOL    HW147434   7.597   8.844   6.801  0.5167  0.2372  0.1469
15078SOL    HW247435   7.715   8.883   6.887  1.2498 -0.7853 -0.3815
15079SOL     OW47436   4.359   7.135   9.253  0.3990 -0.7631  0.1412
15079SOL    HW147437   4.398   7.188   9.184  1.0921 -0.2293  0.9119
15079SOL    HW247438   4.266   7.130   9.231  0.6703 -0.9046 -1.0058
15080SOL     OW47439   9.482   1.178   2.978 -0.0996 -0.2230  0.5668
15080SOL    HW147440   9.499   1.220   3.062  0.5694 -1.8863  1.3088
15080SOL    HW247441   9.567   1.143   2.951 -0.5643 -0.7845 -0.1979
15081SOL     OW47442   2.834   8.310   1.972 -0.0399  0.0843  0.1330
15081SOL    HW147443   2.765   8.333   1.909  0.2630 -0.8329 -0.5407
15081SOL    HW247444   2.787   8.269   2.044 -0.1531 -1.3195 -0.6995
15082SOL     OW47445   7.975   3.100   6.914 -0.0925 -0.3423 -0.4419
15082SOL    HW147446   7.977   3.182   6.864 -1.2653  0.3653  0.6123
15082SOL    HW247447   7.954   3.128   7.004 -1.0361 -1.8393 -0.1700
15083SOL     OW47448   2.403   6.656   2.090  0.1806  0.2492  0.0991
15083SOL    HW147449   2.458   6.705   2.029  1.5979 -1.9572 -0.5188
15083SOL    HW247450   2.315   6.657   2.051  0.0527  2.5516  0.3375
15084SOL     OW47451   8.679   8.513   4.891 -0.2566 -0.0222 -0.1364
15084SOL    HW147452   8.738   8.587   4.904  0.9457 -0.6276 -1.7702
15084SOL    HW247453   8.631   8.534   4.811 -1.4956 -0.0523  0.5687
15085SOL     OW47454   2.325   0.759   4.560  0.2128  0.1628 -0.3996
15085SOL    HW147455   2.283   0.787   4.641 -0.2676 -1.1250 -0.1871
15085SOL    HW247456   2.369   0.838   4.528  0.5594  0.6620  1.1975
15086SOL     OW47457   9.076   0.803   4.688  0.8599  0.6914  0.1904
15086SOL    HW147458   9.043   0.875   4.634 -0.3607 -0.0743 -0.1168
15086SOL    HW247459   9.049   0.724   4.642  1.5372  0.0230  0.9119
15087SOL     OW47460   1.383   3.442   4.090  0.4183 -0.0704 -0.8052
15087SOL    HW147461   1.322   3.481   4.153 -1.9539 -0.1896 -2.8986
15087SOL    HW247462   1.400   3.510   4.026 -2.1396 -1.6062 -3.3547
15088SOL     OW47463   6.616   7.365   1.962  0.1089 -0.0741 -0.2560
15088SOL    HW147464   6.558   7.374   2.038 -0.0402  0.4568 -0.4335
15088SOL    HW247465   6.701   7.395   1.994  0.2913 -0.8337 -0.0014
15089SOL     OW47466   7.543   7.161   2.584 -0.3742  0.5416 -0.1320
15089SOL    HW147467   7.466   7.218   2.584 -0.8393 -0.0762  0.4618
15089SOL    HW247468   7.573   7.162   2.493 -1.0704  0.8112 -0.3643
15090SOL     OW47469   1.543   3.882   6.588 -0.1914 -0.0828  0.5336
15090SOL    HW147470   1.469   3.823   6.576 -0.1998  0.1013 -0.4039
15090SOL    HW247471   1.510   3.968   6.562  0.0578  0.1907  1.1027
15091SOL     OW47472   6.470   6.396   0.503 -0.8770  0.0262 -0.5807
15091SOL    HW147473   6.437   6.485   0.512 -4.7603 -1.3204  0.4879
15091SOL    HW247474   6.477   6.383   0.408 -1.6280  1.0540 -0.7946
15092SOL     OW47475   1.829   7.179   3.145  0.3060 -0.0129 -0.2937
15092SOL    HW147476   1.792   7.103   3.191  0.0433  0.0114 -0.4617
15092SOL    HW247477   1.923   7.171   3.157  0.2731 -0.3193 -0.2373
15093SOL     OW47478   7.296   0.667   0.613 -0.6570 -0.1793 -0.5580
15093SOL    HW147479   7.205   0.642   0.596 -0.3811 -0.6650 -1.3610
15093SOL    HW247480   7.292   0.717   0.695 -1.5894 -0.5386 -0.3722
15094SOL     OW47481   2.214   3.706   5.959 -0.1458 -0.0924 -0.1877
15094SOL    HW147482   2.189   3.670   5.874  1.8345  3.1600 -2.4073
15094SOL    HW247483   2.310   3.703   5.958 -0.0710 -0.1238  2.0855
15095SOL     OW47484   1.621   5.140   4.827 -0.0250 -0.5794 -0.0256
15095SOL    HW147485   1.613   5.060   4.774 -1.4066 -0.5688  0.1253
15095SOL    HW247486   1.530   5.164   4.847  0.4354 -0.0942  1.6143
15096SOL     OW47487   3.651   7.422   3.610 -0.4969  0.0498  0.3451
15096SOL    HW147488   3.573   7.368   3.598  0.0185 -0.7339  0.4834
15096SOL    HW247489   3.724   7.360   3.608  0.0875  0.7155  0.7369
15097SOL     OW47490   6.423   7.506   6.473 -0.0486  0.6350  0.1772
15097SOL    HW147491   6.380   7.430   6.434 -0.1121  1.1165 -0.7218
15097SOL    HW247492   6.386   7.581   6.426 -0.5278  1.2836  1.5465
15098SOL     OW47493   5.321   6.110   8.562 -0.6036 -0.4536 -0.4885
15098SOL    HW147494   5.249   6.058   8.526  0.5217 -1.5963 -1.2024
15098SOL    HW247495   5.363   6.149   8.486  1.2613 -2.1670 -0.4412
15099SOL     OW47496   7.261   0.184   4.925 -0.0103  0.1002  0.2145
15099SOL    HW147497   7.255   0.093   4.954  0.5787  0.7124  2.4378
15099SOL    HW247498   7.354   0.205   4.928  0.0030  0.4399 -1.5327
15100SOL     OW47499   1.536   7.388   8.194  0.1628 -0.4340 -0.7353
15100SOL    HW147500   1.585   7.460   8.153 -0.2985 -0.1003 -0.7117
15100SOL    HW247501   1.479   7.431   8.258  0.8084 -0.9493  0.2048
15101SOL     OW47502   2.115   5.422   5.925 -0.9985  0.1243  0.1788
15101SOL    HW147503   2.080   5.511   5.930  0.3665  0.8851 -2.4278
15101SOL    HW247504   2.052   5.374   5.872  0.0153  0.5303 -1.4402
15102SOL     OW47505   7.188   0.600   5.476 -0.4848 -0.4097  0.1029
15102SOL    HW147506   7.218   0.670   5.418 -1.3873 -0.0346  0.0656
15102SOL    HW247507   7.117   0.640   5.526 -1.3503 -1.4306 -0.2682
15103SOL     OW47508   6.492   0.656   5.920 -0.3668  0.0611 -0.2481
15103SOL    HW147509   6.545   0.614   5.852 -0.3415 -0.7348  0.2503
15103SOL    HW247510   6.412   0.603   5.924 -0.5644  0.3746  0.0249
15104SOL     OW47511   0.731   1.345   7.886  0.5196 -0.4341  0.0831
15104SOL    HW147512   0.699   1.258   7.912  2.0660 -0.7466  1.0152
15104SOL    HW247513   0.746   1.391   7.969  0.2440  0.5456 -0.3953
15105SOL     OW47514   1.246   8.208   8.816  0.2627 -0.1600 -0.2266
15105SOL    HW147515   1.311   8.229   8.748  1.8579 -1.2490  0.8994
15105SOL    HW247516   1.280   8.249   8.895  0.7497 -2.5307  0.8685
15106SOL     OW47517   4.730   2.036   2.648 -0.2491  0.1457 -0.6831
15106SOL    HW147518   4.746   1.942   2.656 -0.5149  0.1217 -0.3940
15106SOL    HW247519   4.785   2.075   2.717 -0.8054  0.1291 -0.2245
15107SOL     OW47520   4.027   6.864   5.613 -0.2314  0.4235  0.1304
15107SOL    HW147521   3.979   6.782   5.608 -2.8894  1.8177  0.7905
15107SOL    HW247522   4.066   6.875   5.526 -1.4217 -0.6392 -0.5697
15108SOL     OW47523   8.481   0.304   8.555  0.5687 -0.2590 -0.2577
15108SOL    HW147524   8.525   0.233   8.602 -0.3139  0.7016  2.1528
15108SOL    HW247525   8.393   0.270   8.538 -0.0696  0.4486  1.4904
15109SOL     OW47526   4.694   5.701   0.757  0.1784 -0.0229 -0.5798
15109SOL    HW147527   4.746   5.768   0.712 -1.0467  1.6431  0.3564
15109SOL    HW247528   4.751   5.625   0.761  1.7434  1.0402 -1.4417
15110SOL     OW47529   7.879   6.219   3.909 -0.7328  0.0146 -0.1776
15110SOL    HW147530   7.929   6.235   3.829 -1.0680 -0.5363 -0.5005
15110SOL    HW247531   7.923   6.146   3.952 -0.0652  0.8205  0.5714
15111SOL     OW47532   2.963   3.485   2.169  0.5256 -0.5213 -0.2527
15111SOL    HW147533   2.878   3.504   2.208  0.9348 -1.7061  1.3153
15111SOL    HW247534   2.943   3.440   2.087 -0.3643 -0.9758  0.2077
15112SOL     OW47535   3.798   7.683   8.424 -0.1703  0.5158  0.0804
15112SOL    HW147536   3.836   7.627   8.355 -1.5800  1.0665 -1.1836
15112SOL    HW247537   3.781   7.766   8.381  1.6951  1.9339  1.8863
15113SOL     OW47538   8.046   1.206   0.881 -0.1820 -0.3112  0.1375
15113SOL    HW147539   8.070   1.114   0.864 -1.7207 -0.3239 -2.4937
15113SOL    HW247540   7.955   1.203   0.908  0.0607  0.4005  1.0915
15114SOL     OW47541   1.511   3.301   3.111 -0.0998  0.0954 -0.1715
15114SOL    HW147542   1.498   3.396   3.119  0.3749  0.1797 -0.3838
15114SOL    HW247543   1.458   3.276   3.035 -0.9810  0.0341  0.4587
15115SOL     OW47544   1.352   4.383   7.646  0.2125 -0.4068 -0.3564
15115SOL    HW147545   1.257   4.385   7.635 -0.0866 -0.2572  1.7507
15115SOL    HW247546   1.367   4.314   7.711  1.4776 -0.0813 -0.2843
15116SOL     OW47547   1.699   8.235   3.284 -0.6697  0.5165 -0.0245
15116SOL    HW147548   1.724   8.194   3.201 -0.0892  1.9632 -0.5908
15116SOL    HW247549   1.603   8.242   3.279 -0.7680 -0.6441  0.0386
15117SOL     OW47550   4.842   7.170   7.485  0.9747 -0.0065  0.3886
15117SOL    HW147551   4.908   7.211   7.541  0.4155  1.4563  0.0321
15117SOL    HW247552   4.759   7.185   7.531  0.8749 -2.0426  0.9612
15118SOL     OW47553   4.623   3.329   7.342  0.3066 -0.6633  0.0767
15118SOL    HW147554   4.551   3.278   7.306 -0.1586 -0.4181  0.6490
15118SOL    HW247555   4.630   3.300   7.433 -0.0023  0.3262  0.4311
15119SOL     OW47556   5.873   9.475   7.581 -0.2432  0.1773  0.0225
15119SOL    HW147557   5.918   9.559   7.591 -1.1091  0.6683 -0.1318
15119SOL    HW247558   5.815   9.470   7.658  1.0903 -1.1078  0.9933
15120SOL     OW47559   6.472   1.145   7.563  0.2990 -0.8334 -0.5049
15120SOL    HW147560   6.512   1.182   7.485 -1.5577  0.2480 -1.0037
15120SOL    HW247561   6.428   1.066   7.533  0.6040 -1.0767 -0.3118
15121SOL     OW47562   0.298   0.560   9.337  0.4016 -0.3532  0.3677
15121SOL    HW147563   0.378   0.613   9.344  0.8401 -0.4913 -2.5598
15121SOL    HW247564   0.228   0.624   9.323 -0.0284 -0.2580  2.5835
15122SOL     OW47565   6.199   7.550   4.943 -0.4699  0.3740  0.5241
15122SOL    HW147566   6.275   7.495   4.926 -0.9092 -0.0904 -0.0021
15122SOL    HW247567   6.124   7.496   4.916 -0.8640  1.5189 -0.8118
15123SOL     OW47568   0.880   2.467   3.354 -0.8377 -0.1261  0.0643
15123SOL    HW147569   0.904   2.469   3.261 -0.2661  1.5082  0.2223
15123SOL    HW247570   0.882   2.558   3.381 -0.0922 -0.6561  1.9344
15124SOL     OW47571   6.700   1.424   1.862  0.1540 -0.4356 -0.0224
15124SOL    HW147572   6.710   1.516   1.887  1.4097  0.1802 -2.4860
15124SOL    HW247573   6.674   1.427   1.770 -0.8094 -2.5631  0.1269
15125SOL     OW47574   8.724   4.429   5.497  0.0939  1.0777 -0.5334
15125SOL    HW147575   8.769   4.381   5.566 -0.8196  1.3922  0.3079
15125SOL    HW247576   8.681   4.361   5.444 -2.3941  0.9256  1.4862
15126SOL     OW47577   1.475   6.806   7.600  0.3205  0.2308  0.5772
15126SOL    HW147578   1.534   6.737   7.629 -1.0350 -0.6333  1.3441
15126SOL    HW247579   1.483   6.805   7.504  1.3114 -0.0505  0.6476
15127SOL     OW47580   3.582   5.772   1.719  0.1207 -0.2121  0.4836
15127SOL    HW147581   3.631   5.843   1.676  0.6852 -0.0841  1.3281
15127SOL    HW247582   3.643   5.699   1.722 -0.8305 -1.1946 -1.4694
15128SOL     OW47583   8.526   0.672   7.316  0.2083 -0.4564 -0.4315
15128SOL    HW147584   8.517   0.611   7.389 -2.3570  0.9057  0.5137
15128SOL    HW247585   8.441   0.668   7.271 -0.9687  3.7311  0.8948
15129SOL     OW47586   2.084   0.419   5.156  0.8072  0.2370  0.3492
15129SOL    HW147587   2.073   0.441   5.063 -1.9560  1.2199  0.7996
15129SOL    HW247588   2.026   0.345   5.170  0.2097  0.8888  1.5127
15130SOL     OW47589   7.899   3.737   1.041  0.4904 -0.3127 -0.1665
15130SOL    HW147590   7.860   3.822   1.061  0.7441 -0.1538 -0.3495
15130SOL    HW247591   7.958   3.754   0.968 -2.4813 -1.3511 -3.0310
15131SOL     OW47592   5.770   3.284   7.344 -0.1703 -0.2204 -0.5762
15131SOL    HW147593   5.858   3.245   7.336  0.5254  1.2302 -0.3320
15131SOL    HW247594   5.743   3.300   7.254 -0.8494 -2.0038 -0.7367
15132SOL     OW47595   8.956   4.372   2.800  0.1148  0.0926 -0.0005
15132SOL    HW147596   9.001   4.337   2.877  0.7048 -1.2357 -0.9026
15132SOL    HW247597   8.901   4.299   2.770 -0.6074  0.8152 -0.4556
15133SOL     OW47598   2.718   9.307   6.658  0.5996  0.2719  0.2817
15133SOL    HW147599   2.695   9.241   6.724  1.3791 -0.0974  0.1900
15133SOL    HW247600   2.653   9.295   6.588  0.4261 -0.0451  0.4964
15134SOL     OW47601   8.876   7.777   2.328 -0.3274 -0.3711 -0.0674
15134SOL    HW147602   8.835   7.751   2.411 -1.9988 -1.1723 -1.0881
15134SOL    HW247603   8.953   7.720   2.321 -0.7106 -0.9833  0.4919
15135SOL     OW47604   6.183   5.837   6.999  0.1760  0.0795 -0.0245
15135SOL    HW147605   6.277   5.830   6.984 -0.0829 -0.8106 -1.4317
15135SOL    HW247606   6.156   5.750   7.028 -0.0180  0.6957  1.7318
15136SOL     OW47607   7.429   3.481   3.900  0.1049  0.1807  0.0686
15136SOL    HW147608   7.372   3.545   3.857  0.5173  0.0305 -0.7229
15136SOL    HW247609   7.447   3.520   3.986 -2.4242 -0.4976  0.9885
15137SOL     OW47610   9.221   2.552   7.388 -0.0488  0.0464 -0.2098
15137SOL    HW147611   9.254   2.641   7.386  0.3441 -0.0336  1.3449
15137SOL    HW247612   9.237   2.522   7.478 -2.0008 -0.8910 -0.1178
15138SOL     OW47613   7.648   4.195   6.486 -0.1228  0.3458  0.2659
15138SOL    HW147614   7.652   4.130   6.417  0.9998  0.2412  0.4122
15138SOL    HW247615   7.678   4.149   6.564 -1.7068  0.3611  0.9312
15139SOL     OW47616   5.593   2.454   5.364  0.1927 -0.0260 -0.3703
15139SOL    HW147617   5.650   2.407   5.425 -0.7978  1.0315  1.4424
15139SOL    HW247618   5.646   2.528   5.335  0.6128 -0.4472 -0.7083
15140SOL     OW47619   3.674   8.599   4.524  0.1901 -0.0149 -0.5525
15140SOL    HW147620   3.724   8.640   4.454 -0.5874 -1.3522 -1.9386
15140SOL    HW247621   3.723   8.519   4.545 -0.1435 -0.1604 -0.3149
15141SOL     OW47622   8.320   8.177   0.381 -0.3795  0.2768 -0.0599
15141SOL    HW147623   8.319   8.272   0.370 -0.5805  0.4627  1.3680
15141SOL    HW247624   8.389   8.161   0.445 -0.8643 -0.4629  0.2927
15142SOL     OW47625   2.939   3.756   5.993 -0.4334 -0.6971 -0.2531
15142SOL    HW147626   2.933   3.757   5.897 -1.0323  2.2216 -0.2768
15142SOL    HW247627   2.859   3.712   6.021 -1.1973  0.1079 -1.0964
15143SOL     OW47628   7.360   4.999   2.686 -0.6034  0.7455  0.0866
15143SOL    HW147629   7.406   4.915   2.681 -1.3199  0.3364  0.2392
15143SOL    HW247630   7.429   5.064   2.677  0.0292  0.1476  0.4499
15144SOL     OW47631   3.984   3.713   4.952 -0.6824  0.3980  0.0053
15144SOL    HW147632   3.960   3.620   4.955 -0.7106  0.3607 -1.1069
15144SOL    HW247633   4.067   3.715   4.904 -0.2485  0.8735  0.7594
15145SOL     OW47634   5.734   8.863   4.396  0.3269  0.2394 -0.3033
15145SOL    HW147635   5.695   8.778   4.417 -0.1649  0.6706  0.5940
15145SOL    HW247636   5.773   8.892   4.478 -0.2378  1.2563 -0.3842
15146SOL     OW47637   3.802   6.781   8.629 -0.4637 -0.1889  0.3674
15146SOL    HW147638   3.800   6.715   8.698 -0.9843  0.6483  1.1623
15146SOL    HW247639   3.789   6.730   8.548 -0.1812 -1.1341  0.8948
15147SOL     OW47640   8.712   6.407   2.772 -0.2373  0.4343  0.0389
15147SOL    HW147641   8.767   6.384   2.697 -1.0805 -1.6870  0.0003
15147SOL    HW247642   8.710   6.503   2.773  1.9449  0.5351 -1.0338
15148SOL     OW47643   4.350   3.782   8.371 -0.0457 -0.2902  0.4424
15148SOL    HW147644   4.421   3.783   8.436  1.7901  0.0893 -1.4748
15148SOL    HW247645   4.341   3.873   8.345 -1.1543 -0.3682  0.5411
15149SOL     OW47646   1.264   1.760   4.247  0.5673  0.4250  0.3847
15149SOL    HW147647   1.242   1.689   4.186 -1.7137  1.7061 -0.3949
15149SOL    HW247648   1.218   1.737   4.328 -0.2794  1.0386  0.0913
15150SOL     OW47649   3.983   4.273   7.972 -0.0185 -0.4389 -0.2454
15150SOL    HW147650   4.001   4.278   7.878 -0.1878  1.5511 -0.2021
15150SOL    HW247651   3.957   4.362   7.997 -2.5868 -1.4884  1.1860
15151SOL     OW47652   3.529   9.521   6.684 -0.2289  0.4191  0.1025
15151SOL    HW147653   3.485   9.491   6.763  0.9510  1.4693  1.2138
15151SOL    HW247654   3.528   9.445   6.625  1.7791 -1.5852  2.3910
15152SOL     OW47655   5.443   2.563   4.633  0.0876 -0.6838  0.0340
15152SOL    HW147656   5.482   2.518   4.708  1.0109  0.3648  0.2131
15152SOL    HW247657   5.361   2.516   4.617  0.3824 -1.5845  1.0295
15153SOL     OW47658   3.130   4.835   3.714 -0.6245 -0.2751  0.4433
15153SOL    HW147659   3.134   4.825   3.809  0.3628  0.5865  0.5062
15153SOL    HW247660   3.159   4.750   3.680  3.3998  0.6738  0.9596
15154SOL     OW47661   6.232   3.157   6.842  0.0152 -0.0883 -0.0544
15154SOL    HW147662   6.152   3.173   6.791  0.1130 -0.9720 -0.5150
15154SOL    HW247663   6.241   3.062   6.842 -0.3953 -0.1624  2.2840
15155SOL     OW47664   4.794   1.390   2.396 -0.0018  0.1443  0.4530
15155SOL    HW147665   4.814   1.483   2.397  2.4141 -0.3035  0.3743
15155SOL    HW247666   4.854   1.352   2.460 -0.1973 -1.4782 -0.2812
15156SOL     OW47667   9.435   0.174   2.663 -0.0095 -0.0980 -0.2551
15156SOL    HW147668   9.379   0.126   2.602 -2.0836  1.4303  0.3449
15156SOL    HW247669   9.376   0.208   2.729  1.3675  2.8475 -0.3643
15157SOL     OW47670   5.191   3.492   2.819  0.2055 -0.0804  0.0231
15157SOL    HW147671   5.224   3.534   2.740 -2.0882  0.8726 -0.4844
15157SOL    HW247672   5.219   3.550   2.890  1.5227 -0.4946 -0.1160
15158SOL     OW47673   2.402   8.303   0.120 -0.6117 -0.1107 -0.0765
15158SOL    HW147674   2.422   8.334   0.032 -1.5417  1.1730  0.1397
15158SOL    HW247675   2.309   8.283   0.119 -0.6366 -0.0783  0.6216
15159SOL     OW47676   6.887   7.934   3.623  0.1162 -0.1947  0.1870
15159SOL    HW147677   6.862   8.025   3.604 -1.6868 -0.6394  0.1934
15159SOL    HW247678   6.982   7.934   3.618  0.4302  2.3590  3.1818
15160SOL     OW47679   8.160   7.036   1.489  0.1013  0.1210 -0.2168
15160SOL    HW147680   8.108   7.110   1.523 -0.8058 -0.1951 -0.8968
15160SOL    HW247681   8.107   6.999   1.419  1.0999 -0.4345 -0.6989
15161SOL     OW47682   8.853   0.229   5.691 -0.1844  0.1350 -0.6043
15161SOL    HW147683   8.934   0.189   5.724 -1.1996 -1.1159  0.4645
15161SOL    HW247684   8.837   0.184   5.608 -0.1612 -0.1504 -0.4579
15162SOL     OW47685   8.376   7.640   0.845  0.2139 -0.0741  0.5707
15162SOL    HW147686   8.399   7.565   0.900  1.1265  0.6305  1.1726
15162SOL    HW247687   8.435   7.635   0.771 -0.7826 -0.8232 -0.2081
15163SOL     OW47688   2.019   8.662   3.178 -0.0121 -0.1769  0.0667
15163SOL    HW147689   1.996   8.597   3.244  1.7064 -0.4440  0.4597
15163SOL    HW247690   2.039   8.611   3.099  0.7766 -0.1063  0.2089
15164SOL     OW47691   9.207   6.662   5.701 -0.0867  0.3198  0.4799
15164SOL    HW147692   9.134   6.612   5.737 -0.7538 -0.0260 -1.2090
15164SOL    HW247693   9.177   6.752   5.702  0.4562  0.5099  2.0037
15165SOL     OW47694   6.440   8.464   8.349 -0.1813  0.1504  0.8220
15165SOL    HW147695   6.393   8.496   8.272  0.9061  0.6787  0.3680
15165SOL    HW247696   6.453   8.542   8.403 -0.0116 -0.0336  1.0479
15166SOL     OW47697   4.918   4.800   8.661  0.5200  0.0927  0.5527
15166SOL    HW147698   4.826   4.822   8.674  0.0740 -2.3790  2.1463
15166SOL    HW247699   4.923   4.769   8.570 -0.2905 -0.0973  0.5672
15167SOL     OW47700   3.289   0.143   3.997  0.4947  0.7744 -0.5618
15167SOL    HW147701   3.306   0.188   4.080  2.1879 -1.1222  0.2028
15167SOL    HW247702   3.346   0.066   3.999 -0.4292 -0.0687 -2.9023
15168SOL     OW47703   4.842   8.568   5.464  0.1478 -0.6724 -0.4142
15168SOL    HW147704   4.869   8.590   5.553 -0.3387 -1.2369 -0.1253
15168SOL    HW247705   4.747   8.579   5.464  0.0820 -1.2374 -0.7040
15169SOL     OW47706   0.079   5.479   8.905  0.0027 -0.3462 -0.3935
15169SOL    HW147707   0.133   5.402   8.921  0.6715  0.3729  0.9662
15169SOL    HW247708   0.041   5.500   8.990 -2.2407 -0.6462 -1.2363
15170SOL     OW47709   8.797   2.644   7.972  0.2548  0.1917  0.6749
15170SOL    HW147710   8.870   2.649   8.034  0.2955  0.4901  0.6074
15170SOL    HW247711   8.789   2.551   7.951  0.2656  0.0952  1.0994
15171SOL     OW47712   8.408   2.454   0.397  0.0675  0.4239  0.6715
15171SOL    HW147713   8.494   2.495   0.411  0.5230 -0.2686 -0.0058
15171SOL    HW247714   8.401   2.389   0.467  0.6452 -0.3728 -0.0029
15172SOL     OW47715   5.559   6.510   4.225  0.3373  0.2864  0.1362
15172SOL    HW147716   5.601   6.594   4.209 -0.1768  0.4032 -0.6590
15172SOL    HW247717   5.631   6.448   4.233  0.9151  1.1821  3.5836
15173SOL     OW47718   4.518   0.797   7.561 -0.1227  0.0264  0.5068
15173SOL    HW147719   4.439   0.772   7.610 -0.4001 -1.0437 -0.4465
15173SOL    HW247720   4.508   0.892   7.547 -2.4251 -0.4184 -1.5748
15174SOL     OW47721   4.906   6.303   8.544  0.1073  0.4970  0.0566
15174SOL    HW147722   4.867   6.219   8.520  1.3987 -0.1116 -0.0186
15174SOL    HW247723   4.881   6.362   8.473  0.3565 -0.1930 -0.6159
15175SOL     OW47724   0.302   3.923   1.304 -1.1720 -0.0673 -0.5082
15175SOL    HW147725   0.252   3.856   1.352 -3.6730  0.9427 -1.5411
15175SOL    HW247726   0.370   3.951   1.366 -0.1961 -3.2680  0.0795
15176SOL     OW47727   5.211   4.182   2.569  0.2076  0.4929  0.2253
15176SOL    HW147728   5.272   4.233   2.621 -0.5427  1.9028 -0.2186
15176SOL    HW247729   5.266   4.131   2.510  1.0642 -0.9625  2.1846
15177SOL     OW47730   2.144   9.549   7.115 -0.7602  0.2815 -0.4342
15177SOL    HW147731   2.231   9.548   7.154  0.6366  0.8725 -3.2241
15177SOL    HW247732   2.110   9.637   7.134 -1.0076 -0.1097  1.0650
15178SOL     OW47733   9.489   3.652   5.048  0.2690 -0.2880 -0.2306
15178SOL    HW147734   9.449   3.738   5.035 -0.0488 -0.5237 -0.8604
15178SOL    HW247735   9.490   3.639   5.143 -0.8473 -0.1278 -0.1900
15179SOL     OW47736   8.454   3.550   4.708 -0.0059  0.3101  0.3715
15179SOL    HW147737   8.412   3.488   4.648  1.5042 -0.2185 -0.1807
15179SOL    HW247738   8.511   3.496   4.762  0.3006  1.0680  0.8171
15180SOL     OW47739   4.511   1.027   5.905  0.0308  0.4651 -0.2331
15180SOL    HW147740   4.434   1.066   5.947 -0.1787  0.2861 -0.4490
15180SOL    HW247741   4.504   0.933   5.925 -0.0345  0.3876 -0.6065
15181SOL     OW47742   0.765   0.751   0.228  0.2513 -0.3112  0.0141
15181SOL    HW147743   0.683   0.701   0.222 -0.2286 -0.0364  2.9320
15181SOL    HW247744   0.828   0.700   0.178 -1.2541 -1.5484 -0.6960
15182SOL     OW47745   3.523   5.122   7.730 -0.0761 -0.0035 -0.0602
15182SOL    HW147746   3.615   5.149   7.735  0.4376 -1.5477 -0.4219
15182SOL    HW247747   3.502   5.124   7.636 -0.7331  1.2489  0.0877
15183SOL     OW47748   9.143   4.087   0.468 -0.0835  0.4944  0.0886
15183SOL    HW147749   9.213   4.023   0.459 -0.7181 -0.4732  1.6397
15183SOL    HW247750   9.073   4.055   0.411  0.0082  0.4030  0.0272
15184SOL     OW47751   0.353   4.118   1.544 -0.1716  0.1760 -0.3940
15184SOL    HW147752   0.345   4.187   1.609  0.6312  0.7413 -0.8831
15184SOL    HW247753   0.326   4.159   1.462 -0.5911 -0.3595 -0.5316
15185SOL     OW47754   5.412   4.959   4.728  0.2542  0.0001  0.0484
15185SOL    HW147755   5.328   4.974   4.771 -0.1275  0.0072 -0.6924
15185SOL    HW247756   5.469   5.030   4.759 -0.0345  0.0399  0.4856
15186SOL     OW47757   9.320   5.918   8.980 -0.5687  0.1050 -0.1419
15186SOL    HW147758   9.235   5.883   9.004 -0.6617 -0.6266 -1.4209
15186SOL    HW247759   9.319   6.009   9.009 -1.2643 -0.2689  1.0412
15187SOL     OW47760   6.752   5.094   1.993 -0.1123  0.7099 -0.2171
15187SOL    HW147761   6.773   5.109   1.901  2.5159  2.0615  0.5300
15187SOL    HW247762   6.813   5.026   2.022  0.1175  1.3612  0.8886
15188SOL     OW47763   4.305   8.275   0.162  0.5319  0.0268 -0.0089
15188SOL    HW147764   4.339   8.187   0.179  0.2009 -0.3148 -1.0486
15188SOL    HW247765   4.218   8.260   0.127 -0.2909  0.8594  1.5885
15189SOL     OW47766   1.003   7.853   2.851  0.4052 -0.0369 -0.4559
15189SOL    HW147767   0.995   7.765   2.888  0.2897 -0.6152 -1.7905
15189SOL    HW247768   0.966   7.911   2.918 -1.0174 -1.1703 -0.2019
15190SOL     OW47769   1.977   6.212   6.266 -0.4396 -0.0175  0.1496
15190SOL    HW147770   1.984   6.253   6.352  0.6844  0.8548 -0.3244
15190SOL    HW247771   1.887   6.181   6.261 -0.6964  0.4706  1.3899
15191SOL     OW47772   6.191   6.393   8.149  0.1663  0.0310 -0.0772
15191SOL    HW147773   6.246   6.394   8.227  1.6245 -0.8140 -1.0423
15191SOL    HW247774   6.198   6.304   8.116  0.8641  0.7416 -2.0182
15192SOL     OW47775   7.520   7.575   7.317  0.0791 -0.3263 -0.3016
15192SOL    HW147776   7.557   7.658   7.285 -0.6949 -0.6257 -2.0327
15192SOL    HW247777   7.562   7.563   7.402  0.3978  1.7264 -0.0995
15193SOL     OW47778   8.833   2.950   5.044  1.0691  0.1063 -0.1513
15193SOL    HW147779   8.927   2.947   5.062  1.4230  0.3729 -1.7935
15193SOL    HW247780   8.823   3.022   4.981 -0.2039 -0.0887 -0.1934
15194SOL     OW47781   3.400   7.806   1.722 -0.4466 -0.2621  0.4080
15194SOL    HW147782   3.372   7.738   1.783  0.1130 -0.0359  0.9273
15194SOL    HW247783   3.404   7.762   1.637  0.1667 -0.9507  0.7808
15195SOL     OW47784   8.871   0.312   6.980  0.1507  0.6377  0.1783
15195SOL    HW147785   8.935   0.367   6.934  0.7288 -0.5034 -0.4194
15195SOL    HW247786   8.903   0.308   7.070  1.4048 -0.5695 -0.2862
15196SOL     OW47787   0.574   3.558   0.024  0.3677 -0.3437  0.0496
15196SOL    HW147788   0.513   3.625   0.056  1.0490  0.8659 -1.1018
15196SOL    HW247789   0.541   3.477   0.063 -1.6116  0.3530 -0.0211
15197SOL     OW47790   4.411   4.449   3.795  0.1471 -0.0959 -0.5644
15197SOL    HW147791   4.388   4.446   3.702  1.2159  1.7737 -0.9442
15197SOL    HW247792   4.487   4.508   3.799 -0.5219  0.7152  1.6048
15198SOL     OW47793   1.694   0.888   6.272 -0.1974 -0.4573  0.5757
15198SOL    HW147794   1.766   0.832   6.302  0.2576 -0.5279 -0.6242
15198SOL    HW247795   1.732   0.976   6.269 -1.0012  0.0492  2.7845
15199SOL     OW47796   8.727   6.017   7.299  0.0961 -0.0157 -0.0035
15199SOL    HW147797   8.817   6.045   7.286 -0.7350  2.3595 -1.2019
15199SOL    HW247798   8.712   5.952   7.230  0.8103 -0.2413  0.0499
15200SOL     OW47799   6.377   5.639   0.828  0.3255 -0.0565 -0.1851
15200SOL    HW147800   6.350   5.731   0.835  0.0770 -0.1831  0.5314
15200SOL    HW247801   6.472   5.642   0.820  0.4026  0.2173  0.7853
15201SOL     OW47802   3.447   2.120   5.292 -0.0654 -0.2491 -0.1590
15201SOL    HW147803   3.483   2.154   5.210  1.5989 -0.1176  0.5767
15201SOL    HW247804   3.486   2.033   5.301 -0.9016 -0.6039  0.0820
15202SOL     OW47805   0.882   4.396   3.541  0.2753  0.3713 -0.1847
15202SOL    HW147806   0.803   4.343   3.544  0.3996  0.1635 -0.4971
15202SOL    HW247807   0.922   4.375   3.457  0.3164  0.9812 -0.3246
15203SOL     OW47808   2.033   8.689   8.592  0.1133 -0.1466 -0.4330
15203SOL    HW147809   2.063   8.727   8.509 -2.5096  0.7714 -1.0423
15203SOL    HW247810   2.112   8.649   8.630  1.4202 -0.4372 -3.2526
15204SOL     OW47811   4.534   2.121   3.649  0.3166 -0.0970 -0.6911
15204SOL    HW147812   4.520   2.027   3.635  0.4730 -0.1061 -0.7839
15204SOL    HW247813   4.534   2.159   3.562 -0.0039  0.0272 -0.6385
15205SOL     OW47814   5.178   2.890   4.238 -0.0085  0.1809  0.5252
15205SOL    HW147815   5.225   2.816   4.277  0.3485 -0.2229 -0.6273
15205SOL    HW247816   5.248   2.947   4.204 -0.2921  0.8856  1.0824
15206SOL     OW47817   0.127   9.417   6.397  0.6136 -0.1699  0.3330
15206SOL    HW147818   0.191   9.470   6.443  2.5874 -1.0370 -1.2472
15206SOL    HW247819   0.058   9.479   6.372  1.7478  1.1979  0.4535
15207SOL     OW47820   8.589   5.026   3.954  0.7815 -0.1588  0.2197
15207SOL    HW147821   8.657   4.959   3.962  1.2471  0.3452  0.5486
15207SOL    HW247822   8.611   5.091   4.021 -0.5988 -0.4739  1.0140
15208SOL     OW47823   0.352   0.155   4.197 -0.0118 -0.4624  0.1707
15208SOL    HW147824   0.424   0.182   4.255  0.0404 -0.7678  0.2480
15208SOL    HW247825   0.280   0.133   4.256  0.8786 -3.3984  0.3203
15209SOL     OW47826   6.446   6.964   2.462 -0.0619 -0.3783  0.0225
15209SOL    HW147827   6.400   7.021   2.400 -1.9399 -0.6261  1.1337
15209SOL    HW247828   6.534   7.003   2.470 -0.4490  0.8192 -1.2218
15210SOL     OW47829   3.445   6.115   9.378  0.3068  0.1742 -0.2597
15210SOL    HW147830   3.444   6.029   9.420  2.2834  0.3493  0.2683
15210SOL    HW247831   3.428   6.177   9.449 -2.5014  0.2129 -0.8767
15211SOL     OW47832   3.707   6.988   5.515  0.0610 -0.3206 -0.1743
15211SOL    HW147833   3.790   7.036   5.512 -0.1527  0.1072  0.5832
15211SOL    HW247834   3.717   6.928   5.589 -0.2903 -0.2860 -0.0980
15212SOL     OW47835   9.202   7.728   7.147  0.2050 -0.0615  0.2441
15212SOL    HW147836   9.222   7.790   7.077 -0.6677 -0.9167 -0.7894
15212SOL    HW247837   9.134   7.772   7.199 -0.6208 -0.2533 -0.6541
15213SOL     OW47838   1.480   3.410   6.946 -0.1050  0.0718  0.4773
15213SOL    HW147839   1.445   3.382   7.030  0.7532  0.4041  0.9527
15213SOL    HW247840   1.568   3.373   6.942 -0.5886 -1.0453 -0.8534
15214SOL     OW47841   6.250   7.151   9.425  0.5883  0.2963  0.2651
15214SOL    HW147842   6.269   7.207   9.500 -0.5162 -0.8567  1.4546
15214SOL    HW247843   6.166   7.182   9.391 -0.0358 -0.6159  0.9383
15215SOL     OW47844   0.067   0.202   8.053 -0.0550 -0.0949 -0.5025
15215SOL    HW147845   0.024   0.172   8.134  0.4371  0.0639 -0.1810
15215SOL    HW247846   0.078   0.123   8.001 -0.4021 -0.1941 -0.4322
15216SOL     OW47847   5.672   3.744   5.751 -0.3244 -0.3230  0.4852
15216SOL    HW147848   5.645   3.827   5.789  0.0980 -0.2213  0.5745
15216SOL    HW247849   5.706   3.693   5.825  0.7663 -0.0143  0.2207
15217SOL     OW47850   1.181   1.192   5.495  0.6098 -0.0270 -0.3125
15217SOL    HW147851   1.164   1.285   5.514  1.7823  0.4500 -1.4494
15217SOL    HW247852   1.107   1.165   5.441 -0.9977 -0.4669  1.9720
15218SOL     OW47853   8.134   7.888   1.396  0.4899  0.1575 -0.1920
15218SOL    HW147854   8.156   7.954   1.329 -0.4662  0.7560  0.0653
15218SOL    HW247855   8.217   7.844   1.414  1.0213  0.8606 -0.8357
15219SOL     OW47856   5.682   7.769   6.147 -0.1022 -0.4664 -0.4150
15219SOL    HW147857   5.678   7.790   6.240  1.3640  0.2804 -0.4960
15219SOL    HW247858   5.752   7.704   6.140  0.0730 -0.2201 -1.0362
15220SOL     OW47859   1.035   6.609   0.307  0.4669  0.1258  0.0909
15220SOL    HW147860   1.120   6.565   0.305  0.0036 -0.8033 -0.2221
15220SOL    HW247861   1.035   6.660   0.387  0.7315 -1.1128  0.9076
15221SOL     OW47862   2.377   3.500   3.205  0.5574  0.1082 -0.1636
15221SOL    HW147863   2.469   3.517   3.188  0.6747 -0.2177  0.1517
15221SOL    HW247864   2.376   3.423   3.261  0.0921  0.0898 -0.1908
15222SOL     OW47865   5.918   9.504   0.049  0.4199 -0.5395  0.0902
15222SOL    HW147866   5.908   9.458   0.132 -2.0104  0.7068  0.5933
15222SOL    HW247867   5.838   9.557   0.041  0.9779  0.0707 -2.6159
15223SOL     OW47868   2.583   1.369   5.605  0.3883 -0.3536 -0.7208
15223SOL    HW147869   2.558   1.414   5.686 -2.1397 -1.0891 -1.0004
15223SOL    HW247870   2.667   1.408   5.581 -0.2894  2.1700  0.5808
15224SOL     OW47871   3.584   5.599   3.781 -0.3390 -0.0191  0.3636
15224SOL    HW147872   3.609   5.648   3.860 -2.6233  3.2809 -0.8046
15224SOL    HW247873   3.665   5.595   3.730  0.8775 -1.1447  2.2184
15225SOL     OW47874   8.159   0.373   8.473  0.1846  0.1977 -0.4213
15225SOL    HW147875   8.123   0.379   8.562 -0.5444 -1.1241 -0.6071
15225SOL    HW247876   8.083   0.387   8.416  0.6877  1.2516 -0.8562
15226SOL     OW47877   6.926   0.846   6.379 -0.1638  0.5837 -0.3084
15226SOL    HW147878   6.989   0.911   6.409 -0.1827 -0.2764  1.8465
15226SOL    HW247879   6.858   0.896   6.335  1.0934  1.7123 -1.0437
15227SOL     OW47880   0.176   4.825   9.313  0.6224 -0.8137 -0.5762
15227SOL    HW147881   0.248   4.777   9.353  0.1097 -1.6300 -0.6138
15227SOL    HW247882   0.150   4.771   9.238 -1.4027 -1.6434  0.6446
15228SOL     OW47883   3.392   7.292   1.106 -0.6426  0.1786 -0.6688
15228SOL    HW147884   3.388   7.196   1.108  0.8145  0.0844 -0.7033
15228SOL    HW247885   3.397   7.313   1.012 -0.7601  0.2662 -0.6539
15229SOL     OW47886   8.822   5.780   1.386  0.0060 -0.4077 -0.0111
15229SOL    HW147887   8.809   5.821   1.301 -0.4958  0.4138  0.4454
15229SOL    HW247888   8.878   5.840   1.434 -1.2676  0.0950  0.8959
15230SOL     OW47889   6.908   9.541   2.197 -0.1653 -0.0392  0.5720
15230SOL    HW147890   6.844   9.544   2.269 -0.0684 -0.4257  0.6756
15230SOL    HW247891   6.987   9.504   2.236  0.2891  0.8887  0.5614
15231SOL     OW47892   9.524   3.515   2.309 -0.2943 -0.0589 -0.0802
15231SOL    HW147893   9.497   3.424   2.301 -0.5517 -0.0720  0.7742
15231SOL    HW247894   9.582   3.530   2.234  1.3008 -1.5040  0.7735
15232SOL     OW47895   6.600   1.749   0.790 -0.1536 -0.0507  0.2017
15232SOL    HW147896   6.681   1.795   0.767  0.2072 -0.4381  0.6824
15232SOL    HW247897   6.536   1.781   0.727  0.2525  0.6273  0.1177
15233SOL     OW47898   0.608   9.320   3.216  0.2593 -0.0689 -0.0607
15233SOL    HW147899   0.592   9.318   3.122  0.7558 -2.5242 -0.1520
15233SOL    HW247900   0.603   9.229   3.244 -1.1603  0.7013  2.5599
15234SOL     OW47901   0.324   0.989   6.331 -0.1841 -0.4501  0.6395
15234SOL    HW147902   0.350   0.938   6.408 -0.0142 -0.9508  0.2596
15234SOL    HW247903   0.305   0.923   6.265 -2.8337 -0.1577  0.9956
15235SOL     OW47904   1.652   4.939   0.570 -0.2175  0.0682 -0.0330
15235SOL    HW147905   1.709   4.899   0.505 -1.2225 -0.1622 -0.7970
15235SOL    HW247906   1.580   4.877   0.580  0.2813 -0.2684  1.8798
15236SOL     OW47907   6.450   5.257   5.942 -0.1926 -0.3674 -0.2778
15236SOL    HW147908   6.507   5.216   6.006 -0.2621 -0.2824 -0.1596
15236SOL    HW247909   6.389   5.309   5.995  1.0101  1.3528 -0.4846
15237SOL     OW47910   4.456   9.031   5.348  0.3371  0.7181 -0.0366
15237SOL    HW147911   4.499   9.001   5.428  0.8595  2.5544  0.4287
15237SOL    HW247912   4.529   9.047   5.287  0.2256  2.1603  0.1612
15238SOL     OW47913   8.177   3.060   0.203  0.4571 -0.4686 -0.0186
15238SOL    HW147914   8.221   3.052   0.118 -0.6120  0.6939 -0.7268
15238SOL    HW247915   8.194   2.977   0.247  0.1117 -1.5461 -1.8231
15239SOL     OW47916   0.440   2.675   9.037 -0.3169 -0.1515 -0.1708
15239SOL    HW147917   0.471   2.667   8.947  0.0551 -0.6849 -0.0004
15239SOL    HW247918   0.408   2.587   9.059  0.0534 -0.1482  0.3851
15240SOL     OW47919   6.063   5.574   6.967  0.3366 -0.4265  0.0002
15240SOL    HW147920   5.977   5.542   6.996  0.4510 -1.4069 -0.6815
15240SOL    HW247921   6.089   5.512   6.898  1.1065  0.4798 -0.5453
15241SOL     OW47922   1.940   4.868   1.767  0.3252  0.5700  0.5062
15241SOL    HW147923   1.891   4.797   1.725  0.4347 -0.4294  1.9915
15241SOL    HW247924   1.879   4.904   1.831  0.5061  1.3835  0.2316
15242SOL     OW47925   8.609   4.848   3.236  0.1254 -0.6352  0.2974
15242SOL    HW147926   8.644   4.916   3.179  1.1731 -0.0678  1.5612
15242SOL    HW247927   8.514   4.858   3.230  0.2443  1.5765  1.1530
15243SOL     OW47928   9.198   8.216   4.998 -0.9268  0.3054 -0.1489
15243SOL    HW147929   9.139   8.279   5.040  0.0792  0.2222  1.4578
15243SOL    HW247930   9.249   8.179   5.070  0.2071 -0.5527 -1.3516
15244SOL     OW47931   3.442   6.281   5.201 -0.7740 -0.1674 -0.4473
15244SOL    HW147932   3.443   6.278   5.105  1.4878 -1.8854 -0.4666
15244SOL    HW247933   3.508   6.216   5.227  0.7140  2.2062  2.2023
15245SOL     OW47934   7.739   8.226   3.794  0.3004 -0.0782  0.3054
15245SOL    HW147935   7.786   8.162   3.740  1.5136 -0.3253  1.5886
15245SOL    HW247936   7.792   8.233   3.873 -1.3705  0.3588  1.4169
15246SOL     OW47937   1.967   1.568   1.689 -0.1623  0.1203 -0.7555
15246SOL    HW147938   2.047   1.595   1.644 -0.2678  0.3008 -0.8354
15246SOL    HW247939   1.912   1.646   1.688  0.1925  0.4146  0.4969
15247SOL     OW47940   0.197   0.573   0.308 -0.3400 -0.1817 -0.0975
15247SOL    HW147941   0.288   0.585   0.281 -0.5115 -0.2824 -0.7277
15247SOL    HW247942   0.146   0.580   0.228 -1.1032  1.9301  0.5121
15248SOL     OW47943   5.011   2.563   4.612  0.0692 -0.1489  0.1055
15248SOL    HW147944   4.929   2.527   4.578 -0.0092  0.6340 -0.5554
15248SOL    HW247945   5.021   2.647   4.568  0.7182  0.2301  0.9443
15249SOL     OW47946   1.301   7.426   0.030  0.1127  0.8597  0.5697
15249SOL    HW147947   1.320   7.350  -0.024 -0.0585  0.6031  0.8664
15249SOL    HW247948   1.244   7.480  -0.024 -2.2437 -0.6158  1.3975
15250SOL     OW47949   9.277   2.969   5.322 -0.1714 -0.1253  0.2167
15250SOL    HW147950   9.349   2.999   5.266 -0.1081 -0.2562  0.2297
15250SOL    HW247951   9.295   2.877   5.337 -0.7990 -0.3773 -0.4865
15251SOL     OW47952   5.267   0.098   4.467  0.0323  0.1982  0.1003
15251SOL    HW147953   5.357   0.072   4.446 -0.0548 -1.5534  1.5897
15251SOL    HW247954   5.277   0.180   4.515  0.9711 -0.4853  1.1412
15252SOL     OW47955   1.585   3.448   7.695 -0.0999  0.1156 -0.3970
15252SOL    HW147956   1.582   3.499   7.614 -1.1494  1.4610  0.4320
15252SOL    HW247957   1.674   3.414   7.699  0.1766  0.5920 -1.7597
15253SOL     OW47958   5.483   9.215   8.923  0.0157 -0.0921 -0.0214
15253SOL    HW147959   5.575   9.193   8.934 -0.3347 -1.5328  0.2853
15253SOL    HW247960   5.438   9.165   8.991 -0.8602  1.9135  0.9644
15254SOL     OW47961   2.854   1.426   5.117  0.1370 -0.5143  0.2897
15254SOL    HW147962   2.856   1.377   5.034  0.5862 -3.3153  1.8457
15254SOL    HW247963   2.927   1.488   5.109 -0.4722  0.0422 -1.7784
15255SOL     OW47964   0.607   3.712   3.833 -0.0573  0.3663  0.1814
15255SOL    HW147965   0.635   3.784   3.889 -1.0408  0.5651  0.4336
15255SOL    HW247966   0.581   3.754   3.751 -1.7345  0.4517  0.7276
15256SOL     OW47967   3.252   4.857   9.462  0.4833  0.1315  0.3327
15256SOL    HW147968   3.165   4.885   9.435  0.3706 -0.3051  0.2325
15256SOL    HW247969   3.253   4.763   9.444  0.3766 -0.1974  1.9348
15257SOL     OW47970   2.522   5.491   6.394 -0.4985 -0.1104  0.0277
15257SOL    HW147971   2.573   5.431   6.340 -1.9499 -3.1231  1.7530
15257SOL    HW247972   2.584   5.526   6.457  0.4188  0.4710 -1.1552
15258SOL     OW47973   0.171   6.584   9.431 -0.2072  0.1235 -0.1853
15258SOL    HW147974   0.183   6.498   9.390  1.8374 -0.1781  0.9027
15258SOL    HW247975   0.189   6.647   9.361  0.4349 -0.3645 -0.4752
15259SOL     OW47976   9.524   9.361   2.731 -0.2317 -0.0476  0.5123
15259SOL    HW147977   9.451   9.421   2.717  0.9752  1.3867 -0.0126
15259SOL    HW247978   9.551   9.377   2.821  0.1288  0.2553  0.3528
15260SOL     OW47979   7.220   2.265   4.697  0.0664 -0.3861 -1.1627
15260SOL    HW147980   7.215   2.360   4.688  1.0330 -0.3549 -1.5553
15260SOL    HW247981   7.160   2.244   4.769 -0.0216  0.5393 -0.9551
15261SOL     OW47982   0.246   9.119   3.851  0.6044 -0.8230  0.2347
15261SOL    HW147983   0.157   9.143   3.877  0.5435 -0.6043 -0.1737
15261SOL    HW247984   0.301   9.152   3.922  0.7326  2.2218 -1.1221
15262SOL     OW47985   9.044   4.918   8.042 -0.3866  0.4115 -0.3756
15262SOL    HW147986   8.988   4.916   8.119 -0.3857  0.1656 -0.3819
15262SOL    HW247987   9.115   4.857   8.062  1.4019  2.7049  0.8098
15263SOL     OW47988   1.232   7.327   6.642  0.2698  0.8346  0.1987
15263SOL    HW147989   1.248   7.370   6.558 -2.3136  0.2760 -0.6540
15263SOL    HW247990   1.145   7.289   6.634  1.9212 -3.8869  1.1525
15264SOL     OW47991   5.770   2.176   5.828  0.3230  0.1578 -0.2274
15264SOL    HW147992   5.840   2.240   5.843  1.6210 -1.2501  0.0543
15264SOL    HW247993   5.741   2.193   5.738  2.6893 -0.6741 -1.2459
15265SOL     OW47994   2.227   8.161   5.394  0.9231  0.1177 -0.5687
15265SOL    HW147995   2.232   8.194   5.304  1.2390 -0.3915 -0.7402
15265SOL    HW247996   2.288   8.216   5.443  1.2101 -0.0060 -0.7874
15266SOL     OW47997   7.922   6.428   8.856 -0.1237  0.1207  0.0759
15266SOL    HW147998   7.847   6.460   8.904  1.4503  0.7940  2.2343
15266SOL    HW247999   7.951   6.502   8.803  0.2341  0.5124  0.8180
15267SOL     OW48000   1.939   0.374   3.897 -0.2427 -0.3337 -0.0838
15267SOL    HW148001   1.998   0.321   3.951 -0.5766  0.5057  1.1661
15267SOL    HW248002   1.874   0.312   3.865  0.4724 -1.0115 -0.2541
15268SOL     OW48003   0.698   1.675   6.312  0.1267  0.2466  0.1543
15268SOL    HW148004   0.648   1.691   6.232  0.0757 -0.6208  0.0058
15268SOL    HW248005   0.731   1.586   6.303  2.1273  0.9656  0.0467
15269SOL     OW48006   1.701   5.426   3.626  0.1674  0.0599 -0.8579
15269SOL    HW148007   1.782   5.408   3.576  0.1782  0.9987 -1.1996
15269SOL    HW248008   1.699   5.521   3.634 -0.2512 -0.0369  0.2731
15270SOL     OW48009   5.571   8.350   4.612 -0.6283 -0.6283  0.3928
15270SOL    HW148010   5.566   8.428   4.558  1.0108 -0.5314  0.3176
15270SOL    HW248011   5.576   8.278   4.549  0.9026 -0.5427  0.3876
15271SOL     OW48012   1.189   6.683   4.093  0.4347 -0.1430 -0.0543
15271SOL    HW148013   1.197   6.739   4.171 -0.7630  0.2604 -0.2086
15271SOL    HW248014   1.127   6.615   4.119 -0.0351  0.0425 -0.6915
15272SOL     OW48015   2.082   2.959   6.618  0.2928 -0.5746 -0.2467
15272SOL    HW148016   2.073   2.964   6.713 -1.2406 -1.4260 -0.3034
15272SOL    HW248017   2.155   3.016   6.597  1.6185 -1.5175  1.5800
15273SOL     OW48018   1.845   7.999   6.480 -0.6253 -0.1721 -0.4530
15273SOL    HW148019   1.916   8.034   6.426 -0.7980 -0.3413 -0.7932
15273SOL    HW248020   1.816   7.920   6.434 -0.3061 -0.7148  0.2509
15274SOL     OW48021   2.222   0.430   4.094 -0.1317  0.1330  0.3354
15274SOL    HW148022   2.232   0.428   4.189  1.8154  1.7741  0.2364
15274SOL    HW248023   2.146   0.486   4.079  0.6693  1.4226  0.9204
15275SOL     OW48024   0.720   8.307   1.546 -0.6147 -0.3734 -0.0266
15275SOL    HW148025   0.816   8.303   1.540 -0.6696  0.4430 -2.4791
15275SOL    HW248026   0.691   8.217   1.532 -0.2383 -0.9408  2.3170
15276SOL     OW48027   4.817   0.985   6.386  0.2416 -0.3198  0.4117
15276SOL    HW148028   4.749   0.969   6.319  0.1543  0.3984  0.3191
15276SOL    HW248029   4.783   0.943   6.465 -0.5075  0.3795  0.4715
15277SOL     OW48030   7.691   5.743   3.725  0.3196  0.4601  0.0839
15277SOL    HW148031   7.608   5.696   3.714  0.3711  0.2865  0.4215
15277SOL    HW248032   7.755   5.693   3.675  0.0938  0.9545 -0.7129
15278SOL     OW48033   1.696   2.187   2.364  0.1078  0.4879  0.4412
15278SOL    HW148034   1.738   2.262   2.408  0.5118  0.4355  0.1505
15278SOL    HW248035   1.711   2.202   2.271 -2.5896  1.7152  0.1169
15279SOL     OW48036   1.627   0.199   2.216 -0.1612 -0.2581  0.5737
15279SOL    HW148037   1.576   0.279   2.205  1.0259  0.5617  0.8279
15279SOL    HW248038   1.689   0.220   2.286  0.7524 -1.0974  0.0433
15280SOL     OW48039   4.154   4.937   7.560 -0.2629 -0.2001  0.2786
15280SOL    HW148040   4.153   4.868   7.626 -1.7346  0.8352  1.3902
15280SOL    HW248041   4.075   4.922   7.508  1.0564 -1.2159 -1.5493
15281SOL     OW48042   1.778   6.804   3.695 -0.3899  0.1719 -0.0724
15281SOL    HW148043   1.833   6.815   3.773  0.2181  1.3485 -0.6406
15281SOL    HW248044   1.690   6.788   3.729 -0.0088 -0.0385  0.8480
15282SOL     OW48045   4.791   8.244   2.216  0.1278  0.4083 -0.3398
15282SOL    HW148046   4.875   8.288   2.204 -0.5006  1.9648  0.6886
15282SOL    HW248047   4.784   8.230   2.310 -0.1512 -1.0445 -0.5497
15283SOL     OW48048   6.451   6.039   6.766  0.6459 -0.2295 -0.3206
15283SOL    HW148049   6.517   6.045   6.835  1.7357  0.2722 -1.3640
15283SOL    HW248050   6.418   5.949   6.771  0.5878 -0.1488  0.9388
15284SOL     OW48051   0.136   5.177   5.747 -0.2439  0.0565 -0.4541
15284SOL    HW148052   0.088   5.225   5.679 -2.5298 -0.7491  0.5260
15284SOL    HW248053   0.140   5.237   5.821  1.2983  0.5281 -0.8809
15285SOL     OW48054   4.187   8.563   1.807 -0.5842  0.1159 -0.1500
15285SOL    HW148055   4.121   8.609   1.755 -2.2852 -2.4417 -0.4643
15285SOL    HW248056   4.271   8.598   1.777 -1.7190  2.2969 -0.9375
15286SOL     OW48057   3.696   3.236   5.583 -0.3001  0.1108  0.1794
15286SOL    HW148058   3.683   3.160   5.640 -2.0293 -0.3530 -0.7660
15286SOL    HW248059   3.746   3.298   5.637 -0.1337 -1.1018  1.4774
15287SOL     OW48060   0.308   3.212   1.992 -0.3122 -0.3974 -0.0057
15287SOL    HW148061   0.374   3.171   1.936 -1.7470 -0.1005 -2.0280
15287SOL    HW248062   0.305   3.303   1.963 -1.6344 -0.4193 -0.0012
15288SOL     OW48063   1.966   2.283   4.407  0.0031  0.1047  0.1924
15288SOL    HW148064   2.005   2.297   4.493 -0.2247 -1.4855  0.5794
15288SOL    HW248065   1.907   2.358   4.395  1.0003  1.0259  0.8276
15289SOL     OW48066   8.725   4.645   0.651 -0.2863 -0.2386 -0.8818
15289SOL    HW148067   8.768   4.594   0.719 -1.7828 -1.5982 -0.9017
15289SOL    HW248068   8.637   4.661   0.685 -0.5496  0.4187 -1.8407
15290SOL     OW48069   5.133   7.028   7.196 -0.2685 -0.1072  0.0276
15290SOL    HW148070   5.049   7.068   7.176 -0.9532 -1.3334  0.3862
15290SOL    HW248071   5.158   7.066   7.281  0.3282  1.4439 -0.7998
15291SOL     OW48072   6.712   5.029   3.862  0.1459  0.7185  0.0372
15291SOL    HW148073   6.658   4.988   3.930  2.0182 -1.4870  0.3311
15291SOL    HW248074   6.650   5.075   3.806 -1.5693  1.8181  2.6589
15292SOL     OW48075   6.248   4.847   4.355 -0.3439 -0.0668 -0.3518
15292SOL    HW148076   6.163   4.832   4.314 -1.1653 -1.1043  1.6074
15292SOL    HW248077   6.284   4.760   4.369  0.1710  0.2789  0.5884
15293SOL     OW48078   0.359   1.474   6.345 -0.7985  0.6418  0.2071
15293SOL    HW148079   0.299   1.511   6.410 -1.6134  1.7467 -1.1207
15293SOL    HW248080   0.364   1.540   6.277  1.3927  0.2415 -0.0794
15294SOL     OW48081   7.500   8.931   0.231  0.2119  0.0423  0.1620
15294SOL    HW148082   7.510   9.025   0.217 -1.3107 -0.0814 -2.4681
15294SOL    HW248083   7.560   8.891   0.169 -0.9327 -0.6652 -0.5327
15295SOL     OW48084   4.843   6.706   1.114  0.2315 -0.1074 -0.1442
15295SOL    HW148085   4.835   6.756   1.032  2.6767 -0.7922 -0.8739
15295SOL    HW248086   4.754   6.706   1.150 -0.5059  1.9879 -1.7243
15296SOL     OW48087   0.609   6.119   4.549 -0.0047  0.3503 -0.2440
15296SOL    HW148088   0.699   6.146   4.567 -0.2822  1.2509 -0.1349
15296SOL    HW248089   0.567   6.119   4.635 -0.2605  0.5331 -0.3688
15297SOL     OW48090   1.347   2.177   2.910  0.1960  0.1139 -0.5018
15297SOL    HW148091   1.375   2.192   3.000  0.6851 -0.4485 -0.5550
15297SOL    HW248092   1.354   2.082   2.899  3.9224  0.4425 -2.3414
15298SOL     OW48093   8.720   3.581   1.617 -0.1184  0.1904 -0.3604
15298SOL    HW148094   8.761   3.659   1.656  0.5812 -0.2882 -0.1163
15298SOL    HW248095   8.706   3.522   1.691  1.0745 -0.6627 -0.7727
15299SOL     OW48096   6.639   2.517   7.411 -0.3726 -0.5263 -0.0451
15299SOL    HW148097   6.635   2.611   7.393  0.4045 -0.4137  0.3240
15299SOL    HW248098   6.549   2.487   7.398 -0.4169  0.0537 -1.2914
15300SOL     OW48099   7.559   5.670   0.440  0.3682  0.0008 -0.1457
15300SOL    HW148100   7.582   5.597   0.382 -1.1168  0.5780 -1.5552
15300SOL    HW248101   7.518   5.734   0.382 -0.0534  1.1555  1.3646
15301SOL     OW48102   4.622   7.710   8.894 -0.0052  0.2323  0.2527
15301SOL    HW148103   4.624   7.740   8.803 -1.5134 -1.2405 -0.3258
15301SOL    HW248104   4.556   7.766   8.936 -1.5517 -1.0104 -0.3902
15302SOL     OW48105   9.537   4.728   4.572 -0.2089 -0.2080 -0.3554
15302SOL    HW148106   9.619   4.725   4.523  0.7891  1.2532  1.1318
15302SOL    HW248107   9.474   4.684   4.515  1.0944  0.5650 -2.5239
15303SOL     OW48108   0.982   4.015   4.838 -0.0447 -0.3429  0.3041
15303SOL    HW148109   0.899   4.000   4.792 -0.9466 -0.2142  1.8439
15303SOL    HW248110   0.979   3.956   4.913 -0.1591  1.8180  2.1151
15304SOL     OW48111   5.237   6.260   0.244  0.2216  0.3966 -0.1975
15304SOL    HW148112   5.196   6.342   0.272  1.1396  1.6038 -2.1280
15304SOL    HW248113   5.182   6.231   0.170  0.5084 -0.1777 -0.1888
15305SOL     OW48114   0.900   3.922   2.424 -0.2382 -0.3031  0.6250
15305SOL    HW148115   0.815   3.885   2.399 -0.0883 -0.1939 -0.0760
15305SOL    HW248116   0.881   4.014   2.443 -0.3132 -0.3311  0.6893
15306SOL     OW48117   6.732   8.741   0.562  0.2878  0.4513  0.2216
15306SOL    HW148118   6.692   8.684   0.628  0.2024  0.3318  0.0664
15306SOL    HW248119   6.767   8.680   0.497  1.0120  0.5348  0.5151
15307SOL     OW48120   4.019   3.494   9.273  0.4053  0.2164  0.3134
15307SOL    HW148121   4.108   3.464   9.292 -0.1424 -0.1842  2.4951
15307SOL    HW248122   4.026   3.589   9.267  0.8923  0.2275  1.0313
15308SOL     OW48123   0.598   1.273   8.189  0.2314  0.1367  0.1761
15308SOL    HW148124   0.536   1.200   8.196 -0.0428  0.1546 -1.6229
15308SOL    HW248125   0.655   1.263   8.266  1.2909 -3.0337 -0.8326
15309SOL     OW48126   6.924   6.222   5.326 -0.2345  0.2271 -0.1457
15309SOL    HW148127   6.969   6.171   5.393  0.1820 -1.5057 -1.6464
15309SOL    HW248128   6.989   6.286   5.297 -0.1191  0.3898  0.4666
15310SOL     OW48129   1.239   5.469   5.982  0.6561 -0.6620 -0.0106
15310SOL    HW148130   1.262   5.521   6.059 -0.4747 -1.5258  0.9446
15310SOL    HW248131   1.240   5.532   5.910  0.8701  0.3571  0.8516
15311SOL     OW48132   0.709   8.257   9.454 -1.0030  0.1931  0.0757
15311SOL    HW148133   0.677   8.282   9.540 -1.7511  1.4555 -0.5437
15311SOL    HW248134   0.721   8.340   9.407  1.2984 -0.3444 -0.3920
15312SOL     OW48135   8.533   8.578   8.551  0.3650 -0.4851  0.2092
15312SOL    HW148136   8.561   8.501   8.502 -0.1663 -0.4822 -0.0972
15312SOL    HW248137   8.554   8.652   8.494  1.7155 -0.3222  0.8748
15313SOL     OW48138   9.331   8.815   7.805 -0.3666  0.3976 -0.1777
15313SOL    HW148139   9.422   8.795   7.782  1.2737  3.3132  2.8705
15313SOL    HW248140   9.313   8.899   7.763 -1.0574  0.6206  0.5258
15314SOL     OW48141   2.396   9.500   9.087  0.3604  0.2682  0.2420
15314SOL    HW148142   2.338   9.468   9.156  0.1220  0.9287  0.3559
15314SOL    HW248143   2.457   9.558   9.133 -0.1806  1.1944 -0.1891
15315SOL     OW48144   5.354   6.778   4.919 -0.0185  0.2587  0.5165
15315SOL    HW148145   5.444   6.749   4.906  0.1078  0.2636  1.3356
15315SOL    HW248146   5.356   6.827   5.001 -1.2450 -1.9239  1.9717
15316SOL     OW48147   5.378   2.184   7.233  0.4693  0.2240 -0.1644
15316SOL    HW148148   5.328   2.149   7.307  0.3087  0.8573  0.0315
15316SOL    HW248149   5.345   2.273   7.221 -0.4100 -0.2932 -1.8153
15317SOL     OW48150   2.876   7.635   7.166  0.6270  0.4107 -0.1144
15317SOL    HW148151   2.963   7.611   7.197  1.3515  2.6919 -0.1654
15317SOL    HW248152   2.887   7.724   7.132 -1.3590  0.1158 -1.7237
15318SOL     OW48153   2.775   3.682   8.885  0.3400  0.4838 -0.2102
15318SOL    HW148154   2.807   3.699   8.797 -0.3465  0.2134 -0.5191
15318SOL    HW248155   2.796   3.762   8.934  0.0647  0.9301 -0.8064
15319SOL     OW48156   2.738   2.653   2.764 -0.5706 -0.0163  0.2304
15319SOL    HW148157   2.694   2.707   2.698 -1.6498 -0.5010  0.5332
15319SOL    HW248158   2.821   2.698   2.780 -0.5289  0.4003 -1.0508
15320SOL     OW48159   6.865   0.670   7.301  0.2537 -0.4453 -0.1888
15320SOL    HW148160   6.815   0.706   7.228 -0.0472 -1.7885 -0.6708
15320SOL    HW248161   6.938   0.625   7.260  0.5485 -0.5121  0.3977
15321SOL     OW48162   5.760   0.480   6.492  0.0590 -0.2768 -0.0171
15321SOL    HW148163   5.791   0.519   6.411  2.6205 -1.0702  0.4882
15321SOL    HW248164   5.762   0.386   6.476 -0.8980 -0.3962  0.4857
15322SOL     OW48165   6.064   8.565   6.386  0.4100 -0.2243 -0.0055
15322SOL    HW148166   6.090   8.488   6.436  1.5771  0.7780  0.9991
15322SOL    HW248167   5.984   8.596   6.429 -0.4374 -1.2270 -0.8222
15323SOL     OW48168   4.025   1.982   9.458 -0.0064 -0.0436  0.5452
15323SOL    HW148169   4.034   2.073   9.429  1.1746 -0.6905 -1.3473
15323SOL    HW248170   4.098   1.969   9.518  1.3056 -0.3406 -1.0288
15324SOL     OW48171   3.799   0.736   1.036 -0.2195  0.8338 -0.0797
15324SOL    HW148172   3.735   0.804   1.015  1.5823  1.9404 -2.4671
15324SOL    HW248173   3.856   0.775   1.101 -0.7232  0.6123  0.5023
15325SOL     OW48174   2.698   1.895   0.427  0.3443 -0.1131 -0.2207
15325SOL    HW148175   2.628   1.896   0.493 -0.1862 -0.8498 -0.7514
15325SOL    HW248176   2.772   1.937   0.470  0.0591 -0.7211  0.9092
15326SOL     OW48177   2.285   2.544   0.441  0.4481  0.2265 -0.3692
15326SOL    HW148178   2.285   2.450   0.460 -0.4355  0.1871 -0.5213
15326SOL    HW248179   2.273   2.550   0.346 -0.7919  0.5034 -0.2072
15327SOL     OW48180   8.563   8.769   5.795  0.2354 -0.2159 -0.4568
15327SOL    HW148181   8.491   8.806   5.847 -0.7464 -1.0515 -1.1724
15327SOL    HW248182   8.594   8.694   5.846  1.4029  0.8133  0.4041
15328SOL     OW48183   0.658   6.320   0.634  0.0137  0.1105  0.6531
15328SOL    HW148184   0.596   6.274   0.577  0.7039  0.1578 -0.1550
15328SOL    HW248185   0.663   6.409   0.599  0.8463 -0.0052  0.4480
15329SOL     OW48186   0.623   0.945   3.685  0.4754  0.6457  0.1003
15329SOL    HW148187   0.531   0.923   3.674 -0.0735  2.7352  0.1495
15329SOL    HW248188   0.624   1.011   3.754  1.8461  1.7430 -0.9179
15330SOL     OW48189   1.901   4.986   6.282  0.0998 -0.4030  0.1891
15330SOL    HW148190   1.808   5.004   6.272  0.1563 -0.8958 -1.6679
15330SOL    HW248191   1.943   5.073   6.284 -0.3530 -0.1915  0.6783
15331SOL     OW48192   3.560   4.912   3.587 -0.5127  0.0566 -0.9682
15331SOL    HW148193   3.493   4.979   3.599  0.2287  0.8900 -1.4041
15331SOL    HW248194   3.515   4.830   3.605 -1.4071  0.6739 -0.3047
15332SOL     OW48195   5.190   1.683   1.026  0.4044 -0.0032 -0.2698
15332SOL    HW148196   5.273   1.710   1.066  0.7445 -0.3941 -0.6892
15332SOL    HW248197   5.132   1.757   1.038  0.4581 -0.1548  1.0562
15333SOL     OW48198   9.149   0.166   6.497 -0.4621 -0.3034  1.0792
15333SOL    HW148199   9.103   0.235   6.545 -0.0363  0.8134 -0.0698
15333SOL    HW248200   9.081   0.104   6.472 -1.0760  0.4383  0.8960
15334SOL     OW48201   7.993   3.426   2.103  0.0669  0.0472  0.0657
15334SOL    HW148202   8.057   3.436   2.174 -1.8487 -1.6061  2.1650
15334SOL    HW248203   7.913   3.467   2.136 -0.7777 -0.4218 -1.3083
15335SOL     OW48204   1.832   0.184   6.286  0.1813 -0.4388 -0.1181
15335SOL    HW148205   1.841   0.194   6.381 -1.7385  1.0114 -0.0031
15335SOL    HW248206   1.902   0.239   6.250  2.5988 -2.9990  0.3317
15336SOL     OW48207   3.368   2.828   1.860  0.0367 -0.2680  0.4228
15336SOL    HW148208   3.385   2.865   1.947  0.2390  0.8702 -0.0835
15336SOL    HW248209   3.451   2.837   1.813 -0.2181 -0.3970 -0.0617
15337SOL     OW48210   0.248   5.009   3.655  0.0650  0.2660  0.3697
15337SOL    HW148211   0.344   5.020   3.656  0.3000 -1.2780 -1.0419
15337SOL    HW248212   0.218   5.065   3.584  0.1231 -0.4660 -0.2437
15338SOL     OW48213   1.381   9.444   3.193  0.0247  0.0680  0.3136
15338SOL    HW148214   1.339   9.396   3.264  0.5762  1.0211  1.3105
15338SOL    HW248215   1.345   9.405   3.113  0.0749 -1.6581  1.0740
15339SOL     OW48216   4.336   0.838   4.087  0.6156 -0.0147 -0.0357
15339SOL    HW148217   4.395   0.855   4.161  1.7783 -0.6075 -0.7871
15339SOL    HW248218   4.362   0.901   4.021  1.4640 -1.2278 -0.9195
15340SOL     OW48219   8.730   6.864   7.799  0.1453 -0.0575 -0.5487
15340SOL    HW148220   8.744   6.770   7.809 -0.8145 -0.0765  0.9471
15340SOL    HW248221   8.647   6.871   7.750 -1.8538 -0.1083  2.5350
15341SOL     OW48222   1.953   8.097   0.262  0.6040  0.0610  0.2379
15341SOL    HW148223   2.034   8.074   0.307  1.1740  1.0571 -0.2475
15341SOL    HW248224   1.884   8.084   0.328  1.0859 -1.2491  0.5127
15342SOL     OW48225   5.804   2.210   3.746  0.1691  0.0130  0.1887
15342SOL    HW148226   5.779   2.295   3.711 -1.0900 -0.8812 -1.2229
15342SOL    HW248227   5.735   2.150   3.716  1.4969 -1.6826  0.3348
15343SOL     OW48228   3.023   3.220   1.900  0.1491  0.2843  0.1777
15343SOL    HW148229   2.952   3.156   1.906  0.1671  0.3663  1.9563
15343SOL    HW248230   3.100   3.169   1.875 -0.1279 -0.1547  0.2211
15344SOL     OW48231   4.013   1.849   3.245  0.8771  0.4374 -0.3637
15344SOL    HW148232   4.032   1.776   3.187  0.2175  0.3852 -0.5227
15344SOL    HW248233   4.073   1.837   3.319  1.2271  0.1092 -0.6950
15345SOL     OW48234   6.661   7.555   1.490 -0.1452  0.4924 -0.5980
15345SOL    HW148235   6.601   7.523   1.557  0.7990  2.3903  1.2827
15345SOL    HW248236   6.605   7.580   1.417 -1.4561  0.4784  0.3693
15346SOL     OW48237   2.517   0.154   6.718  0.0862  0.0846 -0.9174
15346SOL    HW148238   2.569   0.173   6.640 -0.5906  0.7859 -1.2156
15346SOL    HW248239   2.469   0.236   6.735  1.3944  0.5021  1.1661
15347SOL     OW48240   6.853   1.898   1.395  0.2949 -0.3010  0.5836
15347SOL    HW148241   6.833   1.911   1.488  0.7780 -0.5520  0.7247
15347SOL    HW248242   6.773   1.860   1.358  0.0503 -0.0644  0.8652
15348SOL     OW48243   4.030   7.739   9.346  0.1725  0.6081 -0.1384
15348SOL    HW148244   4.030   7.819   9.294 -1.4361  1.1421  0.6260
15348SOL    HW248245   3.995   7.765   9.431 -3.3078 -1.3557 -0.7660
15349SOL     OW48246   9.527   6.864   2.135  0.0374  0.1576 -0.3763
15349SOL    HW148247   9.523   6.929   2.065  0.3597  1.4933  0.8074
15349SOL    HW248248   9.478   6.789   2.100 -0.8830  1.2475 -1.5438
15350SOL     OW48249   0.918   7.927   0.501 -1.0649  0.1940 -0.9370
15350SOL    HW148250   0.890   7.871   0.573  0.2757 -0.9282 -1.2434
15350SOL    HW248251   1.009   7.946   0.519 -0.7478  0.0317 -2.2274
15351SOL     OW48252   3.391   7.801   7.392  0.3686  0.6340 -0.1270
15351SOL    HW148253   3.466   7.859   7.382  1.5720 -0.6829  0.8761
15351SOL    HW248254   3.389   7.780   7.486 -0.5196 -0.3156 -0.3327
15352SOL     OW48255   0.542   7.035   5.043 -0.3930  0.0858 -0.2513
15352SOL    HW148256   0.570   7.126   5.051 -1.0396  0.2707 -0.0406
15352SOL    HW248257   0.586   6.990   5.115  0.2492  0.1444 -0.5975
15353SOL     OW48258   9.478   9.238   2.076 -0.6360  0.0467  0.4459
15353SOL    HW148259   9.385   9.213   2.081 -0.4209 -0.8916  0.0299
15353SOL    HW248260   9.493   9.291   2.154 -1.5408  0.2767  0.4790
15354SOL     OW48261   0.392   3.661   0.657 -0.2690 -0.0955 -0.1151
15354SOL    HW148262   0.342   3.594   0.704  0.2144 -1.6282 -1.6928
15354SOL    HW248263   0.443   3.704   0.725 -2.4552  0.4201  1.3067
15355SOL     OW48264   0.053   0.007   3.333 -0.1515  0.2403  0.0844
15355SOL    HW148265   0.128  -0.039   3.370 -0.2349 -0.7279 -0.8928
15355SOL    HW248266   0.070   0.100   3.350  0.7924 -0.0413  0.7119
15356SOL     OW48267   8.260   8.721   2.584  0.5032 -0.2083 -0.0846
15356SOL    HW148268   8.349   8.712   2.551 -0.1803 -0.0433 -2.1050
15356SOL    HW248269   8.220   8.788   2.528 -1.8274 -2.4875 -1.3826
15357SOL     OW48270   7.134   7.357   6.304  0.3198 -0.1564  0.4765
15357SOL    HW148271   7.149   7.388   6.214 -2.6166 -2.2322 -0.8777
15357SOL    HW248272   7.045   7.384   6.324  0.4254 -0.9771  2.2382
15358SOL     OW48273   1.826   8.257   4.324  0.5300  0.4341 -0.3329
15358SOL    HW148274   1.774   8.199   4.379  2.1875 -0.9503 -0.1495
15358SOL    HW248275   1.782   8.342   4.331 -1.0057 -0.3957  0.7171
15359SOL     OW48276   2.477   8.619   7.644  0.0542  0.2677  0.2006
15359SOL    HW148277   2.563   8.632   7.683 -0.1392  1.3970  0.2694
15359SOL    HW248278   2.486   8.648   7.553  0.6595 -2.8823 -0.8564
15360SOL     OW48279   7.144   6.228   7.192 -0.1081  0.0926  0.0074
15360SOL    HW148280   7.196   6.170   7.246 -0.3329  0.0220  0.1507
15360SOL    HW248281   7.128   6.305   7.248 -0.5263 -0.0754  0.1209
15361SOL     OW48282   0.387   5.069   5.770  0.2547 -0.4268  0.5911
15361SOL    HW148283   0.293   5.061   5.754  0.6442 -1.3901 -1.6228
15361SOL    HW248284   0.417   4.978   5.778  0.8226 -0.0977  2.7500
15362SOL     OW48285   5.445   7.654   6.637 -0.4361  0.8459 -0.2893
15362SOL    HW148286   5.385   7.667   6.563 -1.7424  1.5710  0.8518
15362SOL    HW248287   5.529   7.634   6.596 -1.3929  0.0012 -1.9570
15363SOL     OW48288   0.281   2.383   3.332 -0.8630 -0.2752  0.1572
15363SOL    HW148289   0.252   2.426   3.251  0.6507  0.6474  0.0390
15363SOL    HW248290   0.248   2.439   3.402 -2.4836 -1.2716  0.2289
15364SOL     OW48291   5.387   7.382   0.707  0.0392 -0.2059  0.0452
15364SOL    HW148292   5.423   7.302   0.667 -0.1755  0.3308 -1.2546
15364SOL    HW248293   5.315   7.408   0.649  0.1882  1.0079  0.3793
15365SOL     OW48294   7.040   4.923   5.483 -0.0779 -0.1869  0.0841
15365SOL    HW148295   7.018   5.009   5.448  0.5974 -0.1280 -0.2018
15365SOL    HW248296   7.136   4.922   5.486  0.0248 -1.7250 -1.9636
15366SOL     OW48297   3.454   2.305   0.997  0.0066  0.4646  0.0583
15366SOL    HW148298   3.508   2.259   1.061 -0.8116  1.0273  1.1918
15366SOL    HW248299   3.365   2.297   1.031 -0.7526 -0.9254 -2.0483
15367SOL     OW48300   4.305   3.217   7.467  0.1338  0.5850 -0.6723
15367SOL    HW148301   4.336   3.307   7.458  0.4748  0.6099  0.5309
15367SOL    HW248302   4.212   3.221   7.443  0.3116  1.1166 -1.2955
15368SOL     OW48303   7.707   0.368   1.819  0.3099 -0.3838  0.2964
15368SOL    HW148304   7.732   0.459   1.805  0.6703 -0.5062  0.1298
15368SOL    HW248305   7.746   0.345   1.903  1.6210 -0.8675 -0.4110
15369SOL     OW48306   5.341   2.710   2.844  0.0969 -0.1268 -0.0975
15369SOL    HW148307   5.306   2.691   2.931 -0.0308 -0.9227 -0.3225
15369SOL    HW248308   5.357   2.624   2.805 -2.7239  0.1118 -2.0476
15370SOL     OW48309   8.978   6.737   7.969 -0.3798 -0.6532 -0.1243
15370SOL    HW148310   8.969   6.670   7.901  1.0748 -1.1593  0.1341
15370SOL    HW248311   8.998   6.817   7.921  0.5168 -0.9820 -0.3277
15371SOL     OW48312   6.092   1.874   2.614  0.1498 -0.1002  0.9688
15371SOL    HW148313   6.116   1.841   2.700  0.9751 -0.8055  0.4814
15371SOL    HW248314   6.001   1.903   2.624  0.0276 -0.7696  1.9055
15372SOL     OW48315   2.894   6.401   7.970 -0.4050  0.0196 -0.0781
15372SOL    HW148316   2.824   6.464   7.951 -1.0884 -0.7542 -0.2101
15372SOL    HW248317   2.970   6.455   7.992 -1.1091  0.8827  0.3055
15373SOL     OW48318   4.544   4.838   9.126 -1.1393  0.1131 -0.2344
15373SOL    HW148319   4.499   4.760   9.095  1.1363 -1.3520 -0.0469
15373SOL    HW248320   4.584   4.812   9.209 -1.1755  1.8062  0.3538
15374SOL     OW48321   6.626   8.471   9.390  0.1401 -0.3399 -0.1243
15374SOL    HW148322   6.626   8.378   9.364 -0.2675 -0.4752  0.3343
15374SOL    HW248323   6.691   8.477   9.460  0.4707 -0.1921 -0.4415
15375SOL     OW48324   3.667   7.717   6.847  0.0018  0.1477  0.0998
15375SOL    HW148325   3.615   7.685   6.774  0.1587 -0.4661  0.2510
15375SOL    HW248326   3.618   7.690   6.925  1.7525 -2.7345  0.3474
15376SOL     OW48327   1.464   5.492   1.150 -0.4396 -0.0694 -0.3796
15376SOL    HW148328   1.461   5.403   1.184 -1.9215  0.9000  2.3577
15376SOL    HW248329   1.554   5.520   1.165 -0.3258 -0.6501  0.0762
15377SOL     OW48330   0.220   7.681   7.684  0.5067  1.0487 -0.3516
15377SOL    HW148331   0.135   7.703   7.645  0.7826  0.9467 -1.0134
15377SOL    HW248332   0.211   7.707   7.776 -0.0492  1.5497 -0.5416
15378SOL     OW48333   8.057   2.571   6.766 -0.2474  0.1827 -0.1306
15378SOL    HW148334   8.004   2.539   6.694  1.1190 -0.2463 -0.9923
15378SOL    HW248335   8.044   2.506   6.835 -2.1032  0.9618  0.3112
15379SOL     OW48336   6.938   0.555   4.730  0.2467 -0.4070 -0.3920
15379SOL    HW148337   6.993   0.478   4.736  0.4946 -0.1418  1.7718
15379SOL    HW248338   6.875   0.535   4.661 -0.8903 -3.3600  1.3203
15380SOL     OW48339   1.720   1.173   7.248  0.4118  0.5639 -0.1778
15380SOL    HW148340   1.728   1.262   7.214 -4.6456  0.5187 -2.4286
15380SOL    HW248341   1.689   1.184   7.337 -6.2006  1.8063 -2.0797
15381SOL     OW48342   6.576   5.196   9.383  0.0009 -0.4094  0.3262
15381SOL    HW148343   6.664   5.179   9.418  0.5550  0.4425 -0.6345
15381SOL    HW248344   6.517   5.159   9.450  1.0627 -0.3694  1.3202
15382SOL     OW48345   2.517   8.243   0.826 -0.1186  0.4995  0.0277
15382SOL    HW148346   2.492   8.176   0.763  0.3704 -0.5690  0.9259
15382SOL    HW248347   2.613   8.243   0.823 -0.0134 -0.6875  1.8432
15383SOL     OW48348   2.142   7.146   5.571  0.0579  0.0634 -0.0307
15383SOL    HW148349   2.232   7.145   5.604  0.5975  1.6822 -1.2966
15383SOL    HW248350   2.095   7.084   5.626  2.2354 -1.8352 -0.1738
15384SOL     OW48351   3.556   5.230   4.066 -0.0762  0.1075 -0.7464
15384SOL    HW148352   3.632   5.205   4.120  1.3447  1.0094 -2.2132
15384SOL    HW248353   3.521   5.147   4.035  0.4337 -0.3215 -0.2127
15385SOL     OW48354   1.573   1.443   2.276  0.4420 -0.1693 -0.3776
15385SOL    HW148355   1.664   1.460   2.249  0.5770  1.6933  1.0010
15385SOL    HW248356   1.579   1.425   2.370 -0.6939  1.1361 -0.0207
15386SOL     OW48357   4.861   1.205   6.912  0.5101 -0.3216 -0.5174
15386SOL    HW148358   4.789   1.152   6.879 -0.3575  0.4173  0.1387
15386SOL    HW248359   4.912   1.227   6.834 -0.1739 -0.5594 -1.0377
15387SOL     OW48360   0.767   1.014   0.124  0.1809  0.1296  0.5327
15387SOL    HW148361   0.770   0.931   0.173  0.6841  0.3264  0.8388
15387SOL    HW248362   0.674   1.035   0.120 -0.0982 -1.1260 -0.7112
15388SOL     OW48363   2.028   2.420   0.090  0.3786  0.4625  0.4002
15388SOL    HW148364   2.090   2.486   0.120  0.0251  0.0557  2.1209
15388SOL    HW248365   2.070   2.336   0.110 -0.5271  0.1822  1.1880
15389SOL     OW48366   3.854   9.037   1.430 -0.6782 -0.0352 -0.1751
15389SOL    HW148367   3.810   9.052   1.514 -2.0760  0.5618 -0.9800
15389SOL    HW248368   3.802   9.087   1.367  1.0707  0.5382 -1.2144
15390SOL     OW48369   0.392   7.373   5.486 -0.3869 -0.5275  0.0744
15390SOL    HW148370   0.298   7.360   5.500 -0.1895 -1.0724  0.9414
15390SOL    HW248371   0.418   7.437   5.552 -0.4013  0.7013 -1.0647
15391SOL     OW48372   6.623   2.408   3.014 -0.1937  0.2513  0.1839
15391SOL    HW148373   6.540   2.361   3.019 -0.2239  0.3194  0.3141
15391SOL    HW248374   6.690   2.340   3.022 -0.2362  0.1914  0.0373
15392SOL     OW48375   1.926   3.695   8.676  0.2691  0.2264  0.6567
15392SOL    HW148376   1.923   3.669   8.768  0.1788  0.4665  0.7236
15392SOL    HW248377   2.019   3.697   8.655  0.2469 -1.1975  0.3406
15393SOL     OW48378   9.030   6.950   8.232  0.3491 -0.4829 -0.3975
15393SOL    HW148379   9.066   7.025   8.185 -0.3452  0.7942  0.9919
15393SOL    HW248380   8.986   6.897   8.165  0.3149  0.6900 -1.3269
15394SOL     OW48381   7.452   2.484   4.476  0.3041 -0.0829 -0.5423
15394SOL    HW148382   7.541   2.508   4.452 -0.2698  1.8752 -0.8504
15394SOL    HW248383   7.431   2.409   4.420  1.7662 -0.6482 -0.3789
15395SOL     OW48384   8.740   5.129   6.941 -0.6734  0.1796 -0.3416
15395SOL    HW148385   8.826   5.134   6.983  0.0710  1.2147 -1.8945
15395SOL    HW248386   8.679   5.163   7.007 -0.2617 -2.4487  1.5406
15396SOL     OW48387   7.539   1.220   7.292  0.5271  0.1792 -0.2086
15396SOL    HW148388   7.585   1.299   7.264 -0.4810  0.1521 -2.1262
15396SOL    HW248389   7.530   1.168   7.212 -1.4207 -0.5216  0.3994
15397SOL     OW48390   0.568   8.298   2.466 -0.0892  0.1208  0.9109
15397SOL    HW148391   0.639   8.316   2.405  0.5264 -2.3490  0.8359
15397SOL    HW248392   0.537   8.385   2.492  0.6207  1.2573 -1.7132
15398SOL     OW48393   6.795   5.164   1.423 -0.1663 -0.1651 -0.4620
15398SOL    HW148394   6.734   5.110   1.375  0.2873 -0.4927 -0.6776
15398SOL    HW248395   6.799   5.246   1.374  0.2205 -0.4624 -0.9382
15399SOL     OW48396   2.038   7.278   2.784  0.2768  0.5135 -0.0060
15399SOL    HW148397   2.057   7.311   2.696 -1.6220  1.8123 -0.0117
15399SOL    HW248398   1.948   7.244   2.777  0.4287 -0.1833  1.2172
15400SOL     OW48399   9.242   7.573   3.758 -0.0000  0.5116 -0.6893
15400SOL    HW148400   9.286   7.562   3.843 -1.3032  2.4818  0.3318
15400SOL    HW248401   9.218   7.485   3.732  0.6738 -0.1768  0.8697
15401SOL     OW48402   3.691   9.144   5.890  0.0609  0.7400  0.6096
15401SOL    HW148403   3.609   9.122   5.932  0.4366  1.3788  1.7213
15401SOL    HW248404   3.673   9.136   5.796 -1.5202  1.7205  0.7965
15402SOL     OW48405   9.284   2.030   5.127  0.1158 -0.7322 -0.2675
15402SOL    HW148406   9.234   2.092   5.180 -0.2999 -0.9988 -0.3475
15402SOL    HW248407   9.374   2.063   5.130 -0.0947 -0.1463 -0.2763
15403SOL     OW48408   2.928   8.420   6.886  0.2495  0.0347  0.2329
15403SOL    HW148409   2.972   8.346   6.927 -0.7784 -0.2411  0.8873
15403SOL    HW248410   2.900   8.388   6.800  1.3432  0.2274 -0.2044
15404SOL     OW48411   1.884   0.648   6.277  0.4542  0.2441 -0.4539
15404SOL    HW148412   1.816   0.624   6.214 -1.5515  1.8367  0.9699
15404SOL    HW248413   1.961   0.667   6.224 -1.0923  1.3592 -2.4091
15405SOL     OW48414   8.607   8.535   9.347  0.4511  0.2532  0.5822
15405SOL    HW148415   8.685   8.549   9.401  1.8333 -0.6574 -1.1102
15405SOL    HW248416   8.595   8.617   9.300  3.1201 -0.9205 -2.4696
15406SOL     OW48417   8.255   0.402   4.443  0.0694  0.4222 -0.3700
15406SOL    HW148418   8.344   0.433   4.458  0.7121 -0.6604 -1.7491
15406SOL    HW248419   8.201   0.481   4.447  1.1251  1.1358  0.1735
15407SOL     OW48420   3.204   9.383   1.733 -0.2141 -0.2229  0.0732
15407SOL    HW148421   3.238   9.393   1.644 -0.6152 -0.7358 -0.1421
15407SOL    HW248422   3.265   9.322   1.775 -0.1204 -0.1122  0.0986
15408SOL     OW48423   3.599   7.959   3.964 -0.0136  0.0647 -0.9294
15408SOL    HW148424   3.672   8.005   3.921 -1.3512  0.0126 -3.4116
15408SOL    HW248425   3.526   8.021   3.960 -0.2515  0.0113  1.2904
15409SOL     OW48426   8.400   9.196   7.666 -0.1731 -0.6709 -0.2071
15409SOL    HW148427   8.407   9.122   7.726 -0.3801 -1.8673 -1.6010
15409SOL    HW248428   8.482   9.196   7.617 -0.0625  0.2059 -0.0384
15410SOL     OW48429   5.360   3.042   8.799  0.8877  0.6568  0.0617
15410SOL    HW148430   5.341   2.969   8.740  2.6010  0.5222 -0.3746
15410SOL    HW248431   5.341   3.009   8.886 -0.2833  0.3762 -0.2832
15411SOL     OW48432   9.084   4.790   4.984 -1.2021 -0.0654  0.0049
15411SOL    HW148433   9.124   4.861   5.033 -0.1399 -0.1862 -0.6637
15411SOL    HW248434   9.114   4.802   4.894  0.6851 -2.4941  0.2087
15412SOL     OW48435   7.938   8.260   6.077 -0.6164  0.4132 -0.5156
15412SOL    HW148436   8.025   8.298   6.064 -1.4871  2.1431 -1.4811
15412SOL    HW248437   7.955   8.183   6.132  1.6233  0.1954 -1.3971
15413SOL     OW48438   3.295   6.530   3.273 -0.4263  0.2938  0.2985
15413SOL    HW148439   3.363   6.463   3.259 -0.3310  0.0804  1.6787
15413SOL    HW248440   3.213   6.481   3.273 -0.5002  0.4112 -0.3335
15414SOL     OW48441   7.549   7.470   6.190  0.1192 -0.2546 -0.5250
15414SOL    HW148442   7.567   7.429   6.105 -0.2998 -0.0476 -0.7182
15414SOL    HW248443   7.479   7.417   6.227  0.4758 -0.4936 -0.1983
15415SOL     OW48444   7.333   1.694   2.036  0.0318  0.3162 -0.4805
15415SOL    HW148445   7.328   1.601   2.055  0.2360  0.2983 -0.5101
15415SOL    HW248446   7.427   1.712   2.026  0.1784  0.9271  1.5618
15416SOL     OW48447   8.520   4.353   8.713  0.1891  0.0967 -0.1614
15416SOL    HW148448   8.492   4.384   8.627 -0.3575  1.3265  0.4381
15416SOL    HW248449   8.439   4.325   8.756  0.2966  0.5667  0.3657
15417SOL     OW48450   3.000   1.172   1.474 -0.1207  0.1795  0.0986
15417SOL    HW148451   2.914   1.137   1.498 -0.4050 -0.9798 -2.3592
15417SOL    HW248452   3.026   1.122   1.397  1.3311  2.6858 -1.1624
15418SOL     OW48453   8.360   7.633   1.925  0.0695  0.0917 -0.1918
15418SOL    HW148454   8.430   7.584   1.882 -1.0810  0.3950 -2.5377
15418SOL    HW248455   8.282   7.580   1.913 -0.7957  1.4757 -0.8939
15419SOL     OW48456   7.168   1.798   0.310 -0.1509 -0.1552 -0.0090
15419SOL    HW148457   7.205   1.886   0.317 -0.9652  0.2233 -0.2968
15419SOL    HW248458   7.209   1.748   0.381  1.9370 -0.1557 -1.1659
15420SOL     OW48459   1.762   6.087   7.821  0.3503  0.0513 -0.0836
15420SOL    HW148460   1.780   6.018   7.757 -0.6429 -0.4432  0.1466
15420SOL    HW248461   1.767   6.042   7.906 -4.0815 -0.7730 -0.0309
15421SOL     OW48462   7.021   5.511   6.838  0.4931  0.2426  0.3467
15421SOL    HW148463   7.071   5.496   6.758  2.1786 -0.4427  1.4509
15421SOL    HW248464   6.960   5.581   6.817  0.8352  0.0061 -1.5493
15422SOL     OW48465   8.900   4.660   3.693  0.6087  0.2825 -0.5284
15422SOL    HW148466   8.819   4.650   3.642 -0.3019 -0.1852  0.9662
15422SOL    HW248467   8.898   4.750   3.724  0.7582  0.3227 -0.6325
15423SOL     OW48468   6.432   0.866   3.756 -0.1037 -0.2368  0.1131
15423SOL    HW148469   6.472   0.789   3.796 -1.3392  0.0467  2.0406
15423SOL    HW248470   6.489   0.938   3.781  1.5923 -0.5640 -2.5068
15424SOL     OW48471   0.757   0.192   5.220 -0.2496 -0.3498  0.2405
15424SOL    HW148472   0.718   0.263   5.270 -2.9661 -1.1359 -0.5865
15424SOL    HW248473   0.794   0.133   5.286 -1.8248 -0.2942  1.2096
15425SOL     OW48474   0.907   3.130   4.590 -0.0954  0.0425 -0.0169
15425SOL    HW148475   0.912   3.201   4.526 -1.2330  1.6297  1.5540
15425SOL    HW248476   0.817   3.133   4.623  0.4920 -0.5711  1.7849
15426SOL     OW48477   8.443   7.261   4.671 -0.3128  0.3110 -0.1214
15426SOL    HW148478   8.425   7.299   4.585 -1.1255 -1.8439 -0.9679
15426SOL    HW248479   8.525   7.213   4.660  0.3329  1.1556  0.7409
15427SOL     OW48480   9.332   2.411   1.788 -0.4810  0.2314 -0.1074
15427SOL    HW148481   9.422   2.444   1.790 -0.1616 -0.6535  0.8343
15427SOL    HW248482   9.286   2.470   1.728  1.0491 -0.1708 -1.7534
15428SOL     OW48483   9.487   6.688   1.807  0.7366  0.2504 -0.0027
15428SOL    HW148484   9.394   6.675   1.787  0.6205  0.1895  0.5588
15428SOL    HW248485   9.506   6.624   1.875  1.2939 -0.0027 -0.3837
15429SOL     OW48486   6.428   4.374   6.737 -0.3079 -0.3664  0.2358
15429SOL    HW148487   6.485   4.371   6.660  1.9093 -1.0555  1.8091
15429SOL    HW248488   6.343   4.404   6.702 -1.0290 -5.2905 -3.3867
15430SOL     OW48489   6.030   9.428   7.802 -0.3589  0.1797  0.1049
15430SOL    HW148490   6.035   9.509   7.750 -1.2690  0.8622  1.0503
15430SOL    HW248491   5.994   9.363   7.741  2.2388 -0.1052 -1.2877
15431SOL     OW48492   0.178   1.547   5.253  0.3525  0.1942  0.4474
15431SOL    HW148493   0.171   1.473   5.192  0.1160  0.3549  0.2805
15431SOL    HW248494   0.115   1.611   5.220  0.5167  0.4463  0.6280
15432SOL     OW48495   9.490   5.540   0.351 -0.6922  0.4355 -0.3379
15432SOL    HW148496   9.547   5.616   0.343 -1.0819  0.9196  1.1867
15432SOL    HW248497   9.494   5.517   0.444 -1.0037 -1.0879 -0.6706
15433SOL     OW48498   6.936   9.474   0.586 -0.3303 -0.1323 -0.8307
15433SOL    HW148499   6.988   9.420   0.646 -0.4750 -0.2432 -0.8057
15433SOL    HW248500   6.905   9.413   0.520  0.2479  0.0789 -1.3022
15434SOL     OW48501   2.110   3.655   0.997 -0.1448 -0.0058  0.0905
15434SOL    HW148502   2.018   3.678   0.983  0.1187  3.0295  2.3136
15434SOL    HW248503   2.108   3.597   1.074 -0.2124 -0.0762  0.0356
15435SOL     OW48504   4.522   4.896   6.537 -0.1518  0.1201  0.1479
15435SOL    HW148505   4.491   4.806   6.545 -0.2244  0.1925  0.7312
15435SOL    HW248506   4.468   4.945   6.599  1.0454  0.2763  1.0886
15436SOL     OW48507   4.337   4.810   3.081  0.9971  0.3272  0.0756
15436SOL    HW148508   4.345   4.734   3.024  2.5515  0.8566 -0.4439
15436SOL    HW248509   4.415   4.808   3.136 -0.4377 -0.1603  2.2486
15437SOL     OW48510   9.441   6.338   6.891  0.1029 -0.0581  0.0303
15437SOL    HW148511   9.519   6.392   6.879 -0.9446  1.4455 -0.4140
15437SOL    HW248512   9.370   6.390   6.851 -1.2060 -1.1095  0.9040
15438SOL     OW48513   4.876   5.321   2.322  0.5027 -0.0193  0.4537
15438SOL    HW148514   4.830   5.267   2.387 -0.3040 -0.9988 -0.8624
15438SOL    HW248515   4.825   5.401   2.317 -1.0782 -1.0364 -0.8824
15439SOL     OW48516   3.313   5.444   6.561 -0.2261  0.5717  0.1384
15439SOL    HW148517   3.263   5.525   6.557 -1.2762 -0.0593 -3.7869
15439SOL    HW248518   3.259   5.385   6.614 -1.5441  1.1930 -0.4717
15440SOL     OW48519   6.336   7.041   9.001 -0.2633 -0.1682 -0.2703
15440SOL    HW148520   6.244   7.062   8.989 -0.9485 -2.0734  1.1348
15440SOL    HW248521   6.373   7.119   9.043 -1.3951  0.3471 -0.1890
15441SOL     OW48522   5.112   0.639   4.238  0.4406 -0.0912  0.1539
15441SOL    HW148523   5.052   0.708   4.211  0.8275  0.0083 -0.4827
15441SOL    HW248524   5.059   0.579   4.291 -0.1474  0.1394 -0.1689
15442SOL     OW48525   1.930   9.385   0.023 -1.1152 -0.1395  0.0109
15442SOL    HW148526   1.975   9.444   0.084  0.0084 -1.1701  0.2123
15442SOL    HW248527   1.837   9.398   0.041 -0.8488 -2.0268  3.5339
15443SOL     OW48528   2.820   3.004   3.484  0.2381 -0.3670 -0.2693
15443SOL    HW148529   2.913   3.007   3.503 -0.1311  0.8394  1.5900
15443SOL    HW248530   2.785   2.938   3.544 -0.5141  1.3383  1.2525
15444SOL     OW48531   3.505   7.537   0.583 -0.1600 -0.3934 -0.1599
15444SOL    HW148532   3.598   7.523   0.603  0.2493 -2.4153 -2.8129
15444SOL    HW248533   3.481   7.461   0.530 -2.7783  1.1062 -1.2963
15445SOL     OW48534   1.021   2.718   7.466 -0.5820 -0.1088  1.0971
15445SOL    HW148535   1.004   2.635   7.512 -3.2499 -0.1472  0.2494
15445SOL    HW248536   1.061   2.774   7.532  1.0488 -1.9529  1.7706
15446SOL     OW48537   3.019   8.450   7.601  0.3841  1.0647  0.1440
15446SOL    HW148538   2.927   8.425   7.610 -0.1428  2.0505 -2.0181
15446SOL    HW248539   3.039   8.439   7.509  2.4238  1.0130  0.5402
15447SOL     OW48540   3.803   2.017   0.082 -0.0952  0.2039  0.2276
15447SOL    HW148541   3.865   2.090   0.070  2.3398 -2.0073 -1.9902
15447SOL    HW248542   3.746   2.022   0.005 -0.0205 -0.0869  0.1514
15448SOL     OW48543   9.089   7.060   4.300  0.4311  0.5299  0.3759
15448SOL    HW148544   9.120   7.151   4.295  0.9195  0.4066  1.0248
15448SOL    HW248545   9.149   7.018   4.361 -1.2804  0.3902  2.0818
15449SOL     OW48546   8.330   9.484   6.334  0.8759  0.3377  0.1567
15449SOL    HW148547   8.277   9.448   6.262 -0.0244  3.6703 -1.0359
15449SOL    HW248548   8.317   9.579   6.328  4.8087  1.1419  1.6059
15450SOL     OW48549   7.247   5.374   3.413  0.3348  0.1328 -0.3696
15450SOL    HW148550   7.194   5.297   3.431  0.4600 -0.1023 -0.9775
15450SOL    HW248551   7.310   5.378   3.485 -0.2290  0.1652  0.1226
15451SOL     OW48552   4.323   1.883   8.470  0.3155 -0.1693  0.9358
15451SOL    HW148553   4.237   1.880   8.512  0.9388 -0.8654  2.2230
15451SOL    HW248554   4.329   1.800   8.423  0.2740 -0.1071  0.8199
15452SOL     OW48555   0.491   0.982   1.461 -0.5791  0.5405  0.3749
15452SOL    HW148556   0.396   0.978   1.475 -0.7229 -1.4090 -0.7743
15452SOL    HW248557   0.501   0.994   1.367  0.3389  1.6709  0.5998
15453SOL     OW48558   5.359   3.444   7.810 -0.0304  0.3705 -0.0768
15453SOL    HW148559   5.265   3.424   7.818 -0.0167  0.7237  1.0787
15453SOL    HW248560   5.398   3.362   7.780 -0.4800 -0.2840  1.0796
15454SOL     OW48561   2.766   2.778   6.672  0.1567  0.2862 -0.1445
15454SOL    HW148562   2.721   2.859   6.648 -0.9228 -0.6078 -1.2999
15454SOL    HW248563   2.711   2.740   6.741 -0.6888 -0.5952 -1.2579
15455SOL     OW48564   5.079   8.032   2.993  0.0735 -0.5668 -0.2977
15455SOL    HW148565   5.088   8.127   3.000 -0.3177 -0.4534 -1.1814
15455SOL    HW248566   4.993   8.018   2.953 -0.1995 -1.3285  0.5062
15456SOL     OW48567   2.613   2.062   7.995  0.0619 -0.4138 -0.6855
15456SOL    HW148568   2.650   1.986   8.041 -0.2582 -0.9815 -1.3523
15456SOL    HW248569   2.580   2.118   8.065  0.2226 -0.9285 -0.1858
15457SOL     OW48570   8.411   0.286   1.808  0.1043  0.2473  1.0495
15457SOL    HW148571   8.343   0.251   1.866 -0.3429  0.3027  0.5742
15457SOL    HW248572   8.490   0.237   1.829 -0.7422 -1.8687 -0.3583
15458SOL     OW48573   3.345   0.477   0.060 -0.1747 -0.3843  0.4836
15458SOL    HW148574   3.355   0.428  -0.022  0.3651 -0.3538  0.5270
15458SOL    HW248575   3.320   0.411   0.125 -1.5152 -0.2683  0.1117
15459SOL     OW48576   7.042   2.629   4.233 -0.7572 -0.1465 -0.3520
15459SOL    HW148577   6.955   2.595   4.250 -1.9486  2.1849 -1.3357
15459SOL    HW248578   7.072   2.661   4.319 -2.2306  1.8661 -0.5314
15460SOL     OW48579   7.554   8.083   5.204  0.1155 -0.1350  0.1346
15460SOL    HW148580   7.641   8.048   5.184 -0.2133 -0.8456 -0.0460
15460SOL    HW248581   7.539   8.059   5.296 -0.7280 -1.7944 -0.4049
15461SOL     OW48582   3.406   5.371   6.336  0.0240 -0.3365 -0.2317
15461SOL    HW148583   3.344   5.372   6.263 -0.9368 -1.3559  0.5378
15461SOL    HW248584   3.360   5.415   6.407 -0.0454 -1.5321  0.4969
15462SOL     OW48585   0.979   8.713   2.912  0.2868  0.2252  0.4011
15462SOL    HW148586   1.011   8.702   2.822 -2.5907 -0.3707 -0.6698
15462SOL    HW248587   0.935   8.798   2.911  0.0897  0.1332  1.1971
15463SOL     OW48588   7.261   3.175   3.205  0.1022 -0.2784  0.5055
15463SOL    HW148589   7.347   3.179   3.249 -0.1142  1.1311  0.8413
15463SOL    HW248590   7.198   3.182   3.277 -0.3599 -2.4854  0.3887
15464SOL     OW48591   6.301   3.273   5.799  0.1600 -0.3722  0.0479
15464SOL    HW148592   6.209   3.247   5.797  0.8491 -3.2589  1.1785
15464SOL    HW248593   6.301   3.360   5.837 -2.0552 -0.7321  1.0044
15465SOL     OW48594   5.044   0.033   6.038  0.3984  0.0980  0.5477
15465SOL    HW148595   5.000   0.013   5.956  0.3122  0.2587  0.5542
15465SOL    HW248596   5.132  -0.004   6.028 -0.1172 -1.3143  1.0158
15466SOL     OW48597   9.152   0.202   9.382 -0.6685 -0.3944 -0.7541
15466SOL    HW148598   9.237   0.175   9.347  0.7969  0.2505  2.0199
15466SOL    HW248599   9.103   0.232   9.305  2.2861  0.9844 -2.2764
15467SOL     OW48600   8.729   5.849   4.819  0.2677  0.8742 -0.0249
15467SOL    HW148601   8.767   5.765   4.845 -0.0287  1.0904  1.1370
15467SOL    HW248602   8.643   5.827   4.782  1.5485  0.3469 -2.9834
15468SOL     OW48603   9.136   4.157   2.120 -0.0783 -0.1260 -0.1807
15468SOL    HW148604   9.181   4.075   2.142 -0.5471 -0.2594  0.2911
15468SOL    HW248605   9.140   4.209   2.200 -1.1321 -0.3131  0.0057
15469SOL     OW48606   0.924   9.041   5.184  0.3956 -0.2118  0.0813
15469SOL    HW148607   1.006   9.043   5.233  0.7155 -0.0403 -0.4562
15469SOL    HW248608   0.944   8.991   5.105 -0.3374 -1.2087  0.4973
15470SOL     OW48609   2.581   3.294   7.379  0.3407  0.5227  0.1152
15470SOL    HW148610   2.499   3.246   7.391  0.1318  1.0191  0.7470
15470SOL    HW248611   2.554   3.384   7.361  0.7480  0.7626  0.6763
15471SOL     OW48612   6.901   6.474   5.522  0.1586 -0.1703  0.5028
15471SOL    HW148613   6.995   6.458   5.528  0.5558  0.8357 -1.8441
15471SOL    HW248614   6.873   6.425   5.444 -0.6505  1.7797 -0.5236
15472SOL     OW48615   3.894   3.989   9.100 -0.3505 -0.5395  0.0512
15472SOL    HW148616   3.912   4.044   9.024 -0.0626 -1.2788 -0.4245
15472SOL    HW248617   3.846   4.046   9.160 -2.0314 -0.4095 -1.3587
15473SOL     OW48618   6.981   3.904   0.153  0.2294  0.0340  0.0897
15473SOL    HW148619   6.912   3.965   0.178  0.7071  1.2369 -1.3752
15473SOL    HW248620   6.949   3.864   0.072  1.3323  0.8064 -0.7558
15474SOL     OW48621   8.171   5.395   4.211 -0.2414  0.4539  0.1655
15474SOL    HW148622   8.222   5.358   4.140 -1.0875  1.9989 -1.3138
15474SOL    HW248623   8.235   5.411   4.281  0.4440 -1.9782  0.1974
15475SOL     OW48624   3.556   4.272   9.021 -0.6094 -0.1135 -0.4969
15475SOL    HW148625   3.541   4.337   9.090 -2.0127 -1.1232  0.2111
15475SOL    HW248626   3.650   4.256   9.022 -0.6287 -0.3108  1.4108
15476SOL     OW48627   8.083   8.079   5.457  0.1588  0.5111  0.3742
15476SOL    HW148628   8.116   8.129   5.531 -1.7972 -0.6035  2.1060
15476SOL    HW248629   8.001   8.122   5.434 -1.0477 -1.1975  1.2509
15477SOL     OW48630   6.998   4.434   9.051 -0.3608 -0.3470 -0.0042
15477SOL    HW148631   6.942   4.471   8.982 -0.0610 -2.3098 -1.3763
15477SOL    HW248632   6.958   4.465   9.132 -0.6370  2.1881 -0.9883
15478SOL     OW48633   5.825   5.923   3.154 -0.3542 -0.1184  0.8650
15478SOL    HW148634   5.820   5.958   3.065 -0.0571 -2.9453 -0.3403
15478SOL    HW248635   5.918   5.930   3.177 -0.4658  0.8241  1.1025
15479SOL     OW48636   7.001   2.138   0.769 -0.0937  0.1356  0.0448
15479SOL    HW148637   7.013   2.196   0.694 -0.0591 -1.5431 -1.3148
15479SOL    HW248638   7.085   2.140   0.815 -0.1342  1.2175  0.1088
15480SOL     OW48639   3.201   6.798   7.739  0.1686  0.2186 -0.3881
15480SOL    HW148640   3.200   6.720   7.684  0.3093  0.7862 -1.2135
15480SOL    HW248641   3.159   6.770   7.821  0.6995 -0.8614 -0.4586
15481SOL     OW48642   7.539   3.864   3.672 -0.1462  0.5429  0.3620
15481SOL    HW148643   7.523   3.783   3.720  0.7524 -0.2621 -0.6511
15481SOL    HW248644   7.455   3.884   3.630 -0.0005 -0.7041 -0.5886
15482SOL     OW48645   6.638   8.536   3.438  0.3450 -0.8455 -0.2497
15482SOL    HW148646   6.670   8.477   3.506  1.4624  1.5347  1.4425
15482SOL    HW248647   6.550   8.504   3.418  0.3285 -2.1760  1.6763
15483SOL     OW48648   0.628   0.764   1.536  0.2567  0.1376 -0.0084
15483SOL    HW148649   0.703   0.747   1.479  1.6461  2.7058  0.9076
15483SOL    HW248650   0.593   0.848   1.506  0.8663  1.4373  2.6461
15484SOL     OW48651   3.106   5.908   3.855 -0.3589  0.3871 -0.2856
15484SOL    HW148652   3.123   5.969   3.928  0.4078 -0.5752  0.3661
15484SOL    HW248653   3.058   5.961   3.791  1.6649  2.1708 -0.4764
15485SOL     OW48654   8.207   5.195   8.061 -0.8439 -0.0419 -0.9688
15485SOL    HW148655   8.113   5.181   8.046 -0.7318 -0.5772 -1.1683
15485SOL    HW248656   8.237   5.240   7.983 -0.4813 -1.8782 -1.9379
15486SOL     OW48657   6.662   6.710   1.783 -0.7471 -0.5155 -0.1929
15486SOL    HW148658   6.748   6.668   1.793 -0.7823 -0.5145  0.1128
15486SOL    HW248659   6.655   6.727   1.689 -0.2419 -0.1517 -0.1679
15487SOL     OW48660   4.311   9.089   4.438 -0.2326  0.6107 -0.0492
15487SOL    HW148661   4.333   9.092   4.345  0.8524 -0.6101  0.1290
15487SOL    HW248662   4.368   9.021   4.473 -2.6231 -1.0251  0.9533
15488SOL     OW48663   1.113   3.223   5.693 -0.0881  0.5333  0.0640
15488SOL    HW148664   1.159   3.255   5.770 -0.6688  1.9800 -0.1678
15488SOL    HW248665   1.066   3.146   5.724  1.8908 -0.5957  0.4627
15489SOL     OW48666   8.455   0.316   2.282  0.0826  0.0590  0.2046
15489SOL    HW148667   8.458   0.409   2.307  2.1180 -0.0390  0.4980
15489SOL    HW248668   8.521   0.275   2.338 -0.1676 -1.4180 -0.5533
15490SOL     OW48669   6.098   6.696   5.252 -0.4849 -0.2070 -0.5646
15490SOL    HW148670   6.117   6.790   5.255 -1.1622 -0.0789 -0.2452
15490SOL    HW248671   6.141   6.666   5.171  0.0284  0.3037 -0.4925
15491SOL     OW48672   4.375   0.920   3.682 -0.0076  0.0596  0.2598
15491SOL    HW148673   4.354   0.910   3.589  0.2643 -1.1991  0.3188
15491SOL    HW248674   4.411   0.835   3.708 -1.0143  0.0530  1.7607
15492SOL     OW48675   3.577   2.734   7.114 -0.3381  0.0471 -0.4983
15492SOL    HW148676   3.493   2.775   7.133 -0.3968 -0.1240 -0.3863
15492SOL    HW248677   3.637   2.807   7.098 -0.2106  0.2034  0.6241
15493SOL     OW48678   5.594   3.385   8.813 -0.0807  0.0709 -0.1683
15493SOL    HW148679   5.534   3.365   8.885 -0.2539  1.5759  0.1396
15493SOL    HW248680   5.562   3.331   8.740 -0.3770 -0.8868  0.6460
15494SOL     OW48681   8.752   6.544   9.356  0.0571  0.3239  0.2154
15494SOL    HW148682   8.669   6.573   9.318 -0.1137 -0.3916  0.0235
15494SOL    HW248683   8.744   6.449   9.362  0.8897  0.2397  0.1379
15495SOL     OW48684   3.748   3.387   5.340 -0.4292 -0.5205  0.1328
15495SOL    HW148685   3.755   3.366   5.433 -0.5605  0.2066  0.3073
15495SOL    HW248686   3.839   3.396   5.311 -0.4026 -0.1049  0.3396
15496SOL     OW48687   4.838   1.060   2.723  0.6405  0.2129  0.0608
15496SOL    HW148688   4.820   1.150   2.751 -0.2660 -0.1159  0.5551
15496SOL    HW248689   4.873   1.017   2.801  1.0603  0.1225 -0.1715
15497SOL     OW48690   4.212   1.619   1.523 -0.8709 -0.0119 -0.0283
15497SOL    HW148691   4.128   1.659   1.547 -0.3791  0.8338  0.3347
15497SOL    HW248692   4.277   1.672   1.569 -0.2465 -2.1009  1.6059
15498SOL     OW48693   9.198   7.309   3.756 -0.1920 -0.0691  0.8233
15498SOL    HW148694   9.108   7.305   3.723  0.5949 -0.9579 -1.4249
15498SOL    HW248695   9.213   7.223   3.795  0.9644 -1.7534 -2.8203
15499SOL     OW48696   8.913   8.329   0.504 -0.1942  0.0378  0.5443
15499SOL    HW148697   8.949   8.365   0.585  1.1585 -1.1786  0.5228
15499SOL    HW248698   8.860   8.254   0.533  0.5887 -0.6253  0.3092
15500SOL     OW48699   7.785   2.257   4.095  0.0087 -0.4876 -0.6678
15500SOL    HW148700   7.809   2.228   4.183 -1.8481  0.1906  0.1148
15500SOL    HW248701   7.795   2.352   4.098 -0.6065 -0.4069 -0.9978
15501SOL     OW48702   7.696   3.656   0.325 -0.8465 -0.0384  0.5180
15501SOL    HW148703   7.738   3.742   0.330 -0.6568 -0.0328 -0.7445
15501SOL    HW248704   7.602   3.675   0.329 -0.8159  0.2703 -0.0799
15502SOL     OW48705   4.933   4.304   8.593  0.0735 -0.6045  0.1101
15502SOL    HW148706   4.938   4.231   8.655  3.0233 -0.8686 -0.3199
15502SOL    HW248707   5.010   4.356   8.611 -0.8909  1.3054 -1.0032
15503SOL     OW48708   0.174   4.201   7.472 -0.0417  0.0699  0.1599
15503SOL    HW148709   0.181   4.296   7.474  0.2199  0.0654 -0.2656
15503SOL    HW248710   0.080   4.184   7.479  0.0474  0.2370  3.2284
15504SOL     OW48711   5.754   9.254   3.361  0.3947 -0.0984  0.5136
15504SOL    HW148712   5.761   9.160   3.375 -0.8873 -0.3279 -0.2019
15504SOL    HW248713   5.675   9.279   3.408 -0.4240  0.2241 -0.9551
15505SOL     OW48714   1.444   0.358   6.973  0.1672 -0.1398 -0.3464
15505SOL    HW148715   1.511   0.347   6.906  0.0040  0.6997 -0.6528
15505SOL    HW248716   1.470   0.435   7.023 -0.9660  0.6689 -0.9628
15506SOL     OW48717   2.852   6.571   8.433  0.5926 -0.3458  0.5240
15506SOL    HW148718   2.859   6.527   8.518  0.2001 -2.4012 -0.4452
15506SOL    HW248719   2.809   6.654   8.453  2.0456  0.0116  2.5493
15507SOL     OW48720   5.438   2.900   0.197 -0.8799 -0.7031 -0.2628
15507SOL    HW148721   5.374   2.852   0.144 -2.1195 -0.3809  0.8899
15507SOL    HW248722   5.492   2.832   0.238 -1.4321 -1.0394 -0.0903
15508SOL     OW48723   5.251   1.482   5.822 -0.3616 -0.2895 -0.4048
15508SOL    HW148724   5.163   1.514   5.841  0.4392  2.3108 -0.6662
15508SOL    HW248725   5.254   1.476   5.726 -0.5096 -1.2116 -0.3552
15509SOL     OW48726   7.259   7.788   2.350  0.4014  0.0854  0.9381
15509SOL    HW148727   7.252   7.755   2.440 -0.6004  0.1226  0.8818
15509SOL    HW248728   7.175   7.830   2.333  0.0995 -1.0023 -0.4352
15510SOL     OW48729   7.638   6.770   9.390  0.4588  0.2433 -0.2813
15510SOL    HW148730   7.726   6.807   9.378  0.5452 -0.0676 -0.6190
15510SOL    HW248731   7.580   6.846   9.394  0.3371  0.4245 -3.1881
15511SOL     OW48732   3.282   6.120   5.858  0.1686 -0.1058  0.0830
15511SOL    HW148733   3.245   6.036   5.884 -0.0855  0.0001  0.0690
15511SOL    HW248734   3.230   6.185   5.905 -0.5221  0.1014 -0.9271
15512SOL     OW48735   1.953   0.160   7.777 -0.0599 -0.4141 -0.3703
15512SOL    HW148736   2.003   0.165   7.695  0.6287  0.1169  0.0679
15512SOL    HW248737   1.995   0.224   7.835  2.5232 -3.9067  2.0286
15513SOL     OW48738   5.191   9.234   8.481 -0.0993  0.8080 -0.6807
15513SOL    HW148739   5.148   9.181   8.413 -0.9119  0.6218 -0.0425
15513SOL    HW248740   5.242   9.170   8.531 -2.0498  0.3646  0.8510
15514SOL     OW48741   5.569   3.321   4.157 -0.6960 -0.1811 -0.1867
15514SOL    HW148742   5.583   3.415   4.160  0.9066 -0.3972  2.6788
15514SOL    HW248743   5.496   3.305   4.217  0.6802 -0.9270  1.3579
15515SOL     OW48744   7.886   8.007   0.270  0.0481  0.1116  0.1812
15515SOL    HW148745   7.925   8.059   0.340 -0.1184  0.0817  0.2980
15515SOL    HW248746   7.955   7.998   0.205  0.1023  0.4125  0.1968
15516SOL     OW48747   0.269   6.009   3.596 -0.6966  0.5641 -0.4396
15516SOL    HW148748   0.296   5.918   3.585  0.0775  0.7449 -0.0599
15516SOL    HW248749   0.320   6.041   3.670 -1.8528  0.9576  0.2205
15517SOL     OW48750   7.806   8.227   7.661 -0.6865 -0.3075  0.4861
15517SOL    HW148751   7.748   8.160   7.698  0.3203 -0.7232  1.3293
15517SOL    HW248752   7.790   8.305   7.714  0.2384 -0.7046  1.3764
15518SOL     OW48753   8.855   6.282   5.159 -0.4927  0.3206 -0.0382
15518SOL    HW148754   8.806   6.276   5.241 -2.4052 -1.3482 -1.1925
15518SOL    HW248755   8.822   6.209   5.106 -0.4735  2.1710 -2.8544
15519SOL     OW48756   4.143   0.490   6.311 -0.2165  0.4458 -0.0432
15519SOL    HW148757   4.065   0.528   6.351 -0.1849  0.4423  0.0209
15519SOL    HW248758   4.117   0.471   6.221 -0.5858 -0.4639  0.2511
15520SOL     OW48759   8.413   6.922   3.276  0.2675  0.3121  0.4245
15520SOL    HW148760   8.485   6.868   3.307  0.9286  0.9045 -0.0207
15520SOL    HW248761   8.443   6.956   3.191 -2.2537 -2.8610 -1.9854
15521SOL     OW48762   4.919   8.850   9.117 -0.6728  0.5708 -0.0170
15521SOL    HW148763   4.891   8.875   9.028 -1.1389  1.4014  0.3491
15521SOL    HW248764   4.883   8.919   9.173 -1.0260 -0.3495  0.9113
15522SOL     OW48765   6.071   3.061   0.374  0.0002  0.3429  0.3064
15522SOL    HW148766   6.054   3.147   0.412 -0.5949  0.5825 -0.4868
15522SOL    HW248767   6.053   3.072   0.281  0.1593 -0.5802  0.1590
15523SOL     OW48768   9.404   7.353   7.379 -0.2274 -0.1098 -0.3148
15523SOL    HW148769   9.371   7.424   7.323  0.2703  0.4428  0.0819
15523SOL    HW248770   9.410   7.393   7.466 -0.0526 -0.6781 -0.0669
15524SOL     OW48771   0.056   5.912   0.713  0.1020  0.0803  0.1136
15524SOL    HW148772   0.144   5.908   0.749  0.2589  0.4870 -0.2248
15524SOL    HW248773   0.007   5.846   0.762  0.8591 -0.9000 -0.4265
15525SOL     OW48774   4.227   8.466   6.769  0.0332 -0.7108 -0.8324
15525SOL    HW148775   4.152   8.515   6.800  1.0669 -0.5212  1.5468
15525SOL    HW248776   4.257   8.514   6.692  0.2479  1.7100  0.6708
15526SOL     OW48777   9.531   7.451   0.943  0.1935  0.2399 -0.2583
15526SOL    HW148778   9.559   7.461   0.852 -3.2156 -1.5692 -1.6801
15526SOL    HW248779   9.465   7.519   0.955 -0.3154 -0.3707  0.4369
15527SOL     OW48780   5.605   7.197   8.951 -0.5797 -0.3999  0.2596
15527SOL    HW148781   5.577   7.135   8.885 -1.0868  0.8584 -0.7589
15527SOL    HW248782   5.674   7.248   8.907 -1.9985  1.4826  0.0950
15528SOL     OW48783   4.059   7.072   8.934 -0.8889  0.4703 -0.9356
15528SOL    HW148784   4.126   7.069   8.866  0.0437 -0.5269 -0.0205
15528SOL    HW248785   4.081   7.148   8.988  0.7733 -0.9720  0.5421
15529SOL     OW48786   3.797   3.780   3.450  0.0772 -0.7645  0.0528
15529SOL    HW148787   3.812   3.874   3.440 -0.4588 -0.5620  1.0164
15529SOL    HW248788   3.792   3.747   3.360 -0.0562  0.1768 -0.2988
15530SOL     OW48789   4.004   5.082   7.215 -0.0035  0.1429 -0.0302
15530SOL    HW148790   4.058   5.003   7.213 -0.9112 -0.6844  2.6653
15530SOL    HW248791   4.064   5.152   7.238  0.4360 -0.2221 -0.0569
15531SOL     OW48792   8.475   8.426   1.215 -0.3922  0.1643 -0.1053
15531SOL    HW148793   8.401   8.370   1.190  0.9439 -0.9658 -1.7806
15531SOL    HW248794   8.469   8.501   1.156 -0.1946  0.0761 -0.2359
15532SOL     OW48795   6.867   6.101   4.691  0.0931  0.1818  0.0340
15532SOL    HW148796   6.927   6.028   4.707 -0.0428 -0.2582 -1.3454
15532SOL    HW248797   6.910   6.177   4.731  1.3413 -0.2152 -0.5133
15533SOL     OW48798   1.936   6.906   0.649 -0.5848  0.2633  0.4125
15533SOL    HW148799   1.884   6.964   0.593  0.6314  1.7802  0.7796
15533SOL    HW248800   1.891   6.822   0.645 -0.8299  0.4413 -2.4215
15534SOL     OW48801   8.997   4.853   6.746 -0.7397  0.0211 -0.7156
15534SOL    HW148802   8.913   4.852   6.793 -0.8015  0.5891 -0.8019
15534SOL    HW248803   8.973   4.877   6.657 -0.3773  1.2723 -0.4938
15535SOL     OW48804   4.454   1.621   7.746  0.2730 -0.5350  0.0223
15535SOL    HW148805   4.417   1.594   7.662  0.6185  0.2268 -0.3821
15535SOL    HW248806   4.549   1.612   7.734  0.3031 -0.7799  0.4543
15536SOL     OW48807   2.952   5.430   4.025  0.3386  0.3210  0.4354
15536SOL    HW148808   2.903   5.356   4.062 -0.5524  0.6040 -0.1688
15536SOL    HW248809   2.900   5.507   4.047  0.8615  0.7009  0.3634
15537SOL     OW48810   7.309   4.131   5.128 -0.0318 -0.0950 -0.4586
15537SOL    HW148811   7.260   4.149   5.048  1.5191  1.1837 -1.1765
15537SOL    HW248812   7.379   4.196   5.129 -0.3321  0.3075  2.2613
15538SOL     OW48813   6.234   5.216   0.041  0.0729  0.3821 -0.4346
15538SOL    HW148814   6.198   5.298   0.006  1.2390 -0.4413 -3.9186
15538SOL    HW248815   6.159   5.173   0.082 -0.8564  2.5344  0.2836
15539SOL     OW48816   4.405   3.241   0.069 -0.2426  0.2339  0.0914
15539SOL    HW148817   4.445   3.155   0.073 -0.8124 -0.0057  0.7706
15539SOL    HW248818   4.370   3.247  -0.020 -1.1019 -0.6559  0.3500
15540SOL     OW48819   4.639   0.585   0.449  0.6855  0.6872 -0.0598
15540SOL    HW148820   4.614   0.568   0.540 -1.0001  0.2639 -0.5753
15540SOL    HW248821   4.677   0.673   0.451  1.2053  0.4667  1.1354
15541SOL     OW48822   6.384   2.965   7.099 -0.5939  0.0832 -0.4890
15541SOL    HW148823   6.429   2.891   7.139 -0.2766  0.2260 -0.5762
15541SOL    HW248824   6.408   3.040   7.154  2.5199  0.9276 -2.6663
15542SOL     OW48825   5.916   4.492   0.068  0.9868 -0.4262  0.8134
15542SOL    HW148826   5.894   4.579   0.099 -0.0115 -0.1727 -0.5308
15542SOL    HW248827   5.834   4.443   0.074  1.0152 -0.6513 -0.4366
15543SOL     OW48828   1.590   7.242   4.178  0.2557  0.1512 -0.6724
15543SOL    HW148829   1.605   7.165   4.124  1.4424 -0.3597  0.3496
15543SOL    HW248830   1.547   7.305   4.119 -0.6413 -1.2247 -1.5422
15544SOL     OW48831   9.035   8.406   9.330 -0.7713 -0.2801  0.0345
15544SOL    HW148832   8.984   8.390   9.410 -0.9039 -2.1322 -0.3790
15544SOL    HW248833   8.970   8.422   9.262 -0.8447 -2.0824 -0.3735
15545SOL     OW48834   3.644   2.159   6.165  0.1633 -0.1864 -0.2242
15545SOL    HW148835   3.717   2.218   6.184 -0.7620  1.2005 -0.8267
15545SOL    HW248836   3.585   2.211   6.111 -1.2295 -1.3084  0.1775
15546SOL     OW48837   8.533   9.107   8.492 -0.3455 -0.1739  0.3176
15546SOL    HW148838   8.588   9.184   8.480  1.6662 -1.4942  0.5375
15546SOL    HW248839   8.506   9.111   8.584  0.5230 -0.1909  0.5846
15547SOL     OW48840   5.032   0.079   5.368  0.2573  0.2464  0.3059
15547SOL    HW148841   4.995   0.062   5.454 -0.2267 -1.2221 -0.1758
15547SOL    HW248842   4.957   0.081   5.309  0.8021 -1.8775 -0.5424
15548SOL     OW48843   5.648   4.475   8.439  0.1929  0.2513  0.2302
15548SOL    HW148844   5.720   4.501   8.496  0.3526  0.3717 -0.0235
15548SOL    HW248845   5.569   4.493   8.490  0.3088  0.9322  0.1842
15549SOL     OW48846   6.969   4.890   2.011 -0.6962 -0.6812 -0.4577
15549SOL    HW148847   7.045   4.838   2.036 -0.7776 -0.3920  0.4467
15549SOL    HW248848   6.921   4.835   1.950  0.2283 -0.8723 -1.0333
15550SOL     OW48849   3.979   8.706   7.939 -0.2445 -0.1412 -0.2877
15550SOL    HW148850   3.914   8.735   8.002  0.3924 -0.5827  0.5938
15550SOL    HW248851   3.993   8.781   7.881  1.5681  1.4920  2.0774
15551SOL     OW48852   8.287   0.010   7.630  0.0245  0.2025  0.0322
15551SOL    HW148853   8.352  -0.046   7.672 -0.1703 -0.1832 -0.1844
15551SOL    HW248854   8.214  -0.048   7.610 -0.0982  0.4891 -0.3674
15552SOL     OW48855   0.157   0.671   5.729 -0.3168 -0.1378 -0.1174
15552SOL    HW148856   0.148   0.762   5.702 -0.4357 -0.2551 -0.4827
15552SOL    HW248857   0.230   0.637   5.678  0.9388  0.2479  1.3655
15553SOL     OW48858   5.044   8.795   8.364 -0.2430  0.2658 -0.2192
15553SOL    HW148859   4.954   8.814   8.339  0.6076  1.9881 -2.3049
15553SOL    HW248860   5.093   8.799   8.282  1.9631  0.8340  1.0416
15554SOL     OW48861   8.974   0.430   0.756  0.7958 -0.3587 -0.5139
15554SOL    HW148862   8.991   0.508   0.809  0.3275  0.7162 -1.8756
15554SOL    HW248863   8.913   0.378   0.808  0.0987  0.8215 -0.1145
15555SOL     OW48864   6.969   2.950   5.289  0.2459  0.3900  0.2185
15555SOL    HW148865   6.965   2.894   5.367  1.6452  0.3495  0.2811
15555SOL    HW248866   7.038   2.911   5.235 -0.4695  0.6220 -0.8916
15556SOL     OW48867   6.365   7.393   7.067  0.2150 -0.0432 -0.0363
15556SOL    HW148868   6.392   7.417   6.978  1.5369 -2.5037 -0.3642
15556SOL    HW248869   6.284   7.343   7.055  0.2135 -0.0921  0.1760
15557SOL     OW48870   5.323   3.230   4.744  0.9037 -0.2773 -0.1379
15557SOL    HW148871   5.245   3.279   4.718  0.3577 -1.3038 -0.5016
15557SOL    HW248872   5.302   3.195   4.831 -0.6183 -3.5853 -1.6266
15558SOL     OW48873   8.032   2.258   3.952  0.2701 -0.1206 -0.2070
15558SOL    HW148874   8.064   2.340   3.913 -0.6440 -0.4551 -1.7350
15558SOL    HW248875   7.937   2.265   3.946  0.1870 -1.5118 -0.8778
15559SOL     OW48876   4.196   8.606   8.395  0.1193  0.4376 -0.2595
15559SOL    HW148877   4.181   8.694   8.430  0.2814  0.7059 -0.8395
15559SOL    HW248878   4.205   8.620   8.300  0.4213 -0.1706 -0.3234
15560SOL     OW48879   9.472   3.984   4.213 -0.2315  0.6907 -0.5111
15560SOL    HW148880   9.436   3.902   4.248  0.3557  0.8667  0.5258
15560SOL    HW248881   9.430   4.053   4.265  1.1052  0.9287  0.2822
15561SOL     OW48882   1.021   2.312   7.191 -0.0107  0.6351  0.2091
15561SOL    HW148883   0.971   2.267   7.124  1.2395 -0.0887 -0.2749
15561SOL    HW248884   1.112   2.308   7.161  0.4242  1.4450  1.3052
15562SOL     OW48885   7.059   9.476   5.874 -0.5031 -0.3365  0.1089
15562SOL    HW148886   7.075   9.550   5.816 -1.9557 -0.5731 -0.6506
15562SOL    HW248887   7.134   9.418   5.862  0.8072  1.1276  0.9431
15563SOL     OW48888   3.276   1.432   4.568  0.2635 -0.4361  0.1929
15563SOL    HW148889   3.190   1.468   4.546  0.3676  1.3589  2.3310
15563SOL    HW248890   3.260   1.378   4.645  1.2677  1.5128  1.8501
15564SOL     OW48891   6.595   0.094   7.911 -0.0861 -0.6022 -0.1105
15564SOL    HW148892   6.675   0.045   7.931  0.9530  0.1394 -2.1913
15564SOL    HW248893   6.571   0.065   7.823 -1.4773  0.0204  0.0463
15565SOL     OW48894   6.682   3.887   9.479 -0.0562 -0.1824  0.0818
15565SOL    HW148895   6.698   3.981   9.477  0.7212 -0.2913 -2.1503
15565SOL    HW248896   6.768   3.848   9.467 -0.5811 -1.1105 -0.8630
15566SOL     OW48897   0.559   7.910   0.077 -0.4755 -0.2440 -0.6193
15566SOL    HW148898   0.643   7.866   0.063  0.8297 -0.1530  4.7141
15566SOL    HW248899   0.501   7.842   0.110 -1.4470  0.3681 -1.0005
15567SOL     OW48900   1.107   8.661   4.662 -0.0145  0.5966  0.5668
15567SOL    HW148901   1.145   8.674   4.575  2.9911  0.4100  1.7273
15567SOL    HW248902   1.075   8.570   4.660 -1.9031  1.2214 -0.9112
15568SOL     OW48903   2.217   8.749   6.264 -0.3077  0.5349  0.0298
15568SOL    HW148904   2.292   8.807   6.276  0.3466 -0.2959  0.0476
15568SOL    HW248905   2.215   8.732   6.170  1.2938 -1.6863  0.3126
15569SOL     OW48906   5.744   8.603   5.007 -0.4300 -0.3346 -0.3928
15569SOL    HW148907   5.685   8.624   4.934  0.1449 -0.7786 -0.9956
15569SOL    HW248908   5.698   8.535   5.056 -1.3613  0.8156  0.3695
15570SOL     OW48909   8.633   8.512   5.387  0.5172 -0.4104 -0.6968
15570SOL    HW148910   8.621   8.417   5.386  0.1756 -0.3684 -0.8617
15570SOL    HW248911   8.558   8.545   5.339 -0.0733  0.0119  0.4682
15571SOL     OW48912   0.392   4.436   6.917  0.6106  0.0328 -0.2258
15571SOL    HW148913   0.466   4.396   6.963  1.6691  1.1740 -0.8654
15571SOL    HW248914   0.388   4.526   6.951 -0.6711 -0.0868 -0.0059
15572SOL     OW48915   4.447   4.610   4.170  0.0045 -0.3717  0.3219
15572SOL    HW148916   4.478   4.698   4.192 -0.8699  0.2459 -0.8608
15572SOL    HW248917   4.527   4.559   4.160  0.8240  1.3582 -3.4290
15573SOL     OW48918   8.913   7.159   0.987 -0.0231  0.5258 -0.2702
15573SOL    HW148919   8.902   7.147   0.893 -1.4719 -2.0314  0.1238
15573SOL    HW248920   8.990   7.216   0.996 -0.3500  1.5341 -2.9641
15574SOL     OW48921   1.197   7.916   6.034  0.5173 -0.5819 -0.4037
15574SOL    HW148922   1.181   7.827   6.003  1.2824 -1.3537  1.2438
15574SOL    HW248923   1.124   7.968   6.000  0.2019 -1.7710 -1.6149
15575SOL     OW48924   4.934   4.360   7.468 -0.6845 -0.0927 -0.3090
15575SOL    HW148925   4.840   4.375   7.455 -0.8262  1.3224  1.8256
15575SOL    HW248926   4.938   4.302   7.545  0.1803  0.5437  0.1408
15576SOL     OW48927   2.949   0.968   5.599 -0.5988  0.4534  0.3379
15576SOL    HW148928   3.025   1.026   5.590 -1.0389  1.0101  0.1139
15576SOL    HW248929   2.922   0.980   5.690  0.0747 -0.3890  0.6676
15577SOL     OW48930   2.834   3.708   5.097  0.2517  0.4882 -0.2658
15577SOL    HW148931   2.789   3.696   5.013 -0.1575 -0.0442  0.0260
15577SOL    HW248932   2.918   3.664   5.085 -0.2351 -0.5295 -0.0485
15578SOL     OW48933   2.074   0.063   2.914  0.3453  0.3242 -0.5542
15578SOL    HW148934   2.080   0.127   2.985 -0.3681 -0.4615  0.2363
15578SOL    HW248935   2.157   0.071   2.868  0.9255  0.6766  0.5101
15579SOL     OW48936   6.308   6.726   3.849  0.3344  0.1538 -0.3563
15579SOL    HW148937   6.215   6.745   3.841 -0.0284 -1.7997 -1.4972
15579SOL    HW248938   6.350   6.812   3.850 -1.5258  1.1126  1.4260
15580SOL     OW48939   2.548   6.445   8.631  0.1270  0.6187  0.2188
15580SOL    HW148940   2.643   6.433   8.627 -0.1556 -1.8356 -1.0568
15580SOL    HW248941   2.529   6.457   8.724  1.5045 -0.9658  0.7448
15581SOL     OW48942   2.957   5.534   6.579  0.6057 -0.4116 -0.1418
15581SOL    HW148943   2.863   5.529   6.565  0.5582 -0.4016  0.1533
15581SOL    HW248944   2.996   5.487   6.505  0.2909 -2.1172  0.7182
15582SOL     OW48945   3.859   9.578   3.476  0.5735 -0.3078  0.1708
15582SOL    HW148946   3.810   9.498   3.454  1.9336 -0.5127 -2.5799
15582SOL    HW248947   3.950   9.550   3.478  0.9035  0.7634  1.6067
15583SOL     OW48948   7.317   6.147   6.666  0.3140  0.2565  0.0158
15583SOL    HW148949   7.338   6.205   6.593 -3.8625  1.5819 -0.4166
15583SOL    HW248950   7.221   6.138   6.663  0.0795 -1.0404  4.3076
15584SOL     OW48951   0.723   8.996   8.640 -0.3842  0.2063  0.3996
15584SOL    HW148952   0.693   9.082   8.610 -0.9074  0.6812  2.2013
15584SOL    HW248953   0.647   8.959   8.686  0.8966  0.2809  2.6973
15585SOL     OW48954   5.118   1.691   4.415  0.1955 -0.4756 -0.0244
15585SOL    HW148955   5.192   1.647   4.372  0.9626 -0.5329  1.2903
15585SOL    HW248956   5.113   1.649   4.501 -0.6887  0.2848  0.3017
15586SOL     OW48957   4.408   9.209   1.750  0.1222  0.2734  0.0981
15586SOL    HW148958   4.315   9.185   1.756  0.1065  0.7271  2.1921
15586SOL    HW248959   4.420   9.233   1.658 -1.4578 -1.2443 -0.5664
15587SOL     OW48960   6.555   5.878   6.439  0.0710  0.0023 -0.0110
15587SOL    HW148961   6.634   5.929   6.454  0.6329 -0.4865 -1.1799
15587SOL    HW248962   6.556   5.858   6.345 -1.1660 -0.4590  0.0421
15588SOL     OW48963   5.651   6.975   8.197 -0.0468 -0.6510 -0.4440
15588SOL    HW148964   5.720   6.941   8.254  0.7931  0.9940 -0.4202
15588SOL    HW248965   5.648   7.069   8.215 -1.1120 -0.4023 -1.7035
15589SOL     OW48966   2.993   7.503   7.554 -0.2300  0.1419 -0.1129
15589SOL    HW148967   2.914   7.556   7.563  0.7066  1.2703  2.8147
15589SOL    HW248968   2.972   7.422   7.600  0.1995  0.3249  0.4126
15590SOL     OW48969   7.340   7.582   8.779  0.0815 -0.2674 -0.6909
15590SOL    HW148970   7.384   7.668   8.782  0.3101 -0.3509 -1.4476
15590SOL    HW248971   7.408   7.520   8.802 -0.3056 -0.1824  0.7513
15591SOL     OW48972   3.693   1.255   0.955  0.1480  0.5080  0.2316
15591SOL    HW148973   3.633   1.329   0.957  0.6838  0.9729 -0.1623
15591SOL    HW248974   3.763   1.283   0.894  1.1289  0.2813  1.2215
15592SOL     OW48975   3.592   3.853   1.676 -0.5626 -0.2905  0.3398
15592SOL    HW148976   3.653   3.821   1.611 -1.1245  0.2584 -0.4753
15592SOL    HW248977   3.590   3.948   1.664 -4.8735 -0.4739 -2.7973
15593SOL     OW48978   9.249   8.460   0.451 -0.1240  0.3429  0.3795
15593SOL    HW148979   9.313   8.413   0.504  0.5954  0.6111 -0.2334
15593SOL    HW248980   9.216   8.395   0.389 -0.3824  0.2253  0.6405
15594SOL     OW48981   1.650   1.676   8.877 -0.2012  0.1679 -0.1404
15594SOL    HW148982   1.707   1.607   8.844 -1.1519 -1.3385  1.2182
15594SOL    HW248983   1.571   1.669   8.823 -0.5969 -0.3423  0.4892
15595SOL     OW48984   8.214   6.086   1.567 -0.0719  0.9084  0.1427
15595SOL    HW148985   8.233   6.125   1.652 -0.8917  1.5723  0.0315
15595SOL    HW248986   8.151   6.146   1.526 -1.0986 -0.3397 -0.1771
15596SOL     OW48987   2.913   6.354   0.486  0.0277 -0.4872 -0.3020
15596SOL    HW148988   2.859   6.343   0.564  1.1810  1.5254  0.8851
15596SOL    HW248989   2.948   6.443   0.494  1.6997 -0.9058 -2.1448
15597SOL     OW48990   1.979   2.156   9.351  0.2173 -0.3993 -0.7255
15597SOL    HW148991   2.062   2.191   9.319  0.3488 -1.5876 -1.7754
15597SOL    HW248992   1.997   2.062   9.364 -0.6514 -0.4569  0.1284
15598SOL     OW48993   5.845   0.848   4.679  0.4559 -0.6039 -0.1357
15598SOL    HW148994   5.819   0.868   4.769 -0.2508 -0.5593 -0.3401
15598SOL    HW248995   5.770   0.876   4.626  1.2822  0.3365 -0.8412
15599SOL     OW48996   7.702   2.802   2.525 -0.3273 -0.6306  0.1515
15599SOL    HW148997   7.614   2.769   2.508 -0.7574 -0.5688  2.0465
15599SOL    HW248998   7.713   2.794   2.619  0.7558  1.6796  0.2890
15600SOL     OW48999   9.013   5.212   2.553  0.2649 -0.1874 -0.4586
15600SOL    HW149000   9.021   5.307   2.546  0.3691 -0.0784  0.9170
15600SOL    HW249001   9.084   5.187   2.612  0.0001 -1.0847 -0.5157
15601SOL     OW49002   3.469   5.320   6.011  0.4160  0.6341 -0.0181
15601SOL    HW149003   3.404   5.250   6.001 -0.1296  0.8124  1.9345
15601SOL    HW249004   3.546   5.275   6.046  0.7331  0.7267 -0.5804
15602SOL     OW49005   5.582   6.495   5.070  0.1808 -0.3322  0.6370
15602SOL    HW149006   5.671   6.527   5.056  0.2434 -0.3546  0.9700
15602SOL    HW249007   5.565   6.437   4.996 -0.0412  0.7069 -0.1454
15603SOL     OW49008   5.457   7.587   0.033  0.0536  0.2550 -0.3477
15603SOL    HW149009   5.390   7.652   0.051  0.5622  0.9848 -1.0084
15603SOL    HW249010   5.537   7.624   0.071  0.5330  0.4529 -1.5080
15604SOL     OW49011   1.657   8.357   3.759 -0.2231 -0.1407 -0.7892
15604SOL    HW149012   1.681   8.314   3.841 -0.5755  3.1066  1.1997
15604SOL    HW249013   1.697   8.303   3.691  1.0993 -2.3452  1.5647
15605SOL     OW49014   7.166   0.016   3.619 -0.2743  0.8822 -0.1390
15605SOL    HW149015   7.204   0.020   3.706  0.9687 -1.6838 -0.4878
15605SOL    HW249016   7.241   0.006   3.560 -1.0313  3.1384 -1.6365
15606SOL     OW49017   8.687   9.369   4.416 -0.1089  0.2043 -0.3878
15606SOL    HW149018   8.645   9.328   4.492 -2.0994 -0.4477 -1.7498
15606SOL    HW249019   8.666   9.311   4.343  1.9144  0.7068 -1.4533
15607SOL     OW49020   3.656   5.863   4.378 -0.4171  0.7756  0.9701
15607SOL    HW149021   3.569   5.827   4.394  0.9537 -2.5587  1.9249
15607SOL    HW249022   3.661   5.873   4.283 -1.3065 -0.6535  0.7403
15608SOL     OW49023   8.205   8.149   8.649 -0.3351 -0.4441 -0.2943
15608SOL    HW149024   8.250   8.233   8.659  1.6904 -1.3458 -1.2964
15608SOL    HW249025   8.112   8.172   8.645  0.1484  1.7099 -0.2100
15609SOL     OW49026   8.392   4.155   5.824  0.5762  0.1729  0.0050
15609SOL    HW149027   8.319   4.191   5.773  0.9860  0.2712 -0.5197
15609SOL    HW249028   8.417   4.225   5.883  0.1694  0.0984  0.2676
15610SOL     OW49029   5.940   1.332   6.851  0.1731  0.3314 -0.2888
15610SOL    HW149030   5.936   1.279   6.771 -0.5098 -0.7505  0.4266
15610SOL    HW249031   6.031   1.360   6.857  0.4016 -0.2159 -1.0510
15611SOL     OW49032   0.341   7.457   6.856  0.2402  0.3792  0.2120
15611SOL    HW149033   0.349   7.365   6.830 -2.1709  0.1051  0.2363
15611SOL    HW249034   0.431   7.483   6.878  1.0446 -1.8453 -0.1333
15612SOL     OW49035   5.937   7.542   3.447 -0.3738  0.0079 -0.0873
15612SOL    HW149036   5.855   7.505   3.414 -0.2114 -1.3474  0.9203
15612SOL    HW249037   5.927   7.540   3.543  1.1784 -1.1161  0.1010
15613SOL     OW49038   8.290   6.312   2.814 -0.1600  0.3758  0.7005
15613SOL    HW149039   8.204   6.342   2.844  0.0466  0.2432  1.4391
15613SOL    HW249040   8.294   6.340   2.722 -0.0797  2.4020  1.2742
15614SOL     OW49041   9.268   5.681   4.104 -0.0555  0.3151  0.0545
15614SOL    HW149042   9.319   5.760   4.120  0.2766  0.0928  0.1155
15614SOL    HW249043   9.244   5.686   4.011  1.0903 -0.1459 -0.2960
15615SOL     OW49044   9.321   6.743   8.205  0.0151  0.1248  0.1951
15615SOL    HW149045   9.373   6.819   8.232  3.3137 -1.1974 -1.7989
15615SOL    HW249046   9.268   6.774   8.132  1.1690  0.5975 -0.4662
15616SOL     OW49047   5.100   5.500   4.342  0.4430  0.0046  0.0360
15616SOL    HW149048   5.103   5.422   4.397 -0.8954 -0.3387 -0.3477
15616SOL    HW249049   5.007   5.524   4.338  0.4685 -0.0552 -2.1458
15617SOL     OW49050   5.938   7.333   5.733 -0.7853 -0.4159  0.7208
15617SOL    HW149051   5.898   7.409   5.776 -1.5902 -1.3283  1.6484
15617SOL    HW249052   6.031   7.355   5.726 -1.1380  1.0103  0.1610
15618SOL     OW49053   4.994   1.473   5.074  0.5703 -0.3641  0.0495
15618SOL    HW149054   4.974   1.465   5.167  0.2148  0.9533  0.1138
15618SOL    HW249055   4.920   1.432   5.030 -0.4573  1.1236  0.3375
15619SOL     OW49056   5.525   8.566   6.212  0.5127 -0.0703 -0.4937
15619SOL    HW149057   5.449   8.520   6.249  1.8782 -1.1238  1.1313
15619SOL    HW249058   5.556   8.508   6.143 -1.5438  1.5201 -2.9757
15620SOL     OW49059   7.026   3.327   2.755  0.3031 -0.0860 -0.3317
15620SOL    HW149060   7.092   3.283   2.809  0.0006 -1.5844 -1.1534
15620SOL    HW249061   7.059   3.417   2.748  0.6364  0.0352  1.8599
15621SOL     OW49062   6.321   3.672   7.315  0.3298  0.3709  0.1297
15621SOL    HW149063   6.257   3.686   7.385 -1.4416 -0.3049 -1.2625
15621SOL    HW249064   6.273   3.693   7.235  1.2740 -1.8667 -1.1153
15622SOL     OW49065   3.965   6.184   2.286 -0.1557 -0.1601 -0.2986
15622SOL    HW149066   3.955   6.099   2.243  0.4626  0.2904 -1.3650
15622SOL    HW249067   3.936   6.248   2.221  0.9405  0.5469 -0.1302
15623SOL     OW49068   1.033   6.049   0.113 -0.5130 -0.1415  0.3068
15623SOL    HW149069   1.067   5.959   0.113 -2.4761 -0.9329  0.2542
15623SOL    HW249070   1.008   6.065   0.204 -0.2611  0.3243  0.2963
15624SOL     OW49071   9.153   3.792   8.692  0.3914 -0.0469 -0.7596
15624SOL    HW149072   9.167   3.698   8.688  0.9320  0.0221 -0.6013
15624SOL    HW249073   9.210   3.828   8.624  0.4277  0.1886 -0.6070
15625SOL     OW49074   3.218   6.920   0.568  0.4047 -0.6291  0.2020
15625SOL    HW149075   3.182   6.844   0.615  0.6670 -0.4211  0.7397
15625SOL    HW249076   3.278   6.961   0.631  0.3151 -0.0143 -0.1127
15626SOL     OW49077   0.735   3.909   3.444 -0.8814  0.3608  0.5113
15626SOL    HW149078   0.720   3.908   3.539  0.6799 -2.3194  0.8249
15626SOL    HW249079   0.744   3.817   3.420  2.1691  1.0675 -1.6295
15627SOL     OW49080   2.889   2.566   0.843  0.1194 -0.3836 -0.5681
15627SOL    HW149081   2.899   2.597   0.934  0.3054  1.4377 -1.1610
15627SOL    HW249082   2.841   2.484   0.851  0.4704 -0.4667  1.2100
15628SOL     OW49083   9.203   9.254   3.054  0.8506 -0.0307  0.1889
15628SOL    HW149084   9.257   9.330   3.029  2.0595 -0.5610  1.0656
15628SOL    HW249085   9.246   9.179   3.013  0.5484 -0.4256  0.5872
15629SOL     OW49086   3.540   7.116   0.671  0.0394  1.0320  0.2329
15629SOL    HW149087   3.480   7.057   0.717  0.1408  0.0381 -0.8739
15629SOL    HW249088   3.533   7.198   0.719 -2.3239  1.0036  0.0986
15630SOL     OW49089   1.252   6.123   5.023  0.3826 -0.1573 -0.1588
15630SOL    HW149090   1.274   6.107   5.115  0.8647  1.5921  0.0713
15630SOL    HW249091   1.194   6.051   4.999  1.8258 -1.7643  0.9227
15631SOL     OW49092   7.433   0.690   1.828 -0.2583  0.1922 -0.0812
15631SOL    HW149093   7.515   0.697   1.878  0.9451  1.3865 -2.0603
15631SOL    HW249094   7.408   0.781   1.811 -1.2623 -0.1835 -0.6794
15632SOL     OW49095   0.942   3.735   2.628  0.0963 -0.5842  0.0525
15632SOL    HW149096   1.024   3.708   2.586  0.2558 -1.4406  0.8765
15632SOL    HW249097   0.910   3.808   2.575  1.4520 -0.1654 -0.2214
15633SOL     OW49098   6.630   3.940   0.646  0.0488  0.2507 -0.0914
15633SOL    HW149099   6.672   3.988   0.574  1.4223  0.7513  0.9888
15633SOL    HW249100   6.656   3.849   0.633 -1.0071  0.0719 -1.0876
15634SOL     OW49101   1.639   2.670   8.720 -0.0377  0.2039  0.0785
15634SOL    HW149102   1.585   2.745   8.696  1.7313  1.5148  0.0683
15634SOL    HW249103   1.688   2.649   8.641 -1.3677 -1.7701 -0.2876
15635SOL     OW49104   6.384   6.938   0.507  0.3029  0.4167 -0.3983
15635SOL    HW149105   6.339   6.924   0.591 -0.3422 -0.8855 -0.9429
15635SOL    HW249106   6.342   7.017   0.471  1.6047  1.8826  1.1407
15636SOL     OW49107   9.490   7.074   0.634 -0.5275  0.1221 -0.7051
15636SOL    HW149108   9.435   7.142   0.594 -0.2430  0.6420 -0.2294
15636SOL    HW249109   9.500   7.103   0.725 -1.8578 -1.4600 -0.0185
15637SOL     OW49110   8.707   3.325   3.482 -0.0230  0.3201 -0.5599
15637SOL    HW149111   8.766   3.296   3.413  0.1927  0.2353 -0.3378
15637SOL    HW249112   8.625   3.344   3.436  0.2323  0.6280 -0.8960
15638SOL     OW49113   7.577   6.510   4.598  0.2226  0.2153 -0.6283
15638SOL    HW149114   7.519   6.517   4.522 -0.0302 -2.1026 -0.7262
15638SOL    HW249115   7.608   6.419   4.595 -0.0156 -0.0293  2.1917
15639SOL     OW49116   6.501   3.736   1.924 -0.4244 -0.0832 -0.0912
15639SOL    HW149117   6.582   3.780   1.896  0.4404 -2.0513 -0.9114
15639SOL    HW249118   6.507   3.733   2.019 -0.7838  1.9675  0.0508
15640SOL     OW49119   7.968   7.558   6.740 -0.3075 -0.2543 -0.0308
15640SOL    HW149120   7.962   7.654   6.744 -0.6076 -0.2875  0.4213
15640SOL    HW249121   8.054   7.537   6.778 -0.0267 -0.1373 -0.5960
15641SOL     OW49122   1.052   5.396   0.826 -0.4859 -0.5044 -0.5042
15641SOL    HW149123   1.103   5.382   0.746 -1.9881  1.6058 -1.9330
15641SOL    HW249124   1.118   5.398   0.896  1.0935 -0.5005 -1.9190
15642SOL     OW49125   8.356   0.059   9.145 -0.8129  0.1474 -0.7713
15642SOL    HW149126   8.269   0.021   9.157 -0.6734  0.0147 -0.1252
15642SOL    HW249127   8.417  -0.014   9.159 -0.5906  0.2816 -1.0193
15643SOL     OW49128   1.006   4.306   4.901 -0.0607 -0.2762  0.8289
15643SOL    HW149129   1.099   4.315   4.919  0.6970  1.4417 -2.9378
15643SOL    HW249130   0.993   4.214   4.880  1.1632 -0.2527 -0.1048
15644SOL     OW49131   6.728   8.417   2.182  0.4195  0.0541 -0.1943
15644SOL    HW149132   6.636   8.422   2.155  0.5349  2.2630 -0.4334
15644SOL    HW249133   6.726   8.381   2.271 -0.5972 -0.6065 -0.4718
15645SOL     OW49134   0.156   4.069   4.155 -0.1629  0.1276 -0.0553
15645SOL    HW149135   0.208   3.992   4.129  0.7641 -0.0234  2.0067
15645SOL    HW249136   0.074   4.032   4.189 -0.5851  0.2055 -0.9647
15646SOL     OW49137   5.332   5.550   3.851 -0.4709 -0.1941 -0.0393
15646SOL    HW149138   5.270   5.613   3.815 -0.6574 -0.7370 -0.6696
15646SOL    HW249139   5.396   5.604   3.898 -0.2072  0.5220 -1.1972
15647SOL     OW49140   1.890   3.068   4.729  0.1008 -0.6224  0.1221
15647SOL    HW149141   1.813   3.097   4.680  0.4349  0.5789  0.2668
15647SOL    HW249142   1.855   3.032   4.811 -0.2469  3.0752  1.7836
15648SOL     OW49143   9.463   3.040   0.976 -0.4094  0.0070  0.4093
15648SOL    HW149144   9.526   3.111   0.987 -0.4288 -0.0033  0.5779
15648SOL    HW249145   9.379   3.078   1.002  0.0427 -1.0197  3.8311
15649SOL     OW49146   2.613   6.008   6.155 -0.1538 -0.7188  0.2662
15649SOL    HW149147   2.701   5.971   6.146  0.0656 -0.1501  0.0053
15649SOL    HW249148   2.593   6.044   6.069 -0.1552  0.2050  0.6443
15650SOL     OW49149   1.212   5.600   0.306 -0.2120  0.3900 -0.4534
15650SOL    HW149150   1.306   5.583   0.309 -0.2222  0.4649  2.4163
15650SOL    HW249151   1.197   5.667   0.372 -2.7254 -2.4133  2.1597
15651SOL     OW49152   6.043   6.660   7.532 -0.1547  0.2348  0.2282
15651SOL    HW149153   6.020   6.574   7.567 -0.7222  0.7953  1.2940
15651SOL    HW249154   6.000   6.663   7.446  1.3905 -1.2264 -0.6408
15652SOL     OW49155   1.406   3.632   8.059  0.4168  0.3935  0.0482
15652SOL    HW149156   1.487   3.674   8.087  0.5182  1.4603 -1.7242
15652SOL    HW249157   1.350   3.704   8.032 -0.7932 -0.4006  0.3483
15653SOL     OW49158   8.965   4.521   8.677 -0.3718 -0.1460  0.3276
15653SOL    HW149159   8.996   4.469   8.603 -1.0893 -0.1838  0.0407
15653SOL    HW249160   8.906   4.462   8.724 -1.6532  0.5684 -0.3279
15654SOL     OW49161   7.075   2.599   2.124 -0.4172  0.3714  0.2105
15654SOL    HW149162   7.026   2.568   2.200  1.1997 -0.9854  0.7741
15654SOL    HW249163   7.157   2.631   2.160  1.1658 -2.0109 -1.0232
15655SOL     OW49164   7.347   0.419   4.705 -0.5427  0.1597  0.2642
15655SOL    HW149165   7.373   0.500   4.747 -1.0502 -0.6507  2.2559
15655SOL    HW249166   7.258   0.435   4.674 -0.1902  0.7463 -0.4589
15656SOL     OW49167   3.190   5.248   0.279 -0.0573 -0.9673 -0.7568
15656SOL    HW149168   3.238   5.329   0.296 -1.0804 -0.3077 -0.9236
15656SOL    HW249169   3.256   5.188   0.244  0.9436 -0.5781  0.3784
15657SOL     OW49170   2.907   3.181   6.713  0.2508  0.6496 -0.5306
15657SOL    HW149171   2.961   3.223   6.646 -1.6388  0.4981 -2.2504
15657SOL    HW249172   2.843   3.248   6.737  0.3373  0.3818  0.4862
15658SOL     OW49173   6.572   1.228   4.503 -0.1240  0.0039  0.3146
15658SOL    HW149174   6.657   1.253   4.469 -0.1460  1.2075  1.0847
15658SOL    HW249175   6.509   1.262   4.440 -0.0716 -0.0609  0.2279
15659SOL     OW49176   0.090   3.890   7.201 -0.2109  0.2290 -0.5501
15659SOL    HW149177   0.019   3.905   7.138  0.2939  2.3169 -0.6925
15659SOL    HW249178   0.045   3.865   7.281 -0.9928 -0.2927 -1.1311
15660SOL     OW49179   7.037   0.192   0.607 -0.4950 -0.1568  0.0923
15660SOL    HW149180   7.055   0.099   0.595 -1.2005 -0.2961  0.0964
15660SOL    HW249181   6.958   0.195   0.662 -1.1584  0.4305 -0.8603
15661SOL     OW49182   4.136   5.969   9.514 -0.0433  0.3968  0.3083
15661SOL    HW149183   4.110   6.017   9.435  0.3177 -1.2205 -0.8675
15661SOL    HW249184   4.228   5.992   9.526  0.1780 -0.1013 -0.3514
15662SOL     OW49185   4.963   9.447   1.930  0.0285 -0.2698 -0.1099
15662SOL    HW149186   4.873   9.460   1.902 -0.9241 -1.6517  2.0506
15662SOL    HW249187   5.015   9.503   1.872 -2.3682  2.0848 -0.1492
15663SOL     OW49188   5.235   7.806   0.704  0.1805 -0.1520  0.6163
15663SOL    HW149189   5.295   7.824   0.777  1.0149  0.4352 -0.2013
15663SOL    HW249190   5.292   7.778   0.632 -0.3898  1.4139 -0.5008
15664SOL     OW49191   5.654   6.315   0.070 -0.1261 -0.1229  0.5689
15664SOL    HW149192   5.616   6.238   0.028 -0.4716 -0.6614  1.8308
15664SOL    HW249193   5.645   6.384   0.004 -2.5806 -0.4324  0.4863
15665SOL     OW49194   6.300   6.925   2.151 -0.2034  0.4605  0.7348
15665SOL    HW149195   6.259   6.866   2.088  2.3819  0.6373 -1.3001
15665SOL    HW249196   6.270   7.013   2.125 -0.3789  0.4082  0.7612
15666SOL     OW49197   7.579   7.418   3.647  0.3952 -0.5955  0.1993
15666SOL    HW149198   7.548   7.423   3.738 -0.2299 -0.5725 -0.0085
15666SOL    HW249199   7.672   7.438   3.652  0.8837 -2.7634  1.1408
15667SOL     OW49200   0.320   5.476   3.621  0.2263 -0.6344  0.2398
15667SOL    HW149201   0.321   5.446   3.712 -1.1565 -0.4390  0.3492
15667SOL    HW249202   0.236   5.444   3.586  0.4685 -0.1968 -0.7881
15668SOL     OW49203   0.125   6.541   8.617 -0.1902 -0.1580  0.3406
15668SOL    HW149204   0.073   6.582   8.686  0.3063 -0.1909  0.7393
15668SOL    HW249205   0.163   6.464   8.659  0.9282  0.3699  0.3347
15669SOL     OW49206   9.107   0.044   8.235  0.5643  0.5316  0.0407
15669SOL    HW149207   9.045   0.117   8.231  0.3836  0.3657 -0.2364
15669SOL    HW249208   9.161   0.054   8.156  3.1085  2.6109  1.8505
15670SOL     OW49209   4.921   3.471   6.593 -0.9765 -0.3036 -0.2257
15670SOL    HW149210   4.973   3.446   6.669  0.5038 -1.6326 -1.5909
15670SOL    HW249211   4.830   3.459   6.620 -0.4363 -3.2993  0.5599
15671SOL     OW49212   6.334   2.693   7.671 -0.0515  0.4576  0.1327
15671SOL    HW149213   6.282   2.713   7.593  0.4361  0.3345 -0.2262
15671SOL    HW249214   6.377   2.776   7.694 -0.5791  0.6190  0.5677
15672SOL     OW49215   5.334   2.463   5.578  0.0500  0.2043  0.3956
15672SOL    HW149216   5.330   2.381   5.628  0.5400 -0.7329 -1.0151
15672SOL    HW249217   5.373   2.437   5.494 -1.3502  1.5575 -0.7361
15673SOL     OW49218   6.599   8.105   3.665  0.5071  0.1741 -0.4070
15673SOL    HW149219   6.579   8.189   3.623 -1.5246 -0.1922 -0.2738
15673SOL    HW249220   6.617   8.128   3.756 -0.4551  0.4595 -0.2732
15674SOL     OW49221   3.316   1.062   4.610  0.3084 -0.2690 -0.0670
15674SOL    HW149222   3.243   1.073   4.549  0.6186  1.9138 -0.1161
15674SOL    HW249223   3.298   0.978   4.653 -1.7509 -0.2289 -0.7177
15675SOL     OW49224   2.992   1.370   8.897 -0.2463  0.0063 -0.2346
15675SOL    HW149225   2.961   1.371   8.807  1.7680 -1.4252 -1.0032
15675SOL    HW249226   3.087   1.383   8.890 -0.0578 -0.0539  1.6765
15676SOL     OW49227   8.977   5.501   5.932 -0.4729 -0.5094  0.1968
15676SOL    HW149228   8.900   5.465   5.889  0.5267 -1.8798 -0.5054
15676SOL    HW249229   9.014   5.428   5.982  0.8789 -0.1452 -0.2229
15677SOL     OW49230   3.563   6.870   5.307  0.4396 -0.3725 -0.2402
15677SOL    HW149231   3.635   6.889   5.367 -0.3571  0.1871  0.5782
15677SOL    HW249232   3.539   6.955   5.270  0.6211 -0.6495 -1.0165
15678SOL     OW49233   5.666   2.738   8.338  0.0349 -0.4713  0.4214
15678SOL    HW149234   5.649   2.742   8.432  1.4049 -4.4943  1.0604
15678SOL    HW249235   5.745   2.789   8.326  1.4383 -2.0870  2.0997
15679SOL     OW49236   3.451   5.471   7.627  0.0906 -0.2126 -0.4157
15679SOL    HW149237   3.391   5.398   7.642  0.8699 -0.7173  0.3329
15679SOL    HW249238   3.467   5.508   7.714  2.7310 -1.6192 -0.1854
15680SOL     OW49239   0.320   6.592   0.416 -0.0289  0.1794  0.3010
15680SOL    HW149240   0.363   6.520   0.370 -1.4945  0.9131 -2.4153
15680SOL    HW249241   0.242   6.553   0.454  0.3604 -0.0974  0.8372
15681SOL     OW49242   1.550   9.179   2.035  0.2300  0.2449 -0.2807
15681SOL    HW149243   1.645   9.181   2.047 -0.0567  2.7039  3.0694
15681SOL    HW249244   1.527   9.269   2.013 -1.4763  0.3271  1.5231
15682SOL     OW49245   1.381   2.060   5.894 -0.3586 -0.0197 -0.0260
15682SOL    HW149246   1.337   1.989   5.941 -1.3837  0.4949 -0.1652
15682SOL    HW249247   1.338   2.061   5.808 -0.3575  0.7541 -0.0272
15683SOL     OW49248   4.951   7.603   5.975  0.0433  0.1692 -0.0904
15683SOL    HW149249   4.978   7.596   5.883  0.0658 -1.3985  0.0025
15683SOL    HW249250   4.863   7.641   5.971  0.3543  0.8571 -0.6987
15684SOL     OW49251   2.853   0.812   5.393 -0.3768  0.1435 -0.1162
15684SOL    HW149252   2.872   0.724   5.427  0.6274  0.1236 -0.6923
15684SOL    HW249253   2.869   0.870   5.468 -0.1808 -0.0841  0.0229
15685SOL     OW49254   1.248   6.749   5.235 -0.2654  0.3825  0.1239
15685SOL    HW149255   1.159   6.728   5.262 -0.2800 -0.2264 -0.3754
15685SOL    HW249256   1.303   6.710   5.303 -0.4038  1.7399  1.0454
15686SOL     OW49257   6.337   8.748   6.686 -0.2109 -0.1389  0.5113
15686SOL    HW149258   6.407   8.768   6.623 -1.2329  2.5355  0.0853
15686SOL    HW249259   6.349   8.812   6.756 -1.9695  0.0680  0.6506
15687SOL     OW49260   4.265   3.769   2.311  0.5353 -0.1643  0.1283
15687SOL    HW149261   4.281   3.682   2.348  1.8803 -0.1027 -0.2471
15687SOL    HW249262   4.305   3.829   2.374  0.7878  0.0865 -0.2686
15688SOL     OW49263   8.359   7.799   6.231  0.3190 -0.3582 -0.3958
15688SOL    HW149264   8.317   7.775   6.313  0.2540  0.3086 -0.2281
15688SOL    HW249265   8.308   7.873   6.199  0.9916  0.0706 -0.4995
15689SOL     OW49266   9.535   3.494   3.674 -0.1663  0.0422  0.1237
15689SOL    HW149267   9.504   3.583   3.657 -0.8820 -0.4963 -1.6814
15689SOL    HW249268   9.609   3.505   3.733 -0.3485  1.8192  0.0778
15690SOL     OW49269   0.457   1.730   5.823 -0.2453  0.1439  0.3790
15690SOL    HW149270   0.480   1.806   5.771  0.6228  0.4299  1.1586
15690SOL    HW249271   0.456   1.657   5.761 -0.4248  0.6768 -0.2460
15691SOL     OW49272   3.486   7.944   6.448 -0.2652 -0.3261 -0.3915
15691SOL    HW149273   3.533   7.989   6.518 -0.5713  0.7399 -0.8569
15691SOL    HW249274   3.404   7.992   6.439 -0.0759 -0.2234 -1.7208
15692SOL     OW49275   6.635   8.518   5.136  0.3453  0.0548 -0.4880
15692SOL    HW149276   6.650   8.474   5.219  1.4974  0.8688 -0.2424
15692SOL    HW249277   6.654   8.610   5.153 -0.1970  0.3650 -1.4549
15693SOL     OW49278   6.695   1.779   2.281 -0.3921 -0.1399 -0.1601
15693SOL    HW149279   6.774   1.790   2.333 -1.3035  2.0566  0.9467
15693SOL    HW249280   6.647   1.709   2.324 -1.0110  1.4650  1.9700
15694SOL     OW49281   4.598   5.605   2.679  0.2284 -0.3259  0.7867
15694SOL    HW149282   4.687   5.590   2.709  0.6584 -0.7846 -0.6167
15694SOL    HW249283   4.544   5.544   2.730  0.5390  0.6859  2.3846
15695SOL     OW49284   9.090   2.796   6.757 -0.6825  0.2842  0.0374
15695SOL    HW149285   9.117   2.881   6.722  0.8146  0.4481  1.4630
15695SOL    HW249286   9.068   2.744   6.679  0.8440  1.1653 -1.0475
15696SOL     OW49287   6.674   3.323   3.800  0.0804  0.2666  0.1791
15696SOL    HW149288   6.625   3.342   3.880 -0.6482  1.0433 -0.4380
15696SOL    HW249289   6.752   3.276   3.831 -1.3659 -1.6866  1.1373
15697SOL     OW49290   2.918   6.864   5.175  0.1807 -0.1730 -0.1190
15697SOL    HW149291   2.986   6.844   5.240 -0.1962 -0.3706  0.2196
15697SOL    HW249292   2.859   6.925   5.220 -0.9187 -1.4687  0.2685
15698SOL     OW49293   0.487   7.588   7.241 -0.2699  0.7318  0.0873
15698SOL    HW149294   0.461   7.678   7.263 -0.6021 -0.4001  6.3559
15698SOL    HW249295   0.405   7.539   7.239  0.0373  0.2409 -1.3569
15699SOL     OW49296   1.273   3.789   7.501 -0.0919 -0.1664 -0.2926
15699SOL    HW149297   1.286   3.856   7.433  2.4342  0.1709  0.4257
15699SOL    HW249298   1.233   3.837   7.574  0.9511  0.4450 -0.0885
15700SOL     OW49299   9.285   8.927   8.650  0.2134  0.2366  0.1087
15700SOL    HW149300   9.219   8.860   8.668  1.8575 -1.5238 -0.0640
15700SOL    HW249301   9.296   8.972   8.734 -0.7373  0.1401  0.2971
15701SOL     OW49302   9.124   9.377   5.133  0.3953 -0.4614 -0.5355
15701SOL    HW149303   9.108   9.336   5.218  2.1375 -2.0990 -0.9391
15701SOL    HW249304   9.195   9.439   5.149 -0.0963  0.1305 -0.5836
15702SOL     OW49305   5.821   7.283   0.403  0.4257 -0.1110 -0.9377
15702SOL    HW149306   5.780   7.329   0.476  0.3861 -0.8642 -0.4747
15702SOL    HW249307   5.798   7.335   0.326 -0.0240  0.3683 -0.4886
15703SOL     OW49308   3.077   8.609   7.168  0.3008  0.1700  0.4744
15703SOL    HW149309   3.140   8.675   7.197  0.5209 -0.3286  1.1397
15703SOL    HW249310   3.008   8.660   7.124 -0.2481  0.9985  2.2025
15704SOL     OW49311   7.609   4.784   8.159  0.3144  0.1978  0.0638
15704SOL    HW149312   7.534   4.730   8.138 -0.3657  1.3141 -0.4682
15704SOL    HW249313   7.683   4.739   8.119 -0.1903 -0.4610 -0.1459
15705SOL     OW49314   1.494   8.035   6.435 -0.3608 -0.5801  0.0746
15705SOL    HW149315   1.567   8.096   6.428 -0.0884 -0.7596  1.1160
15705SOL    HW249316   1.502   7.978   6.358  0.4979 -0.4865  0.0890
15706SOL     OW49317   0.745   2.422   0.746 -0.4534 -0.1892 -0.0348
15706SOL    HW149318   0.826   2.468   0.766  0.0774 -2.0700  2.6843
15706SOL    HW249319   0.676   2.474   0.786 -0.4569  0.6156 -1.0407
15707SOL     OW49320   4.828   3.506   1.938  0.1581  0.1425 -0.0491
15707SOL    HW149321   4.873   3.509   1.854 -1.0358 -0.0086 -0.7137
15707SOL    HW249322   4.896   3.524   2.003  0.6749  2.7514 -1.1901
15708SOL     OW49323   7.663   4.830   6.970  0.0014  0.3157 -0.0051
15708SOL    HW149324   7.575   4.808   7.001  0.6592 -0.3523  1.4615
15708SOL    HW249325   7.686   4.909   7.019  1.1929 -0.9518  1.5596
15709SOL     OW49326   6.358   6.159   8.965 -1.0623 -0.6403 -0.0652
15709SOL    HW149327   6.321   6.223   8.904 -1.4417 -0.9039 -0.1201
15709SOL    HW249328   6.283   6.106   8.992 -0.6017 -1.7296 -0.8406
15710SOL     OW49329   1.939   6.833   9.120  0.1563  0.0260 -0.3713
15710SOL    HW149330   1.892   6.769   9.066 -0.2593  0.3369 -0.3899
15710SOL    HW249331   2.015   6.857   9.068 -0.0291  0.0216 -0.6484
15711SOL     OW49332   0.820   3.391   0.648  0.6115 -0.4592 -0.0671
15711SOL    HW149333   0.770   3.389   0.730 -0.3348 -0.1285 -0.6305
15711SOL    HW249334   0.801   3.477   0.610  2.0784 -0.0847 -0.0125
15712SOL     OW49335   8.641   7.586   1.539  0.4698 -0.4384 -0.3367
15712SOL    HW149336   8.675   7.670   1.509 -0.1299  0.2615  0.8783
15712SOL    HW249337   8.679   7.522   1.479  1.1888  0.6615 -1.0874
15713SOL     OW49338   9.403   4.666   9.144 -0.4524 -0.4894 -0.4573
15713SOL    HW149339   9.453   4.747   9.155 -0.1521 -0.9294  2.0461
15713SOL    HW249340   9.314   4.695   9.125 -0.0557  0.4007 -0.9737
15714SOL     OW49341   1.387   7.265   3.581  0.1048 -0.3682 -0.4097
15714SOL    HW149342   1.464   7.310   3.615 -0.1371 -0.6237  0.5212
15714SOL    HW249343   1.404   7.254   3.488  0.3299  1.3342 -0.6038
15715SOL     OW49344   0.477   3.222   5.557 -0.3968  0.3111  0.0751
15715SOL    HW149345   0.564   3.208   5.519 -1.0503 -1.2898 -0.9467
15715SOL    HW249346   0.476   3.314   5.581  1.5692  0.3774  0.0919
15716SOL     OW49347   5.058   4.709   1.520  0.1153  0.0456 -0.5627
15716SOL    HW149348   4.982   4.682   1.573  1.1928  0.7774  1.4769
15716SOL    HW249349   5.132   4.663   1.560  1.0365  0.9832 -1.1423
15717SOL     OW49350   6.202   9.051   2.054 -0.7143  0.2389  0.0262
15717SOL    HW149351   6.289   9.032   2.016 -0.2815  0.7016  0.7680
15717SOL    HW249352   6.142   8.998   2.002 -0.0289  0.1821 -0.7394
15718SOL     OW49353   4.460   8.610   4.650  0.5106 -0.0314  0.3991
15718SOL    HW149354   4.380   8.566   4.681 -0.4627  1.8664  0.7441
15718SOL    HW249355   4.505   8.637   4.730  0.1055  1.2451  0.2183
15719SOL     OW49356   6.255   8.767   2.803 -0.1372  0.0597  0.1146
15719SOL    HW149357   6.294   8.829   2.864  0.6439  0.1922 -0.5056
15719SOL    HW249358   6.322   8.701   2.789 -1.1223 -1.2040  1.1216
15720SOL     OW49359   2.828   7.912   5.564  0.5106  0.0188  0.2399
15720SOL    HW149360   2.923   7.929   5.566  0.8332 -1.6724  1.9895
15720SOL    HW249361   2.820   7.819   5.585 -1.5259 -0.1478 -1.0164
15721SOL     OW49362   4.723   3.620   9.547  0.7287 -0.2109  0.6977
15721SOL    HW149363   4.696   3.681   9.479  2.7363  0.9251  0.8617
15721SOL    HW249364   4.658   3.549   9.541 -3.1230  2.8217  1.9878
15722SOL     OW49365   3.388   2.867   6.539 -0.0930 -0.0487 -0.3608
15722SOL    HW149366   3.385   2.962   6.551  1.9293 -0.1316  1.3907
15722SOL    HW249367   3.318   2.833   6.594 -0.2641  0.3698 -0.3162
15723SOL     OW49368   9.148   0.363   0.228 -0.5580 -0.9186 -0.0107
15723SOL    HW149369   9.123   0.362   0.321 -1.5131 -2.3374 -0.2501
15723SOL    HW249370   9.239   0.335   0.227 -0.2645 -0.0374  0.5487
15724SOL     OW49371   6.504   9.232   7.043  0.1307 -0.6626 -0.3399
15724SOL    HW149372   6.595   9.204   7.058  0.2873 -0.1138 -0.2518
15724SOL    HW249373   6.497   9.315   7.089 -0.5831 -0.9728  0.1357
15725SOL     OW49374   2.296   4.219   7.037 -0.9420  0.1623 -0.6433
15725SOL    HW149375   2.377   4.168   7.040 -2.1318 -1.7869  0.5594
15725SOL    HW249376   2.230   4.157   7.006 -1.8921  1.9023 -2.2901
15726SOL     OW49377   2.711   6.968   8.147  0.6613 -0.0678 -0.0285
15726SOL    HW149378   2.768   6.984   8.223  0.2969  1.9989 -0.1267
15726SOL    HW249379   2.770   6.932   8.080  1.3943 -0.0484  0.5925
15727SOL     OW49380   6.634   5.714   9.383 -0.0419  0.3160  0.2926
15727SOL    HW149381   6.705   5.656   9.408 -0.6133 -0.1782  0.7997
15727SOL    HW249382   6.621   5.698   9.290  0.7977  0.7354  0.0943
15728SOL     OW49383   8.715   2.712   0.211 -0.2588 -0.4221 -0.8573
15728SOL    HW149384   8.714   2.700   0.116 -2.8298 -0.2202 -0.9126
15728SOL    HW249385   8.759   2.796   0.224 -0.5428 -0.0906 -1.9357
15729SOL     OW49386   5.208   5.653   2.405 -0.1112 -0.3359  0.3468
15729SOL    HW149387   5.202   5.663   2.311  0.0875 -1.0865  0.2418
15729SOL    HW249388   5.118   5.659   2.437 -0.0118  1.9001  0.3559
15730SOL     OW49389   9.556   2.456   2.399  0.2544 -0.0742 -0.8235
15730SOL    HW149390   9.535   2.365   2.420 -1.1597  0.6544  1.2886
15730SOL    HW249391   9.474   2.493   2.365  0.9782  0.3024 -2.2732
15731SOL     OW49392   2.964   8.039   6.575  0.2091 -0.0099  0.0819
15731SOL    HW149393   3.017   8.114   6.602 -1.0352  1.3570 -1.0841
15731SOL    HW249394   2.980   8.031   6.481 -1.9120  0.7340 -0.4001
15732SOL     OW49395   6.476   8.154   5.232  0.1767  0.4765  0.0998
15732SOL    HW149396   6.471   8.207   5.312 -0.7041  1.7556 -0.7752
15732SOL    HW249397   6.565   8.169   5.200  0.8669 -0.7850  1.2899
15733SOL     OW49398   4.440   9.219   7.831  0.6831  0.5725  0.1254
15733SOL    HW149399   4.370   9.166   7.869  1.7050  0.5941  2.1869
15733SOL    HW249400   4.395   9.277   7.769 -0.9031 -0.3954  0.3214
15734SOL     OW49401   8.187   5.016   6.878  0.0092 -0.1432 -0.0676
15734SOL    HW149402   8.270   5.036   6.834  0.5596 -1.0992  0.4835
15734SOL    HW249403   8.135   4.970   6.813  0.4679 -0.7528 -0.0207
15735SOL     OW49404   6.424   5.757   9.048 -0.0513 -0.2318 -0.0845
15735SOL    HW149405   6.345   5.703   9.044 -0.0983 -0.2148  0.4673
15735SOL    HW249406   6.491   5.699   9.083  0.2475 -0.3139 -0.7786
15736SOL     OW49407   1.245   7.908   8.443 -0.3146  0.0831  0.0708
15736SOL    HW149408   1.340   7.924   8.443 -0.3202  0.1797 -0.6571
15736SOL    HW249409   1.217   7.928   8.532  0.5457 -1.1839  0.6496
15737SOL     OW49410   0.772   4.246   9.370 -0.2725 -0.4884  0.1768
15737SOL    HW149411   0.833   4.173   9.357  1.8017  0.8934  1.4989
15737SOL    HW249412   0.828   4.323   9.375 -2.3640  1.1944 -0.8243
15738SOL     OW49413   9.012   8.656   4.395 -0.0497  0.1497 -0.5061
15738SOL    HW149414   8.931   8.620   4.431  0.1972 -1.0367 -1.0994
15738SOL    HW249415   9.064   8.580   4.371  2.0960  0.8343  1.6194
15739SOL     OW49416   6.287   0.092   5.281 -0.2488 -0.0505 -0.2445
15739SOL    HW149417   6.328   0.169   5.319 -0.3888  0.3096 -0.8143
15739SOL    HW249418   6.202   0.122   5.250  0.1293 -0.1601 -1.4612
15740SOL     OW49419   0.648   6.735   3.253  0.0720  0.3501 -0.2240
15740SOL    HW149420   0.706   6.750   3.327  0.1048  0.6800 -0.3155
15740SOL    HW249421   0.599   6.656   3.276  0.2143  0.3459  0.0642
15741SOL     OW49422   1.053   5.702   2.988  0.1545  0.2074  0.1981
15741SOL    HW149423   1.028   5.613   2.962 -2.2415  0.6467  0.7997
15741SOL    HW249424   1.142   5.692   3.023  0.8208 -1.5367 -1.7743
15742SOL     OW49425   1.711   0.480   9.383 -0.1885 -0.6097 -0.6178
15742SOL    HW149426   1.626   0.448   9.354 -0.1208  0.1057 -1.6790
15742SOL    HW249427   1.762   0.487   9.302  0.0816  1.2851 -0.3266
15743SOL     OW49428   7.823   9.069   3.162 -0.4134 -0.2103  0.1025
15743SOL    HW149429   7.866   9.152   3.142 -0.7150 -0.0688  0.0498
15743SOL    HW249430   7.825   9.064   3.258 -0.7633  0.0516  0.1252
15744SOL     OW49431   1.831   1.446   1.108 -0.0260  0.3998  0.0563
15744SOL    HW149432   1.762   1.494   1.063 -1.9907 -0.7581  1.6331
15744SOL    HW249433   1.807   1.452   1.201  2.0881  0.0429  0.6739
15745SOL     OW49434   4.456   2.977   4.435 -0.3244 -0.4494 -0.2298
15745SOL    HW149435   4.449   2.955   4.528  1.6627 -0.6992 -0.0812
15745SOL    HW249436   4.529   3.039   4.431 -0.2553 -0.5912 -1.6283
15746SOL     OW49437   7.957   7.186   1.953  0.2264  0.0733  0.1728
15746SOL    HW149438   7.943   7.168   1.860 -0.5485  1.5475 -0.0198
15746SOL    HW249439   8.012   7.113   1.983 -1.8106 -1.9919 -0.7638
15747SOL     OW49440   9.500   4.107   3.566 -0.6820  0.9570 -0.1890
15747SOL    HW149441   9.534   4.126   3.479  1.1304  0.6090  0.3797
15747SOL    HW249442   9.416   4.063   3.551  0.4670 -0.8529 -1.8558
15748SOL     OW49443   5.537   6.421   5.537 -0.1288  0.3096  0.6320
15748SOL    HW149444   5.448   6.453   5.526  0.1120  1.3669  1.5383
15748SOL    HW249445   5.567   6.404   5.448 -0.7587  1.3215  0.1991
15749SOL     OW49446   3.467   7.044   5.657  0.2580 -0.1345 -0.3307
15749SOL    HW149447   3.551   7.024   5.615 -0.3580 -0.6847 -1.3228
15749SOL    HW249448   3.416   6.963   5.649 -0.5872  0.3773 -0.2595
15750SOL     OW49449   5.969   6.189   4.407 -0.3415 -0.3315  0.2184
15750SOL    HW149450   5.917   6.255   4.453  0.2091 -1.3697  2.4827
15750SOL    HW249451   6.008   6.236   4.333 -0.9035  1.5588  1.0581
15751SOL     OW49452   3.513   0.433   1.470 -0.0118  0.3699  0.5914
15751SOL    HW149453   3.559   0.516   1.483  0.3332  0.1334  0.9022
15751SOL    HW249454   3.583   0.367   1.464 -0.0410  0.4333 -2.7061
15752SOL     OW49455   5.074   8.323   2.564  0.4199 -0.4894  0.2974
15752SOL    HW149456   5.090   8.324   2.470 -0.6476 -1.8232  0.0604
15752SOL    HW249457   5.139   8.383   2.601  1.2539 -0.4152 -1.2195
15753SOL     OW49458   4.541   4.091   1.130  0.0372  0.0324 -0.0854
15753SOL    HW149459   4.514   4.081   1.221  0.3043 -0.3341 -0.0452
15753SOL    HW249460   4.634   4.069   1.130  0.2391  0.8327 -0.3021
15754SOL     OW49461   3.086   6.953   8.496 -0.0489  0.0307 -0.5803
15754SOL    HW149462   3.171   6.914   8.476  0.2716  0.6115 -0.3838
15754SOL    HW249463   3.076   6.941   8.590  0.5380  1.3393 -0.3309
15755SOL     OW49464   7.649   2.911   0.854  0.6808 -0.2583  0.3816
15755SOL    HW149465   7.744   2.914   0.864  0.7016 -0.3007  0.1975
15755SOL    HW249466   7.626   3.000   0.826  0.5815 -0.0342  1.1421
15756SOL     OW49467   5.513   2.065   0.294 -0.1102  0.5547  0.1095
15756SOL    HW149468   5.425   2.029   0.312  0.2104  0.0403  0.6928
15756SOL    HW249469   5.511   2.152   0.333 -1.1559  1.5450 -1.9841
15757SOL     OW49470   6.376   1.995   0.149 -0.1969  0.3939 -0.8709
15757SOL    HW149471   6.296   1.977   0.101 -0.9237  1.8715 -0.2964
15757SOL    HW249472   6.349   2.055   0.219  1.2246  0.1167 -0.0332
15758SOL     OW49473   2.950   2.560   7.048  0.2151  0.4002 -0.6953
15758SOL    HW149474   3.010   2.492   7.079  0.0666  1.0093  1.0825
15758SOL    HW249475   2.925   2.607   7.128  1.1366  3.2172 -1.9555
15759SOL     OW49476   9.532   8.378   3.311  0.4916 -0.2565 -0.6861
15759SOL    HW149477   9.568   8.372   3.223 -0.1246  1.0392 -1.0442
15759SOL    HW249478   9.601   8.421   3.362  0.4519 -0.0867 -0.7751
15760SOL     OW49479   3.222   3.500   6.647  0.0636 -0.2564  0.0648
15760SOL    HW149480   3.311   3.520   6.618  0.2266 -1.6496 -0.5068
15760SOL    HW249481   3.170   3.575   6.618  1.1412  0.9186  1.0375
15761SOL     OW49482   8.629   6.021   3.506 -0.6815 -0.0147  0.2111
15761SOL    HW149483   8.626   6.000   3.600  1.8282  0.9307  0.5727
15761SOL    HW249484   8.615   6.115   3.502 -1.9209 -0.1995 -0.5263
15762SOL     OW49485   5.629   1.784   1.078 -0.5756 -0.2792  0.2732
15762SOL    HW149486   5.703   1.774   1.019  0.8606  1.9430  1.5437
15762SOL    HW249487   5.574   1.851   1.037  0.6562  1.6055  1.5290
15763SOL     OW49488   9.504   1.737   7.634  0.1391  0.0545  0.0002
15763SOL    HW149489   9.426   1.722   7.687  1.0470 -0.6844  1.1853
15763SOL    HW249490   9.575   1.745   7.698  1.4631 -2.0467 -1.1135
15764SOL     OW49491   0.585   3.884   1.723 -0.3167  0.0697 -0.0205
15764SOL    HW149492   0.601   3.970   1.683 -3.0220  1.8688  2.3387
15764SOL    HW249493   0.490   3.872   1.716 -0.4235 -1.1836  2.4883
15765SOL     OW49494   0.543   5.688   4.358  0.1516 -0.0784  0.6756
15765SOL    HW149495   0.580   5.737   4.431 -1.0937  0.5898  0.8740
15765SOL    HW249496   0.508   5.754   4.299  0.7790 -0.6308 -0.3449
15766SOL     OW49497   6.004   2.517   7.735 -0.1231 -0.2422  0.2451
15766SOL    HW149498   5.933   2.518   7.800 -0.9576 -0.7948 -0.6254
15766SOL    HW249499   6.004   2.606   7.698  1.8673  0.8272  2.5141
15767SOL     OW49500   2.936   3.696   8.660  0.2887  0.3442  0.4667
15767SOL    HW149501   3.025   3.660   8.666  0.3111  0.4465  0.7718
15767SOL    HW249502   2.913   3.687   8.568  0.0229 -1.0868  0.6459
15768SOL     OW49503   8.423   2.384   3.542  0.1188  0.0315 -0.5255
15768SOL    HW149504   8.511   2.346   3.542  0.6336  1.1679 -0.8438
15768SOL    HW249505   8.381   2.349   3.620  0.6818 -0.9067 -0.6310
15769SOL     OW49506   0.386   8.239   3.372 -0.3241  0.7173 -0.3469
15769SOL    HW149507   0.335   8.321   3.370 -1.2744  0.1297 -1.0203
15769SOL    HW249508   0.359   8.192   3.293 -0.7097 -0.7883  0.6425
15770SOL     OW49509   1.973   8.249   5.957 -0.0282  0.7432  0.3231
15770SOL    HW149510   1.915   8.300   6.014 -0.8441  0.3299 -0.1266
15770SOL    HW249511   2.058   8.252   6.001 -0.6193  0.4898  1.5242
15771SOL     OW49512   8.685   5.941   8.347  0.1535 -0.1096 -0.1170
15771SOL    HW149513   8.777   5.962   8.331  0.2738 -0.9445 -0.5605
15771SOL    HW249514   8.637   6.011   8.304  0.5459 -0.7027 -1.5751
15772SOL     OW49515   7.495   3.225   6.094 -0.4508 -0.1711  0.6192
15772SOL    HW149516   7.562   3.270   6.145  1.5637 -1.6687 -0.5657
15772SOL    HW249517   7.541   3.191   6.018 -2.7690 -0.5113 -0.7327
15773SOL     OW49518   2.759   4.997   4.461 -0.7431  0.9765 -0.5056
15773SOL    HW149519   2.829   5.016   4.400  1.4363 -0.1175  1.4699
15773SOL    HW249520   2.694   5.065   4.446  0.1137  1.2828 -3.3068
15774SOL     OW49521   6.418   6.232   6.124  0.0501  0.0070  0.4791
15774SOL    HW149522   6.355   6.243   6.195  1.1995  0.4478  1.4653
15774SOL    HW249523   6.463   6.150   6.145  0.1021 -0.0804  0.0217
15775SOL     OW49524   3.698   2.447   1.267  0.8268  0.4855 -0.0456
15775SOL    HW149525   3.656   2.361   1.254 -0.5910  1.1051  0.2934
15775SOL    HW249526   3.626   2.510   1.263  2.0780  1.8912 -2.3179
15776SOL     OW49527   2.590   2.695   8.180 -0.6573 -0.3411  0.0844
15776SOL    HW149528   2.596   2.737   8.266 -2.8816  0.6487 -0.1496
15776SOL    HW249529   2.673   2.716   8.137 -0.3943  1.0495  1.1982
15777SOL     OW49530   0.210   7.011   1.515  0.1271  0.2275 -0.5860
15777SOL    HW149531   0.229   6.974   1.429  3.8927 -0.0894  0.2250
15777SOL    HW249532   0.177   6.938   1.567 -1.3951  0.2498 -1.4467
15778SOL     OW49533   8.805   6.431   0.306  0.3254 -0.1420 -0.5810
15778SOL    HW149534   8.896   6.455   0.289  0.5353 -0.8386 -0.4716
15778SOL    HW249535   8.786   6.364   0.240 -0.5623  1.0027 -1.5305
15779SOL     OW49536   5.522   8.868   8.962 -0.3256 -0.4333  0.7349
15779SOL    HW149537   5.460   8.801   8.933  0.1506 -0.7735  0.4834
15779SOL    HW249538   5.472   8.922   9.024 -1.4197  0.4276 -0.8406
15780SOL     OW49539   3.954   8.896   2.050 -0.4515  0.5265 -0.0878
15780SOL    HW149540   3.999   8.867   2.129  1.0033 -2.9891 -1.9764
15780SOL    HW249541   4.016   8.955   2.007 -0.2952  0.6342  0.2809
15781SOL     OW49542   9.474   8.540   2.280  0.2987  0.3791 -0.1145
15781SOL    HW149543   9.470   8.484   2.203  0.6761  0.6004 -0.2981
15781SOL    HW249544   9.480   8.629   2.245 -1.3229  0.6280  0.1694
15782SOL     OW49545   1.169   4.559   2.175 -0.1838 -0.4014  0.6156
15782SOL    HW149546   1.123   4.488   2.219  1.4060 -2.6700 -1.1122
15782SOL    HW249547   1.256   4.559   2.215 -0.8232  2.3182  2.2779
15783SOL     OW49548   3.792   0.399   6.914  1.1601  0.7604  0.1792
15783SOL    HW149549   3.882   0.380   6.888  0.3465 -0.5402 -2.0129
15783SOL    HW249550   3.797   0.418   7.007  3.4886 -0.9357  0.4826
15784SOL     OW49551   0.316   2.798   6.646  0.4068 -0.1111 -0.1669
15784SOL    HW149552   0.345   2.887   6.662 -0.0722  0.3013 -1.4929
15784SOL    HW249553   0.224   2.797   6.673  0.6953 -0.5174  0.8665
15785SOL     OW49554   7.023   3.626   3.654  0.4967 -0.2450  0.0848
15785SOL    HW149555   6.988   3.561   3.715 -0.8647 -1.1270 -1.5676
15785SOL    HW249556   6.992   3.710   3.687 -0.0324 -0.6866  0.7328
15786SOL     OW49557   7.715   5.106   5.654 -0.2774 -0.8812 -0.1451
15786SOL    HW149558   7.674   5.169   5.594  0.8731  0.1264  0.1059
15786SOL    HW249559   7.712   5.149   5.739 -1.1496 -1.9675  0.4027
15787SOL     OW49560   2.836   8.130   3.550  0.3330 -0.1262  0.0387
15787SOL    HW149561   2.843   8.212   3.599 -0.6292 -0.9906  1.7436
15787SOL    HW249562   2.926   8.099   3.542  0.7664  1.3591 -1.1522
15788SOL     OW49563   7.816   0.618   3.079  0.2371  0.4286  0.3073
15788SOL    HW149564   7.795   0.610   2.986  1.3829 -1.0535  0.1390
15788SOL    HW249565   7.739   0.661   3.117 -0.9430 -0.3625 -1.0554
15789SOL     OW49566   1.496   6.764   4.178 -0.0976  0.6260  0.0859
15789SOL    HW149567   1.521   6.789   4.089 -0.2620 -1.1988 -0.5181
15789SOL    HW249568   1.509   6.843   4.230  0.6417  1.5442 -1.4323
15790SOL     OW49569   2.574   3.154   5.789 -0.6044  0.4964  0.6331
15790SOL    HW149570   2.653   3.158   5.736 -0.3516 -2.6957  0.5617
15790SOL    HW249571   2.512   3.103   5.736 -2.3784  2.0142  1.1254
15791SOL     OW49572   7.113   6.171   3.184  0.0060  0.3066 -0.4542
15791SOL    HW149573   7.081   6.261   3.193  0.0861  0.2958 -0.0277
15791SOL    HW249574   7.208   6.181   3.171  0.3429  0.2198  1.6456
15792SOL     OW49575   4.506   7.684   7.276  0.1830 -0.0174 -0.2593
15792SOL    HW149576   4.546   7.763   7.239  0.5629 -0.1361 -0.1048
15792SOL    HW249577   4.437   7.717   7.334  0.4308  0.2067 -0.0884
15793SOL     OW49578   7.094   7.437   1.555  0.4433 -0.2465 -0.0024
15793SOL    HW149579   7.154   7.365   1.575  1.8435  0.3686 -1.6939
15793SOL    HW249580   7.060   7.417   1.468 -0.8960  0.0393  0.4333
15794SOL     OW49581   7.582   4.277   6.955 -0.0559  0.2104  0.3542
15794SOL    HW149582   7.582   4.272   7.050 -0.8137 -1.4845  0.2943
15794SOL    HW249583   7.583   4.371   6.936  2.3266  0.6242  1.9946
15795SOL     OW49584   6.199   0.280   5.753  0.5728  0.2844  0.5931
15795SOL    HW149585   6.111   0.314   5.768  0.4499  0.4930 -0.5140
15795SOL    HW249586   6.204   0.203   5.809  0.7486  1.8824  2.9140
15796SOL     OW49587   4.320   5.647   9.115 -0.4596 -0.0331 -0.8504
15796SOL    HW149588   4.227   5.644   9.139 -0.8894  1.6849 -2.0386
15796SOL    HW249589   4.319   5.678   9.024  1.2614 -0.7782 -1.1473
15797SOL     OW49590   8.235   2.563   8.907  0.0489  0.2574 -0.0919
15797SOL    HW149591   8.279   2.646   8.924  0.6806  0.2911 -1.7013
15797SOL    HW249592   8.290   2.519   8.842 -0.7009 -1.0676  0.1262
15798SOL     OW49593   7.257   4.467   3.245 -0.1059  0.2304  0.2016
15798SOL    HW149594   7.260   4.558   3.272 -0.3568 -0.2461  1.9824
15798SOL    HW249595   7.175   4.459   3.196  0.0711  1.0173 -0.2313
15799SOL     OW49596   1.096   7.654   0.059  0.3872 -0.0584  0.0952
15799SOL    HW149597   1.103   7.624   0.149  0.5952 -0.3513 -0.0190
15799SOL    HW249598   1.087   7.750   0.066  0.5200 -0.0700  0.4163
15800SOL     OW49599   1.798   7.084   7.462 -0.0461 -0.1980  0.0999
15800SOL    HW149600   1.883   7.042   7.452  0.3889  0.2343  1.7663
15800SOL    HW249601   1.816   7.166   7.507 -1.1783  0.6543 -0.9091
15801SOL     OW49602   2.331   1.351   2.703 -0.5204  0.5820 -0.3054
15801SOL    HW149603   2.275   1.380   2.631 -0.5444  1.4069  0.0362
15801SOL    HW249604   2.271   1.310   2.766 -0.9646  2.5409  0.6277
15802SOL     OW49605   3.206   6.576   6.164 -0.7814  0.0496  0.1718
15802SOL    HW149606   3.169   6.517   6.099 -0.4903  0.3928 -0.3135
15802SOL    HW249607   3.139   6.583   6.232 -0.8795 -0.7100  0.1567
15803SOL     OW49608   7.322   3.861   0.163 -0.2361 -0.2988 -0.4792
15803SOL    HW149609   7.375   3.827   0.236  2.0545  0.8500 -1.5020
15803SOL    HW249610   7.237   3.882   0.203  1.1381  0.9105  2.0540
15804SOL     OW49611   9.343   3.464   8.481  0.0907  0.1908  0.5336
15804SOL    HW149612   9.431   3.495   8.501  1.0717 -2.2478  0.3584
15804SOL    HW249613   9.295   3.476   8.563  1.3422 -0.8287  1.4621
15805SOL     OW49614   1.793   5.176   0.405  0.0099 -0.2044 -0.6075
15805SOL    HW149615   1.784   5.081   0.394  0.2072 -0.4178  0.8422
15805SOL    HW249616   1.827   5.186   0.494 -0.5053  1.2478 -0.5526
15806SOL     OW49617   1.310   9.356   3.895  0.1407 -0.5084  1.2769
15806SOL    HW149618   1.304   9.373   3.989 -0.6394  2.4865  0.7972
15806SOL    HW249619   1.223   9.378   3.861  0.8749  0.0700 -0.3297
15807SOL     OW49620   7.426   2.339   0.245 -0.0477  0.2197  0.1225
15807SOL    HW149621   7.418   2.392   0.324  0.1140  1.5979 -0.7579
15807SOL    HW249622   7.337   2.333   0.211  0.2742  2.5228 -1.3725
15808SOL     OW49623   1.613   4.758   1.711 -0.2707 -0.3297 -0.1326
15808SOL    HW149624   1.526   4.718   1.700 -0.1367 -1.1190  1.3196
15808SOL    HW249625   1.595   4.844   1.747 -0.4536 -1.2244  2.0722
15809SOL     OW49626   8.983   1.966   6.629  0.6095  0.2046 -0.3319
15809SOL    HW149627   9.015   1.876   6.631  0.0090 -0.0848 -1.9516
15809SOL    HW249628   8.978   1.992   6.721  0.6306 -1.4733  0.1743
15810SOL     OW49629   0.315   4.813   5.841 -0.6183 -0.3515 -0.9113
15810SOL    HW149630   0.370   4.736   5.853  0.5099  0.3832 -1.2327
15810SOL    HW249631   0.227   4.778   5.830 -0.1692 -1.5734 -0.7381
15811SOL     OW49632   7.363   3.609   5.788  0.3424  0.6403 -0.3978
15811SOL    HW149633   7.441   3.643   5.832  1.4563 -0.8027 -1.1756
15811SOL    HW249634   7.310   3.686   5.771  1.7275  1.7069 -0.1076
15812SOL     OW49635   2.442   8.769   4.469  0.2093 -0.4711  0.0979
15812SOL    HW149636   2.375   8.718   4.424  0.1486 -0.7619  0.5159
15812SOL    HW249637   2.483   8.821   4.400  0.3156 -1.1312 -0.3428
15813SOL     OW49638   0.977   7.007   4.375 -0.5440  0.0146  0.0922
15813SOL    HW149639   0.893   6.979   4.410 -0.9696 -0.7221 -1.4499
15813SOL    HW249640   1.037   6.935   4.398 -0.5021  0.1616  0.4632
15814SOL     OW49641   1.642   1.958   4.561 -0.1776 -0.2117  0.2927
15814SOL    HW149642   1.618   2.051   4.561 -0.9111 -0.3884  0.0122
15814SOL    HW249643   1.663   1.938   4.652 -0.4022  0.1380  0.4238
15815SOL     OW49644   6.167   5.529   3.290  0.3129  0.0320  0.6205
15815SOL    HW149645   6.178   5.570   3.204  0.5099  0.2074  0.7275
15815SOL    HW249646   6.073   5.533   3.307  0.3308  0.4418  0.6297
15816SOL     OW49647   1.617   9.531   8.567 -0.2948 -0.7246 -0.1063
15816SOL    HW149648   1.586   9.588   8.496  1.0536 -0.3308 -0.4001
15816SOL    HW249649   1.552   9.544   8.637 -1.1307 -0.4123 -0.9124
15817SOL     OW49650   2.885   8.773   0.258  0.2857 -0.3525  0.2164
15817SOL    HW149651   2.791   8.780   0.273  0.2124 -0.9647  0.0877
15817SOL    HW249652   2.916   8.715   0.328  0.9337  1.4964  1.5487
15818SOL     OW49653   7.946   7.974   2.604  0.6309  0.5940  0.4464
15818SOL    HW149654   7.916   7.891   2.569 -0.1152  0.2761  1.7965
15818SOL    HW249655   7.972   7.955   2.694 -0.8854  2.0589  1.2534
15819SOL     OW49656   2.867   5.349   7.686  0.2256  0.0979 -0.2580
15819SOL    HW149657   2.907   5.367   7.601  2.7640  1.0593  1.0641
15819SOL    HW249658   2.907   5.267   7.715  0.7415  0.6977  0.7800
15820SOL     OW49659   0.018   0.129   2.289 -0.5272  0.2487  0.0031
15820SOL    HW149660  -0.021   0.175   2.215 -0.5253 -0.6310 -0.5630
15820SOL    HW249661   0.043   0.044   2.253  1.7168  0.6796  0.3863
15821SOL     OW49662   0.472   6.003   3.389 -0.7650 -0.4101  0.3466
15821SOL    HW149663   0.547   5.944   3.380 -0.3569  0.2355 -0.7955
15821SOL    HW249664   0.469   6.024   3.482 -1.4421 -2.8576  0.9451
15822SOL     OW49665   7.028   0.637   0.580 -0.0081 -0.3720 -0.1495
15822SOL    HW149666   6.993   0.697   0.514 -1.2279 -0.8605  0.0349
15822SOL    HW249667   7.036   0.553   0.534 -2.3412 -1.1192  0.6755
15823SOL     OW49668   3.547   5.165   6.449 -0.4603 -0.1149 -0.6328
15823SOL    HW149669   3.484   5.228   6.413  0.6438  1.8248  0.5864
15823SOL    HW249670   3.495   5.108   6.506 -1.3313  0.5026 -0.7918
15824SOL     OW49671   6.787   5.737   0.603 -0.3303  0.4041 -0.4297
15824SOL    HW149672   6.727   5.686   0.549 -1.0107  1.0540 -0.3178
15824SOL    HW249673   6.744   5.823   0.612  0.8842  1.0842 -0.8296
15825SOL     OW49674   9.440   5.154   5.298 -0.5078 -0.2875 -0.8232
15825SOL    HW149675   9.529   5.168   5.264 -0.8332 -1.6013 -2.3392
15825SOL    HW249676   9.439   5.063   5.326 -0.4801  0.5571  2.2360
15826SOL     OW49677   9.172   1.071   0.275 -0.0317 -0.9098 -0.8786
15826SOL    HW149678   9.204   0.997   0.223 -0.6765 -0.9114 -1.2841
15826SOL    HW249679   9.157   1.034   0.362  1.0574 -0.9077 -0.6825
15827SOL     OW49680   4.573   5.230   6.681 -0.5306 -0.2000 -0.0154
15827SOL    HW149681   4.546   5.239   6.589  0.5398  0.3300 -0.2958
15827SOL    HW249682   4.609   5.316   6.703  2.7810 -1.3722 -0.2991
15828SOL     OW49683   4.666   3.510   0.261 -0.1295  0.0681 -0.3368
15828SOL    HW149684   4.578   3.500   0.225 -0.1402 -1.0389 -0.0514
15828SOL    HW249685   4.719   3.540   0.187 -0.1754 -2.0494 -1.3183
15829SOL     OW49686   3.458   0.892   5.758  0.0918  0.2240 -0.2957
15829SOL    HW149687   3.373   0.923   5.788 -1.4593  0.0370 -3.9130
15829SOL    HW249688   3.454   0.797   5.768  0.9041  0.3609  1.7159
15830SOL     OW49689   7.168   3.400   0.104 -0.4269 -0.4298 -0.4777
15830SOL    HW149690   7.255   3.364   0.117 -0.0772  0.4056 -0.4279
15830SOL    HW249691   7.182   3.495   0.097 -1.4388 -0.1733  0.6187
15831SOL     OW49692   7.388   8.846   4.944  0.8112  0.1387  0.4539
15831SOL    HW149693   7.387   8.880   4.854 -0.4806 -1.0281 -0.0053
15831SOL    HW249694   7.340   8.911   4.995  1.3391  0.6890  0.2561
15832SOL     OW49695   2.074   1.996   4.906 -0.2031  0.5263  0.3610
15832SOL    HW149696   2.088   2.088   4.888 -1.9721  0.6504 -0.6125
15832SOL    HW249697   2.144   1.972   4.967  1.3765  2.0266 -0.7778
15833SOL     OW49698   8.595   2.154   2.289 -0.0277 -0.1347  0.9909
15833SOL    HW149699   8.549   2.165   2.206 -1.4485 -1.5033  1.5596
15833SOL    HW249700   8.674   2.103   2.267 -1.0107 -1.5524  0.6336
15834SOL     OW49701   7.321   6.710   0.174  0.4600  0.0354 -0.4363
15834SOL    HW149702   7.282   6.798   0.175  1.3978  0.4653 -0.7193
15834SOL    HW249703   7.339   6.691   0.266 -1.6302 -0.7484 -0.1264
15835SOL     OW49704   3.040   4.556   0.420 -0.2167  0.6288 -0.3596
15835SOL    HW149705   2.987   4.574   0.342  0.5898  1.3069 -0.7638
15835SOL    HW249706   3.010   4.621   0.484 -1.4792 -0.4732  0.2101
15836SOL     OW49707   9.290   1.032   3.537  0.2159  0.0010 -0.3246
15836SOL    HW149708   9.333   1.007   3.619  0.9407 -0.2421 -0.7662
15836SOL    HW249709   9.280   1.127   3.543 -1.5464 -0.2219  0.8895
15837SOL     OW49710   6.108   3.780   3.016 -0.6064  0.3165  0.1793
15837SOL    HW149711   6.075   3.731   3.091 -0.8993  2.1061  1.2639
15837SOL    HW249712   6.046   3.760   2.946 -0.2538 -1.4830  0.3328
15838SOL     OW49713   6.275   3.238   0.088 -0.3757 -0.1367  0.3305
15838SOL    HW149714   6.238   3.325   0.078  1.3154  0.6604  0.5507
15838SOL    HW249715   6.317   3.239   0.174 -0.9458 -1.4322  0.6574
15839SOL     OW49716   2.149   4.485   7.481 -0.8273 -0.0310  0.1478
15839SOL    HW149717   2.103   4.445   7.554 -2.6679  0.6736 -0.5695
15839SOL    HW249718   2.169   4.412   7.422 -2.6763 -0.1489 -0.3740
15840SOL     OW49719   1.540   4.715   6.954  0.6326  0.0972 -0.2736
15840SOL    HW149720   1.552   4.773   7.029  1.1750  0.9837 -1.0226
15840SOL    HW249721   1.485   4.765   6.894  3.1010  0.9161 -2.0150
15841SOL     OW49722   1.722   0.326   4.422 -0.1236  0.1652 -0.7724
15841SOL    HW149723   1.631   0.318   4.449  0.0647  0.7058  0.0380
15841SOL    HW249724   1.772   0.293   4.497  0.4305  2.2856 -0.1372
15842SOL     OW49725   8.932   8.055   9.455  0.6806 -0.2220 -0.3526
15842SOL    HW149726   8.927   7.975   9.506 -0.0620 -0.8053 -1.3207
15842SOL    HW249727   9.019   8.052   9.414  0.9918 -0.0990  0.2772
15843SOL     OW49728   2.921   0.684   0.893  0.0875  0.0759  0.5718
15843SOL    HW149729   2.979   0.682   0.817  0.0440  0.9409  0.5096
15843SOL    HW249730   2.949   0.610   0.946 -0.4879 -1.1208 -0.7192
15844SOL     OW49731   5.596   6.146   7.362 -0.1914  0.1581  0.4889
15844SOL    HW149732   5.589   6.205   7.437  0.2217  0.8640 -0.0119
15844SOL    HW249733   5.688   6.118   7.363  0.2564  1.4544 -0.6726
15845SOL     OW49734   5.140   1.820   7.257  0.5046  0.2114  0.4014
15845SOL    HW149735   5.173   1.876   7.186  1.9659 -3.8273 -2.4346
15845SOL    HW249736   5.053   1.794   7.229 -0.9185  2.2133  2.5766
15846SOL     OW49737   1.135   9.283   0.443  0.0494 -0.1351  0.2910
15846SOL    HW149738   1.162   9.206   0.493  0.6860 -0.4533 -0.5324
15846SOL    HW249739   1.217   9.325   0.418 -0.2563  2.0352  2.5363
15847SOL     OW49740   9.046   7.981   7.546 -0.4251 -0.4607  0.2049
15847SOL    HW149741   9.048   8.074   7.522  1.2284 -0.3308  0.7661
15847SOL    HW249742   8.966   7.972   7.599 -0.1920  0.8132  0.8094
15848SOL     OW49743   6.205   4.730   4.985  0.2033 -0.2283  0.3087
15848SOL    HW149744   6.123   4.680   4.998  0.7848 -0.7325  2.5108
15848SOL    HW249745   6.270   4.663   4.963 -0.0669  0.2548 -2.1541
15849SOL     OW49746   1.780   3.901   7.139 -0.6325  0.1022 -0.2983
15849SOL    HW149747   1.827   3.967   7.190  0.1542 -1.2054  0.7542
15849SOL    HW249748   1.842   3.829   7.129 -0.8478  0.1856 -2.9593
15850SOL     OW49749   6.946   0.694   6.641 -0.0854  0.9241 -0.1505
15850SOL    HW149750   6.902   0.612   6.664  0.0776  1.1961  1.1980
15850SOL    HW249751   6.887   0.736   6.579 -0.2794 -0.1020 -0.6821
15851SOL     OW49752   7.327   2.011   0.882  0.0427 -0.0467 -0.1937
15851SOL    HW149753   7.389   1.980   0.947 -0.7469  2.3284  1.8835
15851SOL    HW249754   7.298   1.933   0.836  2.1193 -1.5871  0.9843
15852SOL     OW49755   8.725   1.388   3.330  0.3664 -0.2177 -0.2200
15852SOL    HW149756   8.638   1.363   3.360  0.6758 -0.4994  0.4692
15852SOL    HW249757   8.737   1.341   3.248 -0.6754  0.9145 -1.0533
15853SOL     OW49758   7.866   4.731   4.746  0.5422 -0.0611  0.1442
15853SOL    HW149759   7.814   4.805   4.776 -0.6031  0.1535 -2.1954
15853SOL    HW249760   7.956   4.757   4.760  0.1239  0.8324  1.3822
15854SOL     OW49761   5.434   0.820   8.819  0.0630  0.1936 -0.6265
15854SOL    HW149762   5.371   0.774   8.765 -1.7728 -0.4470  1.8568
15854SOL    HW249763   5.399   0.909   8.827 -1.4611 -0.5127  1.8598
15855SOL     OW49764   4.729   0.952   3.405 -0.3972  0.6488  0.2756
15855SOL    HW149765   4.716   0.966   3.311 -0.7669  2.2844  0.5266
15855SOL    HW249766   4.811   0.904   3.412 -0.0575  1.0301 -0.8734
15856SOL     OW49767   0.182   1.369   5.474 -0.3185 -0.5427  1.0191
15856SOL    HW149768   0.185   1.452   5.428 -1.1704  0.0476  1.9938
15856SOL    HW249769   0.227   1.386   5.557 -0.8630 -0.9347  1.4002
15857SOL     OW49770   0.489   4.679   8.233 -0.0147  0.4143 -0.2573
15857SOL    HW149771   0.472   4.638   8.148 -1.2166  0.2286  0.0609
15857SOL    HW249772   0.489   4.773   8.215 -0.6464  0.3876 -0.3986
15858SOL     OW49773   7.588   6.566   1.874 -0.1772 -0.3432  0.1381
15858SOL    HW149774   7.632   6.483   1.859  0.0510 -0.1175 -0.4894
15858SOL    HW249775   7.579   6.605   1.786 -2.6882 -0.9000  0.0772
15859SOL     OW49776   3.760   1.541   8.020  0.4331 -0.5744  0.5076
15859SOL    HW149777   3.712   1.520   8.100  0.3111 -0.3790  0.4884
15859SOL    HW249778   3.735   1.632   8.001  2.6344  0.3596  1.7850
15860SOL     OW49779   9.133   5.440   4.939 -0.5352  0.5601 -0.1014
15860SOL    HW149780   9.168   5.418   4.852  0.3979  0.4644  0.2875
15860SOL    HW249781   9.098   5.358   4.973  0.2305  0.3189  0.1185
15861SOL     OW49782   2.334   6.948   6.497  0.1542 -0.2895  0.1293
15861SOL    HW149783   2.361   6.955   6.589  0.1969 -1.5464  0.2360
15861SOL    HW249784   2.238   6.953   6.500  0.1889  0.6351  0.1227
15862SOL     OW49785   6.585   4.427   1.997  0.4297 -0.2664 -0.3492
15862SOL    HW149786   6.539   4.510   1.985 -1.0496 -0.4505  2.9507
15862SOL    HW249787   6.582   4.385   1.911 -1.1349  1.9171 -1.4604
15863SOL     OW49788   2.628   7.810   1.424 -0.1183 -0.0304  0.1204
15863SOL    HW149789   2.677   7.754   1.364  1.2004  1.1018  0.0775
15863SOL    HW249790   2.540   7.815   1.386  0.1915 -0.7739 -0.7283
15864SOL     OW49791   1.914   5.394   0.091 -0.2006  0.1143 -0.1113
15864SOL    HW149792   1.951   5.379   0.178 -0.4471 -0.4197 -0.0966
15864SOL    HW249793   1.989   5.391   0.032 -0.0913  0.0459  0.0307
15865SOL     OW49794   1.472   2.907   8.772 -0.2069 -0.1986  0.0095
15865SOL    HW149795   1.439   2.973   8.833 -1.1320 -1.1753  0.6027
15865SOL    HW249796   1.514   2.957   8.702  2.5753  0.9349  2.3060
15866SOL     OW49797   0.995   4.798   5.939 -0.2969  0.2064 -0.9225
15866SOL    HW149798   0.948   4.805   5.856 -0.0582  1.0812 -0.9987
15866SOL    HW249799   1.087   4.791   5.914 -0.2884 -0.3824 -0.7453
15867SOL     OW49800   5.120   3.402   5.126  0.3862 -0.0574  0.4346
15867SOL    HW149801   5.178   3.431   5.055 -0.4574 -0.8518 -0.6199
15867SOL    HW249802   5.032   3.406   5.088  0.0787 -2.4790  0.7117
15868SOL     OW49803   1.492   3.905   2.605 -0.3560 -0.9936  0.0496
15868SOL    HW149804   1.570   3.887   2.659 -0.2589 -2.7940 -0.6418
15868SOL    HW249805   1.425   3.847   2.640 -1.4254  0.5232  0.6158
15869SOL     OW49806   2.370   4.633   8.144 -0.3435 -0.3079 -0.3538
15869SOL    HW149807   2.309   4.615   8.073 -1.1463 -0.6915  0.4016
15869SOL    HW249808   2.393   4.725   8.135 -2.2222  0.2596  0.2020
15870SOL     OW49809   8.341   5.567   7.576  0.1881 -0.0710 -0.3052
15870SOL    HW149810   8.362   5.544   7.667  0.0769 -0.6251 -0.4192
15870SOL    HW249811   8.288   5.646   7.583 -0.6419 -0.6597  0.1613
15871SOL     OW49812   7.130   6.502   4.261 -0.3015 -0.4309 -0.5229
15871SOL    HW149813   7.187   6.429   4.284  0.5806 -0.1306 -1.6592
15871SOL    HW249814   7.042   6.465   4.261  0.0026 -1.1722  0.1599
15872SOL     OW49815   4.942   4.312   1.147 -0.3653  0.2619  0.6699
15872SOL    HW149816   4.863   4.359   1.120 -0.3431  0.2423  0.5705
15872SOL    HW249817   4.949   4.330   1.240 -0.4613  0.3025  0.6704
15873SOL     OW49818   2.068   0.532   6.831 -0.4201 -0.0072  0.0055
15873SOL    HW149819   2.003   0.492   6.773 -1.4233  0.7888  0.5722
15873SOL    HW249820   2.064   0.626   6.811  1.6402 -0.0855 -1.0364
15874SOL     OW49821   0.984   3.662   1.952  0.5005 -0.3099  0.3579
15874SOL    HW149822   0.966   3.711   1.872  0.8956  0.1043  0.5184
15874SOL    HW249823   1.047   3.594   1.924  0.0838 -0.6226  0.1719
15875SOL     OW49824   9.575   5.358   5.540  0.5214 -0.4781  0.5170
15875SOL    HW149825   9.642   5.418   5.572  0.8590 -1.3820  1.5674
15875SOL    HW249826   9.621   5.299   5.481  0.1281  0.4651 -0.7584
15876SOL     OW49827   7.587   8.873   5.703  0.5063  0.4617 -0.5002
15876SOL    HW149828   7.542   8.879   5.788 -1.9514  0.2622 -1.6932
15876SOL    HW249829   7.542   8.802   5.658  1.4972  0.8404 -2.1310
15877SOL     OW49830   0.041   1.561   0.645  0.0373 -0.3309  0.5949
15877SOL    HW149831   0.128   1.587   0.673  0.1654  1.7155 -1.4246
15877SOL    HW249832   0.046   1.466   0.632  1.5139 -0.4499  1.8564
15878SOL     OW49833   6.740   2.462   2.075  0.0075  0.2483  0.4509
15878SOL    HW149834   6.742   2.549   2.033  0.1204  0.0906  0.1231
15878SOL    HW249835   6.771   2.478   2.164 -0.6190  0.6549  0.5991
15879SOL     OW49836   0.693   2.378   2.181 -0.1713 -0.2004  0.0339
15879SOL    HW149837   0.607   2.346   2.153  0.0209  0.0719 -0.8987
15879SOL    HW249838   0.701   2.347   2.271 -1.1050 -0.5141  0.0265
15880SOL     OW49839   1.343   7.329   8.001  0.2763 -0.4466  0.0828
15880SOL    HW149840   1.420   7.342   8.056  0.0638 -0.3869  0.3698
15880SOL    HW249841   1.277   7.292   8.060 -0.5850  1.4154  0.3707
15881SOL     OW49842   5.422   5.865   4.933  0.7790 -0.0376  0.4534
15881SOL    HW149843   5.379   5.780   4.920 -1.1454  1.0334 -0.6197
15881SOL    HW249844   5.373   5.906   5.004  0.3452  0.9962 -0.4285
15882SOL     OW49845   4.340   6.431   3.370  0.4191  0.0498  0.3236
15882SOL    HW149846   4.309   6.397   3.454 -0.7990  0.1302 -0.0689
15882SOL    HW249847   4.407   6.368   3.343 -0.8942 -1.3919  0.2188
15883SOL     OW49848   3.632   3.852   7.736 -0.1896 -0.0918 -0.6558
15883SOL    HW149849   3.549   3.897   7.751  0.9173  1.3524  1.4533
15883SOL    HW249850   3.621   3.766   7.778 -0.6559  0.0220 -0.5420
15884SOL     OW49851   4.058   7.628   3.263  0.0088 -0.2147  0.2838
15884SOL    HW149852   4.114   7.700   3.234 -0.1746 -0.8074 -1.6998
15884SOL    HW249853   3.969   7.664   3.262 -0.0825 -0.4420 -0.7050
15885SOL     OW49854   5.015   6.802   8.253  0.0444  0.4354  0.0960
15885SOL    HW149855   5.052   6.779   8.167 -0.8348  1.4924 -0.6023
15885SOL    HW249856   5.005   6.719   8.298 -0.0271 -0.2164 -1.0780
15886SOL     OW49857   4.088   2.567   5.192 -0.0454  0.4955 -0.3286
15886SOL    HW149858   4.110   2.479   5.163 -0.1036  0.5446 -0.5225
15886SOL    HW249859   4.165   2.620   5.172  0.8476  0.0801  1.7027
15887SOL     OW49860   7.796   3.970   1.117 -0.5488 -0.2199  0.5346
15887SOL    HW149861   7.835   4.011   1.040 -1.3569 -1.8323 -0.8009
15887SOL    HW249862   7.727   4.030   1.145  0.0783  0.6125  0.3294
15888SOL     OW49863   0.721   1.620   2.516 -0.2418  0.3892  0.3135
15888SOL    HW149864   0.718   1.547   2.579 -1.3767  0.4104  0.3035
15888SOL    HW249865   0.630   1.642   2.501  0.0794  1.4796 -0.0981
15889SOL     OW49866   5.248   7.940   1.376  0.8922  0.1420 -0.0494
15889SOL    HW149867   5.221   7.990   1.453 -0.2762 -1.5261  0.6958
15889SOL    HW249868   5.319   7.884   1.408  1.2112  0.2803 -0.5028
15890SOL     OW49869   1.878   2.612   4.726  0.0654  0.4899  0.5475
15890SOL    HW149870   1.848   2.528   4.761  1.2268  0.2012  0.8959
15890SOL    HW249871   1.899   2.593   4.634  0.5066  0.3484  0.6758
15891SOL     OW49872   2.126   0.344   9.485 -0.9149 -0.1345  0.7362
15891SOL    HW149873   2.173   0.337   9.401 -2.1592  1.4187 -0.1472
15891SOL    HW249874   2.193   0.330   9.551  0.6254  1.0679 -0.4835
15892SOL     OW49875   5.524   6.492   4.601  0.4019  0.1631 -0.0373
15892SOL    HW149876   5.493   6.434   4.532 -1.4158  1.0313 -0.0047
15892SOL    HW249877   5.602   6.533   4.564 -0.2105  0.1844 -1.3754
15893SOL     OW49878   7.243   6.247   0.891 -0.1043  0.2812 -0.0779
15893SOL    HW149879   7.257   6.153   0.905 -1.6878 -0.2928 -1.8894
15893SOL    HW249880   7.262   6.287   0.976  2.4506 -1.4251  0.2470
15894SOL     OW49881   7.777   2.893   5.357 -0.2190 -0.2157  0.0812
15894SOL    HW149882   7.794   2.846   5.439 -1.9132 -0.2056  0.4655
15894SOL    HW249883   7.687   2.923   5.364 -0.1633  0.4258 -1.4915
15895SOL     OW49884   6.158   6.960   5.954  0.7062 -0.0553  0.0816
15895SOL    HW149885   6.155   6.982   6.047  1.0017 -1.1457  0.3654
15895SOL    HW249886   6.180   6.867   5.953 -1.2123 -0.5289 -1.0314
15896SOL     OW49887   3.717   2.347   5.076  0.3599  0.0313 -0.0431
15896SOL    HW149888   3.657   2.273   5.064  1.0014 -0.7309  1.3122
15896SOL    HW249889   3.720   2.362   5.171  2.7926 -0.3766  0.0147
15897SOL     OW49890   7.290   4.996   8.624  0.7931 -0.4320  0.0677
15897SOL    HW149891   7.383   4.998   8.604  0.4602  0.8034 -1.6983
15897SOL    HW249892   7.247   5.011   8.539 -0.9136  1.8743  1.1932
15898SOL     OW49893   3.116   1.579   0.405  0.2506 -0.5270  0.2086
15898SOL    HW149894   3.035   1.600   0.359  0.1141  0.2843  0.7921
15898SOL    HW249895   3.101   1.608   0.495  1.0890 -0.6134  0.3856
15899SOL     OW49896   8.356   3.059   1.877  0.0794  0.2621 -0.1261
15899SOL    HW149897   8.380   3.026   1.790 -0.0747 -0.9549  0.2751
15899SOL    HW249898   8.290   2.998   1.908 -0.3518  1.0747  0.5811
15900SOL     OW49899   3.862   5.496   5.576 -0.5163 -0.1415  0.3575
15900SOL    HW149900   3.876   5.488   5.481  2.6935  0.4240  0.6821
15900SOL    HW249901   3.881   5.409   5.610  0.0385  0.0821  0.6258
15901SOL     OW49902   0.499   3.321   0.133 -0.3053  0.0431  0.1189
15901SOL    HW149903   0.422   3.315   0.189 -0.0649 -1.3378  0.3157
15901SOL    HW249904   0.505   3.236   0.089  0.6492  0.4073 -0.5085
15902SOL     OW49905   2.132   9.394   3.770  0.0687 -0.1793 -0.4238
15902SOL    HW149906   2.104   9.428   3.685 -2.3413 -1.3761 -0.1885
15902SOL    HW249907   2.068   9.326   3.791  1.6506 -1.1642  1.5417
15903SOL     OW49908   4.266   0.373   0.050  0.2643  0.4662 -0.1700
15903SOL    HW149909   4.193   0.362  -0.011 -1.2093  0.4065  1.5260
15903SOL    HW249910   4.298   0.284   0.067 -1.8154  0.0387  1.9821
15904SOL     OW49911   1.130   1.717   4.483 -0.0478 -0.6602  0.2121
15904SOL    HW149912   1.110   1.637   4.531 -0.4493 -0.8248 -0.2120
15904SOL    HW249913   1.102   1.788   4.540 -0.7088 -0.8583  0.1493
15905SOL     OW49914   5.295   2.143   8.963 -0.1734  0.1903  0.1758
15905SOL    HW149915   5.254   2.218   9.006 -0.8140 -0.0796  0.0449
15905SOL    HW249916   5.358   2.110   9.027  0.2593  0.9631  0.1522
15906SOL     OW49917   3.403   0.879   3.410  0.5891  0.2273 -0.5523
15906SOL    HW149918   3.394   0.964   3.367  1.7376  0.1754 -0.9390
15906SOL    HW249919   3.440   0.822   3.343  0.7015 -0.3272 -0.0258
15907SOL     OW49920   2.972   3.906   3.132 -0.3589  0.2966  0.0472
15907SOL    HW149921   2.924   3.873   3.055  0.3644  0.4852 -0.4957
15907SOL    HW249922   3.057   3.861   3.128 -0.6317 -0.3807  1.2524
15908SOL     OW49923   4.600   6.262   9.274  0.2302  0.7197  0.2978
15908SOL    HW149924   4.515   6.284   9.313 -0.2284  0.5902 -0.5932
15908SOL    HW249925   4.589   6.173   9.241 -0.5759  1.9295 -3.1099
15909SOL     OW49926   8.609   0.943   2.421  0.2832  0.1992  0.1979
15909SOL    HW149927   8.694   0.963   2.383  1.6687 -1.5027  2.2297
15909SOL    HW249928   8.575   1.029   2.449  1.5553  0.8480 -0.1512
15910SOL     OW49929   3.904   1.728   9.356  0.1681 -0.4285  0.9744
15910SOL    HW149930   3.914   1.696   9.446  1.5655 -0.5906  0.7755
15910SOL    HW249931   3.934   1.819   9.360 -0.3597 -0.2387  0.7833
15911SOL     OW49932   8.829   9.578   4.120  0.3874 -0.3341 -0.2548
15911SOL    HW149933   8.899   9.586   4.184 -0.6410 -1.0272  1.0165
15911SOL    HW249934   8.800   9.667   4.104 -0.7732 -0.2547  1.9454
15912SOL     OW49935   8.282   5.867   3.615 -0.3322  0.2651 -0.9110
15912SOL    HW149936   8.212   5.802   3.626 -1.5242  1.6427 -0.0530
15912SOL    HW249937   8.264   5.907   3.530  0.9658 -1.1207 -1.8930
15913SOL     OW49938   6.131   5.407   1.581  0.4516  0.4244  0.2271
15913SOL    HW149939   6.145   5.466   1.656  0.8369 -0.1760  0.6378
15913SOL    HW249940   6.201   5.342   1.589  2.5176  2.1227 -2.4404
15914SOL     OW49941   1.076   6.702   1.522 -0.1691 -0.6846  0.7287
15914SOL    HW149942   0.987   6.673   1.503  0.4269 -1.6496 -0.7213
15914SOL    HW249943   1.066   6.793   1.551 -1.7478 -1.2461  2.0501
15915SOL     OW49944   3.780   8.824   9.436 -0.5517  0.2414 -0.4127
15915SOL    HW149945   3.698   8.821   9.484 -0.3968 -1.4431 -0.1624
15915SOL    HW249946   3.835   8.758   9.479  0.0042 -0.4834 -2.1424
15916SOL     OW49947   0.000   3.372   4.499  0.2114  0.3604 -0.1178
15916SOL    HW149948  -0.071   3.374   4.563 -1.3644 -2.2684 -1.6228
15916SOL    HW249949   0.023   3.465   4.485 -1.3423  1.1375  2.0667
15917SOL     OW49950   1.218   7.012   5.359 -0.0157  0.6051  0.1619
15917SOL    HW149951   1.284   7.014   5.428 -1.7905  1.5648  1.9306
15917SOL    HW249952   1.235   6.931   5.311  0.9830 -0.3525  2.0420
15918SOL     OW49953   3.491   7.271   0.176  0.5567  0.4177  0.3620
15918SOL    HW149954   3.583   7.248   0.166  0.6659  1.5550 -1.8787
15918SOL    HW249955   3.492   7.366   0.187 -0.3888  0.6345 -1.1752
15919SOL     OW49956   4.324   9.188   2.627 -0.1725 -0.0493  0.1674
15919SOL    HW149957   4.282   9.110   2.665  2.0078 -0.5111  1.8675
15919SOL    HW249958   4.376   9.224   2.699  2.0961  0.5991 -1.6696
15920SOL     OW49959   5.284   8.098   0.807 -0.1095  0.3540  0.0725
15920SOL    HW149960   5.279   8.011   0.767 -1.8398 -0.0131  1.0011
15920SOL    HW249961   5.214   8.147   0.764 -1.1787  0.3237  1.7171
15921SOL     OW49962   2.681   1.650   7.407 -0.1202  0.2821 -0.1687
15921SOL    HW149963   2.692   1.739   7.374  0.2886  0.7724  1.1958
15921SOL    HW249964   2.699   1.593   7.332  0.7944  1.3303 -0.7690
15922SOL     OW49965   9.325   6.556   9.197 -0.0711  0.1762  0.1723
15922SOL    HW149966   9.231   6.554   9.214  0.1496 -1.1544  1.4719
15922SOL    HW249967   9.351   6.464   9.199  1.6077  0.6224  2.1585
15923SOL     OW49968   1.587   2.334   3.867 -0.0437  0.0971 -0.3111
15923SOL    HW149969   1.526   2.369   3.933  0.5797 -1.3731  1.1210
15923SOL    HW249970   1.651   2.404   3.855  1.1131 -0.3391  2.4082
15924SOL     OW49971   9.094   5.608   1.096  0.5877 -0.0924  0.1873
15924SOL    HW149972   9.064   5.547   1.163 -0.2589 -1.6735 -1.5640
15924SOL    HW249973   9.185   5.627   1.120  0.0740  0.0302  2.1963
15925SOL     OW49974   8.922   2.166   9.476  0.2049  0.0075 -0.3114
15925SOL    HW149975   8.999   2.201   9.430  0.7081  0.5825  0.9172
15925SOL    HW249976   8.865   2.135   9.406 -0.0776  2.8638 -1.4998
15926SOL     OW49977   1.654   0.073   9.037 -0.6912  0.3146 -1.1139
15926SOL    HW149978   1.684   0.157   9.002 -0.6620  0.1308 -1.5494
15926SOL    HW249979   1.563   0.087   9.060 -0.1976  0.9828  0.5595
15927SOL     OW49980   6.963   5.595   0.752 -0.5155  0.0904  0.2017
15927SOL    HW149981   6.912   5.658   0.702 -2.8719 -1.2640  0.7224
15927SOL    HW249982   6.898   5.532   0.785  1.4993 -1.7195  1.0022
15928SOL     OW49983   0.103   3.638   6.820  0.2199  0.4938 -0.6683
15928SOL    HW149984   0.043   3.588   6.875 -2.4596  0.6898 -3.1804
15928SOL    HW249985   0.123   3.716   6.871 -0.0125 -0.4967  1.0254
15929SOL     OW49986   5.153   8.102   7.443  0.1420 -0.2840 -0.4248
15929SOL    HW149987   5.155   8.017   7.487  0.8869 -1.0074 -1.7862
15929SOL    HW249988   5.142   8.166   7.514 -0.2052 -1.4862  0.6421
15930SOL     OW49989   6.083   0.518   8.079  0.4013  0.3595  0.4846
15930SOL    HW149990   5.992   0.540   8.058  0.6527  0.3910 -0.5980
15930SOL    HW249991   6.076   0.437   8.131 -0.1870 -0.3655 -0.6764
15931SOL     OW49992   4.397   1.763   1.698  0.1152  0.1052  0.1918
15931SOL    HW149993   4.453   1.742   1.773  2.1754 -0.3464 -1.3778
15931SOL    HW249994   4.309   1.769   1.735  1.1608  0.8276  2.7931
15932SOL     OW49995   4.839   0.517   5.271  0.0527 -0.4646  0.1737
15932SOL    HW149996   4.832   0.436   5.220 -0.8796 -0.8700  0.9197
15932SOL    HW249997   4.775   0.507   5.341  1.4326  0.0133  1.5480
15933SOL     OW49998   0.774   2.115   2.488 -0.1187  0.5529 -0.5203
15933SOL    HW149999   0.833   2.108   2.563  0.3067 -0.5113 -0.9313
15933SOL    HW250000   0.723   2.195   2.505  2.0651  2.0664 -0.6164
15934SOL     OW50001   1.440   2.342   2.723 -0.9716 -0.6474  0.4465
15934SOL    HW150002   1.376   2.413   2.734 -0.4178 -0.1488  0.5180
15934SOL    HW250003   1.409   2.273   2.781  1.0800  1.3395  4.3275
15935SOL     OW50004   7.839   1.188   0.205 -0.6650  0.0605  0.1569
15935SOL    HW150005   7.927   1.193   0.168  0.3324  0.0647  2.3524
15935SOL    HW250006   7.781   1.216   0.134  1.1136  0.2729 -1.2778
15936SOL     OW50007   4.090   6.138   5.808 -0.3801  0.4264 -0.6230
15936SOL    HW150008   4.070   6.216   5.757 -0.1667  2.0135  1.5464
15936SOL    HW250009   4.008   6.115   5.852 -0.0939  0.3584 -0.1075
15937SOL     OW50010   6.784   3.315   8.452  0.0458 -0.4317  0.5714
15937SOL    HW150011   6.729   3.241   8.479 -2.2892  0.4324 -1.4028
15937SOL    HW250012   6.837   3.281   8.380  0.2335 -0.6049  0.7894
15938SOL     OW50013   6.433   2.219   5.680  0.2646 -0.2951 -0.0034
15938SOL    HW150014   6.404   2.138   5.638 -1.1576 -0.0679  0.4978
15938SOL    HW250015   6.524   2.202   5.704  0.0358 -1.6994 -0.0477
15939SOL     OW50016   8.959   1.965   5.945  0.5300  0.1176 -0.7319
15939SOL    HW150017   8.999   2.006   6.022  1.9082 -0.2116 -1.2495
15939SOL    HW250018   9.028   1.911   5.908  0.3866  1.4175 -3.0726
15940SOL     OW50019   9.001   8.028   8.597  0.2109  0.0374 -0.3449
15940SOL    HW150020   9.077   7.982   8.632  0.1835 -0.4255 -0.8734
15940SOL    HW250021   8.996   8.000   8.506 -1.8779 -1.7189  0.2189
15941SOL     OW50022   1.855   7.283   3.578  0.0250  0.0659 -0.3695
15941SOL    HW150023   1.871   7.349   3.510  0.4333  0.0977 -0.2431
15941SOL    HW250024   1.798   7.219   3.535 -3.0446  2.0754  0.4399
15942SOL     OW50025   3.264   7.525   7.633  0.0938 -0.2780 -0.3008
15942SOL    HW150026   3.178   7.530   7.590 -1.4085 -1.6332  2.3330
15942SOL    HW250027   3.247   7.482   7.717  3.4758 -1.1098  0.1019
15943SOL     OW50028   7.717   3.767   8.966 -0.3820 -0.0803  0.1690
15943SOL    HW150029   7.793   3.824   8.976 -0.6636  0.0691  1.5413
15943SOL    HW250030   7.752   3.678   8.974 -0.3395 -0.0130  0.7534
15944SOL     OW50031   0.229   6.435   4.005  0.3775 -0.2263 -0.8721
15944SOL    HW150032   0.262   6.487   3.932  1.9183  0.7277  0.4212
15944SOL    HW250033   0.187   6.498   4.063  1.6096 -0.4702  0.3589
15945SOL     OW50034   7.984   6.848   8.004  0.2358  0.6921  0.0301
15945SOL    HW150035   7.965   6.791   8.079  1.2367 -1.2170 -1.0791
15945SOL    HW250036   7.900   6.858   7.960 -0.4209  2.0468  1.4758
15946SOL     OW50037   0.703   7.525   3.962  0.5414  0.3012  0.4714
15946SOL    HW150038   0.660   7.457   4.014  0.5353  0.7553  1.0722
15946SOL    HW250039   0.752   7.476   3.895 -0.4025 -0.2393  0.1648
15947SOL     OW50040   7.593   8.793   4.125  0.0621  0.0083 -0.5520
15947SOL    HW150041   7.618   8.773   4.215  0.0824  1.9581 -0.0823
15947SOL    HW250042   7.533   8.722   4.101 -1.1120  0.2227  1.5269
15948SOL     OW50043   8.639   0.864   6.720  0.2052 -0.3397  0.6012
15948SOL    HW150044   8.634   0.776   6.758  0.7597  0.3417  2.3610
15948SOL    HW250045   8.710   0.907   6.768  0.2273  0.9380 -0.5232
15949SOL     OW50046   4.132   6.636   6.831  0.4938 -0.2326 -0.7114
15949SOL    HW150047   4.117   6.682   6.749  0.4489 -0.7390 -0.9889
15949SOL    HW250048   4.225   6.613   6.829 -0.1582 -3.0906 -2.1237
15950SOL     OW50049   3.859   2.862   3.776  0.4703 -0.2098  0.8846
15950SOL    HW150050   3.843   2.930   3.841  3.1749 -0.3148  1.7702
15950SOL    HW250051   3.879   2.784   3.827  0.0812 -0.9848 -0.1136
15951SOL     OW50052   0.682   4.295   8.053 -0.1005  0.2088  0.6619
15951SOL    HW150053   0.725   4.299   8.138  0.2689 -0.9981  0.5607
15951SOL    HW250054   0.595   4.332   8.068  0.1424  0.4829  1.4347
15952SOL     OW50055   2.962   4.082   7.709  0.0931  0.3723  0.3031
15952SOL    HW150056   2.892   4.074   7.645  0.8250 -0.3446 -0.4360
15952SOL    HW250057   2.917   4.081   7.794 -0.7370 -1.3450 -0.0978
15953SOL     OW50058   1.694   2.062   0.734  0.1094  0.2844 -0.2724
15953SOL    HW150059   1.683   2.156   0.743  0.9597  0.4365 -0.6826
15953SOL    HW250060   1.617   2.024   0.775 -1.0796  1.1950 -1.5812
15954SOL     OW50061   6.914   6.491   8.809 -0.5254 -0.1105  0.4269
15954SOL    HW150062   6.863   6.572   8.808 -0.2425  0.0755  0.5705
15954SOL    HW250063   6.928   6.469   8.717  0.5066  0.7264  0.3583
15955SOL     OW50064   6.603   5.446   7.848 -0.5345  0.3644  0.1609
15955SOL    HW150065   6.652   5.498   7.785 -0.6120  1.8542  1.2770
15955SOL    HW250066   6.565   5.374   7.796  2.1046 -0.3853 -0.8680
15956SOL     OW50067   4.032   8.648   4.525  0.4716 -0.1704 -0.4604
15956SOL    HW150068   4.115   8.677   4.564  0.0713 -0.6869  0.8449
15956SOL    HW250069   4.057   8.614   4.439  1.2411  2.0951 -1.2301
15957SOL     OW50070   6.396   0.493   3.353 -0.4261  0.1144  0.4652
15957SOL    HW150071   6.361   0.553   3.419 -1.6383 -0.1588  0.0922
15957SOL    HW250072   6.454   0.547   3.300  1.1436  0.2001  2.1360
15958SOL     OW50073   3.986   1.785   4.437 -0.1369  0.0486  0.1341
15958SOL    HW150074   3.954   1.779   4.348  1.6198  0.4620 -0.5783
15958SOL    HW250075   3.908   1.802   4.490 -1.1916 -0.0840 -1.3206
15959SOL     OW50076   8.522   9.233   6.622 -0.3236  0.6731 -0.1656
15959SOL    HW150077   8.600   9.193   6.585 -1.1234  0.2583 -1.4763
15959SOL    HW250078   8.548   9.322   6.645  0.9105  0.0939  0.8211
15960SOL     OW50079   8.209   2.900   1.079 -0.0526  0.4570 -0.2524
15960SOL    HW150080   8.249   2.818   1.051  0.2536  0.0828  1.2059
15960SOL    HW250081   8.116   2.879   1.091  0.0662  0.2533  0.3426
15961SOL     OW50082   5.361   9.475   7.021  0.1463  0.2240 -0.1213
15961SOL    HW150083   5.284   9.419   7.025  0.3086  0.0349  0.6308
15961SOL    HW250084   5.350   9.527   6.942  0.4759 -1.5765 -1.4074
15962SOL     OW50085   1.733   9.326   6.246  0.3002 -0.2593 -0.1750
15962SOL    HW150086   1.807   9.268   6.266  2.0658  1.8804 -0.0456
15962SOL    HW250087   1.702   9.355   6.332  1.6307  1.5079 -0.2352
15963SOL     OW50088   1.005   6.709   0.567 -0.2001  0.2862 -0.1082
15963SOL    HW150089   1.020   6.792   0.612 -0.1951  0.2721 -0.0845
15963SOL    HW250090   0.936   6.666   0.618  1.4792 -0.8336  1.3362
15964SOL     OW50091   7.540   4.820   3.133 -0.0743  0.1961 -0.1814
15964SOL    HW150092   7.600   4.805   3.060  0.2712  1.5387 -0.2100
15964SOL    HW250093   7.453   4.824   3.093 -0.0279 -0.3375 -0.3385
15965SOL     OW50094   5.443   8.275   2.524 -0.4588 -0.1973 -0.2103
15965SOL    HW150095   5.454   8.348   2.464 -1.1175 -0.4617 -0.6733
15965SOL    HW250096   5.389   8.310   2.595  2.0727  0.7340  1.3984
15966SOL     OW50097   0.883   8.901   0.430  0.3850  0.4004  0.4748
15966SOL    HW150098   0.881   8.820   0.378  1.7990 -1.3805  2.9451
15966SOL    HW250099   0.945   8.957   0.384  0.1103 -0.2911 -0.7956
15967SOL     OW50100   0.770   1.079   9.120 -0.2962 -0.1493 -0.2357
15967SOL    HW150101   0.704   1.010   9.119  0.7723 -1.2701  1.3461
15967SOL    HW250102   0.748   1.135   9.046 -3.1566 -0.3294  0.3638
15968SOL     OW50103   4.646   7.427   0.739  0.6300  0.1178 -0.0743
15968SOL    HW150104   4.626   7.418   0.832  0.6901 -0.1745 -0.0884
15968SOL    HW250105   4.595   7.504   0.711  0.9367  0.4560  0.2863
15969SOL     OW50106   5.144   6.933   9.462 -0.4371 -0.2705 -0.4306
15969SOL    HW150107   5.197   7.005   9.497  0.3861 -0.2993 -1.5648
15969SOL    HW250108   5.181   6.854   9.501 -0.0670 -0.2293 -0.6874
15970SOL     OW50109   1.134   6.486   4.640  0.0312  0.1299 -0.9518
15970SOL    HW150110   1.190   6.415   4.674 -0.2888  1.2962  2.3300
15970SOL    HW250111   1.055   6.481   4.693 -0.2422  2.5427 -1.0572
15971SOL     OW50112   3.634   1.624   7.036 -0.5999 -0.1278  0.1698
15971SOL    HW150113   3.699   1.685   7.070  0.0766  0.7614 -2.5084
15971SOL    HW250114   3.556   1.639   7.090  0.7037  0.3337  2.0217
15972SOL     OW50115   0.195   8.121   5.778  0.3433 -0.2288 -0.2869
15972SOL    HW150116   0.158   8.176   5.709 -0.3020 -0.0304  0.2033
15972SOL    HW250117   0.277   8.164   5.801 -0.8016  1.3686  1.0642
15973SOL     OW50118   6.586   5.163   2.230 -0.1740 -0.0673 -0.2141
15973SOL    HW150119   6.551   5.076   2.249 -0.3549  0.5457  2.8953
15973SOL    HW250120   6.647   5.150   2.157 -1.4742 -2.4374 -0.9920
15974SOL     OW50121   0.368   1.671   2.503  0.0478 -0.2317 -0.0648
15974SOL    HW150122   0.273   1.680   2.503  0.1901  1.5563 -0.0067
15974SOL    HW250123   0.400   1.750   2.460  1.5662 -0.2012  1.0289
15975SOL     OW50124   5.070   4.629   2.253 -0.0110  0.4585 -0.3041
15975SOL    HW150125   4.974   4.628   2.254 -0.0191 -1.2318  0.0863
15975SOL    HW250126   5.095   4.638   2.345  0.1555 -1.2256 -0.1451
15976SOL     OW50127   8.450   6.258   2.378  0.1609 -0.1505 -0.7245
15976SOL    HW150128   8.388   6.315   2.423  0.2864 -1.2450  0.8944
15976SOL    HW250129   8.414   6.249   2.290 -2.2858 -1.1591  0.3050
15977SOL     OW50130   8.702   2.937   5.861 -0.6069  0.4232  0.0079
15977SOL    HW150131   8.777   2.988   5.830  0.6911 -0.8162  1.0029
15977SOL    HW250132   8.635   3.002   5.882  1.0580  1.7423  1.4121
15978SOL     OW50133   1.945   4.283   2.954  0.1653  0.6061 -0.5793
15978SOL    HW150134   2.034   4.283   2.990  0.3237  1.0020 -0.9721
15978SOL    HW250135   1.892   4.243   3.023  0.7386 -0.1656 -0.5761
15979SOL     OW50136   3.229   0.169   8.575 -0.1609 -0.1793 -0.4817
15979SOL    HW150137   3.255   0.261   8.575  0.7440 -0.4024  1.5058
15979SOL    HW250138   3.291   0.127   8.515  0.2411  0.2912 -0.4050
15980SOL     OW50139   6.396   2.391   7.357 -0.2636 -0.0796 -0.3678
15980SOL    HW150140   6.399   2.332   7.281  1.4622  0.2264 -0.5946
15980SOL    HW250141   6.319   2.445   7.343 -0.6882 -0.8867 -1.2445
15981SOL     OW50142   9.053   8.174   3.091 -0.4791  0.4785  0.5316
15981SOL    HW150143   9.008   8.099   3.130  1.4095 -2.2299 -1.9974
15981SOL    HW250144   8.995   8.248   3.107 -2.4825 -1.4442  3.2229
15982SOL     OW50145   5.602   5.598   1.201  0.1971 -0.3144 -0.4867
15982SOL    HW150146   5.593   5.622   1.108 -1.0588  0.8998 -0.0847
15982SOL    HW250147   5.540   5.655   1.246 -0.2877 -1.9078  0.9531
15983SOL     OW50148   1.680   3.275   2.532  0.4973  0.2675 -0.3217
15983SOL    HW150149   1.588   3.290   2.510  0.2043  1.4049  1.5054
15983SOL    HW250150   1.683   3.280   2.627  2.3647 -0.3872 -0.3091
15984SOL     OW50151   0.538   2.091   7.195 -0.2135 -0.1566 -0.0140
15984SOL    HW150152   0.499   2.026   7.255  0.8627  0.5225  1.4887
15984SOL    HW250153   0.573   2.039   7.124 -0.5775 -1.1083  0.4766
15985SOL     OW50154   6.125   9.155   4.290  0.5113  0.0214  0.1125
15985SOL    HW150155   6.090   9.069   4.315  0.9236 -0.6238 -1.4443
15985SOL    HW250156   6.078   9.217   4.347 -2.9037 -0.8347 -1.4852
15986SOL     OW50157   6.590   4.474   8.570 -0.1121 -0.3242  0.6747
15986SOL    HW150158   6.612   4.382   8.583 -1.8481 -0.8316  0.4179
15986SOL    HW250159   6.668   4.513   8.531 -0.0042 -2.1538 -1.0758
15987SOL     OW50160   7.313   0.130   1.383  0.1659  0.5679 -0.2529
15987SOL    HW150161   7.286   0.218   1.411 -0.5424  0.3940 -0.3685
15987SOL    HW250162   7.402   0.142   1.350 -0.2142  1.4035 -1.0247
15988SOL     OW50163   5.466   0.527   8.620 -0.0129 -0.0760  0.5052
15988SOL    HW150164   5.491   0.442   8.657 -0.3261 -0.6495 -0.5422
15988SOL    HW250165   5.371   0.523   8.614 -0.0346  0.3913  0.5407
15989SOL     OW50166   1.637   0.316   2.827 -0.1503  0.1152 -0.1937
15989SOL    HW150167   1.708   0.377   2.809  0.2385 -0.6898 -1.4720
15989SOL    HW250168   1.679   0.230   2.831 -0.9621 -0.3006 -0.3573
15990SOL     OW50169   7.267   0.720   5.218  0.3318 -0.1914 -0.3712
15990SOL    HW150170   7.311   0.643   5.183  2.9901  0.8484  0.4548
15990SOL    HW250171   7.278   0.787   5.149  0.8438  0.3165  0.1899
15991SOL     OW50172   7.964   9.281   5.902  0.4121  0.4399  0.6645
15991SOL    HW150173   7.941   9.373   5.909 -2.2435  0.0252 -1.2121
15991SOL    HW250174   8.040   9.279   5.844  0.1901  1.4052  0.3243
15992SOL     OW50175   0.958   5.683   3.816 -0.4530  0.3220  0.0789
15992SOL    HW150176   0.991   5.647   3.898  1.8098  1.4713 -0.2367
15992SOL    HW250177   0.989   5.622   3.749  1.1843  1.3903 -0.2163
15993SOL     OW50178   1.508   0.330   9.278 -0.6953 -0.8286 -0.3916
15993SOL    HW150179   1.482   0.312   9.188 -1.2319 -0.7203 -0.2649
15993SOL    HW250180   1.478   0.254   9.328 -0.4337 -0.8713 -0.3006
15994SOL     OW50181   7.970   3.483   1.133 -0.4233  0.4326 -0.4409
15994SOL    HW150182   7.947   3.575   1.125 -1.2149  0.3229  0.3688
15994SOL    HW250183   8.034   3.480   1.204 -1.5367  0.2102  0.5891
15995SOL     OW50184   0.517   0.100   5.126  0.1127  0.4017 -0.4519
15995SOL    HW150185   0.588   0.161   5.141 -0.8850  1.8444 -1.3976
15995SOL    HW250186   0.558   0.013   5.133  1.8226  1.1751 -0.4049
15996SOL     OW50187   6.673   3.678   7.020 -0.0657 -0.2534 -0.0205
15996SOL    HW150188   6.742   3.700   7.082  1.3302  0.3693 -1.6919
15996SOL    HW250189   6.712   3.609   6.965 -0.8524 -0.0794 -0.8164
15997SOL     OW50190   8.820   0.231   0.905 -0.0429 -0.4036  0.2310
15997SOL    HW150191   8.801   0.149   0.859  2.4729 -0.9649  0.0260
15997SOL    HW250192   8.858   0.202   0.988  2.1594  0.4910 -0.4117
15998SOL     OW50193   0.434   5.501   2.001  0.1689  0.1056 -0.2961
15998SOL    HW150194   0.514   5.552   2.014 -0.6372  1.4734 -0.5127
15998SOL    HW250195   0.459   5.434   1.936  1.5384 -0.5242  0.8101
15999SOL     OW50196   3.725   4.553   0.787 -0.4281 -0.0374  0.0954
15999SOL    HW150197   3.705   4.539   0.695 -1.9688  0.8356  0.2661
15999SOL    HW250198   3.645   4.527   0.833  0.9273 -2.2613  1.3799
16000SOL     OW50199   3.225   3.541   4.193 -0.2673  0.1626  0.5206
16000SOL    HW150200   3.237   3.546   4.288  1.2548 -0.0303  0.3768
16000SOL    HW250201   3.159   3.607   4.173 -1.2058 -0.3553  1.7964
16001SOL     OW50202   0.739   1.899   8.421 -0.8958 -0.8750  0.2426
16001SOL    HW150203   0.774   1.857   8.499 -3.4284 -1.0157  1.3810
16001SOL    HW250204   0.652   1.861   8.409 -1.8006  1.3321 -0.8367
16002SOL     OW50205   3.802   4.923   6.872 -0.5216 -0.4837 -0.3115
16002SOL    HW150206   3.807   5.014   6.901  0.8190 -0.5803 -0.1798
16002SOL    HW250207   3.709   4.908   6.858 -0.7789  0.8658 -0.2139
16003SOL     OW50208   7.249   6.780   8.707 -0.3266  0.5347 -0.7003
16003SOL    HW150209   7.159   6.805   8.729 -0.2427  0.2609 -0.0117
16003SOL    HW250210   7.268   6.707   8.765  0.6533  1.1600 -0.2073
16004SOL     OW50211   0.573   7.608   2.013 -0.0829  0.0724 -0.1078
16004SOL    HW150212   0.562   7.519   2.049 -0.7653 -0.0038 -0.4894
16004SOL    HW250213   0.563   7.597   1.919 -0.0922  0.5438 -0.1637
16005SOL     OW50214   3.839   6.083   0.152  0.3883  0.7948  0.0543
16005SOL    HW150215   3.821   6.157   0.210 -1.8303 -1.0477  1.9121
16005SOL    HW250216   3.922   6.047   0.183  1.5602  2.4956 -0.9623
16006SOL     OW50217   1.662   2.689   5.320 -0.0082 -0.3793 -0.2491
16006SOL    HW150218   1.748   2.683   5.279 -0.1468 -1.0981 -0.4615
16006SOL    HW250219   1.617   2.758   5.271  0.6646  0.4585  0.2925
16007SOL     OW50220   1.703   6.850   1.988  0.3600 -0.3106 -0.4061
16007SOL    HW150221   1.657   6.895   2.060  2.4672  0.8314  0.3043
16007SOL    HW250222   1.698   6.757   2.011  0.9354  0.0259  1.2094
16008SOL     OW50223   4.256   6.270   1.002  0.0325  0.3987 -0.3323
16008SOL    HW150224   4.335   6.294   1.050 -1.0953  0.6443  1.5390
16008SOL    HW250225   4.202   6.225   1.067 -1.4594  0.4446 -1.4881
16009SOL     OW50226   7.562   8.421   0.055 -0.3401  0.1933 -0.4281
16009SOL    HW150227   7.627   8.393   0.119  0.7152  1.3777 -0.9295
16009SOL    HW250228   7.481   8.431   0.105  0.5668  1.5681  0.8610
16010SOL     OW50229   7.336   4.260   2.966 -0.4862 -0.3167  0.0779
16010SOL    HW150230   7.248   4.284   2.995  0.4332  0.7956  2.1594
16010SOL    HW250231   7.389   4.337   2.984  0.4853  0.0879 -3.6919
16011SOL     OW50232   6.118   3.109   1.346  0.0782 -0.7784 -0.3319
16011SOL    HW150233   6.191   3.072   1.297 -0.0847 -2.7320  0.7994
16011SOL    HW250234   6.046   3.113   1.283  0.6589 -0.4833 -0.9939
16012SOL     OW50235   2.718   1.538   8.914  0.2566  0.5536  0.7407
16012SOL    HW150236   2.803   1.584   8.914  0.3955  0.4062 -1.1667
16012SOL    HW250237   2.656   1.604   8.883  0.5593 -0.5458 -2.6455
16013SOL     OW50238   7.747   1.212   3.358  0.1794 -0.2024 -0.2667
16013SOL    HW150239   7.715   1.275   3.422  0.3345 -1.0080  0.6284
16013SOL    HW250240   7.700   1.233   3.278  0.3851  1.1712 -0.0463
16014SOL     OW50241   5.389   2.704   8.270  0.0173  0.2331  0.2303
16014SOL    HW150242   5.449   2.703   8.195 -1.0945 -1.6253 -0.6947
16014SOL    HW250243   5.436   2.656   8.338  1.3156  2.4994  1.0604
16015SOL     OW50244   7.471   8.228   1.875  0.6249  0.7276  0.1144
16015SOL    HW150245   7.548   8.171   1.876  0.6643  0.7543 -0.7109
16015SOL    HW250246   7.455   8.245   1.782 -0.6411  0.3701  0.2472
16016SOL     OW50247   3.897   0.322   9.528 -0.2420  0.1617  0.2657
16016SOL    HW150248   3.809   0.312   9.564 -0.5546 -2.1816 -0.9668
16016SOL    HW250249   3.931   0.233   9.523  1.4639  0.8350 -1.1071
16017SOL     OW50250   1.019   9.457   2.868 -0.4181 -0.1394  0.2076
16017SOL    HW150251   1.065   9.439   2.786  1.0767 -0.3344  1.0613
16017SOL    HW250252   0.993   9.549   2.861  1.5282  0.4559  0.3467
16018SOL     OW50253   4.077   2.346   0.320 -0.3706 -0.2625 -0.1481
16018SOL    HW150254   4.068   2.438   0.345  2.2221  0.3577 -1.1127
16018SOL    HW250255   4.052   2.297   0.398  0.2332  1.3468  1.1131
16019SOL     OW50256   0.388   2.439   6.399 -0.0571  0.0872  0.1894
16019SOL    HW150257   0.350   2.412   6.315  0.8410  0.9414 -0.5087
16019SOL    HW250258   0.317   2.483   6.444 -0.4256  0.0166 -0.3072
16020SOL     OW50259   3.836   2.388   9.433 -0.5195 -0.0306  0.0920
16020SOL    HW150260   3.742   2.381   9.415 -0.6624  1.9024 -0.1529
16020SOL    HW250261   3.856   2.480   9.416  1.4275 -0.4136  0.1573
16021SOL     OW50262   3.005   7.517   1.822 -0.1319 -0.6816 -0.3801
16021SOL    HW150263   2.934   7.537   1.884 -0.6351 -0.3220 -1.0698
16021SOL    HW250264   3.006   7.591   1.762  1.9480  0.1584  0.5956
16022SOL     OW50265   4.707   6.329   4.547 -0.4126 -0.5746  0.9022
16022SOL    HW150266   4.693   6.241   4.513 -0.3757 -0.6843  1.1654
16022SOL    HW250267   4.759   6.373   4.480 -1.6097 -0.3074  0.1092
16023SOL     OW50268   8.794   8.312   6.039  0.2694  0.4903 -0.1335
16023SOL    HW150269   8.743   8.369   5.983  0.4386  0.9382  0.1603
16023SOL    HW250270   8.741   8.232   6.048 -0.2233  0.8220 -0.0856
16024SOL     OW50271   5.970   4.168   8.937  0.1688  0.2948  0.0942
16024SOL    HW150272   5.965   4.072   8.939 -0.8238  0.3458  0.6950
16024SOL    HW250273   5.974   4.193   9.030  0.5993  0.8350 -0.0649
16025SOL     OW50274   6.849   5.400   2.263  0.0312 -0.0434 -0.5050
16025SOL    HW150275   6.939   5.372   2.246  0.5042  0.0032  1.7188
16025SOL    HW250276   6.806   5.323   2.299 -0.7078  0.0781 -1.1020
16026SOL     OW50277   5.374   5.274   1.533 -0.1648 -0.1957 -0.7664
16026SOL    HW150278   5.439   5.317   1.588  0.0667 -1.2614 -0.1794
16026SOL    HW250279   5.410   5.278   1.444  1.2772 -1.7574 -0.3040
16027SOL     OW50280   6.885   0.137   1.116  0.4426  0.2159  0.3317
16027SOL    HW150281   6.809   0.139   1.057  0.3721 -1.9564  0.2956
16027SOL    HW250282   6.960   0.123   1.058  0.5586 -0.3015  0.6012
16028SOL     OW50283   1.500   5.672   8.605  0.1984 -0.1381  0.2159
16028SOL    HW150284   1.445   5.613   8.553  0.8012 -0.3662 -0.1793
16028SOL    HW250285   1.574   5.691   8.548  0.5901  0.0647  0.7860
16029SOL     OW50286   6.700   5.316   0.686  0.2110  0.0148 -0.0834
16029SOL    HW150287   6.609   5.317   0.659 -0.2548  0.0772  1.4200
16029SOL    HW250288   6.707   5.385   0.752  1.4053  0.1672 -0.3442
16030SOL     OW50289   2.035   1.533   2.917 -0.4040 -0.2595 -0.2950
16030SOL    HW150290   2.111   1.557   2.864  0.9338  1.4014  2.2109
16030SOL    HW250291   2.072   1.504   3.000 -2.4599 -2.1939  0.0354
16031SOL     OW50292   4.916   5.217   2.649 -0.3262  0.2930 -0.1017
16031SOL    HW150293   4.915   5.134   2.696 -0.2788 -1.1038 -2.4560
16031SOL    HW250294   4.825   5.233   2.624 -0.1742  0.4218 -0.5730
16032SOL     OW50295   0.168   3.392   5.728  0.0532  0.6989 -0.0562
16032SOL    HW150296   0.158   3.449   5.804  0.9003 -0.1765  0.7349
16032SOL    HW250297   0.132   3.308   5.755  2.5715 -0.3643  0.3140
16033SOL     OW50298   1.862   9.172   8.995 -0.2142 -0.0119  0.2760
16033SOL    HW150299   1.831   9.251   9.039 -0.7249  0.3252 -0.6570
16033SOL    HW250300   1.883   9.202   8.906  0.2435 -0.7876  0.1204
16034SOL     OW50301   4.832   6.061   6.886 -0.0885  0.2502  0.0166
16034SOL    HW150302   4.859   6.153   6.891 -2.3900  0.9539  0.5943
16034SOL    HW250303   4.745   6.064   6.847  1.1401 -2.0194 -3.3602
16035SOL     OW50304   0.090   1.887   1.313  0.4427 -0.5807  0.3511
16035SOL    HW150305   0.023   1.933   1.262  0.5557 -0.3960  0.3714
16035SOL    HW250306   0.044   1.857   1.391  0.4031 -0.3847  0.4025
16036SOL     OW50307   1.065   0.005   8.146 -0.0386 -0.0599 -0.0939
16036SOL    HW150308   1.109   0.089   8.147 -1.9173  1.0551 -1.8929
16036SOL    HW250309   1.064  -0.021   8.053 -1.3365 -0.9976  0.1421
16037SOL     OW50310   7.936   7.279   9.145 -0.0446  0.3991  0.1132
16037SOL    HW150311   7.999   7.329   9.092  0.9315 -1.0590 -0.1565
16037SOL    HW250312   7.989   7.234   9.209 -0.8740 -0.4825  0.1964
16038SOL     OW50313   6.109   1.358   1.317 -0.1419 -0.3402 -0.1306
16038SOL    HW150314   6.110   1.293   1.248 -2.1517  0.5981 -1.1382
16038SOL    HW250315   6.168   1.427   1.287 -1.6970  0.5007 -1.4727
16039SOL     OW50316   0.742   0.702   4.241 -0.2967 -0.3728 -0.6088
16039SOL    HW150317   0.701   0.628   4.197  0.4171 -1.7903  1.0125
16039SOL    HW250318   0.775   0.757   4.170 -0.0015 -2.0919 -1.8572
16040SOL     OW50319   7.905   9.317   0.991 -0.0334 -0.1896  0.0970
16040SOL    HW150320   7.962   9.333   0.915  1.2371 -0.1534  1.0196
16040SOL    HW250321   7.958   9.344   1.066 -1.0413 -0.7870  1.0419
16041SOL     OW50322   5.098   8.337   0.654  0.6885  0.2243 -0.0586
16041SOL    HW150323   5.047   8.294   0.722  0.2935 -1.1997 -1.2188
16041SOL    HW250324   5.077   8.289   0.573 -0.2197  2.9178 -1.5621
16042SOL     OW50325   6.979   9.128   7.379  0.1265 -0.2021 -0.6459
16042SOL    HW150326   6.985   9.093   7.468  0.5421 -1.6973 -1.2316
16042SOL    HW250327   6.905   9.189   7.382  0.5731  0.3067  0.8830
16043SOL     OW50328   5.633   4.197   3.225 -0.0953  0.0884 -0.3011
16043SOL    HW150329   5.557   4.140   3.212 -0.1465  0.2953 -0.9332
16043SOL    HW250330   5.659   4.182   3.316  1.0288 -2.3142 -0.9537
16044SOL     OW50331   5.278   8.494   3.234 -0.5130 -0.6788  0.1694
16044SOL    HW150332   5.295   8.510   3.327 -0.8274  0.6161  0.0182
16044SOL    HW250333   5.260   8.400   3.229  0.1163 -0.8731  1.3201
16045SOL     OW50334   5.451   3.266   8.627 -0.3278  0.5431 -0.2249
16045SOL    HW150335   5.424   3.264   8.536 -0.8093  1.6378 -0.1243
16045SOL    HW250336   5.437   3.177   8.659 -0.2181  0.1760 -1.1978
16046SOL     OW50337   7.497   2.536   8.286 -0.0473 -0.0931  0.4086
16046SOL    HW150338   7.420   2.571   8.241 -2.1646 -0.6669  3.3235
16046SOL    HW250339   7.500   2.444   8.261 -0.9186 -0.2921  0.9751
16047SOL     OW50340   3.046   2.724   3.520  0.4814  0.0440 -0.3436
16047SOL    HW150341   3.010   2.793   3.575  0.8282  0.1490 -0.2467
16047SOL    HW250342   3.073   2.769   3.440  1.0026  0.0737 -0.1512
16048SOL     OW50343   4.126   5.227   8.936 -0.1090  0.1980  0.1163
16048SOL    HW150344   4.111   5.307   8.988 -2.9541 -0.6015  0.6629
16048SOL    HW250345   4.115   5.255   8.846  1.4919  0.8935  0.0923
16049SOL     OW50346   1.722   3.028   4.254  0.0719  0.2717  0.0481
16049SOL    HW150347   1.735   2.936   4.229 -1.3657  0.0318  0.0778
16049SOL    HW250348   1.712   3.026   4.349 -1.5787  0.2003 -0.0868
16050SOL     OW50349   4.211   3.526   5.059  0.4373 -0.2319 -0.1220
16050SOL    HW150350   4.274   3.518   5.131 -0.3949  0.1230  0.6627
16050SOL    HW250351   4.245   3.599   5.006  0.9346 -0.3543  0.0227
16051SOL     OW50352   0.989   6.715   3.879 -0.0011 -0.4967  0.0231
16051SOL    HW150353   1.047   6.705   3.955  1.2497 -1.9779 -1.0924
16051SOL    HW250354   1.008   6.803   3.846 -1.7959  0.8959  2.3515
16052SOL     OW50355   1.370   9.308   7.416  0.2773 -0.0841 -0.3500
16052SOL    HW150356   1.357   9.268   7.329 -0.3216 -0.7878  0.0501
16052SOL    HW250357   1.330   9.395   7.408 -2.9462 -1.3896  0.1871
16053SOL     OW50358   6.834   3.289   7.523  0.0337  0.1627  0.2225
16053SOL    HW150359   6.793   3.211   7.562 -0.0758 -0.1363 -0.4694
16053SOL    HW250360   6.904   3.312   7.584 -0.1211 -0.3036  0.5872
16054SOL     OW50361   6.938   0.237   3.090  0.2097  0.2337 -0.0700
16054SOL    HW150362   6.863   0.179   3.074  0.3359  0.6599 -2.6711
16054SOL    HW250363   6.902   0.325   3.084  0.4480  0.4660  1.5303
16055SOL     OW50364   9.452   9.462   7.897 -0.9454  0.2250  0.4282
16055SOL    HW150365   9.404   9.541   7.919 -2.1827 -1.2963  4.0901
16055SOL    HW250366   9.386   9.403   7.860 -0.1343  0.6558 -1.8342
16056SOL     OW50367   2.156   5.554   3.045 -0.0994  0.2545  0.1794
16056SOL    HW150368   2.147   5.646   3.071  1.3587  0.0608  1.4837
16056SOL    HW250369   2.159   5.506   3.128  0.7163 -0.8061 -0.4422
16057SOL     OW50370   8.161   5.238   3.987  0.6210  0.5919  0.2996
16057SOL    HW150371   8.234   5.190   4.025  1.2302  2.2921  1.4212
16057SOL    HW250372   8.097   5.171   3.964  1.9824 -0.8265  0.5153
16058SOL     OW50373   9.073   0.270   5.991 -0.4199 -0.0946  0.0175
16058SOL    HW150374   9.113   0.204   5.934 -0.2234 -0.3919  0.4975
16058SOL    HW250375   9.077   0.350   5.940  0.4159 -0.2051 -0.1114
16059SOL     OW50376   0.775   8.086   3.519  0.0519  0.3796  0.0410
16059SOL    HW150377   0.723   8.159   3.486 -0.2993  0.3429  0.5169
16059SOL    HW250378   0.799   8.112   3.608 -1.3343 -0.7217  0.7736
16060SOL     OW50379   3.345   2.982   4.297 -0.0687 -0.0973 -0.1032
16060SOL    HW150380   3.324   2.895   4.332  0.7799  0.5039  2.0345
16060SOL    HW250381   3.380   2.964   4.210  1.5485 -2.0874  0.8641
16061SOL     OW50382   8.820   4.672   4.373  0.0329 -0.0603 -0.1211
16061SOL    HW150383   8.729   4.695   4.390  0.7753  2.4897  0.8571
16061SOL    HW250384   8.866   4.755   4.372  2.5136 -1.3309  0.2609
16062SOL     OW50385   2.891   1.389   1.585  0.3495 -0.4816 -0.2876
16062SOL    HW150386   2.945   1.325   1.538  0.5487  0.9287 -2.1182
16062SOL    HW250387   2.811   1.396   1.533  0.2605  0.6099 -0.0335
16063SOL     OW50388   5.148   3.361   9.002 -0.3532  0.3505  0.2512
16063SOL    HW150389   5.157   3.355   8.907 -0.0382  0.9702  0.2351
16063SOL    HW250390   5.131   3.454   9.019  0.1207  0.3402  0.8346
16064SOL     OW50391   0.491   8.534   7.424 -0.0222 -0.2970  0.0791
16064SOL    HW150392   0.451   8.455   7.459  0.2849 -0.4170  0.1696
16064SOL    HW250393   0.469   8.602   7.488  1.1730 -0.6672  0.9306
16065SOL     OW50394   4.110   6.643   5.887  0.2659 -0.1685 -0.4847
16065SOL    HW150395   4.096   6.623   5.980 -3.5239 -2.3546 -1.3509
16065SOL    HW250396   4.049   6.715   5.868 -1.4920 -1.9322 -1.8922
16066SOL     OW50397   8.665   1.435   1.865 -0.6302 -0.3485 -0.0639
16066SOL    HW150398   8.750   1.398   1.885 -0.4184  0.1458 -0.0274
16066SOL    HW250399   8.676   1.529   1.879 -1.0427 -0.2242 -0.5391
16067SOL     OW50400   4.468   4.358   2.695 -0.0120  0.8857  0.3454
16067SOL    HW150401   4.399   4.293   2.684  0.4660  0.3656  0.3532
16067SOL    HW250402   4.521   4.352   2.615  0.3991  0.8193  0.6154
16068SOL     OW50403   2.166   7.385   4.139 -0.2933 -0.0303 -0.1090
16068SOL    HW150404   2.127   7.463   4.179  2.2795 -0.5582  3.9539
16068SOL    HW250405   2.091   7.331   4.115 -2.1065  1.9090  0.8526
16069SOL     OW50406   5.728   3.070   3.085  0.2368 -0.0921 -0.6896
16069SOL    HW150407   5.652   3.034   3.038 -0.2548 -0.8439  0.6128
16069SOL    HW250408   5.690   3.119   3.157  0.9738 -1.2693  0.5430
16070SOL     OW50409   2.938   6.807   3.436  0.0909  0.3891 -0.0271
16070SOL    HW150410   2.943   6.774   3.346 -0.0043  0.7034 -0.1499
16070SOL    HW250411   2.995   6.749   3.486  0.5258  0.5071 -0.3818
16071SOL     OW50412   4.939   2.123   5.348 -0.3163 -0.1212  0.2460
16071SOL    HW150413   4.920   2.049   5.290 -0.5721 -0.1711  0.3941
16071SOL    HW250414   5.001   2.176   5.299  1.8276 -1.6949  1.0733
16072SOL     OW50415   0.906   4.399   6.476  0.0840 -0.1817 -0.1078
16072SOL    HW150416   0.913   4.323   6.535  1.5335 -0.3643 -0.4909
16072SOL    HW250417   0.919   4.362   6.388  2.5420  0.7078 -0.1849
16073SOL     OW50418   5.321   0.657   5.286 -0.0625  0.2380 -0.0524
16073SOL    HW150419   5.354   0.659   5.376  0.6369  3.6674 -0.2426
16073SOL    HW250420   5.226   0.651   5.296  0.0082  0.5188  0.9452
16074SOL     OW50421   5.426   6.021   7.952  0.0009 -0.3565 -0.7168
16074SOL    HW150422   5.465   5.942   7.988  1.2827  0.5571 -0.0123
16074SOL    HW250423   5.483   6.045   7.879  2.5734  2.4781  1.9436
16075SOL     OW50424   2.362   3.012   4.300 -0.0806  0.6398  0.1949
16075SOL    HW150425   2.451   2.997   4.269  0.0055  1.0761  0.2243
16075SOL    HW250426   2.373   3.045   4.389 -0.2448  1.3706 -0.0540
16076SOL     OW50427   2.123   5.336   7.934 -0.0403 -0.2946 -0.4170
16076SOL    HW150428   2.193   5.386   7.890  0.3000 -1.8047 -1.6982
16076SOL    HW250429   2.163   5.305   8.015 -0.3972  1.8272  0.6172
16077SOL     OW50430   9.334   5.179   4.867  0.1640 -0.0665 -0.0215
16077SOL    HW150431   9.270   5.208   4.802  0.7721 -0.7746 -0.9540
16077SOL    HW250432   9.345   5.086   4.850  0.9932 -0.0765  0.5303
16078SOL     OW50433   2.884   2.243   0.225  0.0850 -0.2580  0.2767
16078SOL    HW150434   2.799   2.228   0.266 -0.0760 -0.2704 -0.0591
16078SOL    HW250435   2.877   2.201   0.139  1.1184 -2.0096  1.0176
16079SOL     OW50436   6.603   0.771   0.953 -0.2925  0.1748  0.5997
16079SOL    HW150437   6.680   0.829   0.958 -0.3440  0.8133 -2.9436
16079SOL    HW250438   6.611   0.730   0.867 -2.4294 -2.0279  1.3694
16080SOL     OW50439   7.891   4.536   7.441  0.3340  0.1773  0.5379
16080SOL    HW150440   7.982   4.520   7.415  0.6286  1.9830  0.3405
16080SOL    HW250441   7.846   4.556   7.359 -0.1327 -0.2259  0.6932
16081SOL     OW50442   8.898   0.974   3.023  0.1870  0.1051 -0.1610
16081SOL    HW150443   8.852   1.001   2.943  1.4543  0.1316 -0.9073
16081SOL    HW250444   8.891   0.878   3.023 -0.6982  0.1571  0.2635
16082SOL     OW50445   9.076   3.472   4.817 -0.5549 -0.5582  0.5447
16082SOL    HW150446   9.029   3.474   4.901 -1.2822  1.8645  0.1635
16082SOL    HW250447   9.062   3.384   4.784 -0.5367 -1.4761  2.7949
16083SOL     OW50448   3.336   1.161   7.930  0.0478  0.1638 -0.2965
16083SOL    HW150449   3.353   1.076   7.971  1.2455  0.2547 -0.5604
16083SOL    HW250450   3.241   1.168   7.928 -0.1797  0.8496  3.8504
16084SOL     OW50451   3.339   4.665   2.651  0.5130 -0.4099 -0.3191
16084SOL    HW150452   3.273   4.675   2.583  0.2746 -0.5726 -0.1097
16084SOL    HW250453   3.290   4.643   2.730  0.9306 -2.2955 -0.5476
16085SOL     OW50454   6.674   4.486   8.844  0.3294  0.3115  0.7817
16085SOL    HW150455   6.729   4.504   8.767 -1.1425  0.6279 -0.2654
16085SOL    HW250456   6.652   4.573   8.878 -2.2260  0.4350 -0.8887
16086SOL     OW50457   7.304   1.350   3.974 -0.2100 -0.2502 -0.2028
16086SOL    HW150458   7.382   1.308   3.937 -0.0866  0.5530 -0.8900
16086SOL    HW250459   7.297   1.313   4.062 -0.1257 -1.7237 -0.7732
16087SOL     OW50460   1.226   4.651   3.888 -0.0905  0.3189 -0.4003
16087SOL    HW150461   1.319   4.664   3.875  0.0814  0.0979  0.5441
16087SOL    HW250462   1.213   4.657   3.982 -0.7839 -1.1615 -0.3553
16088SOL     OW50463   7.968   1.887   4.204  0.0354  0.6413  0.0635
16088SOL    HW150464   7.998   1.976   4.222  0.7884  0.5370 -0.6111
16088SOL    HW250465   8.048   1.838   4.186 -0.5016  0.3140 -1.6584
16089SOL     OW50466   1.385   7.431   5.998  0.0920 -0.1482  0.7908
16089SOL    HW150467   1.444   7.404   5.928  1.1597  0.4104  1.4429
16089SOL    HW250468   1.387   7.359   6.061  0.2814 -0.0173  0.9348
16090SOL     OW50469   6.801   9.440   5.661 -0.7181 -0.3701 -0.0023
16090SOL    HW150470   6.792   9.531   5.692 -0.8360 -0.7876  1.2763
16090SOL    HW250471   6.834   9.393   5.738  2.0283 -0.9265 -1.4110
16091SOL     OW50472   5.514   2.918   7.014 -0.3885 -0.0289  0.3484
16091SOL    HW150473   5.544   2.866   6.939  0.5881  2.1549 -0.8636
16091SOL    HW250474   5.429   2.879   7.038 -1.8899  0.5156 -3.3643
16092SOL     OW50475   5.214   7.852   2.869  0.0980 -0.0655 -0.0767
16092SOL    HW150476   5.174   7.929   2.910  1.5690  0.7822 -0.1674
16092SOL    HW250477   5.163   7.778   2.902 -0.2074  0.7886  1.4504
16093SOL     OW50478   5.083   4.316   0.371 -0.9196  0.0428 -0.0505
16093SOL    HW150479   5.117   4.298   0.459 -0.8217  0.1729 -0.0616
16093SOL    HW250480   5.030   4.395   0.382 -1.4399 -0.3116  0.0206
16094SOL     OW50481   4.502   4.739   0.291 -0.9248 -0.1622  0.1420
16094SOL    HW150482   4.454   4.805   0.241  0.3724  0.7376  0.0317
16094SOL    HW250483   4.451   4.730   0.372 -0.7074  1.6525  0.5471
16095SOL     OW50484   3.880   6.508   7.186 -0.2385 -0.1246 -0.0356
16095SOL    HW150485   3.866   6.572   7.255 -1.9045 -1.0261  0.5119
16095SOL    HW250486   3.884   6.424   7.232  0.7297 -0.5422 -0.8476
16096SOL     OW50487   4.919   5.346   5.458  0.1787  0.2705  0.7279
16096SOL    HW150488   4.845   5.371   5.513  0.7879  0.3786  1.5042
16096SOL    HW250489   4.975   5.294   5.515  0.2978 -0.5306 -0.0941
16097SOL     OW50490   0.841   3.578   4.276  0.9445  0.5179  0.0940
16097SOL    HW150491   0.788   3.519   4.223  2.5302 -2.0161  1.1204
16097SOL    HW250492   0.778   3.632   4.324 -0.8080 -2.3855  1.3222
16098SOL     OW50493   1.934   1.977   1.305  0.2214  0.2302  0.6167
16098SOL    HW150494   1.866   1.923   1.345  0.2227 -0.4212 -0.2209
16098SOL    HW250495   1.888   2.051   1.268  0.2209  0.8400  1.8016
16099SOL     OW50496   7.010   1.933   2.418  0.1117 -0.1165  0.4240
16099SOL    HW150497   7.065   1.855   2.411 -0.1024 -0.1482 -1.3152
16099SOL    HW250498   7.069   2.000   2.452  0.9195 -0.4599 -0.2560
16100SOL     OW50499   9.005   8.431   2.624  0.0607 -0.0887  0.3143
16100SOL    HW150500   8.927   8.422   2.679  1.1973 -0.4341  1.9297
16100SOL    HW250501   9.052   8.348   2.634  0.7639  0.2018 -0.4379
16101SOL     OW50502   5.122   8.609   0.663  0.2197  0.0398 -0.1548
16101SOL    HW150503   5.107   8.514   0.661  0.0338  0.0487  0.5088
16101SOL    HW250504   5.098   8.639   0.575  0.6829 -0.5836 -0.5045
16102SOL     OW50505   7.963   5.157   2.901 -0.1582 -0.5051 -0.0845
16102SOL    HW150506   7.986   5.247   2.925 -1.2843 -0.0722 -0.5793
16102SOL    HW250507   7.870   5.149   2.921 -0.2642 -1.2940 -0.8186
16103SOL     OW50508   3.453   2.528   6.733  1.0537  0.1036  0.2674
16103SOL    HW150509   3.482   2.605   6.781 -1.3077  0.4514  1.2822
16103SOL    HW250510   3.385   2.562   6.673  2.0181 -0.7591 -1.3864
16104SOL     OW50511   6.185   0.908   1.344  0.1414 -0.2780 -0.5882
16104SOL    HW150512   6.150   0.980   1.397  0.8248 -0.0740 -0.4088
16104SOL    HW250513   6.266   0.943   1.308  0.7860 -1.1701 -0.0250
16105SOL     OW50514   1.295   0.904   8.606 -0.3898 -0.0285  0.2851
16105SOL    HW150515   1.312   0.885   8.513 -1.0871  1.4657 -0.1750
16105SOL    HW250516   1.372   0.953   8.635 -1.2761  1.7698 -0.2502
16106SOL     OW50517   2.637   7.123   2.703 -0.0453  0.2515  0.0635
16106SOL    HW150518   2.652   7.127   2.608  0.6241  0.5534  0.1741
16106SOL    HW250519   2.722   7.145   2.741 -0.6793  1.6453  0.7370
16107SOL     OW50520   7.714   4.584   1.975  0.2110  0.2527  0.5495
16107SOL    HW150521   7.661   4.521   2.024  1.9412 -1.1924  0.6897
16107SOL    HW250522   7.777   4.618   2.039  0.2380  1.0386  0.1227
16108SOL     OW50523   3.463   2.776   8.272 -0.2662  0.0398  0.0265
16108SOL    HW150524   3.368   2.784   8.283 -0.2905  0.9331 -0.6446
16108SOL    HW250525   3.476   2.691   8.230 -0.8204  0.1172 -0.3143
16109SOL     OW50526   3.583   8.185   0.688 -0.4378 -0.1750  0.3627
16109SOL    HW150527   3.535   8.266   0.705  0.0824  0.8475 -2.5365
16109SOL    HW250528   3.648   8.180   0.758 -1.9993  0.6062  1.9487
16110SOL     OW50529   1.282   8.323   2.042 -0.0788  1.0838  0.1216
16110SOL    HW150530   1.307   8.258   1.977 -0.2368  2.1079 -1.0006
16110SOL    HW250531   1.348   8.314   2.111  1.4879  1.5278 -1.2649
16111SOL     OW50532   0.041   0.604   1.915  0.2867  0.2750  0.8201
16111SOL    HW150533  -0.046   0.641   1.926  1.6416  4.5187 -0.5449
16111SOL    HW250534   0.068   0.577   2.003 -2.8338 -2.8113  1.0443
16112SOL     OW50535   6.623   7.585   3.462 -0.4053  0.1670  0.0381
16112SOL    HW150536   6.670   7.611   3.383  0.0946 -0.8262 -0.0020
16112SOL    HW250537   6.655   7.646   3.529  0.7829 -0.3400 -0.0411
16113SOL     OW50538   9.367   5.155   2.456  0.2632 -0.5421  0.1757
16113SOL    HW150539   9.300   5.177   2.392  0.9576  1.2429 -0.0139
16113SOL    HW250540   9.404   5.240   2.482  0.0389 -1.1893  2.9156
16114SOL     OW50541   4.200   5.531   2.573 -0.1635 -0.1342  0.2082
16114SOL    HW150542   4.275   5.518   2.632 -1.8749 -2.2763  2.0814
16114SOL    HW250543   4.194   5.626   2.564  2.2767  0.1410  0.6255
16115SOL     OW50544   0.007   6.273   7.521  0.3772 -0.2763 -0.0820
16115SOL    HW150545  -0.013   6.201   7.581  1.0976 -0.4672 -0.0592
16115SOL    HW250546  -0.030   6.351   7.563  0.7286 -0.4381  0.5385
16116SOL     OW50547   7.703   4.146   6.729  0.4153  0.1697 -0.4992
16116SOL    HW150548   7.672   4.057   6.746  1.2773  0.1610  1.2585
16116SOL    HW250549   7.673   4.196   6.804  1.1393  1.0453 -0.7799
16117SOL     OW50550   1.702   2.093   3.742  0.1094 -0.4917 -0.2828
16117SOL    HW150551   1.660   2.020   3.788  3.1085 -0.8967  2.1782
16117SOL    HW250552   1.685   2.169   3.799  3.2435 -0.8538  1.3669
16118SOL     OW50553   8.128   2.551   2.480 -0.3939 -0.2971 -0.4200
16118SOL    HW150554   8.103   2.459   2.492 -0.4198 -0.0686  1.6497
16118SOL    HW250555   8.045   2.596   2.461 -0.4201 -0.6411 -1.1657
16119SOL     OW50556   2.319   8.812   8.656 -0.1175  0.2618  0.1096
16119SOL    HW150557   2.400   8.861   8.643  0.1023  0.1964  1.1033
16119SOL    HW250558   2.279   8.806   8.569  1.2677 -0.2578 -0.5228
16120SOL     OW50559   8.373   0.947   8.213  0.0267 -0.0282 -0.3598
16120SOL    HW150560   8.452   0.952   8.267 -0.0163  0.3993 -0.3339
16120SOL    HW250561   8.360   0.853   8.199  0.3773 -0.1150 -0.1267
16121SOL     OW50562   4.557   2.343   8.115  0.5238  0.1223  0.0355
16121SOL    HW150563   4.639   2.351   8.067  1.1418  0.4153  1.1044
16121SOL    HW250564   4.496   2.305   8.053  1.8231 -1.3191 -0.4022
16122SOL     OW50565   7.043   5.130   2.132  0.2381  0.4311  0.1918
16122SOL    HW150566   7.041   5.043   2.093 -0.8944  0.1983  0.7175
16122SOL    HW250567   7.131   5.140   2.166  0.5424 -0.2795 -0.3739
16123SOL     OW50568   2.928   6.865   2.948 -0.1499  0.2433  0.3487
16123SOL    HW150569   3.005   6.910   2.983  1.0016  0.0041 -1.7004
16123SOL    HW250570   2.889   6.821   3.024  2.2988 -0.4489  1.3065
16124SOL     OW50571   7.863   4.360   7.048  0.0479 -0.0106  0.0426
16124SOL    HW150572   7.929   4.300   7.012  0.7497  1.4309 -1.1751
16124SOL    HW250573   7.816   4.392   6.971  0.7576  2.2076  0.4837
16125SOL     OW50574   3.482   7.692   6.621  0.0303  0.0278 -0.0606
16125SOL    HW150575   3.477   7.712   6.528  0.0190 -1.1452 -0.3220
16125SOL    HW250576   3.391   7.680   6.649  0.1089 -3.8080 -0.8910
16126SOL     OW50577   6.134   0.665   4.420  0.4787  0.1529 -0.3952
16126SOL    HW150578   6.045   0.647   4.452  1.3011 -1.8657  1.0036
16126SOL    HW250579   6.121   0.711   4.337 -1.8784 -0.7060 -0.5834
16127SOL     OW50580   1.056   2.574   6.083 -0.4091  0.2851 -0.0403
16127SOL    HW150581   1.009   2.549   6.162  0.7716 -0.1508  0.5428
16127SOL    HW250582   1.047   2.670   6.080 -0.3596  0.3202  0.6895
16128SOL     OW50583   4.809   5.694   3.416  0.1493 -0.0768 -0.2537
16128SOL    HW150584   4.841   5.750   3.488  0.9855  0.3747 -0.9606
16128SOL    HW250585   4.760   5.754   3.360 -2.1082 -0.7697  0.8490
16129SOL     OW50586   7.993   6.646   7.806 -0.4868  0.2933 -0.4221
16129SOL    HW150587   8.074   6.599   7.788  0.0597  0.8659  0.4368
16129SOL    HW250588   8.022   6.732   7.839 -1.4160  0.0916  1.0168
16130SOL     OW50589   1.351   4.989   5.009 -0.1072 -0.2672  0.2146
16130SOL    HW150590   1.431   4.937   5.021  0.0708  0.0861  0.5593
16130SOL    HW250591   1.313   4.955   4.928 -0.6907 -1.8432  1.1002
16131SOL     OW50592   2.933   1.616   0.020  0.2415 -0.2941 -0.2213
16131SOL    HW150593   2.956   1.523   0.013  0.8958 -0.1055 -0.6941
16131SOL    HW250594   2.942   1.636   0.113  3.6041  0.1422 -0.5336
16132SOL     OW50595   5.275   8.996   1.197  0.0337  0.3781  0.0490
16132SOL    HW150596   5.239   8.915   1.232 -0.6765  0.8553  0.4380
16132SOL    HW250597   5.349   9.016   1.254  0.7144 -0.4137 -0.5345
16133SOL     OW50598   2.859   0.960   6.145  0.8478  0.2779  0.4178
16133SOL    HW150599   2.924   0.968   6.215 -1.5131  0.5881  2.7434
16133SOL    HW250600   2.813   1.044   6.145 -2.3811 -1.3009  2.0138
16134SOL     OW50601   1.742   6.615   8.718 -0.0058  0.1797 -0.4383
16134SOL    HW150602   1.648   6.631   8.723 -0.0269  0.0153 -0.2969
16134SOL    HW250603   1.750   6.523   8.693  0.1108 -0.4116  1.5793
16135SOL     OW50604   5.234   2.773   0.085 -0.5937  0.3368 -0.7588
16135SOL    HW150605   5.192   2.692   0.115  0.6964  0.5112  1.8192
16135SOL    HW250606   5.173   2.810   0.021 -1.9261 -1.8762 -0.8726
16136SOL     OW50607   0.923   9.359   8.220 -0.3517 -0.4968 -0.0989
16136SOL    HW150608   0.998   9.299   8.220 -1.1097 -1.5713 -2.3786
16136SOL    HW250609   0.961   9.446   8.216  0.8136 -1.0320 -1.3716
16137SOL     OW50610   5.411   5.100   2.355  0.3987  0.1349 -0.3160
16137SOL    HW150611   5.399   5.088   2.261  1.7217  3.0094 -0.9360
16137SOL    HW250612   5.471   5.174   2.363 -0.4438  0.6219  2.8124
16138SOL     OW50613   6.190   3.189   3.606  0.2570  0.2120 -0.3132
16138SOL    HW150614   6.196   3.276   3.565 -0.4814 -0.3472 -1.6714
16138SOL    HW250615   6.277   3.173   3.641 -0.0809  2.3597  1.8238
16139SOL     OW50616   2.134   3.998   3.265 -0.2020 -0.3686 -0.7117
16139SOL    HW150617   2.209   4.036   3.310 -1.7271  1.4862  0.4549
16139SOL    HW250618   2.162   3.989   3.174  1.8553 -1.0545 -0.0559
16140SOL     OW50619   4.016   3.233   8.558  0.0599  0.6491 -0.0108
16140SOL    HW150620   3.937   3.179   8.556 -0.2174  0.9942  0.9340
16140SOL    HW250621   4.043   3.240   8.466 -0.4938 -0.2118 -0.2540
16141SOL     OW50622   2.129   7.844   1.356 -0.4537 -0.1497 -0.3367
16141SOL    HW150623   2.104   7.929   1.319 -0.7148  1.3585  2.9071
16141SOL    HW250624   2.218   7.829   1.324 -0.6804  0.9620 -1.5775
16142SOL     OW50625   3.911   5.543   2.136  0.2335 -0.2477  0.1463
16142SOL    HW150626   3.827   5.527   2.179  0.1664  0.0671  0.1375
16142SOL    HW250627   3.895   5.619   2.080  0.6922  0.2151  0.6302
16143SOL     OW50628   1.337   8.119   7.785 -0.1726 -0.4362 -0.0644
16143SOL    HW150629   1.291   8.201   7.803  0.0929 -0.4912  0.9063
16143SOL    HW250630   1.321   8.103   7.692 -1.9569 -0.3463  0.1821
16144SOL     OW50631   1.048   4.428   7.717 -0.1064  0.0537  0.5577
16144SOL    HW150632   1.004   4.461   7.639  0.5473  0.8442  0.5083
16144SOL    HW250633   1.020   4.337   7.724  0.6096 -0.3419 -1.1877
16145SOL     OW50634   6.129   2.623   6.810  0.0305 -0.3521  0.3482
16145SOL    HW150635   6.043   2.586   6.789  0.3381 -0.1053 -1.4339
16145SOL    HW250636   6.171   2.556   6.864 -0.5009 -1.3496 -0.4526
16146SOL     OW50637   9.166   4.372   1.556 -0.1933  0.3125  0.0570
16146SOL    HW150638   9.176   4.349   1.648 -0.7133  0.3167  0.1196
16146SOL    HW250639   9.202   4.461   1.549  2.8807 -0.8257 -0.4123
16147SOL     OW50640   5.661   6.050   3.352 -0.0417 -0.7103 -0.2136
16147SOL    HW150641   5.663   5.962   3.314  0.5093 -0.5826 -0.4849
16147SOL    HW250642   5.645   6.108   3.278 -0.0730 -0.5513 -0.0823
16148SOL     OW50643   8.278   5.051   7.199  0.0634 -0.1363  0.0683
16148SOL    HW150644   8.326   4.968   7.201 -0.5574 -0.5076 -0.3296
16148SOL    HW250645   8.243   5.056   7.110 -1.5245 -0.3765  0.6565
16149SOL     OW50646   6.427   9.478   6.304 -0.2811  0.3323  0.2426
16149SOL    HW150647   6.367   9.404   6.294  0.4100 -0.2636  0.4835
16149SOL    HW250648   6.369   9.554   6.311 -1.0138 -0.2435  0.5804
16150SOL     OW50649   6.105   3.512   0.472 -0.5454 -0.3726 -0.1586
16150SOL    HW150650   6.060   3.438   0.432 -4.0252  2.3390 -1.8521
16150SOL    HW250651   6.061   3.524   0.557 -0.0116 -0.2042  0.1013
16151SOL     OW50652   6.538   4.998   0.949 -0.2464  0.4174 -0.0385
16151SOL    HW150653   6.632   4.995   0.964 -0.4580 -1.9814  1.3163
16151SOL    HW250654   6.528   4.978   0.856  0.5594 -0.0265 -0.0390
16152SOL     OW50655   8.509   8.695   0.764 -0.1618  0.4456 -0.4278
16152SOL    HW150656   8.565   8.725   0.835  1.1680  1.2576 -1.7484
16152SOL    HW250657   8.492   8.603   0.784  1.7851  0.1275 -0.0330
16153SOL     OW50658   7.831   0.247   5.010 -0.3979 -0.1241  0.0347
16153SOL    HW150659   7.848   0.302   5.087 -1.6281 -0.5661  0.6514
16153SOL    HW250660   7.740   0.218   5.021 -0.6255 -0.1221 -1.6479
16154SOL     OW50661   0.806   3.727   7.050  0.2903 -0.1137  0.2616
16154SOL    HW150662   0.751   3.802   7.026  0.5927  0.5951  1.6879
16154SOL    HW250663   0.854   3.706   6.970  1.5432  2.3886  0.2762
16155SOL     OW50664   5.125   0.566   9.118 -0.0592 -0.6905 -1.0847
16155SOL    HW150665   5.120   0.651   9.075  0.8109 -0.1541 -0.1760
16155SOL    HW250666   5.213   0.534   9.096 -0.4410 -1.4462 -1.5595
16156SOL     OW50667   0.500   9.344   3.738 -0.0444 -0.4382  0.9622
16156SOL    HW150668   0.465   9.319   3.653 -0.2112  0.0527  0.8861
16156SOL    HW250669   0.583   9.387   3.718  0.0954 -0.6511  1.0750
16157SOL     OW50670   8.389   1.609   1.868 -0.0798 -0.4704 -0.1791
16157SOL    HW150671   8.472   1.566   1.849  0.2807  0.2039 -0.1410
16157SOL    HW250672   8.324   1.557   1.820  0.3809 -0.8934 -0.3535
16158SOL     OW50673   8.537   5.766   5.655 -0.0521  0.5603 -0.1865
16158SOL    HW150674   8.630   5.768   5.631  0.0134  0.7987  0.0914
16158SOL    HW250675   8.518   5.673   5.669  0.0166  0.4571 -0.7322
16159SOL     OW50676   8.815   6.576   5.027  0.4451 -0.3492 -0.3016
16159SOL    HW150677   8.856   6.495   5.057  0.6799  0.2947  1.2126
16159SOL    HW250678   8.887   6.639   5.021  0.1884 -0.1069 -0.9737
16160SOL     OW50679   2.918   7.751   6.504  0.1917  0.1600  0.0224
16160SOL    HW150680   2.950   7.841   6.502 -0.7648  0.5498  1.3361
16160SOL    HW250681   2.971   7.706   6.439  1.1790  1.5058 -0.1481
16161SOL     OW50682   4.685   3.708   5.440  0.1602  0.1983  0.6435
16161SOL    HW150683   4.595   3.683   5.462  0.5376 -0.5872  1.3366
16161SOL    HW250684   4.737   3.630   5.460  0.5872 -0.6304 -3.0464
16162SOL     OW50685   6.319   3.009   5.137  0.3538 -0.2083 -0.2589
16162SOL    HW150686   6.250   3.010   5.203  1.7633  0.8609  1.3218
16162SOL    HW250687   6.274   3.020   5.053 -1.4969 -1.5047  0.5224
16163SOL     OW50688   6.979   6.737   4.582 -0.4514  0.6393 -0.1008
16163SOL    HW150689   7.072   6.749   4.565 -0.1908  0.5316  1.1906
16163SOL    HW250690   6.965   6.643   4.576 -0.3859  0.6140  0.1277
16164SOL     OW50691   4.122   2.052   5.978  0.6931 -0.3480 -0.4651
16164SOL    HW150692   4.058   2.043   6.048  1.5228 -1.1681  0.2210
16164SOL    HW250693   4.206   2.063   6.024  1.4007 -1.9541 -1.2814
16165SOL     OW50694   7.610   5.356   8.885  0.3297  0.2464  0.2167
16165SOL    HW150695   7.571   5.346   8.972  2.1018  0.9749  1.1349
16165SOL    HW250696   7.690   5.405   8.900  2.4460 -2.4675 -1.3373
16166SOL     OW50697   7.137   4.373   7.067  0.1199 -0.2182 -0.4935
16166SOL    HW150698   7.168   4.282   7.075  3.1140  0.7839  0.9341
16166SOL    HW250699   7.142   4.392   6.974  0.1491 -1.2982 -0.7233
16167SOL     OW50700   0.330   3.879   1.654  0.1549  0.8850  0.0602
16167SOL    HW150701   0.292   3.820   1.588  1.7337 -0.8902  0.6451
16167SOL    HW250702   0.340   3.962   1.608  1.7101 -0.4299 -2.1966
16168SOL     OW50703   2.380   6.061   9.319  0.0573 -0.0100  0.0462
16168SOL    HW150704   2.472   6.057   9.347  0.7456 -0.7122 -2.0891
16168SOL    HW250705   2.367   5.980   9.271 -1.1229  0.9026 -1.2453
16169SOL     OW50706   3.351   6.897   5.032  0.3111 -0.1624  0.4279
16169SOL    HW150707   3.340   6.914   4.938  1.5756  0.5676  0.3842
16169SOL    HW250708   3.389   6.978   5.066 -2.1302  0.4150  2.0106
16170SOL     OW50709   7.816   0.965   6.349 -0.0766  0.5537 -0.5886
16170SOL    HW150710   7.863   0.919   6.418 -1.5624 -0.0658  0.0664
16170SOL    HW250711   7.818   1.057   6.374  0.7076  0.5246 -0.5366
16171SOL     OW50712   7.899   3.675   5.404 -0.2862 -0.2292  0.3063
16171SOL    HW150713   7.809   3.644   5.411  0.3712 -2.2350  0.5693
16171SOL    HW250714   7.911   3.696   5.312 -0.7558 -0.7904  0.1155
16172SOL     OW50715   9.214   1.691   1.651  0.1293  0.4898 -0.2394
16172SOL    HW150716   9.264   1.708   1.731  0.8316  0.1606 -0.6039
16172SOL    HW250717   9.186   1.778   1.622  2.4304  0.9830 -1.2644
16173SOL     OW50718   3.168   7.927   8.324  0.0130 -0.4031  0.1139
16173SOL    HW150719   3.181   8.020   8.303 -0.9123 -0.2291  0.2762
16173SOL    HW250720   3.242   7.883   8.282 -0.3480  0.2388 -1.2567
16174SOL     OW50721   2.042   7.633   1.649 -0.4816 -0.2477  0.2506
16174SOL    HW150722   2.137   7.621   1.649 -0.0792  2.3144 -0.8929
16174SOL    HW250723   2.017   7.624   1.741  0.9326 -0.4482  0.6512
16175SOL     OW50724   2.660   6.683   0.306 -0.1868 -0.0711 -0.7832
16175SOL    HW150725   2.744   6.728   0.314 -0.7560  0.8880 -0.0276
16175SOL    HW250726   2.680   6.591   0.327  0.6112  0.2082 -0.3085
16176SOL     OW50727   1.426   4.746   3.256 -0.1121  0.2747  0.1007
16176SOL    HW150728   1.421   4.817   3.191 -1.1050  0.3201  0.2062
16176SOL    HW250729   1.415   4.666   3.205  2.1520  0.0831 -0.1752
16177SOL     OW50730   8.366   5.972   3.129 -0.3188 -0.5301  0.0572
16177SOL    HW150731   8.305   5.898   3.122 -0.7989 -0.1936  0.6076
16177SOL    HW250732   8.411   5.959   3.212 -0.6360 -0.0407  0.3133
16178SOL     OW50733   0.718   8.129   1.126 -0.7737 -0.5064  0.0080
16178SOL    HW150734   0.749   8.097   1.041  1.0227  1.3694 -0.0968
16178SOL    HW250735   0.797   8.138   1.179 -1.8050 -1.0635  1.7176
16179SOL     OW50736   6.112   6.513   3.922  0.4308 -0.0587  0.1787
16179SOL    HW150737   6.170   6.507   3.846  0.3274 -0.5030  0.1338
16179SOL    HW250738   6.164   6.481   3.995 -0.0160 -1.2261 -0.0037
16180SOL     OW50739   3.212   9.572   2.746 -0.0075 -0.2805 -0.0820
16180SOL    HW150740   3.191   9.648   2.799 -1.8412 -0.3928 -0.5944
16180SOL    HW250741   3.260   9.514   2.805  1.4276  1.2424  0.3066
16181SOL     OW50742   6.551   2.831   5.775 -0.1339  0.1269  0.1830
16181SOL    HW150743   6.606   2.852   5.851 -0.2476  1.2830 -0.0419
16181SOL    HW250744   6.492   2.906   5.766 -0.3672 -0.1619 -0.8343
16182SOL     OW50745   2.074   9.552   0.211  0.2803 -0.6414 -0.4411
16182SOL    HW150746   2.078   9.484   0.277 -0.6272  0.3116  0.6472
16182SOL    HW250747   2.164   9.582   0.200  0.5506 -1.3809 -0.2614
16183SOL     OW50748   2.161   6.336   5.778 -0.2412 -0.3127  0.6527
16183SOL    HW150749   2.161   6.365   5.869 -0.3082 -1.4576  1.0412
16183SOL    HW250750   2.078   6.288   5.768 -1.3122  1.6850 -0.6718
16184SOL     OW50751   6.983   0.998   1.267 -0.0620  0.1273  0.9260
16184SOL    HW150752   6.928   1.060   1.315 -0.0368  0.5942  0.3641
16184SOL    HW250753   7.044   1.053   1.217 -0.3684 -0.3213  0.0262
16185SOL     OW50754   6.490   8.672   6.045 -0.2101  0.0566  0.1452
16185SOL    HW150755   6.404   8.687   6.082 -0.2137  0.6419 -0.0979
16185SOL    HW250756   6.479   8.687   5.951  0.5211  1.8517  0.3077
16186SOL     OW50757   8.301   4.790   7.947 -0.1327 -0.1293  0.0359
16186SOL    HW150758   8.220   4.804   7.897 -0.6092 -2.3700  0.0559
16186SOL    HW250759   8.357   4.865   7.924 -1.6574  0.7191 -1.1097
16187SOL     OW50760   8.101   0.294   9.306  0.2740  0.4039  0.1858
16187SOL    HW150761   8.153   0.370   9.282  1.3749 -0.0674  0.9672
16187SOL    HW250762   8.156   0.219   9.282  0.1604 -0.1049  1.4229
16188SOL     OW50763   0.564   6.733   2.594  0.3422 -0.2301 -0.1079
16188SOL    HW150764   0.527   6.656   2.638  2.7920 -1.4418 -0.0008
16188SOL    HW250765   0.547   6.718   2.501 -0.5075 -0.1315  0.0239
16189SOL     OW50766   0.073   2.700   8.542  0.2456 -0.1785  0.1377
16189SOL    HW150767   0.124   2.628   8.504 -1.0996 -0.6324 -0.9075
16189SOL    HW250768   0.130   2.777   8.533  1.1292 -0.8407 -0.0819
16190SOL     OW50769   3.591   4.317   5.376 -0.1245 -0.0823  0.3529
16190SOL    HW150770   3.636   4.235   5.396 -2.1299 -1.0152  1.3421
16190SOL    HW250771   3.550   4.302   5.291 -2.4597 -1.0954  1.5592
16191SOL     OW50772   1.340   0.006   7.891 -0.5686 -0.4725 -0.3133
16191SOL    HW150773   1.270  -0.059   7.884 -1.9428  0.8478  0.4243
16191SOL    HW250774   1.368   0.003   7.982 -1.2404  0.5240 -0.0579
16192SOL     OW50775   3.097   6.217   5.080  0.0950 -0.2464  0.5779
16192SOL    HW150776   3.025   6.155   5.092 -2.3772  1.5032 -2.9680
16192SOL    HW250777   3.153   6.175   5.014 -0.6993  0.4958 -0.6172
16193SOL     OW50778   1.054   5.660   5.674 -0.0098  0.3107 -0.4590
16193SOL    HW150779   0.965   5.697   5.672 -0.4193 -0.6225  0.0401
16193SOL    HW250780   1.060   5.608   5.594 -0.7749 -1.5065  0.5884
16194SOL     OW50781   6.677   7.575   9.410 -0.3098 -0.5765 -0.4151
16194SOL    HW150782   6.725   7.553   9.490  0.1024  2.1907  0.2082
16194SOL    HW250783   6.586   7.559   9.432 -0.3375  1.2562  1.1407
16195SOL     OW50784   0.660   2.650   7.009 -0.3706 -1.3819 -0.1475
16195SOL    HW150785   0.596   2.700   7.060  0.2558 -0.0239 -0.6234
16195SOL    HW250786   0.738   2.646   7.064 -0.3323 -1.6029 -0.2174
16196SOL     OW50787   4.540   3.038   4.127 -0.2532  0.4404  0.1967
16196SOL    HW150788   4.598   3.049   4.051 -0.0343 -0.8876  0.1563
16196SOL    HW250789   4.595   3.058   4.202  0.2043 -0.5694  0.1420
16197SOL     OW50790   4.069   4.179   4.323 -0.0839 -0.6761 -0.4420
16197SOL    HW150791   4.119   4.232   4.261  0.1717  0.1751  0.4555
16197SOL    HW250792   3.983   4.221   4.327 -1.0654 -2.3479 -2.2504
16198SOL     OW50793   4.639   7.322   8.379  0.0579  0.0740  0.0951
16198SOL    HW150794   4.665   7.333   8.288 -0.1682 -1.0214 -0.1110
16198SOL    HW250795   4.705   7.264   8.417 -1.0281 -1.2722  0.0295
16199SOL     OW50796   2.453   1.425   2.988 -0.5432  0.2637  0.2762
16199SOL    HW150797   2.424   1.334   2.991 -1.0909  0.4390  0.5878
16199SOL    HW250798   2.482   1.443   3.077 -0.7270  0.4804  0.2938
16200SOL     OW50799   8.008   0.749   4.746  0.4171 -0.5602  0.0363
16200SOL    HW150800   8.014   0.672   4.804  3.8705 -0.5085  0.0006
16200SOL    HW250801   7.994   0.823   4.805  0.5008 -0.8789  0.4604
16201SOL     OW50802   7.081   3.169   1.677 -0.3324 -0.3040  0.0472
16201SOL    HW150803   6.990   3.141   1.668 -0.9640  1.6288 -0.2109
16201SOL    HW250804   7.084   3.218   1.759 -0.0168  1.2272 -0.8291
16202SOL     OW50805   7.249   6.169   9.052  0.7046 -0.4306 -0.0108
16202SOL    HW150806   7.241   6.084   9.010  0.1495 -0.6173  0.4621
16202SOL    HW250807   7.212   6.232   8.990 -0.1935 -0.7134  0.2379
16203SOL     OW50808   2.203   2.965   4.957  0.4074 -0.2363  0.0823
16203SOL    HW150809   2.142   2.954   4.884  0.1078  2.2524 -0.1290
16203SOL    HW250810   2.273   3.020   4.921  0.7515  0.2225  1.3818
16204SOL     OW50811   3.847   7.936   1.459 -0.3827  0.0449 -0.0075
16204SOL    HW150812   3.760   7.900   1.441  0.1163 -0.8369 -0.7569
16204SOL    HW250813   3.838   8.030   1.445 -1.7552  0.2907  2.1040
16205SOL     OW50814   0.626   6.622   3.829 -0.2558  0.2119  0.2629
16205SOL    HW150815   0.690   6.567   3.784 -0.7263  0.9915 -1.4468
16205SOL    HW250816   0.671   6.706   3.842 -0.2462  0.1068  0.9350
16206SOL     OW50817   7.541   4.340   5.105  0.1970  0.1652  0.4321
16206SOL    HW150818   7.555   4.408   5.171  3.0281  1.2092 -1.0564
16206SOL    HW250819   7.629   4.316   5.076 -0.8095 -2.5199 -0.7682
16207SOL     OW50820   1.098   3.455   8.693  0.8456  0.0254 -0.1262
16207SOL    HW150821   1.077   3.465   8.786  1.6723 -1.3248  0.2421
16207SOL    HW250822   1.082   3.362   8.675 -0.5119  0.5118 -1.6727
16208SOL     OW50823   5.897   5.919   8.009 -0.5242  0.0854  0.8390
16208SOL    HW150824   5.975   5.895   7.960 -0.5656  0.2364  0.6978
16208SOL    HW250825   5.873   6.005   7.975 -1.9664 -0.8457 -0.6281
16209SOL     OW50826   3.117   3.278   3.107  0.0701  0.1780  0.3940
16209SOL    HW150827   3.119   3.226   3.027  1.9172 -1.5857  1.4894
16209SOL    HW250828   3.054   3.235   3.164  0.1325  0.3147  0.5701
16210SOL     OW50829   1.138   0.305   8.056 -0.1216 -0.2514  0.2787
16210SOL    HW150830   1.109   0.233   7.999 -1.1967  0.9870 -0.8112
16210SOL    HW250831   1.193   0.359   7.999 -0.2478  0.3861  0.7587
16211SOL     OW50832   2.889   1.801   2.456 -0.0191 -0.1162 -0.1346
16211SOL    HW150833   2.875   1.781   2.363  0.0233  2.6490 -0.8377
16211SOL    HW250834   2.908   1.895   2.457 -1.4891  0.2530  2.8402
16212SOL     OW50835   0.478   7.544   0.372 -0.1443  0.1632 -0.0197
16212SOL    HW150836   0.519   7.559   0.457  1.1207 -1.5691 -0.2818
16212SOL    HW250837   0.552   7.537   0.311 -0.9662 -0.0755 -1.0108
16213SOL     OW50838   5.404   2.344   6.873 -0.2340 -0.3244  0.5246
16213SOL    HW150839   5.322   2.357   6.920 -0.7653  1.5607 -0.8272
16213SOL    HW250840   5.377   2.312   6.786  0.5386 -0.7487  0.4284
16214SOL     OW50841   0.541   9.022   8.293  0.2448  0.0659 -0.6944
16214SOL    HW150842   0.632   9.050   8.299  0.9001 -1.8918 -0.8488
16214SOL    HW250843   0.504   9.042   8.379  1.4195 -1.0183  0.0932
16215SOL     OW50844   3.172   6.856   5.357 -0.0857 -0.0636 -0.0811
16215SOL    HW150845   3.249   6.807   5.389 -0.2370 -0.2037  0.0708
16215SOL    HW250846   3.209   6.922   5.299  0.1113 -0.4591 -0.4206
16216SOL     OW50847   9.009   5.283   7.491  0.2922 -0.2301  0.8641
16216SOL    HW150848   9.096   5.249   7.470  0.5085  0.9361 -0.2259
16216SOL    HW250849   8.955   5.260   7.416  0.4719  1.8227  0.0228
16217SOL     OW50850   5.069   2.897   4.553 -0.0744  0.2593  0.5863
16217SOL    HW150851   5.067   2.934   4.642 -1.3399  0.6561  0.4037
16217SOL    HW250852   5.155   2.922   4.519  0.1282  0.7492  1.4266
16218SOL     OW50853   1.311   0.710   8.925  0.9483  0.3728  0.1518
16218SOL    HW150854   1.251   0.635   8.920  1.3210  0.0580  0.3400
16218SOL    HW250855   1.369   0.690   8.999  0.2622  1.4389  0.9962
16219SOL     OW50856   1.153   0.208   4.947 -0.0240  0.5452  0.0779
16219SOL    HW150857   1.094   0.280   4.926  0.0531  0.5139 -0.2522
16219SOL    HW250858   1.095   0.131   4.953 -0.1300  0.6654  0.6119
16220SOL     OW50859   0.067   0.772   9.353 -0.0941  0.2293 -0.6758
16220SOL    HW150860   0.083   0.765   9.447  0.2779 -2.7109 -0.8669
16220SOL    HW250861   0.003   0.842   9.345  0.5633  1.1953  1.6590
16221SOL     OW50862   3.251   8.308   3.115 -0.0969 -0.2503  0.6722
16221SOL    HW150863   3.279   8.224   3.077  1.3361 -0.1745  1.4868
16221SOL    HW250864   3.231   8.286   3.206  1.2830  0.4452  1.1732
16222SOL     OW50865   8.821   7.955   1.922 -0.4736  0.3635 -0.5354
16222SOL    HW150866   8.865   7.978   1.841  1.1850  0.5684  0.3813
16222SOL    HW250867   8.884   7.901   1.969 -0.7350  1.5872  1.3198
16223SOL     OW50868   7.929   9.030   7.203  0.7119  0.7472 -0.0451
16223SOL    HW150869   8.023   9.038   7.221  1.3439 -1.7423 -1.8203
16223SOL    HW250870   7.898   8.965   7.265  0.0919  1.6054  0.5753
16224SOL     OW50871   4.097   6.207   8.780 -0.1871  0.8859  0.4756
16224SOL    HW150872   4.068   6.298   8.788 -1.4144  0.6564 -0.9826
16224SOL    HW250873   4.076   6.183   8.690  0.8527 -0.6098  0.6065
16225SOL     OW50874   0.950   6.674   1.041  0.0692  0.3736 -0.6176
16225SOL    HW150875   1.003   6.753   1.053 -1.1418  1.4109 -1.8386
16225SOL    HW250876   0.918   6.680   0.951 -1.7986 -0.4214 -0.0472
16226SOL     OW50877   8.833   0.331   0.234  0.0381  0.1278 -0.1508
16226SOL    HW150878   8.886   0.373   0.301 -0.0586 -1.0212  0.6873
16226SOL    HW250879   8.890   0.327   0.157  1.6467 -2.0221  1.0226
16227SOL     OW50880   8.456   7.696   5.109  0.1100 -0.3486 -0.0307
16227SOL    HW150881   8.414   7.781   5.094 -0.0900 -0.8087 -2.4532
16227SOL    HW250882   8.387   7.632   5.090  0.7051 -1.0700  0.2150
16228SOL     OW50883   7.504   1.066   7.060  0.5057  0.7519  0.0196
16228SOL    HW150884   7.541   1.086   6.974  1.8926 -1.2214  0.0906
16228SOL    HW250885   7.503   0.970   7.064 -0.1257  0.8018  1.9681
16229SOL     OW50886   6.317   6.432   7.373  0.2804  0.4373  0.3884
16229SOL    HW150887   6.401   6.456   7.332  0.7012  0.7316  1.3863
16229SOL    HW250888   6.326   6.339   7.392  0.3369  0.4434  0.3933
16230SOL     OW50889   9.184   0.505   6.174  0.3217  0.1000  0.3062
16230SOL    HW150890   9.111   0.448   6.199 -1.8080  2.1190 -1.0304
16230SOL    HW250891   9.211   0.472   6.088  0.1298  0.1601  0.2230
16231SOL     OW50892   3.077   7.456   2.265  0.3205  0.3291  0.0250
16231SOL    HW150893   3.055   7.385   2.204 -0.9893  0.4208  0.3650
16231SOL    HW250894   3.011   7.450   2.334 -0.0652  2.1027 -0.1284
16232SOL     OW50895   7.725   9.301   4.431  0.6447  0.2870  0.2945
16232SOL    HW150896   7.656   9.251   4.387  1.5904 -0.1336 -0.7517
16232SOL    HW250897   7.678   9.361   4.489 -0.5434 -1.3723  1.1392
16233SOL     OW50898   3.630   6.172   5.459 -0.0122 -0.0435 -0.1783
16233SOL    HW150899   3.574   6.157   5.535  0.6500 -0.1634  0.2844
16233SOL    HW250900   3.592   6.118   5.390  1.6040 -3.0168  1.1015
16234SOL     OW50901   1.050   4.450   4.594  0.0166  1.0768 -0.0383
16234SOL    HW150902   0.958   4.466   4.616 -0.2364  4.7113 -2.7140
16234SOL    HW250903   1.050   4.440   4.499  2.3166  0.2413 -0.0050
16235SOL     OW50904   5.913   5.255   5.183 -0.2074 -0.0120  0.1512
16235SOL    HW150905   5.953   5.317   5.243 -0.6531 -0.8458  1.3556
16235SOL    HW250906   5.976   5.246   5.111  0.7963  0.2742  0.9751
16236SOL     OW50907   2.740   5.649   5.790  0.0941  0.3137  0.5202
16236SOL    HW150908   2.813   5.705   5.817  1.1859 -0.4421 -0.7368
16236SOL    HW250909   2.743   5.575   5.850 -0.1748  0.6785  0.9933
16237SOL     OW50910   7.659   9.124   3.837  0.6019  0.1730  0.3601
16237SOL    HW150911   7.586   9.063   3.825  0.0794  0.2450  2.7125
16237SOL    HW250912   7.672   9.163   3.750 -0.7684 -1.3426 -0.5950
16238SOL     OW50913   2.091   4.588   4.898  0.2909  0.5247 -0.0980
16238SOL    HW150914   2.118   4.584   4.807  1.1385  0.4964  0.1478
16238SOL    HW250915   2.100   4.499   4.930  0.8518  0.7028  0.2504
16239SOL     OW50916   3.798   7.086   7.901 -0.0701  0.2757 -0.0954
16239SOL    HW150917   3.794   7.015   7.964 -0.9280  0.8738  0.5442
16239SOL    HW250918   3.709   7.119   7.896  0.8914  3.9544  2.7381
16240SOL     OW50919   3.051   3.272   7.973  0.2501  0.2718  0.1349
16240SOL    HW150920   2.995   3.313   8.039  1.3922 -0.0333  1.3286
16240SOL    HW250921   3.040   3.327   7.895  0.6193  2.0092  1.2525
16241SOL     OW50922   8.868   1.121   0.921 -0.2132 -0.0609 -0.2761
16241SOL    HW150923   8.954   1.157   0.940 -0.2585 -0.2996  0.4492
16241SOL    HW250924   8.833   1.097   1.008 -0.8300 -0.3512 -0.5981
16242SOL     OW50925   4.202   7.187   4.449 -0.7878  0.2337 -0.1256
16242SOL    HW150926   4.271   7.170   4.514 -1.4132  1.5211  0.9240
16242SOL    HW250927   4.165   7.101   4.431  0.2474 -0.3154  0.2578
16243SOL     OW50928   9.275   2.728   5.477  0.1158  0.3981 -0.0005
16243SOL    HW150929   9.341   2.788   5.512 -0.4830  0.8199  0.4018
16243SOL    HW250930   9.192   2.759   5.512 -0.3925  0.3064 -1.0970
16244SOL     OW50931   2.964   6.204   7.459  0.2152 -0.1026 -0.5070
16244SOL    HW150932   2.893   6.262   7.434 -0.6772 -0.5669  0.8613
16244SOL    HW250933   2.960   6.200   7.554  2.9627  0.9762 -0.2240
16245SOL     OW50934   3.830   7.705   1.086 -0.1564  0.1312 -0.3840
16245SOL    HW150935   3.881   7.724   1.165  0.3202  0.4470 -0.7596
16245SOL    HW250936   3.774   7.782   1.074 -1.3164 -0.5551  0.4739
16246SOL     OW50937   7.140   5.967   3.617 -0.4561 -0.0652 -0.7847
16246SOL    HW150938   7.140   6.060   3.639 -0.3760  0.0456 -1.2430
16246SOL    HW250939   7.070   5.930   3.669  1.0248 -0.1929  1.2565
16247SOL     OW50940   4.739   6.760   5.647 -0.1632 -0.2700 -0.0935
16247SOL    HW150941   4.690   6.838   5.674  0.3191  0.3744 -1.0161
16247SOL    HW250942   4.683   6.717   5.584 -0.1538 -0.3185 -0.0694
16248SOL     OW50943   0.579   3.664   8.857  0.0138 -0.5415  0.3567
16248SOL    HW150944   0.674   3.675   8.862  0.0031  0.0388 -0.3790
16248SOL    HW250945   0.554   3.716   8.780 -0.9308 -0.4751  0.7021
16249SOL     OW50946   0.205   1.660   4.383 -0.5677 -0.2896 -0.5440
16249SOL    HW150947   0.231   1.582   4.431 -0.0922  1.2306  1.8536
16249SOL    HW250948   0.242   1.733   4.433 -2.6568  1.5871 -1.5325
16250SOL     OW50949   5.835   2.681   6.419  0.7818 -0.6199 -0.6226
16250SOL    HW150950   5.878   2.647   6.340  2.8506  0.3918  0.0093
16250SOL    HW250951   5.839   2.776   6.410 -1.1709 -0.4748 -0.4000
16251SOL     OW50952   9.016   3.035   5.288 -0.1258  0.2688  0.1055
16251SOL    HW150953   9.090   3.008   5.343 -0.0116 -0.3448 -0.3369
16251SOL    HW250954   8.947   2.972   5.308 -0.5762  0.9068  0.6002
16252SOL     OW50955   7.268   7.356   1.851 -0.2289  0.0815  0.1785
16252SOL    HW150956   7.239   7.267   1.870 -0.0136 -0.0520 -0.1117
16252SOL    HW250957   7.187   7.408   1.849 -0.4312 -0.2390 -0.3578
16253SOL     OW50958   2.496   4.052   0.657 -0.4954  0.3962  1.0281
16253SOL    HW150959   2.548   4.012   0.588  1.0494  1.2664  1.6394
16253SOL    HW250960   2.471   3.979   0.713  0.4182 -0.0093  0.9272
16254SOL     OW50961   6.598   4.865   6.431  0.0820 -0.5614  0.1135
16254SOL    HW150962   6.623   4.796   6.369  0.4701 -0.8672  0.6062
16254SOL    HW250963   6.658   4.854   6.505 -0.6042 -0.4200  0.7020
16255SOL     OW50964   0.113   7.121   0.894 -0.0059 -0.5311  0.3254
16255SOL    HW150965   0.085   7.120   0.986 -0.8222 -1.0113  0.0892
16255SOL    HW250966   0.196   7.075   0.894  0.4033  0.1748  0.9346
16256SOL     OW50967   6.047   4.995   0.403  0.7362 -0.1837 -0.0446
16256SOL    HW150968   6.027   5.078   0.445 -0.3561  0.0698 -1.0004
16256SOL    HW250969   5.978   4.935   0.433  0.7940 -0.3896 -0.3102
16257SOL     OW50970   3.403   2.514   5.100  0.3340  0.7754 -0.4596
16257SOL    HW150971   3.415   2.594   5.151 -0.2823 -0.3380  1.5730
16257SOL    HW250972   3.319   2.525   5.056 -0.2846  0.8377  0.7009
16258SOL     OW50973   0.053   2.342   3.077  0.1180  0.3781  0.3007
16258SOL    HW150974   0.113   2.294   3.020  0.6208 -1.1302  1.9889
16258SOL    HW250975   0.097   2.426   3.093  0.5298  0.3371 -0.5329
16259SOL     OW50976   7.191   8.892   6.405 -0.5474  0.7559  0.0525
16259SOL    HW150977   7.182   8.982   6.437 -0.0399  1.9419 -2.7835
16259SOL    HW250978   7.201   8.902   6.310 -2.7178 -2.4659 -0.6476
16260SOL     OW50979   9.333   8.115   7.817 -0.5005  0.8337  0.0336
16260SOL    HW150980   9.383   8.195   7.804  0.5274  0.1513 -0.3758
16260SOL    HW250981   9.357   8.059   7.743 -0.6318 -0.1156  0.6794
16261SOL     OW50982   6.559   7.503   2.507 -0.0857  0.2424 -0.1852
16261SOL    HW150983   6.651   7.531   2.509 -0.2970  0.9028  0.7533
16261SOL    HW250984   6.511   7.580   2.477 -0.5207  0.5029  1.0975
16262SOL     OW50985   5.062   7.778   7.024  0.4636  0.5640 -0.0814
16262SOL    HW150986   5.114   7.778   6.944 -1.1858  0.9989 -1.2039
16262SOL    HW250987   4.998   7.708   7.010  0.3011  0.4919  0.9624
16263SOL     OW50988   2.222   9.115   8.208  0.2801  0.0885 -0.0325
16263SOL    HW150989   2.301   9.085   8.163  0.2467 -0.0793  0.0210
16263SOL    HW250990   2.161   9.138   8.137  0.3963  0.2767 -0.0740
16264SOL     OW50991   4.498   1.357   8.232 -0.2876 -0.0574  0.1964
16264SOL    HW150992   4.473   1.426   8.294  0.4874  1.2413 -0.8878
16264SOL    HW250993   4.550   1.402   8.166 -0.8584 -1.4507 -1.2637
16265SOL     OW50994   9.153   0.530   4.909 -0.1851  0.1818  0.1245
16265SOL    HW150995   9.195   0.448   4.935 -0.5629  0.3243  1.2543
16265SOL    HW250996   9.218   0.575   4.855  0.4298 -0.3875  0.3900
16266SOL     OW50997   6.948   4.918   5.050  0.0149  0.1142  1.1182
16266SOL    HW150998   7.032   4.952   5.079  0.5032 -1.5459  1.7122
16266SOL    HW250999   6.915   4.986   4.990  1.7955  0.7402  0.7803
16267SOL     OW51000   7.887   4.207   7.433  0.9200 -0.4212  0.3483
16267SOL    HW151001   7.819   4.185   7.496  0.1223 -1.1478 -0.7447
16267SOL    HW251002   7.859   4.291   7.396  1.8473  0.4734  1.5406
16268SOL     OW51003   0.540   1.326   4.121 -0.4440 -0.3338  0.0434
16268SOL    HW151004   0.614   1.292   4.171 -2.1831 -1.8384  1.7522
16268SOL    HW251005   0.534   1.418   4.146 -0.2510 -0.6573  1.3678
16269SOL     OW51006   8.289   0.153   4.800  0.2502 -0.5066  0.3092
16269SOL    HW151007   8.223   0.202   4.750  2.2995  0.7152 -1.3385
16269SOL    HW251008   8.318   0.213   4.868 -0.1167 -0.9643  0.8889
16270SOL     OW51009   3.950   0.667   2.844 -0.2552  1.0965  0.2550
16270SOL    HW151010   3.990   0.653   2.929  0.3600 -1.7643 -0.3948
16270SOL    HW251011   3.856   0.665   2.860 -0.1493 -0.5254  0.7448
16271SOL     OW51012   1.435   3.356   4.961 -0.2059 -0.1659 -0.5886
16271SOL    HW151013   1.390   3.317   5.036 -0.2140 -1.3197 -1.1680
16271SOL    HW251014   1.526   3.363   4.989  0.0251 -1.7123 -0.8635
16272SOL     OW51015   0.424   2.596   2.994 -0.6867 -0.3362 -0.1449
16272SOL    HW151016   0.475   2.516   3.007  0.3035  0.2750 -0.1612
16272SOL    HW251017   0.485   2.656   2.951 -1.8962 -0.0954 -1.5764
16273SOL     OW51018   7.104   2.872   7.989  0.6233  0.1626 -0.2788
16273SOL    HW151019   7.124   2.820   7.911  0.1585  1.0093 -0.9892
16273SOL    HW251020   7.009   2.878   7.990  0.5032 -1.2906  1.3604
16274SOL     OW51021   2.090   7.043   3.525 -0.4433  0.0797  0.2790
16274SOL    HW151022   2.179   7.023   3.496 -0.9503  0.4994 -1.6828
16274SOL    HW251023   2.101   7.111   3.591  0.7564 -0.7708  0.9918
16275SOL     OW51024   7.789   6.991   3.653  0.2029  0.0041  0.4166
16275SOL    HW151025   7.801   6.945   3.736  1.4862 -1.9544 -0.7613
16275SOL    HW251026   7.803   7.083   3.674 -1.2255 -0.2282  2.6554
16276SOL     OW51027   2.690   0.374   8.651  0.2742 -0.5628 -0.0401
16276SOL    HW151028   2.698   0.327   8.734  0.6684 -2.8451 -1.2846
16276SOL    HW251029   2.777   0.412   8.637  0.3519 -0.5887  0.3440
16277SOL     OW51030   5.393   3.604   3.206 -0.4895  0.2232 -0.0390
16277SOL    HW151031   5.354   3.655   3.135  1.3337  2.0844  0.1875
16277SOL    HW251032   5.319   3.570   3.255 -1.7890  0.9389 -1.4344
16278SOL     OW51033   6.952   5.211   5.622  0.3577  0.0703 -0.1782
16278SOL    HW151034   6.883   5.168   5.673  0.3342  0.2137 -0.0892
16278SOL    HW251035   6.905   5.267   5.561  0.3725 -0.4668 -0.6858
16279SOL     OW51036   5.234   4.676   6.672  0.3132 -0.3632 -0.5932
16279SOL    HW151037   5.242   4.582   6.683 -0.5308 -0.5180 -1.1687
16279SOL    HW251038   5.311   4.713   6.716  0.0121 -1.2354  0.6922
16280SOL     OW51039   7.442   2.175   3.812  0.7574 -0.1079  0.3474
16280SOL    HW151040   7.473   2.215   3.730 -1.4556 -0.8116 -0.9256
16280SOL    HW251041   7.419   2.085   3.788 -0.1966 -0.2508  1.6717
16281SOL     OW51042   7.943   3.349   7.131 -0.2276  0.5749  0.3554
16281SOL    HW151043   7.868   3.377   7.079 -0.7575 -2.4993 -0.7808
16281SOL    HW251044   7.947   3.411   7.204 -2.4001  2.2117 -0.7965
16282SOL     OW51045   3.351   8.068   0.004  0.0012 -0.0009 -0.0639
16282SOL    HW151046   3.411   8.017  -0.050 -0.2576  0.1651 -0.5167
16282SOL    HW251047   3.394   8.075   0.089  0.6030  0.0877 -0.3757
16283SOL     OW51048   2.296   4.739   0.741  0.1130 -0.0531 -0.0719
16283SOL    HW151049   2.313   4.809   0.678 -2.1443  0.9033  0.2893
16283SOL    HW251050   2.362   4.752   0.808  1.8854 -0.4240 -1.6580
16284SOL     OW51051   8.805   1.990   7.738 -0.3323 -0.0096  0.0207
16284SOL    HW151052   8.848   1.977   7.654  2.2789 -1.5190  1.4346
16284SOL    HW251053   8.779   1.902   7.765 -0.5955  0.3681  1.0377
16285SOL     OW51054   3.242   7.584   7.929 -0.2664 -0.2550 -0.2654
16285SOL    HW151055   3.307   7.523   7.895  0.9576  0.8207  0.0590
16285SOL    HW251056   3.276   7.670   7.906 -1.4365  0.3456  0.1836
16286SOL     OW51057   2.002   1.043   0.879 -0.0577 -0.1278  0.0026
16286SOL    HW151058   1.954   1.126   0.868 -1.4585 -1.0707 -1.3878
16286SOL    HW251059   1.977   0.991   0.803  1.7478 -1.3964  0.2342
16287SOL     OW51060   8.051   4.008   3.361  0.4095 -0.0408  0.4898
16287SOL    HW151061   7.982   4.025   3.425  0.4155  0.1239  0.4536
16287SOL    HW251062   8.058   3.913   3.358  1.0764 -0.0311  1.4479
16288SOL     OW51063   0.947   5.966   3.152  0.0134  0.0229  0.3038
16288SOL    HW151064   1.018   6.021   3.186  1.0392 -1.4534  0.6882
16288SOL    HW251065   0.959   5.968   3.057 -0.8100  1.5352  0.2217
16289SOL     OW51066   1.154   2.499   7.930 -0.1727  0.4750 -0.1716
16289SOL    HW151067   1.237   2.488   7.884  0.4776  0.5116  0.9496
16289SOL    HW251068   1.095   2.435   7.888  0.5861  0.0302 -0.5924
16290SOL     OW51069   7.821   5.176   4.917 -0.1433  0.3656  0.0195
16290SOL    HW151070   7.784   5.104   4.866  3.1284 -1.9101  0.4857
16290SOL    HW251071   7.850   5.240   4.852  0.2826 -0.5752 -0.7486
16291SOL     OW51072   3.404   9.220   7.336 -0.3150  0.0100  0.0094
16291SOL    HW151073   3.325   9.168   7.320 -0.1916 -1.1500  2.5628
16291SOL    HW251074   3.476   9.161   7.314 -0.1643  0.3516 -0.4134
16292SOL     OW51075   5.632   9.406   9.493  0.1835 -0.2286 -0.2433
16292SOL    HW151076   5.655   9.452   9.413 -1.7523  0.6782 -0.3214
16292SOL    HW251077   5.715   9.397   9.540  0.9952  1.1756 -1.3425
16293SOL     OW51078   5.279   8.227   1.724  0.3496 -0.9419  0.1818
16293SOL    HW151079   5.362   8.180   1.718  0.1280 -1.1831 -1.6124
16293SOL    HW251080   5.215   8.170   1.680 -0.7758 -0.7223  1.4489
16294SOL     OW51081   1.932   3.699   2.546 -0.2638 -0.3415 -0.2669
16294SOL    HW151082   2.023   3.674   2.534  0.0069  0.8120 -0.8476
16294SOL    HW251083   1.928   3.789   2.513 -1.6493 -0.4366 -0.4193
16295SOL     OW51084   5.889   3.991   7.320 -0.4809 -0.3607  0.3041
16295SOL    HW151085   5.947   3.948   7.384 -0.8616 -0.6603  0.4554
16295SOL    HW251086   5.947   4.020   7.250 -0.0621 -0.0798  0.7632
16296SOL     OW51087   4.541   8.974   6.843  0.0172 -0.4328 -0.0985
16296SOL    HW151088   4.482   9.021   6.901 -1.9096 -1.4255 -1.1684
16296SOL    HW251089   4.508   8.993   6.755  0.8234 -1.6408 -0.6837
16297SOL     OW51090   0.690   9.570   5.663 -0.6055 -0.1199  0.3271
16297SOL    HW151091   0.741   9.650   5.678 -1.7608  0.3230  2.2211
16297SOL    HW251092   0.633   9.591   5.588 -1.5134  1.1892  1.3449
16298SOL     OW51093   2.530   8.855   7.066  0.3369  0.9130 -1.4404
16298SOL    HW151094   2.495   8.769   7.086 -2.3768  1.8369 -1.8123
16298SOL    HW251095   2.549   8.852   6.972  1.3957  0.4007 -1.2307
16299SOL     OW51096   3.826   0.436   0.486 -0.4853 -0.0272 -0.1235
16299SOL    HW151097   3.813   0.524   0.521 -0.0050 -0.4835  1.2748
16299SOL    HW251098   3.882   0.448   0.409 -0.3858  0.8776  0.0863
16300SOL     OW51099   7.256   2.709   5.590 -0.0318  0.2645 -0.6519
16300SOL    HW151100   7.260   2.801   5.565 -2.5411  0.5079 -0.4266
16300SOL    HW251101   7.314   2.702   5.666  0.5912  1.5219 -0.9859
16301SOL     OW51102   3.738   7.396   2.997 -0.0177 -0.0325 -0.0074
16301SOL    HW151103   3.727   7.385   2.903  0.6187 -0.0361 -0.0873
16301SOL    HW251104   3.779   7.315   3.026  0.7142  0.3655  0.1037
16302SOL     OW51105   4.203   1.068   3.150  0.1196 -0.4264 -0.2044
16302SOL    HW151106   4.110   1.087   3.165 -0.0070  0.4041 -1.7799
16302SOL    HW251107   4.235   1.143   3.100  1.7893 -0.4553  0.7232
16303SOL     OW51108   1.096   2.562   8.221  0.4463 -0.1382 -0.0854
16303SOL    HW151109   1.040   2.636   8.197  0.5304 -0.3444 -0.9190
16303SOL    HW251110   1.123   2.523   8.138  1.1212 -0.5752  0.3265
16304SOL     OW51111   0.464   0.958   2.111  0.0016  0.1200 -0.3223
16304SOL    HW151112   0.386   0.963   2.056  0.3455 -2.5597 -1.2074
16304SOL    HW251113   0.520   1.029   2.081 -1.5580  1.3385 -0.4921
16305SOL     OW51114   4.567   1.377   2.548 -0.4927  0.2251 -0.0159
16305SOL    HW151115   4.605   1.344   2.630 -0.3633 -1.4217 -0.7039
16305SOL    HW251116   4.642   1.396   2.493 -0.5816 -1.6529 -0.8525
16306SOL     OW51117   6.956   7.764   4.365  0.1350  0.3518  0.1033
16306SOL    HW151118   6.885   7.726   4.418 -0.3440  0.2482 -0.6068
16306SOL    HW251119   7.032   7.710   4.386  0.3334  1.2433  1.8460
16307SOL     OW51120   0.642   6.090   4.058  0.0441 -0.4413 -0.3365
16307SOL    HW151121   0.706   6.115   3.992  0.1186 -0.3900 -0.2447
16307SOL    HW251122   0.568   6.149   4.043 -0.2025 -0.8580 -0.7909
16308SOL     OW51123   9.298   6.149   5.785  0.0188 -0.3918  0.7762
16308SOL    HW151124   9.205   6.154   5.804  0.2148  2.5537  1.3834
16308SOL    HW251125   9.314   6.221   5.724  1.7243 -1.5586 -0.2382
16309SOL     OW51126   9.563   0.684   6.737 -0.6945  0.6349  0.1016
16309SOL    HW151127   9.519   0.657   6.817 -0.9139  2.0062  0.4591
16309SOL    HW251128   9.494   0.718   6.681 -0.3771  0.8261 -0.1813
16310SOL     OW51129   3.635   1.480   8.240 -0.3381  0.2491 -0.7585
16310SOL    HW151130   3.651   1.469   8.334  1.1089 -0.9835 -1.1101
16310SOL    HW251131   3.567   1.416   8.220  1.2774 -1.4521 -1.0152
16311SOL     OW51132   3.577   1.579   6.622  0.3867  0.2382 -0.3758
16311SOL    HW151133   3.606   1.533   6.701 -1.6475  0.3506  0.4842
16311SOL    HW251134   3.529   1.513   6.572 -2.2731  1.2395  0.7094
16312SOL     OW51135   9.183   3.812   5.738  0.0094  0.1062  0.1089
16312SOL    HW151136   9.151   3.788   5.825  1.1965 -3.2469 -0.2281
16312SOL    HW251137   9.106   3.804   5.682 -0.0793 -1.1691  0.3642
16313SOL     OW51138   5.483   2.500   7.423  0.0023 -0.0318  0.4719
16313SOL    HW151139   5.505   2.577   7.371  2.0119 -1.8172 -1.5462
16313SOL    HW251140   5.403   2.466   7.383  1.5650 -1.4269 -1.7135
16314SOL     OW51141   6.715   2.942   3.738 -0.4070  0.1897  0.1967
16314SOL    HW151142   6.775   2.888   3.790 -0.6025  0.4764  0.7267
16314SOL    HW251143   6.653   2.879   3.700 -1.0247  0.0861  1.3267
16315SOL     OW51144   7.778   4.220   1.889  0.6335  0.0324  0.2301
16315SOL    HW151145   7.707   4.185   1.943  0.1163 -0.3134 -0.6453
16315SOL    HW251146   7.742   4.302   1.853  1.0550  0.3770  0.5818
16316SOL     OW51147   1.132   3.019   1.431  0.6051 -0.3829  0.1788
16316SOL    HW151148   1.079   3.081   1.383 -1.5969 -2.1449  0.1605
16316SOL    HW251149   1.083   3.003   1.512  1.4451 -1.5597  0.4855
16317SOL     OW51150   6.376   4.492   3.349  0.3834  0.5629 -0.6405
16317SOL    HW151151   6.373   4.465   3.441 -2.0476  3.2553  0.2008
16317SOL    HW251152   6.331   4.422   3.302  0.4904 -0.2213  0.3909
16318SOL     OW51153   4.058   7.087   7.714 -0.2889  0.1911 -0.3672
16318SOL    HW151154   4.076   7.123   7.628 -0.0125 -1.6197 -1.1255
16318SOL    HW251155   3.966   7.109   7.731 -0.2134  0.9658 -0.9004
16319SOL     OW51156   5.455   2.979   9.507 -0.3194  0.5828  0.7204
16319SOL    HW151157   5.428   2.960   9.596 -0.7141  1.0222  0.6973
16319SOL    HW251158   5.381   3.026   9.468 -0.6256 -0.6111 -0.1975
16320SOL     OW51159   9.423   3.054   7.429  0.2076 -0.0025 -0.0563
16320SOL    HW151160   9.436   3.115   7.501  1.9590 -1.2554  0.7674
16320SOL    HW251161   9.502   3.063   7.375 -0.6263  0.1968 -1.2967
16321SOL     OW51162   6.519   1.339   0.653 -0.0898  0.4223  0.1034
16321SOL    HW151163   6.509   1.244   0.662 -0.8944  0.5101  0.1754
16321SOL    HW251164   6.545   1.368   0.741 -0.4102  0.3331  0.2310
16322SOL     OW51165   5.350   3.105   3.386  0.1681  0.2022 -0.1409
16322SOL    HW151166   5.392   3.023   3.358  0.0276 -0.0853  0.4697
16322SOL    HW251167   5.336   3.154   3.305 -0.2037 -0.5956 -0.5689
16323SOL     OW51168   1.391   8.474   4.320  0.1683  0.0999 -0.2985
16323SOL    HW151169   1.297   8.491   4.321  0.4955  2.2031  1.6795
16323SOL    HW251170   1.398   8.380   4.305 -2.2110 -0.0186 -1.0860
16324SOL     OW51171   5.979   2.957   7.101 -0.2518 -0.1125 -0.0946
16324SOL    HW151172   5.902   2.922   7.146 -0.2890  0.7629  0.5448
16324SOL    HW251173   6.035   2.880   7.086 -1.2620 -0.7673 -0.6281
16325SOL     OW51174   7.536   7.331   4.202 -0.5972  0.0066 -0.2046
16325SOL    HW151175   7.465   7.360   4.259 -0.5467 -1.5035  0.6659
16325SOL    HW251176   7.616   7.358   4.247 -0.5815  0.2920 -0.3989
16326SOL     OW51177   8.985   1.213   9.478 -0.4136  0.2091 -0.4374
16326SOL    HW151178   8.903   1.259   9.455 -0.5071  0.1582 -0.2081
16326SOL    HW251179   9.054   1.277   9.460 -0.5172  0.3105 -0.4764
16327SOL     OW51180   2.367   5.772   5.232 -0.4543 -0.5406 -1.0272
16327SOL    HW151181   2.293   5.817   5.190 -0.6214  1.2071  0.9709
16327SOL    HW251182   2.444   5.815   5.196 -0.5789  0.5280 -0.0781
16328SOL     OW51183   0.405   7.190   6.817  0.3922  0.4931  0.2050
16328SOL    HW151184   0.370   7.143   6.893 -1.4280  0.6790 -0.4572
16328SOL    HW251185   0.500   7.178   6.822  0.1513 -1.2478  1.3466
16329SOL     OW51186   6.038   2.346   8.943 -0.1447  0.1442 -0.2224
16329SOL    HW151187   6.018   2.430   8.984 -0.9181 -0.1856  0.0946
16329SOL    HW251188   6.048   2.285   9.016 -2.7950 -0.7311 -0.4826
16330SOL     OW51189   7.636   9.015   0.985 -0.3895  0.7028 -0.2685
16330SOL    HW151190   7.607   9.034   1.075 -0.9063  1.0464 -0.5009
16330SOL    HW251191   7.592   9.081   0.932  0.9037  1.2936 -0.6408
16331SOL     OW51192   6.096   8.649   2.213  0.6614  0.5921 -0.2218
16331SOL    HW151193   6.011   8.677   2.179 -0.3448 -0.0859  1.6045
16331SOL    HW251194   6.113   8.706   2.288 -0.3651 -2.0228  2.1657
16332SOL     OW51195   3.710   6.169   7.718 -0.2616 -0.7481  0.1878
16332SOL    HW151196   3.655   6.102   7.758  0.3905 -1.6052 -0.3312
16332SOL    HW251197   3.653   6.212   7.655 -1.2761  0.5410  1.8706
16333SOL     OW51198   7.571   3.430   3.386 -0.3088  0.4032 -0.1884
16333SOL    HW151199   7.573   3.519   3.349 -0.4714 -0.1009 -1.4247
16333SOL    HW251200   7.630   3.379   3.330  0.6646 -0.0414  1.1741
16334SOL     OW51201   6.646   7.329   5.606  0.1525 -0.5948  0.0487
16334SOL    HW151202   6.570   7.304   5.554  0.9971  1.6345 -2.5040
16334SOL    HW251203   6.609   7.363   5.688 -1.5780 -0.0179 -0.9176
16335SOL     OW51204   5.625   5.461   3.599 -0.3497 -0.4163 -0.1098
16335SOL    HW151205   5.534   5.432   3.596 -0.6199  0.4981 -1.7226
16335SOL    HW251206   5.621   5.555   3.584  0.8985 -0.4570 -0.8119
16336SOL     OW51207   8.917   3.852   6.540 -0.1350  0.5233  0.3174
16336SOL    HW151208   8.963   3.819   6.462  1.1512  0.6151  1.0023
16336SOL    HW251209   8.909   3.776   6.598  0.3091  0.7794  0.7262
16337SOL     OW51210   5.763   1.186   4.336  0.0741 -0.0881 -0.4081
16337SOL    HW151211   5.777   1.221   4.424  3.3117  0.5473 -1.0249
16337SOL    HW251212   5.830   1.118   4.326 -1.2559 -1.2732 -1.8639
16338SOL     OW51213   9.359   2.013   7.725 -0.0470  0.0125  0.2620
16338SOL    HW151214   9.448   2.026   7.757  0.3034 -0.6069 -0.4241
16338SOL    HW251215   9.344   2.086   7.664  0.7810 -1.0020 -1.2239
16339SOL     OW51216   2.661   8.821   8.650 -0.6204  0.1118 -0.0572
16339SOL    HW151217   2.590   8.882   8.631  0.2191  0.6394 -1.7030
16339SOL    HW251218   2.618   8.739   8.671 -1.8336 -0.7843 -4.9446
16340SOL     OW51219   8.074   3.593   9.204 -0.4226 -0.1033  0.7632
16340SOL    HW151220   8.160   3.555   9.217 -0.3911 -0.2283  0.2308
16340SOL    HW251221   8.013   3.523   9.228 -0.3839 -1.2606 -2.0158
16341SOL     OW51222   8.983   9.235   8.760 -0.0154 -0.6886 -0.5119
16341SOL    HW151223   9.021   9.211   8.845  0.6627 -0.1538 -0.6561
16341SOL    HW251224   9.012   9.165   8.701 -2.2726 -2.2624  0.1056
16342SOL     OW51225   7.957   4.448   5.641 -0.3646 -0.3131  0.4390
16342SOL    HW151226   8.005   4.531   5.644  0.6807 -0.9302  2.0936
16342SOL    HW251227   7.880   4.468   5.588 -0.3065  1.8131  1.0336
16343SOL     OW51228   9.080   0.109   1.755 -0.0097  0.1476 -0.4179
16343SOL    HW151229   9.117   0.021   1.758 -0.7417 -0.2188  3.5248
16343SOL    HW251230   9.043   0.117   1.667  1.0678 -3.0133 -1.2784
16344SOL     OW51231   4.912   8.776   3.505  0.1024  0.6049 -0.4438
16344SOL    HW151232   4.946   8.818   3.426 -0.9156  0.8644 -0.7542
16344SOL    HW251233   4.895   8.685   3.479  1.6992  0.1161  0.0561
16345SOL     OW51234   8.250   0.878   1.575  0.2703 -0.1672 -0.4893
16345SOL    HW151235   8.191   0.954   1.582  0.7152  0.1971 -0.6390
16345SOL    HW251236   8.244   0.853   1.482  0.9596  0.3752 -0.6908
16346SOL     OW51237   8.831   9.518   8.251 -0.4790 -0.0288  0.2985
16346SOL    HW151238   8.871   9.448   8.301  1.0951  1.2251  0.8835
16346SOL    HW251239   8.899   9.586   8.245 -1.8245  1.3281 -0.4943
16347SOL     OW51240   7.017   2.491   5.852 -0.4123  0.0445  0.3739
16347SOL    HW151241   7.093   2.545   5.828  0.9496 -1.8772  0.0807
16347SOL    HW251242   6.942   2.539   5.819  0.8874  0.8376 -1.6115
16348SOL     OW51243   3.237   1.496   6.834  0.3431  0.2239  0.0180
16348SOL    HW151244   3.173   1.425   6.822  1.8083 -1.1817  0.1225
16348SOL    HW251245   3.294   1.490   6.757  0.2034  1.6180 -0.2079
16349SOL     OW51246   9.232   2.271   4.532  0.1617 -0.2797  0.5052
16349SOL    HW151247   9.158   2.241   4.584 -0.9703  0.1403 -0.7947
16349SOL    HW251248   9.264   2.193   4.487 -1.1618 -0.0491 -0.9102
16350SOL     OW51249   1.391   8.674   2.708 -0.8044 -0.1482 -0.1654
16350SOL    HW151250   1.419   8.765   2.721 -0.2252  0.2148 -3.1910
16350SOL    HW251251   1.298   8.680   2.690 -0.9510 -0.2896  0.5049
16351SOL     OW51252   1.605   7.836   7.842  0.1667 -0.5612 -0.1831
16351SOL    HW151253   1.603   7.928   7.867 -2.7169 -0.7095  0.4814
16351SOL    HW251254   1.617   7.788   7.924 -0.6075 -0.7976 -0.1931
16352SOL     OW51255   4.805   4.732   2.291 -0.7802  1.0500  0.4384
16352SOL    HW151256   4.724   4.731   2.240 -0.1459  1.2972 -0.6164
16352SOL    HW251257   4.857   4.803   2.252 -0.3856  1.4408  1.6348
16353SOL     OW51258   7.901   2.846   6.864  0.0865 -0.9150 -0.7075
16353SOL    HW151259   7.924   2.934   6.895 -1.5306  0.0572 -2.0868
16353SOL    HW251260   7.985   2.807   6.838  0.7883  0.3861 -0.4820
16354SOL     OW51261   1.868   2.179   4.039  0.6367  0.0064 -0.5196
16354SOL    HW151262   1.858   2.274   4.035  0.0001 -0.0493 -0.3623
16354SOL    HW251263   1.778   2.145   4.042  0.8504 -0.6293 -1.1140
16355SOL     OW51264   5.458   6.016   9.115 -0.5106 -0.6543 -0.4024
16355SOL    HW151265   5.461   5.964   9.035 -1.6475  1.7543 -2.1326
16355SOL    HW251266   5.539   6.068   9.113 -0.4931 -0.6525  0.0816
16356SOL     OW51267   3.764   5.843   3.215 -0.2657 -0.1886 -0.4838
16356SOL    HW151268   3.709   5.837   3.294  0.0927 -0.4429 -0.2487
16356SOL    HW251269   3.703   5.832   3.142 -0.3264 -2.2019 -0.1945
16357SOL     OW51270   5.037   4.374   4.146 -0.4567  0.1097 -0.5057
16357SOL    HW151271   4.988   4.331   4.075 -1.3375  3.0732 -1.8539
16357SOL    HW251272   4.988   4.350   4.226 -0.2575 -2.1631 -0.9878
16358SOL     OW51273   5.061   7.128   1.879  0.8928 -0.0494  0.1882
16358SOL    HW151274   5.048   7.143   1.785  1.8298 -2.3500 -0.3791
16358SOL    HW251275   5.034   7.210   1.920  0.3480  0.9906 -2.0697
16359SOL     OW51276   6.677   0.554   8.613  0.1570 -0.2125  0.2030
16359SOL    HW151277   6.711   0.642   8.596 -0.4295 -0.1176 -0.5450
16359SOL    HW251278   6.592   0.569   8.654 -1.0922 -0.3654 -2.1709
16360SOL     OW51279   9.548   0.618   2.794 -0.4983  0.3752  0.5589
16360SOL    HW151280   9.534   0.626   2.888 -1.2239 -3.5909  0.9701
16360SOL    HW251281   9.637   0.582   2.786 -0.2001  1.2555 -0.3461
16361SOL     OW51282   0.795   4.762   4.937 -0.5011 -0.3450 -0.4015
16361SOL    HW151283   0.784   4.815   4.858 -0.1237 -1.5216 -1.2660
16361SOL    HW251284   0.887   4.774   4.961 -0.7126  0.3180  0.0906
16362SOL     OW51285   2.800   0.929   3.816 -0.0666  0.0409 -0.4805
16362SOL    HW151286   2.885   0.972   3.828 -1.0947  2.1672 -0.4493
16362SOL    HW251287   2.809   0.879   3.735  0.8352  1.2485 -1.1490
16363SOL     OW51288   1.560   8.157   8.157 -0.4077  0.0205 -0.3470
16363SOL    HW151289   1.549   8.062   8.150  0.2666  0.0692 -3.0221
16363SOL    HW251290   1.472   8.189   8.177 -0.3295 -1.2027  2.5328
16364SOL     OW51291   3.337   6.789   2.750 -0.1705  0.1711  0.3535
16364SOL    HW151292   3.312   6.702   2.720 -1.1021  0.9269 -1.1901
16364SOL    HW251293   3.260   6.843   2.732  0.1385  1.1909  1.9293
16365SOL     OW51294   8.025   0.275   2.648 -0.3184 -0.0656 -0.5269
16365SOL    HW151295   8.027   0.180   2.637  0.0248  0.0048 -1.0858
16365SOL    HW251296   8.108   0.295   2.692 -0.1075  0.0470 -0.9788
16366SOL     OW51297   7.841   2.363   8.761  0.1587  0.0588 -0.3650
16366SOL    HW151298   7.807   2.370   8.850 -0.3985 -0.5626 -0.5197
16366SOL    HW251299   7.892   2.443   8.749  3.1319 -1.3381  1.7099
16367SOL     OW51300   0.932   3.438   9.312 -0.3753  0.3437  0.1698
16367SOL    HW151301   0.931   3.342   9.321 -0.9699  0.5360  3.2054
16367SOL    HW251302   0.843   3.461   9.286 -0.1196  0.0978 -1.0066
16368SOL     OW51303   5.399   4.787   8.824 -0.4141  0.3180  0.1180
16368SOL    HW151304   5.334   4.807   8.890  0.1868  0.8569  0.5600
16368SOL    HW251305   5.469   4.743   8.872 -0.5349 -0.4365 -0.3856
16369SOL     OW51306   3.453   5.771   6.181 -0.0522 -0.2513 -0.4022
16369SOL    HW151307   3.473   5.865   6.179  1.9291 -0.6035  0.3869
16369SOL    HW251308   3.530   5.732   6.222 -0.3897 -2.3377 -1.6375
16370SOL     OW51309   0.720   3.412   4.101  0.6359 -0.5399  0.6184
16370SOL    HW151310   0.789   3.348   4.084  1.5304  0.2706  1.0976
16370SOL    HW251311   0.668   3.414   4.021  1.3537 -0.9367  0.1388
16371SOL     OW51312   9.402   5.945   3.466 -0.0432 -0.0144  0.1175
16371SOL    HW151313   9.335   5.999   3.508 -1.3109 -0.9589 -0.6310
16371SOL    HW251314   9.481   5.999   3.470 -1.0369  1.5040  0.2416
16372SOL     OW51315   0.320   3.662   3.852 -0.2386  0.2654  0.2143
16372SOL    HW151316   0.412   3.666   3.827 -0.3822 -0.0716 -0.3919
16372SOL    HW251317   0.288   3.752   3.841 -0.3841  0.0601 -1.1870
16373SOL     OW51318   2.752   0.998   2.212  0.3296 -0.1059 -0.2892
16373SOL    HW151319   2.825   0.966   2.159 -0.0858  0.1272 -1.0250
16373SOL    HW251320   2.791   1.067   2.266  0.7778 -0.3951 -0.2372
16374SOL     OW51321   1.881   3.029   6.202 -0.1312  0.0575  0.0062
16374SOL    HW151322   1.838   3.062   6.281  2.0490  2.6776  0.2669
16374SOL    HW251323   1.872   3.101   6.139  3.0102  0.4430 -0.1581
16375SOL     OW51324   5.623   8.906   3.596 -0.9407 -0.2752 -0.1489
16375SOL    HW151325   5.638   8.842   3.666  0.2145  0.0468 -0.0733
16375SOL    HW251326   5.559   8.967   3.633 -0.0723  0.1022  0.8030
16376SOL     OW51327   8.071   2.586   4.143 -0.4752  0.5060  0.4495
16376SOL    HW151328   8.076   2.674   4.107  0.5489 -0.2049 -1.2434
16376SOL    HW251329   7.983   2.556   4.121  0.2620 -0.0636 -1.9149
16377SOL     OW51330   5.283   4.318   4.207  0.1497  0.6563  0.0345
16377SOL    HW151331   5.196   4.336   4.173  0.4881  0.2875 -1.0856
16377SOL    HW251332   5.342   4.367   4.149  0.8022 -0.7506 -0.5436
16378SOL     OW51333   7.159   3.273   6.269 -0.3647 -0.4810  0.2941
16378SOL    HW151334   7.194   3.258   6.357 -0.6173 -1.1628  0.2802
16378SOL    HW251335   7.071   3.307   6.283  0.6276  2.3803  0.3629
16379SOL     OW51336   4.009   3.082   7.139 -0.2187  0.2042 -0.8722
16379SOL    HW151337   3.943   3.131   7.090  1.2348  2.4770 -0.7164
16379SOL    HW251338   4.088   3.090   7.086  0.1966 -1.6390 -0.5861
16380SOL     OW51339   1.640   2.373   6.726  0.1450 -0.6417  0.0238
16380SOL    HW151340   1.629   2.297   6.669 -1.0169  0.3189 -1.0893
16380SOL    HW251341   1.627   2.449   6.668  0.5516  0.3980  1.2434
16381SOL     OW51342   0.736   1.646   5.643  0.1675 -0.2116 -0.4254
16381SOL    HW151343   0.731   1.589   5.720  1.7662  1.4233  0.9474
16381SOL    HW251344   0.827   1.638   5.613 -0.0516  0.3251 -1.2657
16382SOL     OW51345   8.475   3.932   7.474 -0.3298  0.1327  0.3701
16382SOL    HW151346   8.558   3.948   7.519 -0.0622 -0.0127 -0.0545
16382SOL    HW251347   8.446   4.018   7.444  0.0083  0.1082 -0.0474
16383SOL     OW51348   2.278   1.828   1.063  0.2825  0.0800 -0.1227
16383SOL    HW151349   2.200   1.878   1.086  0.5760  0.7265 -0.4843
16383SOL    HW251350   2.294   1.772   1.138 -3.2296 -3.5908 -1.7730
16384SOL     OW51351   8.336   6.011   4.035 -0.4801  0.1667  0.0218
16384SOL    HW151352   8.324   5.927   4.079 -0.3754  0.6931  1.0616
16384SOL    HW251353   8.390   6.063   4.095  0.7820  0.4416 -1.2854
16385SOL     OW51354   3.953   2.203   5.800  1.2585  0.1357 -0.1708
16385SOL    HW151355   4.004   2.172   5.875  1.1384 -0.0975 -0.1856
16385SOL    HW251356   3.882   2.255   5.839 -0.3115 -2.0353  0.0713
16386SOL     OW51357   2.283   1.822   8.153 -0.4735 -0.1158 -0.0619
16386SOL    HW151358   2.274   1.727   8.162 -1.0871 -0.0433  0.1796
16386SOL    HW251359   2.327   1.834   8.069 -0.5423 -0.6122 -0.1734
16387SOL     OW51360   2.905   6.452   5.270  0.6308 -0.0420 -0.5309
16387SOL    HW151361   2.840   6.441   5.340 -0.1789 -1.7142 -1.5196
16387SOL    HW251362   2.975   6.504   5.311 -0.4663  0.2081  1.0995
16388SOL     OW51363   7.675   1.942   3.118 -0.5875 -0.4911 -0.4452
16388SOL    HW151364   7.698   1.911   3.031  0.9583  1.2372 -0.6886
16388SOL    HW251365   7.630   2.025   3.103  1.0320  0.5935  0.4044
16389SOL     OW51366   3.371   4.208   2.324 -0.1081  0.3475  0.1231
16389SOL    HW151367   3.446   4.163   2.362  0.1329 -0.4318 -1.1999
16389SOL    HW251368   3.352   4.279   2.385  2.2227  1.0905  0.0938
16390SOL     OW51369   5.835   3.264   8.185 -0.5757 -0.5905 -0.2189
16390SOL    HW151370   5.850   3.321   8.110  0.4880 -0.9258 -0.2739
16390SOL    HW251371   5.891   3.299   8.254 -1.5697 -0.2665  0.4462
16391SOL     OW51372   2.115   3.492   8.810  0.3702 -0.2877 -0.3948
16391SOL    HW151373   2.035   3.536   8.840 -0.7705 -1.9303 -0.9208
16391SOL    HW251374   2.138   3.432   8.881  0.9688 -0.0663 -0.3920
16392SOL     OW51375   8.477   8.134   0.612  0.2582  0.4524 -0.1697
16392SOL    HW151376   8.569   8.156   0.593 -0.2196  0.7597 -2.4799
16392SOL    HW251377   8.477   8.039   0.626  0.7502  0.2297 -1.5584
16393SOL     OW51378   0.863   4.104   5.176  0.2206 -0.1131  0.1151
16393SOL    HW151379   0.947   4.069   5.206  1.0257  0.0448 -1.8334
16393SOL    HW251380   0.820   4.031   5.133  1.0972  0.7087 -2.3177
16394SOL     OW51381   4.706   4.476   4.117  0.2098 -0.2645 -0.3881
16394SOL    HW151382   4.787   4.526   4.122  0.0544 -0.1051  2.4483
16394SOL    HW251383   4.732   4.386   4.135  0.1001 -0.7353 -2.4405
16395SOL     OW51384   9.543   0.046   0.478 -0.2091  0.0213 -0.1659
16395SOL    HW151385   9.463   0.091   0.506  0.0306 -0.1098  0.7632
16395SOL    HW251386   9.568   0.089   0.396  0.1763  1.7890  0.8346
16396SOL     OW51387   0.347   2.418   9.064  0.0042  0.1040  0.7993
16396SOL    HW151388   0.380   2.338   9.023  0.3165 -0.7578  2.6322
16396SOL    HW251389   0.252   2.414   9.051  0.1670  0.3793 -0.6741
16397SOL     OW51390   4.084   7.804   6.634  0.4849  0.0468 -0.0573
16397SOL    HW151391   4.005   7.856   6.619  1.8941  2.4843  0.4440
16397SOL    HW251392   4.081   7.781   6.726  0.7726  0.9282  0.1820
16398SOL     OW51393   7.063   1.640   3.694 -0.0329 -0.1584 -0.0627
16398SOL    HW151394   7.091   1.687   3.615 -0.7052 -2.2909 -1.6543
16398SOL    HW251395   7.144   1.605   3.731  0.2626  0.6706  0.1051
16399SOL     OW51396   5.046   2.249   6.089  0.4182 -0.1637  0.3096
16399SOL    HW151397   5.087   2.290   6.013 -0.2446 -0.3159 -0.1310
16399SOL    HW251398   4.953   2.245   6.068  0.4016 -1.4706  0.5357
16400SOL     OW51399   1.212   5.443   1.083  0.0835  0.4107 -0.3356
16400SOL    HW151400   1.195   5.359   1.126  1.8124 -2.0445 -3.9452
16400SOL    HW251401   1.303   5.463   1.105  0.7677 -0.5267 -2.1133
16401SOL     OW51402   5.409   3.823   0.629  0.5021  0.0796 -1.0142
16401SOL    HW151403   5.490   3.856   0.589  1.7924 -0.8839  0.6791
16401SOL    HW251404   5.390   3.742   0.582  1.1597 -0.2607 -0.7074
16402SOL     OW51405   9.574   3.477   6.186  0.2218 -0.0258  0.7611
16402SOL    HW151406   9.652   3.532   6.194 -0.2577  0.5194  2.1982
16402SOL    HW251407   9.597   3.396   6.230  0.5612 -0.5767 -0.3994
16403SOL     OW51408   4.353   4.295   9.056 -0.4064 -0.0718 -0.2234
16403SOL    HW151409   4.286   4.256   9.112 -2.3681 -0.1502 -2.4703
16403SOL    HW251410   4.434   4.288   9.107 -1.8472 -1.1476  2.0806
16404SOL     OW51411   1.453   7.042   0.540  0.0797 -0.3496 -0.0040
16404SOL    HW151412   1.369   7.021   0.499  0.0117  1.2604 -0.7850
16404SOL    HW251413   1.450   7.137   0.551  1.7023 -0.3083  0.2012
16405SOL     OW51414   9.480   5.429   1.124  0.0477  0.3944 -0.4852
16405SOL    HW151415   9.399   5.401   1.168  0.1437  1.1710  0.1990
16405SOL    HW251416   9.474   5.524   1.121  0.4513  0.4080 -1.4014
16406SOL     OW51417   5.431   4.323   2.670  0.5279 -0.0459  0.4728
16406SOL    HW151418   5.387   4.400   2.705  0.4256  0.0011  0.2422
16406SOL    HW251419   5.519   4.353   2.648  1.5370 -0.7003  3.2236
16407SOL     OW51420   6.588   6.867   1.492 -0.2529  0.2116 -0.0438
16407SOL    HW151421   6.523   6.924   1.533 -0.8894  0.1095 -0.8921
16407SOL    HW251422   6.672   6.909   1.513 -0.6604  1.0212  0.0246
16408SOL     OW51423   5.741   0.593   2.676 -0.0519 -0.1883  0.1012
16408SOL    HW151424   5.655   0.610   2.717  0.5936  1.4053  0.8835
16408SOL    HW251425   5.730   0.621   2.585  0.0997  1.7834  0.6327
16409SOL     OW51426   1.343   1.493   7.637  0.5672 -0.1743  0.0833
16409SOL    HW151427   1.369   1.487   7.546 -0.6906 -0.2667 -0.2918
16409SOL    HW251428   1.400   1.431   7.683  1.3772  0.0598 -0.5912
16410SOL     OW51429   7.637   5.464   7.941  0.3888  0.0524 -0.1340
16410SOL    HW151430   7.693   5.503   7.874 -0.4064  0.8117 -0.3720
16410SOL    HW251431   7.639   5.526   8.013 -0.5856  0.3848 -0.3699
16411SOL     OW51432   1.988   0.386   7.510 -0.3363  0.4689 -0.3701
16411SOL    HW151433   1.900   0.387   7.547 -0.9972  0.6562 -1.8611
16411SOL    HW251434   2.034   0.456   7.555 -0.6649 -0.1768  1.0343
16412SOL     OW51435   4.039   5.731   8.741 -0.4935 -0.0434 -0.3087
16412SOL    HW151436   4.076   5.768   8.661  1.8406 -1.7661 -0.1064
16412SOL    HW251437   4.113   5.719   8.799 -1.3988 -3.0791  0.3855
16413SOL     OW51438   6.770   1.426   4.351  0.3460  0.7517  0.1068
16413SOL    HW151439   6.743   1.410   4.260 -1.9690  0.1431  0.8458
16413SOL    HW251440   6.748   1.518   4.366  0.0855  0.6625  0.2643
16414SOL     OW51441   3.858   9.364   7.193  0.0782 -0.1066  0.0826
16414SOL    HW151442   3.852   9.459   7.196  1.0800 -0.0468  1.0887
16414SOL    HW251443   3.768   9.334   7.186 -0.2761  0.9112  0.1254
16415SOL     OW51444   8.763   9.459   1.261 -0.1384  0.3591  0.6298
16415SOL    HW151445   8.695   9.432   1.200 -1.6299  0.9602  1.9812
16415SOL    HW251446   8.820   9.383   1.268  1.0803  0.7603 -2.7168
16416SOL     OW51447   0.240   8.923   1.245  0.3450 -0.1728 -0.3195
16416SOL    HW151448   0.167   8.964   1.197  0.6596 -0.2984 -0.9124
16416SOL    HW251449   0.308   8.912   1.180  0.0059 -2.3436 -0.3744
16417SOL     OW51450   4.254   0.541   6.023 -0.4140 -0.1666 -0.1829
16417SOL    HW151451   4.172   0.572   6.060 -0.0564  0.8412 -0.2126
16417SOL    HW251452   4.230   0.511   5.935 -1.4545 -3.4905  1.0577
16418SOL     OW51453   9.223   5.917   6.572  0.1385  0.0165  0.5462
16418SOL    HW151454   9.302   5.870   6.597  0.1067 -0.1055  0.4175
16418SOL    HW251455   9.227   5.922   6.477 -0.1305 -0.2088  0.5209
16419SOL     OW51456   2.474   3.564   4.559  0.3358 -0.8176  0.2063
16419SOL    HW151457   2.540   3.619   4.602  0.9889 -0.5812 -1.0733
16419SOL    HW251458   2.402   3.560   4.622  0.7502  0.5533  0.8008
16420SOL     OW51459   9.441   7.397   4.369 -0.8095 -0.4561  0.0927
16420SOL    HW151460   9.431   7.315   4.321 -1.3090 -0.2280 -0.1931
16420SOL    HW251461   9.411   7.465   4.309  0.7972  0.0805 -0.1485
16421SOL     OW51462   5.065   0.728   6.228  0.3977  0.2703  0.0496
16421SOL    HW151463   5.039   0.818   6.205  0.0013 -0.0628 -0.8592
16421SOL    HW251464   5.063   0.681   6.145  0.8312 -0.5317  0.4852
16422SOL     OW51465   7.210   8.253   4.186 -0.2538  0.2842 -0.1522
16422SOL    HW151466   7.294   8.242   4.141 -0.1414  1.8576 -0.3775
16422SOL    HW251467   7.150   8.194   4.140  0.5530 -0.2985 -0.4685
16423SOL     OW51468   9.185   4.916   1.002  0.4496  0.2680 -0.5381
16423SOL    HW151469   9.111   4.933   1.061 -0.2702  1.0602 -1.6204
16423SOL    HW251470   9.263   4.925   1.056 -0.2581 -1.1767  0.7763
16424SOL     OW51471   0.657   7.843   8.775  0.6858  0.2859  0.5684
16424SOL    HW151472   0.650   7.886   8.860  0.8422  0.5965  0.4272
16424SOL    HW251473   0.571   7.805   8.760 -0.1497  2.4018 -0.2817
16425SOL     OW51474   7.269   7.911   9.435 -0.1822 -0.0117  0.3392
16425SOL    HW151475   7.323   7.973   9.483 -1.5443  1.3599  0.1541
16425SOL    HW251476   7.196   7.963   9.401 -0.6617 -1.4591 -0.9534
16426SOL     OW51477   7.369   5.159   0.568  0.2151  0.1908  0.4756
16426SOL    HW151478   7.352   5.250   0.591 -0.4389  0.4481 -0.9196
16426SOL    HW251479   7.283   5.117   0.569  0.1313  0.2110 -1.3125
16427SOL     OW51480   6.108   8.737   2.458 -0.5886 -0.5510 -0.8384
16427SOL    HW151481   6.016   8.752   2.481 -0.5703  0.2260 -1.2327
16427SOL    HW251482   6.158   8.784   2.525 -0.3954 -2.7583  0.6740
16428SOL     OW51483   7.576   1.491   5.891  0.3398 -0.3501  0.2012
16428SOL    HW151484   7.489   1.518   5.921 -0.0042  0.0481 -1.0925
16428SOL    HW251485   7.577   1.396   5.903 -1.0542 -0.6463 -1.6388
16429SOL     OW51486   8.384   9.256   1.569  0.3377 -0.4930  0.5786
16429SOL    HW151487   8.476   9.248   1.594  1.2723  0.6692 -2.1780
16429SOL    HW251488   8.343   9.177   1.603  2.7997 -2.0827  0.0661
16430SOL     OW51489   1.900   2.412   2.369 -0.5467 -0.2047  0.0141
16430SOL    HW151490   1.925   2.361   2.292  1.3717  1.6703 -0.7426
16430SOL    HW251491   1.945   2.369   2.441 -0.1581 -0.4647 -0.3727
16431SOL     OW51492   7.052   0.812   3.212  0.1330 -0.8177  0.2899
16431SOL    HW151493   7.127   0.858   3.251 -0.3709 -0.7670  1.2087
16431SOL    HW251494   6.981   0.823   3.274 -0.5733 -1.1124 -0.4440
16432SOL     OW51495   7.822   2.434   9.022  0.0998 -0.5733  0.3542
16432SOL    HW151496   7.825   2.509   9.081  0.9123  0.8461 -1.3978
16432SOL    HW251497   7.911   2.400   9.021  0.4913  0.3983 -1.1926
16433SOL     OW51498   4.039   4.847   7.864 -0.0396  0.1234  0.3529
16433SOL    HW151499   4.120   4.828   7.910 -0.4389  2.1357  2.0158
16433SOL    HW251500   4.032   4.777   7.798  3.6141  0.5625 -0.7228
16434SOL     OW51501   6.680   9.512   6.494 -0.2149 -0.1317  0.0698
16434SOL    HW151502   6.651   9.485   6.581 -1.2597  0.1349 -0.1758
16434SOL    HW251503   6.600   9.512   6.441  0.0992  1.3740 -0.4564
16435SOL     OW51504   6.900   7.888   1.765 -0.5360  0.1360  0.0308
16435SOL    HW151505   6.867   7.905   1.676 -0.4758  0.3258  0.0449
16435SOL    HW251506   6.866   7.801   1.786 -0.3739  0.0004 -0.2626
16436SOL     OW51507   8.199   7.331   1.176  0.1850 -0.1918  0.7503
16436SOL    HW151508   8.119   7.293   1.141  0.2290  0.2275  0.1840
16436SOL    HW251509   8.269   7.296   1.120  0.5140 -1.2591  1.7814
16437SOL     OW51510   6.451   5.356   0.593  0.1093 -0.0975  0.0522
16437SOL    HW151511   6.394   5.352   0.670 -0.4773 -0.6161 -0.3994
16437SOL    HW251512   6.428   5.439   0.550  1.0504  0.6160  0.8896
16438SOL     OW51513   1.734   8.988   6.929 -0.2709 -0.5797  0.1038
16438SOL    HW151514   1.752   8.964   6.838 -2.9039 -1.1083 -0.3637
16438SOL    HW251515   1.816   8.970   6.975  0.6269 -1.9012 -1.8560
16439SOL     OW51516   7.711   8.693   7.134  0.0495 -0.3677  0.2492
16439SOL    HW151517   7.684   8.704   7.043 -1.5702 -1.5428  0.5419
16439SOL    HW251518   7.636   8.723   7.185  0.9072  0.1909  1.2128
16440SOL     OW51519   3.315   4.575   0.454 -0.0800 -0.3089  1.1131
16440SOL    HW151520   3.312   4.562   0.549 -1.6536  1.2211  1.3259
16440SOL    HW251521   3.223   4.580   0.428  0.2691  2.7749  0.0818
16441SOL     OW51522   1.930   9.180   3.752 -0.5780  0.2135  0.2782
16441SOL    HW151523   1.870   9.219   3.816  1.5130 -0.5522  2.9006
16441SOL    HW251524   1.947   9.092   3.785  1.7969  0.3263 -0.4467
16442SOL     OW51525   5.847   7.794   1.032  0.6785  0.2394  0.0254
16442SOL    HW151526   5.825   7.869   0.976 -1.3096  1.2422  1.9307
16442SOL    HW251527   5.764   7.747   1.042  1.2051 -0.4786  1.2658
16443SOL     OW51528   7.887   4.389   2.255  0.1879 -0.5164  0.2526
16443SOL    HW151529   7.944   4.355   2.324  0.3684 -1.8066 -0.4968
16443SOL    HW251530   7.918   4.348   2.175 -0.5233  0.3375 -0.4917
16444SOL     OW51531   4.802   8.399   0.100 -0.4482 -0.0720 -0.2077
16444SOL    HW151532   4.894   8.401   0.128 -0.3082 -0.9103 -0.6021
16444SOL    HW251533   4.785   8.308   0.079 -0.4343  0.5245 -3.2717
16445SOL     OW51534   1.149   8.550   9.246  0.1164 -0.4829  0.3571
16445SOL    HW151535   1.129   8.458   9.230  2.0583 -0.9070  0.1780
16445SOL    HW251536   1.210   8.575   9.177  2.2106 -0.0422  2.2321
16446SOL     OW51537   0.797   6.138   0.784 -0.1573  0.4579  0.2257
16446SOL    HW151538   0.734   6.147   0.855  1.1730 -0.6032  1.6077
16446SOL    HW251539   0.758   6.186   0.711 -3.1150 -1.1035  0.6270
16447SOL     OW51540   1.541   4.429   9.004 -0.1621  0.2691  0.8026
16447SOL    HW151541   1.490   4.432   9.085 -0.7060  2.2747  0.4594
16447SOL    HW251542   1.477   4.408   8.936 -0.1031  0.5971  0.6447
16448SOL     OW51543   5.388   8.439   1.386 -0.1380  0.1848 -0.0586
16448SOL    HW151544   5.424   8.468   1.469 -0.7611  1.2906 -0.1635
16448SOL    HW251545   5.420   8.502   1.322 -0.1415 -0.3189 -0.5671
16449SOL     OW51546   3.147   1.370   3.031 -0.3217 -0.0608 -0.4470
16449SOL    HW151547   3.209   1.338   3.097 -0.6754 -1.2630 -0.6726
16449SOL    HW251548   3.062   1.337   3.061 -1.1861  2.9450  0.7693
16450SOL     OW51549   1.259   5.930   2.217 -0.1980  0.2668  0.0822
16450SOL    HW151550   1.165   5.938   2.203 -0.1555  1.5544  0.4301
16450SOL    HW251551   1.274   5.835   2.225 -1.3802  0.0185 -0.4401
16451SOL     OW51552   7.734   7.781   2.154  0.1383  0.2874  0.1210
16451SOL    HW151553   7.680   7.765   2.075  0.4569 -0.6111  0.0739
16451SOL    HW251554   7.671   7.809   2.220 -0.6249 -1.9642  0.4317
16452SOL     OW51555   6.051   2.449   9.415  0.1585 -0.0678 -0.0937
16452SOL    HW151556   6.131   2.400   9.395  1.4010  1.6672  0.3471
16452SOL    HW251557   6.079   2.514   9.480 -1.6938  0.4223  0.2662
16453SOL     OW51558   1.893   5.566   9.101  0.0918  0.1787  0.1999
16453SOL    HW151559   1.951   5.562   9.177 -0.4245  1.0032  0.6476
16453SOL    HW251560   1.868   5.658   9.094 -0.1072  0.0649 -0.7915
16454SOL     OW51561   7.146   6.006   4.719  0.4732  0.1461  0.8326
16454SOL    HW151562   7.222   6.042   4.675 -1.7023  2.2314 -1.5641
16454SOL    HW251563   7.105   5.949   4.653 -2.9921  3.5155 -0.3124
16455SOL     OW51564   4.809   5.838   2.932 -0.0782 -0.3584 -0.5644
16455SOL    HW151565   4.855   5.890   2.867  1.6194 -1.9510 -0.7189
16455SOL    HW251566   4.871   5.769   2.956 -1.2364 -0.7391  1.5942
16456SOL     OW51567   8.079   6.521   8.486 -0.1454 -0.5301 -0.7559
16456SOL    HW151568   8.115   6.518   8.397  0.4181 -0.9334 -0.5198
16456SOL    HW251569   8.054   6.430   8.504  3.2238 -1.3248  0.8820
16457SOL     OW51570   8.830   2.308   6.614 -0.1439 -0.1965 -0.3398
16457SOL    HW151571   8.839   2.354   6.530  1.3508 -0.2469 -0.2332
16457SOL    HW251572   8.917   2.270   6.630  0.0386  0.9575  1.8751
16458SOL     OW51573   1.906   5.883   4.843  0.1515  0.1255  0.1802
16458SOL    HW151574   1.849   5.960   4.845 -0.3016 -0.1912 -0.1658
16458SOL    HW251575   1.901   5.847   4.932 -0.0511  0.2026  0.2011
16459SOL     OW51576   6.739   3.650   0.099 -0.3280  0.5804  0.0024
16459SOL    HW151577   6.677   3.709   0.057 -1.6064  0.3029  1.4127
16459SOL    HW251578   6.725   3.565   0.057  1.0008  1.0560 -1.5158
16460SOL     OW51579   9.328   8.398   4.817 -0.0437 -0.1105 -0.3278
16460SOL    HW151580   9.255   8.340   4.838 -0.3670  0.3910 -0.0327
16460SOL    HW251581   9.288   8.485   4.813  0.4435  0.0979 -0.7024
16461SOL     OW51582   6.715   3.274   5.840 -0.1003 -0.0093 -0.0554
16461SOL    HW151583   6.717   3.312   5.927 -0.8253  1.4688 -0.6481
16461SOL    HW251584   6.773   3.329   5.788  0.1077 -0.7018 -0.5691
16462SOL     OW51585   8.783   1.357   0.190  0.3473 -0.2777 -0.2768
16462SOL    HW151586   8.812   1.284   0.134 -0.8391 -0.5183 -0.6123
16462SOL    HW251587   8.820   1.338   0.276 -0.8952 -1.9417 -0.0524
16463SOL     OW51588   8.051   2.170   1.540  0.4150  0.6313  0.6482
16463SOL    HW151589   8.122   2.154   1.603  0.2766 -1.3196  0.3693
16463SOL    HW251590   8.021   2.082   1.515  0.0092  1.3572 -1.6278
16464SOL     OW51591   8.216   3.708   1.220  0.1544  0.8547 -0.0231
16464SOL    HW151592   8.215   3.626   1.268 -0.0603  0.7331 -0.2361
16464SOL    HW251593   8.309   3.729   1.209  0.2229  0.2259 -0.6859
16465SOL     OW51594   7.001   3.075   8.549  0.1992  0.3037 -0.0855
16465SOL    HW151595   7.079   3.130   8.547  0.7973 -0.5170 -0.2732
16465SOL    HW251596   7.004   3.033   8.636  0.2050 -0.0552 -0.2569
16466SOL     OW51597   3.737   3.462   8.037 -0.1615 -0.4930  0.3039
16466SOL    HW151598   3.810   3.415   7.997  0.7894  0.4125  0.8916
16466SOL    HW251599   3.666   3.399   8.040 -0.2644 -0.6519 -2.6444
16467SOL     OW51600   0.735   0.156   2.991  0.0349  0.4707 -0.1098
16467SOL    HW151601   0.817   0.165   2.943  0.9305  1.0465  1.4332
16467SOL    HW251602   0.754   0.091   3.059 -1.1509 -0.2584 -0.4530
16468SOL     OW51603   8.648   1.547   2.970 -0.1381  0.2819  0.8394
16468SOL    HW151604   8.564   1.550   2.924  0.0372 -0.1625  0.4780
16468SOL    HW251605   8.635   1.601   3.048 -0.3950  1.1791  0.1968
16469SOL     OW51606   5.668   0.566   4.042 -0.6894  0.9208  0.0706
16469SOL    HW151607   5.590   0.619   4.062 -0.6254  0.8563  0.4852
16469SOL    HW251608   5.695   0.529   4.126 -0.4642  0.5934 -0.1429
16470SOL     OW51609   8.736   2.048   7.097  0.1824 -0.2402  0.2560
16470SOL    HW151610   8.647   2.019   7.078  1.0711 -3.7012  0.7059
16470SOL    HW251611   8.729   2.096   7.179 -1.3060  0.0671 -0.0181
16471SOL     OW51612   7.758   6.241   1.164  0.2555 -0.3538 -0.2066
16471SOL    HW151613   7.838   6.204   1.127  0.7877  0.6313 -0.0752
16471SOL    HW251614   7.761   6.333   1.138 -0.9629 -0.3609 -0.4121
16472SOL     OW51615   3.411   1.981   1.415 -0.2198 -0.3452 -0.7612
16472SOL    HW151616   3.356   2.041   1.365 -0.8327 -1.3083 -1.2821
16472SOL    HW251617   3.368   1.974   1.500 -0.6541 -0.7305 -1.0072
16473SOL     OW51618   9.282   2.700   9.092 -0.4326  0.6720  0.5278
16473SOL    HW151619   9.348   2.749   9.043 -0.8370  1.9366  1.1956
16473SOL    HW251620   9.239   2.766   9.147 -0.8382 -0.4892  1.6592
16474SOL     OW51621   3.718   9.419   7.969  0.0160 -0.5662  0.4286
16474SOL    HW151622   3.661   9.358   7.923 -1.9084  0.7275  0.9414
16474SOL    HW251623   3.706   9.396   8.062  0.4738 -0.4019  0.5263
16475SOL     OW51624   4.323   4.738   4.596  0.4524 -0.2210 -0.1071
16475SOL    HW151625   4.317   4.667   4.660 -0.5522  1.1885  1.4505
16475SOL    HW251626   4.416   4.760   4.593  0.3247  0.9340  2.3711
16476SOL     OW51627   1.720   0.625   6.045 -0.1778 -0.5871  0.4897
16476SOL    HW151628   1.684   0.560   5.984 -1.1093 -0.0762  0.4774
16476SOL    HW251629   1.674   0.706   6.023  1.0412  0.1095  0.4447
16477SOL     OW51630   2.947   8.058   1.691 -0.2410 -0.2462  0.5898
16477SOL    HW151631   2.854   8.040   1.687 -0.1949 -0.2830 -1.7041
16477SOL    HW251632   2.956   8.146   1.652  0.4746  0.8658  3.0429
16478SOL     OW51633   2.058   3.961   2.744  0.2006 -0.7628  0.1754
16478SOL    HW151634   2.143   4.005   2.737  0.2075 -0.6279  0.9864
16478SOL    HW251635   2.016   3.976   2.660  0.0958  1.0251  0.5240
16479SOL     OW51636   0.448   3.173   5.193  0.0766 -0.4094  0.0220
16479SOL    HW151637   0.498   3.165   5.112 -0.4593  0.0408 -0.3488
16479SOL    HW251638   0.508   3.218   5.253  0.0386  0.3548 -0.4978
16480SOL     OW51639   7.128   4.492   0.531  0.4620  0.3207  0.0243
16480SOL    HW151640   7.209   4.513   0.578  0.6902 -0.5663  0.0510
16480SOL    HW251641   7.098   4.410   0.571 -0.2823  0.4760 -0.2025
16481SOL     OW51642   4.961   4.098   0.235  0.7191 -0.0157 -0.7063
16481SOL    HW151643   5.014   4.026   0.269  1.4184  0.8380  0.0704
16481SOL    HW251644   4.976   4.170   0.297 -1.5026  0.2093 -0.3433
16482SOL     OW51645   7.049   5.877   8.631 -0.4461 -1.0339  0.4219
16482SOL    HW151646   7.000   5.926   8.698  0.0601  1.0802 -0.6719
16482SOL    HW251647   6.985   5.860   8.562 -0.5049 -1.5106  0.5914
16483SOL     OW51648   0.904   1.625   8.388 -0.1288  0.3669  0.5493
16483SOL    HW151649   0.849   1.616   8.467 -0.2586 -2.9630  0.2362
16483SOL    HW251650   0.993   1.606   8.419  0.1200  0.9547  0.2066
16484SOL     OW51651   3.889   3.137   8.182  0.1663  0.1178 -0.0267
16484SOL    HW151652   3.815   3.118   8.124  0.5348  0.8962 -0.7632
16484SOL    HW251653   3.848   3.171   8.262 -0.3268 -0.7221  0.0909
16485SOL     OW51654   4.799   8.934   3.960  0.1489 -0.0018  0.0665
16485SOL    HW151655   4.887   8.954   3.991 -0.0139 -1.9662  2.0779
16485SOL    HW251656   4.813   8.875   3.886  0.5523 -0.1463  0.2542
16486SOL     OW51657   9.562   0.485   0.609  0.4720 -0.2974  0.6911
16486SOL    HW151658   9.640   0.444   0.571  0.5973 -0.0883  0.7242
16486SOL    HW251659   9.520   0.529   0.535  0.3098 -0.5290  0.6454
16487SOL     OW51660   7.532   8.378   5.522 -0.4289  0.6928 -0.0124
16487SOL    HW151661   7.545   8.369   5.428 -1.4312 -0.7912 -0.0432
16487SOL    HW251662   7.610   8.425   5.553 -0.3023  1.5881 -1.6214
16488SOL     OW51663   7.125   9.239   4.883 -0.6924 -0.2953  0.1893
16488SOL    HW151664   7.221   9.235   4.889 -0.3466  3.5899 -0.4901
16488SOL    HW251665   7.095   9.216   4.971  0.8249 -1.2196  0.5197
16489SOL     OW51666   4.103   9.144   6.600 -0.5467  0.0093 -0.1339
16489SOL    HW151667   4.104   9.115   6.691 -1.2800 -0.0158 -0.1306
16489SOL    HW251668   4.173   9.210   6.595  2.6966 -3.1106 -0.6382
16490SOL     OW51669   3.014   1.104   4.943  0.5960  0.4301  0.0897
16490SOL    HW151670   2.942   1.166   4.929  0.7832  0.5758 -0.2360
16490SOL    HW251671   3.001   1.073   5.033  0.7314  1.2528  0.4043
16491SOL     OW51672   5.023   2.692   9.183  0.0498  0.4356  0.4263
16491SOL    HW151673   4.961   2.625   9.154 -0.5420  1.1754 -0.0526
16491SOL    HW251674   5.106   2.667   9.142  0.2504 -0.9115  1.5626
16492SOL     OW51675   6.922   0.312   3.891 -0.4625 -0.5530  0.4388
16492SOL    HW151676   6.876   0.359   3.821 -0.6067  0.0600  0.9383
16492SOL    HW251677   6.923   0.374   3.964  0.5091 -0.8386  0.6742
16493SOL     OW51678   1.416   6.328   1.359 -0.0836  0.6659  0.6547
16493SOL    HW151679   1.437   6.376   1.439 -2.5206  2.2305  0.4595
16493SOL    HW251680   1.328   6.357   1.336 -0.2890 -1.3429 -1.4546
16494SOL     OW51681   4.485   6.060   7.419 -0.0188 -0.0508  0.3111
16494SOL    HW151682   4.573   6.050   7.382  0.5668 -0.2732  1.7116
16494SOL    HW251683   4.463   5.973   7.451 -1.1530 -0.2122 -0.8388
16495SOL     OW51684   7.903   4.918   7.584 -0.0417 -0.4900  0.3261
16495SOL    HW151685   7.830   4.881   7.535  0.1742 -0.5061  0.0118
16495SOL    HW251686   7.900   5.012   7.565 -0.0418 -0.4759  0.3950
16496SOL     OW51687   7.177   8.685   2.020  0.6496  0.7712 -0.1111
16496SOL    HW151688   7.241   8.678   2.091  0.0735 -2.3257  0.2763
16496SOL    HW251689   7.096   8.650   2.057  0.1428 -0.2616 -2.0308
16497SOL     OW51690   5.049   2.117   2.444 -0.3133 -0.1795  0.7001
16497SOL    HW151691   5.138   2.121   2.408 -0.5669 -1.4551 -0.1583
16497SOL    HW251692   5.052   2.045   2.507 -1.1600 -1.5273 -0.7166
16498SOL     OW51693   8.869   4.867   2.097  0.2357 -0.3515  0.4165
16498SOL    HW151694   8.937   4.914   2.145 -1.8591  2.1079  1.1738
16498SOL    HW251695   8.877   4.899   2.007  0.1909 -0.2003  0.4663
16499SOL     OW51696   1.747   6.453   4.640 -0.5785 -0.1165 -0.7842
16499SOL    HW151697   1.678   6.409   4.690  0.8708 -0.4633  1.0007
16499SOL    HW251698   1.814   6.387   4.628  0.4250  0.8180 -0.4945
16500SOL     OW51699   5.915   6.029   1.814  0.0780  0.1943 -0.3925
16500SOL    HW151700   5.962   6.054   1.894  1.1404  0.0128 -0.9445
16500SOL    HW251701   5.921   5.933   1.812 -1.1437  0.0886  0.0093
16501SOL     OW51702   2.815   4.385   6.320 -0.2057 -0.2629  0.0881
16501SOL    HW151703   2.745   4.393   6.384 -1.2409  1.3381 -1.1588
16501SOL    HW251704   2.777   4.418   6.238  1.3622 -1.3208 -1.1301
16502SOL     OW51705   1.739   6.661   7.650  0.7382  0.0464  0.4075
16502SOL    HW151706   1.824   6.623   7.626  0.0670  0.1122 -2.4830
16502SOL    HW251707   1.760   6.742   7.696  2.2500  0.0424 -0.2257
16503SOL     OW51708   2.564   1.904   3.801 -0.0925 -0.5617 -0.3453
16503SOL    HW151709   2.513   1.824   3.805 -1.5919  0.2797 -1.6536
16503SOL    HW251710   2.524   1.955   3.730  1.3693  0.9612 -0.1411
16504SOL     OW51711   5.448   8.262   5.458 -0.9127 -0.0434  0.4213
16504SOL    HW151712   5.411   8.324   5.521  0.7596  0.4053  1.0055
16504SOL    HW251713   5.537   8.246   5.489 -0.3314 -0.4861 -1.3582
16505SOL     OW51714   6.767   6.822   5.892  0.0047  0.0556 -0.0559
16505SOL    HW151715   6.716   6.844   5.814 -0.1819  0.7521  0.2648
16505SOL    HW251716   6.794   6.731   5.877 -0.3028  0.0758 -0.7826
16506SOL     OW51717   6.128   2.928   2.757 -0.6830 -0.4365 -0.8417
16506SOL    HW151718   6.092   2.872   2.825 -0.7292  0.0925 -0.4207
16506SOL    HW251719   6.068   3.003   2.754  1.2176  1.2974  1.0316
16507SOL     OW51720   9.347   2.076   4.392  0.4125 -0.3606  1.0792
16507SOL    HW151721   9.359   2.110   4.303 -0.4867 -0.2001  1.0161
16507SOL    HW251722   9.409   2.003   4.399 -0.1777 -0.9778  0.0016
16508SOL     OW51723   4.861   7.850   4.986 -0.0525 -0.1038  0.5558
16508SOL    HW151724   4.929   7.813   4.929  0.1628 -0.1150  0.8164
16508SOL    HW251725   4.779   7.818   4.949 -0.0889  1.8029 -1.1953
16509SOL     OW51726   2.334   8.638   2.031 -0.6780  0.3499  0.3027
16509SOL    HW151727   2.427   8.657   2.046 -0.5346  0.2029 -0.3437
16509SOL    HW251728   2.313   8.569   2.093 -0.0082 -0.5136 -0.3988
16510SOL     OW51729   0.488   5.237   4.719  0.0595  0.7975 -0.6616
16510SOL    HW151730   0.438   5.233   4.638  0.1353  0.1867 -0.6791
16510SOL    HW251731   0.575   5.267   4.692 -0.0635  1.0869 -0.7370
16511SOL     OW51732   8.243   2.531   1.870  0.0400  0.1384  0.0184
16511SOL    HW151733   8.247   2.554   1.962 -0.3009 -0.1869  0.1155
16511SOL    HW251734   8.167   2.577   1.836 -0.0563 -0.0436 -0.0150
16512SOL     OW51735   4.395   2.140   8.777 -0.2652  0.4467 -0.2203
16512SOL    HW151736   4.333   2.204   8.743 -2.5661 -2.9735 -3.2116
16512SOL    HW251737   4.470   2.146   8.718 -0.3046  0.6341 -0.2524
16513SOL     OW51738   1.462   0.239   0.051  0.2034  0.2887 -0.6258
16513SOL    HW151739   1.557   0.234   0.055  0.2881  2.0693  1.5057
16513SOL    HW251740   1.432   0.167   0.107  0.4208  1.3660  0.9368
16514SOL     OW51741   2.892   8.590   6.223  0.5234 -0.1710 -0.1616
16514SOL    HW151742   2.852   8.673   6.199  0.0811 -0.3336 -0.0027
16514SOL    HW251743   2.858   8.527   6.159  0.1108 -0.4105  0.2787
16515SOL     OW51744   2.964   2.629   7.872  0.1404  0.2589  0.4614
16515SOL    HW151745   2.987   2.612   7.963 -0.0428 -0.6403  0.3475
16515SOL    HW251746   3.001   2.554   7.824 -1.3457 -0.2261  0.0284
16516SOL     OW51747   4.771   9.439   0.256 -0.4068 -0.3498 -0.4154
16516SOL    HW151748   4.746   9.410   0.168 -0.5113  2.5529 -1.4563
16516SOL    HW251749   4.859   9.474   0.246 -0.7632  0.8414  0.4264
16517SOL     OW51750   8.356   9.084   1.887 -0.2436  0.4564 -0.0924
16517SOL    HW151751   8.342   8.997   1.923  0.0222  0.7883  0.8357
16517SOL    HW251752   8.451   9.096   1.888 -0.2577  0.6407 -0.5144
16518SOL     OW51753   7.896   6.927   0.525  0.1579  0.3652 -0.6106
16518SOL    HW151754   7.957   6.854   0.538 -1.1875 -0.6631  0.3385
16518SOL    HW251755   7.938   6.983   0.460  0.9164 -1.6471 -1.9414
16519SOL     OW51756   3.706   0.979   5.081  0.2368 -0.3398 -0.5351
16519SOL    HW151757   3.665   0.895   5.103 -0.3510  0.2028  0.5089
16519SOL    HW251758   3.635   1.029   5.040  0.5445 -0.2901 -1.0113
16520SOL     OW51759   5.263   2.956   0.854 -0.0969 -0.3417  0.2045
16520SOL    HW151760   5.339   3.014   0.867 -1.2376  0.9686  1.2949
16520SOL    HW251761   5.296   2.869   0.876  0.8596  0.3525  1.7196
16521SOL     OW51762   2.351   6.970   5.725 -0.1818 -0.4390  0.0964
16521SOL    HW151763   2.323   6.959   5.816  0.2551  0.8100  0.4014
16521SOL    HW251764   2.313   6.894   5.679 -1.3947 -0.4686  1.0820
16522SOL     OW51765   8.304   8.346   0.667  0.3408 -0.2966 -0.4265
16522SOL    HW151766   8.363   8.273   0.647  1.7917  0.5942  0.4261
16522SOL    HW251767   8.351   8.396   0.734 -0.1413  2.0026 -1.7390
16523SOL     OW51768   8.394   7.055   1.369 -0.0347  0.2404 -0.3857
16523SOL    HW151769   8.418   6.962   1.369 -0.2217  0.1721  0.9079
16523SOL    HW251770   8.313   7.058   1.419  1.6954  1.4727  2.5543
16524SOL     OW51771   9.180   1.161   8.706 -0.2184  0.3259 -0.2878
16524SOL    HW151772   9.251   1.152   8.769 -0.6485 -0.7728  0.0612
16524SOL    HW251773   9.109   1.110   8.743 -0.1760 -1.1427 -2.0850
16525SOL     OW51774   6.024   6.100   0.803 -0.0423  1.0369  0.1377
16525SOL    HW151775   6.025   6.141   0.890  1.0414  0.9143  0.1889
16525SOL    HW251776   6.016   6.006   0.822 -2.9191  1.1700  0.0153
16526SOL     OW51777   4.949   6.264   6.534 -0.2715 -0.2357  0.3181
16526SOL    HW151778   4.959   6.347   6.580  0.3323 -0.4565  0.6002
16526SOL    HW251779   4.936   6.289   6.442  0.3671  0.1626  0.3292
16527SOL     OW51780   7.553   8.462   5.011 -0.3597  0.0709  0.5359
16527SOL    HW151781   7.622   8.519   4.976 -0.9740  0.3847 -0.2113
16527SOL    HW251782   7.472   8.504   4.983 -0.8285 -1.0790  0.1328
16528SOL     OW51783   1.833   4.092   0.053 -0.3369  0.3548  0.2611
16528SOL    HW151784   1.846   4.109  -0.040  1.9627 -1.3207  0.1983
16528SOL    HW251785   1.781   4.012   0.056 -0.1494  0.2403  0.4290
16529SOL     OW51786   6.669   1.143   0.930 -0.5092  0.0663  0.7672
16529SOL    HW151787   6.670   1.117   0.838 -1.2429 -0.8409  0.9972
16529SOL    HW251788   6.719   1.075   0.975  0.1502  0.6984  0.9930
16530SOL     OW51789   2.097   2.722   4.822 -0.0956 -0.3115 -0.0662
16530SOL    HW151790   2.167   2.736   4.758  1.2115 -2.5263  0.7661
16530SOL    HW251791   2.020   2.699   4.769  0.4560 -0.2364 -0.9169
16531SOL     OW51792   2.318   2.799   3.162 -0.4458  0.1402 -0.1181
16531SOL    HW151793   2.291   2.816   3.253  1.7942  2.0991  0.2709
16531SOL    HW251794   2.331   2.704   3.158  1.3791  0.1989  2.2658
16532SOL     OW51795   2.093   6.210   8.029  0.2810 -0.0147 -0.3759
16532SOL    HW151796   2.091   6.202   7.933 -2.2366  0.4609 -0.4286
16532SOL    HW251797   2.170   6.265   8.046  0.5857  0.1918 -2.1400
16533SOL     OW51798   3.516   6.463   5.390  0.3750 -0.2334  0.1507
16533SOL    HW151799   3.504   6.397   5.321 -2.5311 -0.0356  0.3113
16533SOL    HW251800   3.484   6.419   5.469 -0.1847  0.8659  0.5499
16534SOL     OW51801   3.432   7.396   4.705 -0.0874  0.0571 -0.4856
16534SOL    HW151802   3.497   7.326   4.716 -0.1030 -0.1360 -1.4761
16534SOL    HW251803   3.348   7.353   4.714 -0.0951 -0.0344 -0.9636
16535SOL     OW51804   7.361   7.706   4.961  0.1911  0.2018  0.3527
16535SOL    HW151805   7.291   7.727   4.898  0.4825 -1.2696 -0.5237
16535SOL    HW251806   7.386   7.790   4.999 -0.5181  1.0441 -0.9760
16536SOL     OW51807   7.731   5.579   0.641 -0.0293 -0.0865  0.0762
16536SOL    HW151808   7.684   5.501   0.613  1.1596 -0.8559  0.1495
16536SOL    HW251809   7.704   5.647   0.580 -1.8056 -0.2968  0.5869
16537SOL     OW51810   6.288   6.167   3.457  0.5395  0.4631 -0.4617
16537SOL    HW151811   6.332   6.083   3.454 -0.1127  0.1386 -1.2276
16537SOL    HW251812   6.231   6.163   3.534  0.0118 -0.0626 -0.8693
16538SOL     OW51813   9.115   8.496   0.107 -0.3616  0.6262 -0.1694
16538SOL    HW151814   9.072   8.411   0.114 -0.3807  0.6141 -0.4153
16538SOL    HW251815   9.193   8.479   0.053  0.0435  0.6109  0.4063
16539SOL     OW51816   1.035   4.936   3.122  0.3891  0.1026  0.6509
16539SOL    HW151817   1.110   4.984   3.156  0.8516  0.2007 -0.4538
16539SOL    HW251818   0.961   4.967   3.174  1.3924 -1.7025  3.3992
16540SOL     OW51819   6.163   8.851   8.296  0.3542  0.4488 -0.4558
16540SOL    HW151820   6.154   8.862   8.201 -1.0650  0.2031 -0.3681
16540SOL    HW251821   6.119   8.928   8.333  0.2346  0.1593  0.0064
16541SOL     OW51822   4.363   9.566   2.255 -0.2226 -0.0012  0.0259
16541SOL    HW151823   4.362   9.534   2.165  1.5059  0.1100 -0.0753
16541SOL    HW251824   4.366   9.486   2.309  0.8244 -0.0644 -0.1082
16542SOL     OW51825   3.292   0.290   8.069  0.2385  0.6964  0.4552
16542SOL    HW151826   3.301   0.206   8.023  0.5001  0.6398  0.6052
16542SOL    HW251827   3.375   0.300   8.116 -0.5311  0.0717  2.0442
16543SOL     OW51828   1.226   5.640   4.510 -0.0860  0.1852 -0.0775
16543SOL    HW151829   1.317   5.609   4.519  0.7248  2.4479  0.0654
16543SOL    HW251830   1.211   5.643   4.416 -0.4115 -1.1871 -0.0906
16544SOL     OW51831   8.827   9.050   7.936 -0.4613 -0.0817 -0.5637
16544SOL    HW151832   8.749   9.044   7.881 -0.2393  0.7448 -0.9797
16544SOL    HW251833   8.900   9.037   7.876 -0.2879 -1.7972 -0.0203
16545SOL     OW51834   5.982   7.249   9.382  0.1432  0.4311  0.0224
16545SOL    HW151835   5.992   7.342   9.402 -0.7171  0.8916 -1.4891
16545SOL    HW251836   5.911   7.220   9.440 -1.9071  1.5885 -1.7371
16546SOL     OW51837   3.328   4.945   5.758  0.0131 -0.4075  0.0430
16546SOL    HW151838   3.286   4.862   5.779 -0.9370  0.1156  0.2831
16546SOL    HW251839   3.412   4.921   5.719  0.1814 -1.4619  1.0124
16547SOL     OW51840   9.379   2.420   0.364 -0.2996  0.4566  0.8398
16547SOL    HW151841   9.340   2.346   0.412  0.7437 -1.1257 -0.6304
16547SOL    HW251842   9.309   2.449   0.305  0.0948 -1.2344 -0.5488
16548SOL     OW51843   4.474   8.631   8.972 -0.7353 -0.1906  0.7361
16548SOL    HW151844   4.453   8.690   8.899  3.3903  0.7838  0.0771
16548SOL    HW251845   4.489   8.689   9.046 -1.1313 -0.8478  1.3406
16549SOL     OW51846   6.198   9.394   1.851  0.0596 -0.1231 -0.4778
16549SOL    HW151847   6.251   9.410   1.773 -0.4018 -1.9418 -1.2183
16549SOL    HW251848   6.119   9.350   1.819 -1.1262  0.9882  0.7988
16550SOL     OW51849   4.389   5.993   8.568 -0.5132  0.4180  0.0150
16550SOL    HW151850   4.441   5.940   8.507  0.5162  2.1079 -0.6450
16550SOL    HW251851   4.352   6.063   8.514 -3.3090 -0.5531  0.5323
16551SOL     OW51852   0.294   6.350   3.685  0.1039 -0.3641  0.0853
16551SOL    HW151853   0.199   6.342   3.690  0.2009 -0.8733  1.7306
16551SOL    HW251854   0.312   6.437   3.721  0.3075 -0.6908  0.7974
16552SOL     OW51855   0.404   6.290   2.303 -0.2989  0.0703 -0.4084
16552SOL    HW151856   0.498   6.269   2.306 -0.1647  0.7586  2.3191
16552SOL    HW251857   0.402   6.380   2.270 -0.2536 -0.7204 -2.8178
16553SOL     OW51858   4.791   0.765   6.021 -0.0825  0.1183  0.0008
16553SOL    HW151859   4.856   0.827   6.053 -0.3834  0.6772 -0.4439
16553SOL    HW251860   4.707   0.806   6.042 -0.2830  0.0377 -0.6217
16554SOL     OW51861   8.100   3.693   3.918  0.2840  0.1055 -0.5481
16554SOL    HW151862   8.090   3.731   3.831 -0.7380 -1.8200 -1.3277
16554SOL    HW251863   8.027   3.728   3.968  0.6145  0.8614 -0.5880
16555SOL     OW51864   1.530   5.112   3.210 -0.3043  0.1733  0.8745
16555SOL    HW151865   1.565   5.077   3.129 -2.3539  1.0048 -0.4504
16555SOL    HW251866   1.606   5.125   3.266  1.3236  0.8006 -1.3675
16556SOL     OW51867   1.540   0.961   9.348 -0.5377 -0.1710 -0.4923
16556SOL    HW151868   1.464   1.017   9.355 -1.1658 -0.6217 -2.9208
16556SOL    HW251869   1.613   1.020   9.333 -0.5124  0.2020  0.9626
16557SOL     OW51870   1.948   2.317   0.530 -0.6034 -0.2274  0.2453
16557SOL    HW151871   1.933   2.248   0.465 -1.2130  0.8842 -0.8258
16557SOL    HW251872   2.042   2.315   0.545 -0.0357  0.9962 -2.4675
16558SOL     OW51873   8.178   7.757   2.380  0.2858 -1.0290  0.4522
16558SOL    HW151874   8.163   7.693   2.450 -0.1599 -0.9177  0.4608
16558SOL    HW251875   8.111   7.736   2.315  1.2088 -1.6491 -0.3093
16559SOL     OW51876   8.997   4.248   6.048 -0.0730  0.1409 -0.1445
16559SOL    HW151877   8.937   4.317   6.076 -0.7093 -0.1779 -0.6905
16559SOL    HW251878   9.078   4.293   6.024 -0.5285  0.7009 -0.6210
16560SOL     OW51879   5.514   3.099   9.127 -0.1498  0.2324  0.6767
16560SOL    HW151880   5.553   3.052   9.201  0.8275 -0.1867 -0.0929
16560SOL    HW251881   5.438   3.045   9.102 -1.1846  0.9731  2.0801
16561SOL     OW51882   5.099   7.842   2.312 -0.0587  0.5269  0.1231
16561SOL    HW151883   5.129   7.930   2.336  0.6448  0.2819  0.1464
16561SOL    HW251884   5.178   7.788   2.312  0.4401  0.8125 -4.3507
16562SOL     OW51885   4.180   4.791   3.337  0.2438 -0.3531 -0.4931
16562SOL    HW151886   4.224   4.785   3.252  2.4181 -2.0621  0.6437
16562SOL    HW251887   4.164   4.700   3.361 -1.4477  0.1557  0.4228
16563SOL     OW51888   2.904   4.047   3.715 -0.1868  0.3889  0.3753
16563SOL    HW151889   2.976   4.064   3.655  2.2293 -0.4910  2.8220
16563SOL    HW251890   2.883   4.132   3.753 -2.4586  1.1448 -2.3087
16564SOL     OW51891   2.136   6.671   0.771  0.2973 -0.4148 -0.4316
16564SOL    HW151892   2.122   6.756   0.729 -0.2478  1.2687  2.7814
16564SOL    HW251893   2.048   6.635   0.781 -0.0554  0.9150  2.2454
16565SOL     OW51894   6.330   7.757   2.673 -0.1774  0.3520 -0.1115
16565SOL    HW151895   6.253   7.716   2.711  0.6861 -0.7739  0.4906
16565SOL    HW251896   6.344   7.836   2.726 -2.4256  2.0774 -1.8989
16566SOL     OW51897   7.926   4.446   4.130 -0.2549  0.1627 -0.2119
16566SOL    HW151898   7.937   4.385   4.203  0.4030  0.0578 -0.3985
16566SOL    HW251899   7.919   4.390   4.053  4.0088  0.3053 -0.9159
16567SOL     OW51900   1.800   5.388   4.289 -0.1320 -0.2464  0.4235
16567SOL    HW151901   1.713   5.368   4.323 -0.7680 -1.1573 -1.5655
16567SOL    HW251902   1.783   5.440   4.210  1.0680 -0.9516 -0.3305
16568SOL     OW51903   4.186   2.026   7.836 -0.1234 -0.0889 -0.0292
16568SOL    HW151904   4.128   1.978   7.896  0.5025 -1.5759 -0.5886
16568SOL    HW251905   4.129   2.051   7.763 -0.4971  0.1820  0.3536
16569SOL     OW51906   6.370   6.126   5.663  0.0459  0.2304 -0.5079
16569SOL    HW151907   6.415   6.116   5.578 -1.5303 -0.3479 -1.3245
16569SOL    HW251908   6.373   6.038   5.701 -0.4519  0.1664 -0.6102
16570SOL     OW51909   9.192   7.993   2.029 -0.1064 -0.1552  0.4951
16570SOL    HW151910   9.147   8.074   2.008  0.1910 -0.5784 -1.9901
16570SOL    HW251911   9.204   7.997   2.124 -0.3490  2.5499  0.4927
16571SOL     OW51912   0.162   8.393   1.829 -0.2223  0.1645 -0.1100
16571SOL    HW151913   0.094   8.418   1.767  0.1496  0.8718 -0.2364
16571SOL    HW251914   0.237   8.450   1.808  0.7254 -1.1772 -0.5438
16572SOL     OW51915   7.430   7.628   0.726  0.5132  0.1729  0.6526
16572SOL    HW151916   7.522   7.649   0.707 -0.1527  1.4771 -1.5290
16572SOL    HW251917   7.414   7.546   0.678  0.5344 -0.0990  1.1007
16573SOL     OW51918   3.958   4.128   3.124 -0.3496 -0.5254 -0.1996
16573SOL    HW151919   4.049   4.098   3.127  0.0062  0.4291 -0.6455
16573SOL    HW251920   3.962   4.218   3.157 -0.8862  0.0188 -1.5321
16574SOL     OW51921   4.863   7.236   2.571  0.7136  0.1083  0.0100
16574SOL    HW151922   4.814   7.176   2.628 -0.2600 -1.0031 -1.8570
16574SOL    HW251923   4.916   7.289   2.630 -1.9275  0.6181  2.1008
16575SOL     OW51924   6.012   4.790   4.225 -0.0142  0.1357  0.3437
16575SOL    HW151925   5.917   4.804   4.220  0.3562  3.2038 -0.1438
16575SOL    HW251926   6.035   4.751   4.140 -0.7807 -0.2817  0.3199
16576SOL     OW51927   2.573   7.631   5.629 -0.2670  0.2018  0.3225
16576SOL    HW151928   2.615   7.563   5.576  2.0882  2.6025 -1.0877
16576SOL    HW251929   2.486   7.640   5.589 -0.1384 -1.0217 -0.3161
16577SOL     OW51930   5.648   0.268   1.588  0.0927  0.6517 -0.1667
16577SOL    HW151931   5.667   0.174   1.598  0.5767  0.4531 -2.3942
16577SOL    HW251932   5.705   0.311   1.651 -1.4864 -0.5891  2.2567
16578SOL     OW51933   0.896   1.391   6.230  0.2285  0.8944 -0.5219
16578SOL    HW151934   0.948   1.310   6.223 -1.7671 -0.5383  0.2217
16578SOL    HW251935   0.902   1.416   6.322 -0.5516  0.5649 -0.3681
16579SOL     OW51936   4.694   9.362   2.366  0.0102 -0.5509  0.3020
16579SOL    HW151937   4.629   9.407   2.313  0.8216 -0.2615 -0.4685
16579SOL    HW251938   4.702   9.275   2.326  1.4455  0.0436 -0.8072
16580SOL     OW51939   9.112   1.960   1.605  0.1130  0.9212  0.2120
16580SOL    HW151940   9.043   1.914   1.558  0.2205 -1.0553  1.8399
16580SOL    HW251941   9.065   2.019   1.665 -0.2405 -0.6087  1.5050
16581SOL     OW51942   5.390   1.112   3.156 -0.1427 -1.0299 -0.4678
16581SOL    HW151943   5.464   1.059   3.185 -0.5163 -0.6560  1.3498
16581SOL    HW251944   5.373   1.170   3.231 -1.0408  0.2244 -1.6049
16582SOL     OW51945   3.926   5.364   6.061 -0.3924  0.0319 -0.2410
16582SOL    HW151946   3.914   5.271   6.075  2.4189 -0.1040  2.4635
16582SOL    HW251947   3.938   5.373   5.966  0.4668 -2.5504 -0.4505
16583SOL     OW51948   7.331   3.052   6.844  0.1192  0.6201  0.3479
16583SOL    HW151949   7.403   2.995   6.870 -1.6581 -0.6622  2.8676
16583SOL    HW251950   7.272   2.996   6.793 -0.7112  0.6678  1.2195
16584SOL     OW51951   9.436   5.183   3.628  0.4404  0.3626  0.4304
16584SOL    HW151952   9.401   5.272   3.634  0.0472  0.1649  1.2132
16584SOL    HW251953   9.491   5.174   3.707  0.4565 -0.0979  0.3692
16585SOL     OW51954   1.376   4.539   2.349  0.4708  0.6084 -0.2831
16585SOL    HW151955   1.416   4.599   2.413 -0.8500  1.1750  0.0344
16585SOL    HW251956   1.451   4.492   2.311  1.5882  2.6830 -0.7998
16586SOL     OW51957   3.037   5.519   0.211 -0.1584 -0.1996 -0.4878
16586SOL    HW151958   3.027   5.557   0.298 -1.2562 -0.6690 -0.3918
16586SOL    HW251959   3.122   5.551   0.181  0.7626 -0.9277  1.2002
16587SOL     OW51960   8.674   2.472   6.068 -0.4245 -0.2057 -0.1570
16587SOL    HW151961   8.731   2.548   6.073  0.3543 -0.6233 -1.8804
16587SOL    HW251962   8.586   2.508   6.064 -0.2035  0.5058  1.0349
16588SOL     OW51963   3.421   3.349   2.117 -0.1630  0.0904  0.4153
16588SOL    HW151964   3.443   3.293   2.191 -2.1965  0.5376  1.4262
16588SOL    HW251965   3.363   3.416   2.154 -1.7841 -0.0602 -1.6802
16589SOL     OW51966   6.523   0.833   8.388 -0.0748  0.0257 -0.6042
16589SOL    HW151967   6.531   0.918   8.344  0.9238  0.2603  0.0068
16589SOL    HW251968   6.577   0.842   8.467 -1.6458 -0.4451  0.5794
16590SOL     OW51969   2.692   3.000   7.894 -0.2968 -0.4810  0.0024
16590SOL    HW151970   2.639   3.006   7.814 -0.2272  0.8272  0.0361
16590SOL    HW251971   2.757   2.933   7.875  0.2681  0.4250 -1.3770
16591SOL     OW51972   2.055   3.282   8.538 -0.6786 -0.2704  0.2622
16591SOL    HW151973   2.025   3.356   8.590  1.1545 -0.3677  1.5588
16591SOL    HW251974   2.093   3.322   8.459 -2.5539 -0.0704 -0.5984
16592SOL     OW51975   8.577   9.245   2.336 -0.1214  0.9787  0.2261
16592SOL    HW151976   8.493   9.206   2.313  0.1558  0.3409  0.2670
16592SOL    HW251977   8.631   9.234   2.258  0.0795  0.9476  0.3680
16593SOL     OW51978   8.532   8.696   3.667  0.1287 -0.1909  0.5613
16593SOL    HW151979   8.548   8.745   3.587 -3.0587  0.2061  0.0064
16593SOL    HW251980   8.519   8.606   3.637 -0.3280 -0.1763  0.7046
16594SOL     OW51981   5.244   0.246   2.929 -0.7142 -0.0017  0.6414
16594SOL    HW151982   5.323   0.248   2.875  0.2801 -1.2901  1.9614
16594SOL    HW251983   5.174   0.275   2.871  0.2261 -1.6398 -1.4572
16595SOL     OW51984   8.121   1.807   4.470 -0.2375 -0.2410  0.3679
16595SOL    HW151985   8.061   1.792   4.543 -0.6838 -2.3109 -0.3541
16595SOL    HW251986   8.085   1.884   4.425 -1.3251 -0.3823  0.9650
16596SOL     OW51987   2.013   3.007   1.265 -0.3305 -0.3975 -0.0787
16596SOL    HW151988   2.101   2.998   1.227  0.3170 -0.4550  1.3652
16596SOL    HW251989   1.955   2.968   1.200  0.6683 -0.0284 -1.2333
16597SOL     OW51990   8.245   2.282   7.194 -0.8027 -0.4074  0.4510
16597SOL    HW151991   8.296   2.344   7.246 -0.2355  0.3562 -0.9804
16597SOL    HW251992   8.291   2.199   7.205 -0.1653 -0.0614  0.4604
16598SOL     OW51993   1.762   5.003   2.639 -0.4318 -0.1056  0.2564
16598SOL    HW151994   1.801   5.075   2.590 -2.1532  2.0553  1.8484
16598SOL    HW251995   1.818   4.993   2.717 -1.7097  1.5179  1.4491
16599SOL     OW51996   0.803   3.245   5.708 -0.0300  0.1511  0.9348
16599SOL    HW151997   0.778   3.153   5.704 -1.6063  0.5605  0.2644
16599SOL    HW251998   0.842   3.256   5.795  0.2988 -1.1622  0.9706
16600SOL     OW51999   4.767   6.970   2.209  0.2179  0.1262 -0.5951
16600SOL    HW152000   4.821   7.048   2.200 -0.4096  0.4359 -1.9455
16600SOL    HW252001   4.681   6.996   2.176 -0.4239 -0.7044  0.3624
16601SOL     OW52002   2.426   8.730   0.734 -0.1776  0.1069  0.1644
16601SOL    HW152003   2.475   8.650   0.718  2.9766  2.0738 -0.9562
16601SOL    HW252004   2.416   8.734   0.829  1.9829 -0.4138  0.4717
16602SOL     OW52005   3.522   4.840   9.449 -0.0758  0.5366 -0.6707
16602SOL    HW152006   3.431   4.862   9.472  0.2627  0.3537  0.9248
16602SOL    HW252007   3.547   4.907   9.386 -2.3060 -1.1872 -3.6552
16603SOL     OW52008   0.298   9.512   2.004  0.2123  0.4254  0.0767
16603SOL    HW152009   0.235   9.579   1.979  0.2066 -0.0033 -1.1461
16603SOL    HW252010   0.382   9.545   1.970  0.3804  0.2726  0.3412
16604SOL     OW52011   8.424   7.357   4.425  0.1365  0.3262  0.0707
16604SOL    HW152012   8.509   7.399   4.414  0.7761 -0.9459 -0.1156
16604SOL    HW252013   8.372   7.386   4.350 -0.1567  2.3511  1.0096
16605SOL     OW52014   9.557   4.265   7.660 -0.6255 -0.1312  0.1546
16605SOL    HW152015   9.631   4.324   7.671 -0.0022 -0.5312 -1.5456
16605SOL    HW252016   9.485   4.321   7.629 -1.0434  0.2485  1.7585
16606SOL     OW52017   9.328   6.831   9.150  0.1255  0.7781  0.2170
16606SOL    HW152018   9.310   6.738   9.155 -2.4307  1.0716 -1.4871
16606SOL    HW252019   9.381   6.842   9.071 -2.3571  0.9805 -1.5380
16607SOL     OW52020   1.642   5.725   3.643 -0.2965  0.2796 -0.2662
16607SOL    HW152021   1.700   5.795   3.611 -0.6794  1.4847  1.5238
16607SOL    HW252022   1.561   5.736   3.593  0.4020 -0.3494 -1.5900
16608SOL     OW52023   0.661   7.594   5.212 -0.4399  0.4034 -0.5216
16608SOL    HW152024   0.579   7.584   5.164 -0.1713 -0.4251 -0.8283
16608SOL    HW252025   0.649   7.542   5.292 -0.1077  0.0288 -0.7124
16609SOL     OW52026   4.420   3.375   6.613  0.5294 -0.1525  0.2797
16609SOL    HW152027   4.396   3.463   6.585  0.2313 -0.7857 -1.5867
16609SOL    HW252028   4.510   3.384   6.646  0.4927  0.8487  0.1353
16610SOL     OW52029   0.588   3.362   7.182 -0.9757  0.2939  0.0613
16610SOL    HW152030   0.512   3.418   7.162 -0.9149  1.0118  1.6890
16610SOL    HW252031   0.593   3.362   7.277  1.2157  0.4526 -0.0056
16611SOL     OW52032   4.336   8.415   9.503  0.4654  0.1469 -0.3991
16611SOL    HW152033   4.417   8.384   9.544 -0.2330 -0.9690  0.1916
16611SOL    HW252034   4.267   8.387   9.563 -0.5168 -0.6059 -1.8242
16612SOL     OW52035   1.586   0.043   4.879 -0.1005 -0.0347  0.2941
16612SOL    HW152036   1.682   0.042   4.870 -0.1738 -0.9208 -0.5630
16612SOL    HW252037   1.558   0.118   4.827  0.0071 -1.0124 -1.2647
16613SOL     OW52038   5.967   3.404   1.300  0.3611  0.2333 -0.5584
16613SOL    HW152039   5.885   3.453   1.312 -1.6100 -2.4127 -2.1456
16613SOL    HW252040   5.966   3.337   1.368  2.1130  1.1503  0.4399
16614SOL     OW52041   0.552   4.359   2.533  0.2622  0.1257  0.1836
16614SOL    HW152042   0.522   4.327   2.618 -0.7178  1.0036  0.2037
16614SOL    HW252043   0.519   4.295   2.470 -1.3523  0.8359  0.2516
16615SOL     OW52044   1.617   8.227   5.055  0.0201  0.0680 -0.0971
16615SOL    HW152045   1.705   8.242   5.091  0.0236  0.4207 -0.2535
16615SOL    HW252046   1.633   8.200   4.964  0.0980 -2.2948  0.5364
16616SOL     OW52047   2.982   8.644   7.900  0.5070  0.0526  0.0284
16616SOL    HW152048   3.027   8.726   7.879  0.2692  0.3540  0.6866
16616SOL    HW252049   3.036   8.576   7.859  0.8794  0.5069 -0.2489
16617SOL     OW52050   8.620   2.632   5.546  0.5259 -0.1643 -0.2848
16617SOL    HW152051   8.559   2.665   5.480 -0.3495 -2.6264 -0.8077
16617SOL    HW252052   8.584   2.664   5.630 -0.8315 -0.5756 -0.6809
16618SOL     OW52053   2.036   1.792   6.705  0.3886 -0.0988  0.0599
16618SOL    HW152054   2.025   1.698   6.689  1.6355  0.1021 -2.3493
16618SOL    HW252055   1.950   1.822   6.733 -0.1491 -1.8596  0.3998
16619SOL     OW52056   1.206   2.734   4.665  0.1092 -0.5588  0.0025
16619SOL    HW152057   1.177   2.819   4.632  0.7764 -0.8492 -1.3852
16619SOL    HW252058   1.133   2.675   4.645 -0.4152 -0.3127  1.0961
16620SOL     OW52059   3.787   4.977   0.211  0.0603 -0.4519 -1.0367
16620SOL    HW152060   3.863   5.018   0.253  0.1458 -0.2053 -1.4279
16620SOL    HW252061   3.716   5.040   0.224 -0.0077 -0.5468 -0.9367
16621SOL     OW52062   9.137   1.215   5.723 -0.2874  0.2564 -0.2669
16621SOL    HW152063   9.111   1.250   5.808  2.1907  1.6861 -0.0144
16621SOL    HW252064   9.066   1.240   5.663 -0.9854  1.2277  0.9321
16622SOL     OW52065   5.647   6.351   7.538 -0.2313  0.0147  0.5492
16622SOL    HW152066   5.667   6.326   7.628  0.3130  0.2333  0.4977
16622SOL    HW252067   5.635   6.446   7.541 -0.0617  0.0446  0.3719
16623SOL     OW52068   9.455   3.762   2.743 -0.0169  0.1760  0.0351
16623SOL    HW152069   9.440   3.773   2.837  1.6387 -0.0374  0.3530
16623SOL    HW252070   9.549   3.745   2.735 -0.0441  0.6155 -1.7028
16624SOL     OW52071   6.191   3.386   3.396  0.5894 -0.0205  0.3114
16624SOL    HW152072   6.251   3.347   3.333 -0.2673 -4.7052  1.9986
16624SOL    HW252073   6.247   3.420   3.466  1.3689  1.4402 -0.9799
16625SOL     OW52074   9.074   3.164   3.220  0.0033  0.1937  0.1304
16625SOL    HW152075   9.137   3.186   3.152  0.1004  1.0195  0.4732
16625SOL    HW252076   9.008   3.111   3.175  0.5286 -0.0148 -0.4039
16626SOL     OW52077   1.229   8.966   9.439 -0.3266  0.3352 -0.4624
16626SOL    HW152078   1.312   8.923   9.461  0.9772  2.0164 -1.7796
16626SOL    HW252079   1.179   8.966   9.521  1.8420  1.1074  0.9403
16627SOL     OW52080   2.800   0.138   6.551  0.0590  0.1747  0.0355
16627SOL    HW152081   2.854   0.068   6.588  0.2110  0.2298 -0.0810
16627SOL    HW252082   2.806   0.210   6.614  0.2469  0.2369 -0.0530
16628SOL     OW52083   1.244   4.294   2.363  0.2403 -0.2545  0.3073
16628SOL    HW152084   1.296   4.374   2.350  0.5249 -0.3357  0.8937
16628SOL    HW252085   1.307   4.229   2.392  0.1122 -0.8858 -0.8011
16629SOL     OW52086   7.999   8.049   1.890  0.2622  0.5589  0.5652
16629SOL    HW152087   7.952   8.127   1.859 -0.2718  1.1956  2.7582
16629SOL    HW252088   7.952   8.023   1.969  2.0180 -0.4089  1.3456
16630SOL     OW52089   7.930   0.356   5.231 -0.1809  0.2060 -0.0361
16630SOL    HW152090   7.855   0.412   5.253  0.2926  0.4480  1.0223
16630SOL    HW252091   7.923   0.283   5.292 -1.3820 -1.5048 -2.0609
16631SOL     OW52092   5.763   1.110   0.469 -0.3657  0.1642  0.3220
16631SOL    HW152093   5.797   1.199   0.469 -0.8699  0.3726 -0.5693
16631SOL    HW252094   5.781   1.078   0.380  0.2475 -0.7946  0.7855
16632SOL     OW52095   5.262   2.649   9.032 -0.0225  0.1867 -0.0922
16632SOL    HW152096   5.346   2.634   8.989  0.3687  0.9146  0.3911
16632SOL    HW252097   5.237   2.564   9.067  0.6067  0.0032 -0.0783
16633SOL     OW52098   0.121   3.325   7.553 -0.3591 -0.1261 -0.2066
16633SOL    HW152099   0.034   3.357   7.579 -0.7765  0.1268 -1.8045
16633SOL    HW252100   0.156   3.286   7.632 -0.9029  1.9496  1.1365
16634SOL     OW52101   3.514   4.025   7.199 -0.1541 -0.3750 -0.7424
16634SOL    HW152102   3.578   4.072   7.145  2.7360  0.8717  3.3283
16634SOL    HW252103   3.560   3.947   7.229 -1.3132 -0.5729  0.6312
16635SOL     OW52104   4.579   3.452   6.093  0.3586 -0.6073  0.0237
16635SOL    HW152105   4.495   3.430   6.132  0.5805 -1.1342  0.2154
16635SOL    HW252106   4.635   3.377   6.113  0.7669 -0.4284 -0.4256
16636SOL     OW52107   8.649   2.447   7.702  0.2056 -0.3666  0.2694
16636SOL    HW152108   8.733   2.431   7.660 -0.1833  1.8192 -1.4999
16636SOL    HW252109   8.657   2.407   7.789  2.5295 -1.4312 -0.3855
16637SOL     OW52110   3.184   5.724   6.881 -0.4518 -0.0513 -0.1653
16637SOL    HW152111   3.148   5.681   6.959  0.6487  1.4486  1.2375
16637SOL    HW252112   3.266   5.762   6.911 -0.6954  1.8011 -1.6831
16638SOL     OW52113   4.183   5.276   8.300 -0.0354 -0.3973 -0.6627
16638SOL    HW152114   4.188   5.361   8.256 -1.4885 -0.1940 -0.5091
16638SOL    HW252115   4.218   5.292   8.387 -0.2352  0.0426 -0.6606
16639SOL     OW52116   7.918   0.609   5.975 -0.0762  0.0565 -0.0420
16639SOL    HW152117   7.856   0.558   6.026 -0.0990 -0.1716 -0.2957
16639SOL    HW252118   7.976   0.649   6.040 -1.3647  1.4379  0.2963
16640SOL     OW52119   6.646   0.784   6.595  0.0597  0.5080  0.2116
16640SOL    HW152120   6.617   0.758   6.508  0.9232 -0.0310  0.0641
16640SOL    HW252121   6.672   0.701   6.636 -1.0542  0.6535  1.2659
16641SOL     OW52122   2.403   1.303   8.653 -0.1632 -0.3583  0.4171
16641SOL    HW152123   2.497   1.289   8.639 -0.1525 -1.7003  1.5450
16641SOL    HW252124   2.398   1.367   8.724 -0.0802 -0.5969  0.6418
16642SOL     OW52125   6.672   9.384   2.965  0.3017  0.1140  0.3295
16642SOL    HW152126   6.699   9.352   3.051 -0.5469  0.3032  0.6802
16642SOL    HW252127   6.652   9.305   2.915  1.5187 -0.0260  0.0512
16643SOL     OW52128   2.999   1.839   4.532 -0.4901  0.2661 -0.6500
16643SOL    HW152129   3.052   1.918   4.531  0.5582 -0.3349  1.1449
16643SOL    HW252130   3.035   1.784   4.463 -1.0576  1.2127 -1.7328
16644SOL     OW52131   0.129   0.397   3.608  0.4400  0.7144 -0.2658
16644SOL    HW152132   0.216   0.372   3.639 -0.7122 -2.1036  1.0338
16644SOL    HW252133   0.129   0.376   3.515  0.6580 -0.9432  0.0807
16645SOL     OW52134   4.738   5.102   4.453 -0.6470  0.1145  0.1301
16645SOL    HW152135   4.789   5.059   4.385 -1.5426  1.5616 -1.5212
16645SOL    HW252136   4.725   5.034   4.520  2.5395 -0.5687  0.1965
16646SOL     OW52137   3.709   2.891   8.433 -0.1848  0.2410 -0.0921
16646SOL    HW152138   3.786   2.861   8.383  0.1148 -0.4557  0.7631
16646SOL    HW252139   3.636   2.842   8.397  0.1109 -0.6301  0.4751
16647SOL     OW52140   5.562   8.481   6.956 -0.3153  0.6739 -0.1048
16647SOL    HW152141   5.498   8.552   6.959  0.0058  0.9570  0.1362
16647SOL    HW252142   5.640   8.517   6.998  0.1770  0.5109 -0.8597
16648SOL     OW52143   4.300   8.786   5.505 -0.2353 -0.6413  0.2333
16648SOL    HW152144   4.309   8.868   5.458 -2.0890  0.2186  1.2706
16648SOL    HW252145   4.242   8.733   5.450  0.6579 -1.1433 -0.2525
16649SOL     OW52146   4.429   3.575   5.479  0.1413  0.1846  0.0422
16649SOL    HW152147   4.469   3.542   5.560  0.2547 -0.2712 -0.1917
16649SOL    HW252148   4.433   3.500   5.419 -0.3471  0.3816 -0.2395
16650SOL     OW52149   6.946   2.229   3.766 -0.0593 -0.1492 -0.7196
16650SOL    HW152150   6.911   2.296   3.708  0.9653 -0.0604 -1.2488
16650SOL    HW252151   7.020   2.271   3.809 -0.0260 -0.6280 -0.2991
16651SOL     OW52152   6.918   3.214   8.193 -0.4007 -0.2090 -0.1751
16651SOL    HW152153   6.863   3.235   8.118 -1.4554 -0.3575  0.5328
16651SOL    HW252154   6.979   3.288   8.199 -0.7525  0.1349 -0.7719
16652SOL     OW52155   8.071   5.619   4.614 -0.0220  0.3473  0.2011
16652SOL    HW152156   7.979   5.617   4.641 -0.3324  0.4163 -0.7913
16652SOL    HW252157   8.067   5.629   4.519  0.9151 -3.3240 -0.3847
16653SOL     OW52158   3.385   5.913   2.301 -0.1625 -0.3906  0.3080
16653SOL    HW152159   3.359   5.859   2.226 -0.2940 -0.1724  0.1955
16653SOL    HW252160   3.457   5.966   2.269 -0.6889  0.2243  0.1164
16654SOL     OW52161   9.324   3.882   0.442 -0.4188 -0.1353  0.4296
16654SOL    HW152162   9.411   3.861   0.408 -0.3178 -0.7289  1.0371
16654SOL    HW252163   9.276   3.799   0.439 -0.7892  0.0692  0.6009
16655SOL     OW52164   3.101   3.097   8.319  0.1866 -0.5633 -0.1943
16655SOL    HW152165   3.095   3.187   8.287  2.0339 -0.4025 -0.1758
16655SOL    HW252166   3.077   3.102   8.412  0.7139 -0.0017 -0.0834
16656SOL     OW52167   5.928   4.476   5.678  0.0370 -0.1679  0.2768
16656SOL    HW152168   5.904   4.479   5.771  0.3789 -1.1650  0.4145
16656SOL    HW252169   6.017   4.510   5.675  0.2194 -0.6248  0.3965
16657SOL     OW52170   2.929   2.927   9.047 -0.6167  0.1583 -0.4656
16657SOL    HW152171   2.962   2.973   8.970  0.2112 -0.1290 -0.2909
16657SOL    HW252172   2.836   2.952   9.052 -0.5774  0.5029 -1.3105
16658SOL     OW52173   2.866   1.307   0.267 -0.1688  0.3169 -0.2437
16658SOL    HW152174   2.805   1.237   0.242  1.3336 -1.2153  0.1728
16658SOL    HW252175   2.810   1.376   0.302 -1.6945 -0.8545 -0.2405
16659SOL     OW52176   4.728   3.365   9.211 -0.1424  0.6291 -0.3182
16659SOL    HW152177   4.769   3.406   9.135 -0.2411 -0.2359 -0.8588
16659SOL    HW252178   4.795   3.308   9.247 -0.6670 -0.4059 -0.9062
16660SOL     OW52179   2.097   3.687   5.701  0.0815 -0.2020  0.1096
16660SOL    HW152180   2.100   3.675   5.606 -0.1254  1.3600 -0.1121
16660SOL    HW252181   2.006   3.673   5.724  0.2833 -1.4512  0.2250
16661SOL     OW52182   2.394   4.538   2.411 -0.1751  0.1994 -0.2372
16661SOL    HW152183   2.328   4.471   2.422 -0.7113  0.7388 -0.0998
16661SOL    HW252184   2.371   4.606   2.475 -0.1968  0.9349 -1.0001
16662SOL     OW52185   8.242   6.160   8.517 -0.0351 -0.0156 -0.2849
16662SOL    HW152186   8.211   6.233   8.571 -0.6391 -0.9925  0.7330
16662SOL    HW252187   8.163   6.107   8.502  0.8503 -1.8793  1.2817
16663SOL     OW52188   0.474   9.504   7.784 -0.1598 -0.1128  0.2414
16663SOL    HW152189   0.569   9.518   7.785 -0.1910  0.0762  1.2377
16663SOL    HW252190   0.465   9.409   7.777  0.0856 -0.0671 -0.9127
16664SOL     OW52191   6.170   1.466   3.677 -0.4150  0.0177  0.0328
16664SOL    HW152192   6.248   1.415   3.658 -1.7293 -1.8157 -0.6642
16664SOL    HW252193   6.118   1.463   3.597 -1.1150  1.4119  0.3940
16665SOL     OW52194   4.519   4.242   4.406 -0.3192  0.6136 -0.5792
16665SOL    HW152195   4.571   4.258   4.327 -0.0625  0.6386 -0.4034
16665SOL    HW252196   4.436   4.287   4.389 -0.0927  1.0116 -0.6406
16666SOL     OW52197   1.183   2.063   3.822 -0.3253 -0.6657 -0.3821
16666SOL    HW152198   1.209   2.059   3.914  1.4052 -0.0363 -0.8082
16666SOL    HW252199   1.172   2.156   3.804  2.2191 -0.5136 -1.5146
16667SOL     OW52200   1.799   6.207   9.031  0.0969 -0.6011  0.0549
16667SOL    HW152201   1.846   6.207   9.114 -0.4674 -0.4471  0.3784
16667SOL    HW252202   1.713   6.241   9.052  0.6633  1.6949 -1.0091
16668SOL     OW52203   5.825   5.837   1.531  0.2881 -0.5486  0.5675
16668SOL    HW152204   5.787   5.866   1.448 -0.8083  4.2418  2.4029
16668SOL    HW252205   5.750   5.826   1.590  1.2013  0.0367  1.8976
16669SOL     OW52206   2.320   0.389   4.348 -0.0677 -0.1190 -0.1008
16669SOL    HW152207   2.400   0.422   4.390 -0.7872  0.2518  1.0206
16669SOL    HW252208   2.347   0.306   4.309  1.2951  0.8219 -1.2862
16670SOL     OW52209   4.700   9.301   0.018  0.4391 -0.1843  0.4386
16670SOL    HW152210   4.618   9.252   0.030  0.2901  0.1536  0.8020
16670SOL    HW252211   4.707   9.313  -0.077  0.0848 -0.2508  0.4031
16671SOL     OW52212   8.117   2.589   3.529 -0.4198  0.4362  0.0015
16671SOL    HW152213   8.199   2.638   3.540  0.1428 -0.5410  0.2899
16671SOL    HW252214   8.074   2.631   3.454  0.1002  1.2824  0.1583
16672SOL     OW52215   9.516   7.902   6.055 -0.0059 -0.1240 -0.6004
16672SOL    HW152216   9.592   7.960   6.047  0.3596 -0.3892  0.6464
16672SOL    HW252217   9.442   7.956   6.029  0.4609  0.5383 -0.5907
16673SOL     OW52218   9.260   6.499   2.784  0.0156 -0.3049 -0.1748
16673SOL    HW152219   9.198   6.570   2.797  0.5670  0.1814 -0.1874
16673SOL    HW252220   9.278   6.466   2.872  0.4053  0.1226 -0.0955
16674SOL     OW52221   1.007   7.891   0.124 -0.3143 -0.0268 -0.1673
16674SOL    HW152222   0.964   7.954   0.067 -0.5141  0.0422  0.0569
16674SOL    HW252223   1.054   7.944   0.188  0.0757 -0.1019 -0.3878
16675SOL     OW52224   3.957   9.092   7.748  0.3432  0.0383 -0.4292
16675SOL    HW152225   3.917   9.114   7.664  0.0144 -1.2291 -0.6265
16675SOL    HW252226   3.884   9.085   7.809  0.5447  0.5362 -0.1184
16676SOL     OW52227   7.888   1.261   2.766 -0.2474  0.5535  0.6536
16676SOL    HW152228   7.813   1.207   2.742  0.9410 -1.3557  0.9870
16676SOL    HW252229   7.922   1.220   2.846  1.0728  1.4373  0.5755
16677SOL     OW52230   2.608   8.874   3.652  0.0383  0.2035 -0.0837
16677SOL    HW152231   2.626   8.789   3.691 -1.4384  0.4728  1.3178
16677SOL    HW252232   2.692   8.903   3.617  0.9036 -1.1435  0.7772
16678SOL     OW52233   8.896   4.598   2.236 -0.0566  0.1360 -0.0210
16678SOL    HW152234   8.916   4.639   2.320  0.1798 -1.6265  0.8167
16678SOL    HW252235   8.906   4.669   2.172  1.9714  1.0031  1.1638
16679SOL     OW52236   0.821   4.276   1.302  0.1351 -0.1354  0.2634
16679SOL    HW152237   0.742   4.292   1.354  0.3118 -0.5189  0.6486
16679SOL    HW252238   0.832   4.181   1.302 -0.7299 -0.2908 -1.7710
16680SOL     OW52239   5.512   4.547   4.880  0.0135 -0.1638 -0.0600
16680SOL    HW152240   5.519   4.584   4.792 -1.3042  0.0471 -0.0975
16680SOL    HW252241   5.555   4.611   4.936 -0.8072  0.6533 -0.3331
16681SOL     OW52242   8.930   6.161   3.665 -0.0922  0.4681 -1.1705
16681SOL    HW152243   8.853   6.209   3.694  0.7658  1.4687 -0.4298
16681SOL    HW252244   8.992   6.230   3.638 -0.1732 -0.3494 -3.7495
16682SOL     OW52245   7.382   9.279   8.606  0.1597  0.0368 -0.5370
16682SOL    HW152246   7.416   9.190   8.619 -0.1767 -0.0371 -0.1029
16682SOL    HW252247   7.415   9.305   8.520 -1.3973 -1.3019 -1.6115
16683SOL     OW52248   7.407   2.281   9.496 -0.0903 -0.3815 -0.1338
16683SOL    HW152249   7.320   2.273   9.457 -0.2891  2.0604 -0.3577
16683SOL    HW252250   7.396   2.249   9.586 -0.5514 -2.4639 -0.8799
16684SOL     OW52251   1.655   7.705   1.796 -0.3480  0.1720 -0.3613
16684SOL    HW152252   1.580   7.644   1.801  0.9098 -1.3408  1.2934
16684SOL    HW252253   1.655   7.734   1.705 -1.3675 -1.8888 -1.1060
16685SOL     OW52254   5.213   5.945   6.513  0.0141  0.3473 -0.0058
16685SOL    HW152255   5.200   5.931   6.606 -2.3929 -1.5466 -0.5306
16685SOL    HW252256   5.145   6.008   6.488  0.8048  1.0432 -0.4839
16686SOL     OW52257   7.542   1.756   4.088 -0.3986  0.0376 -0.1181
16686SOL    HW152258   7.512   1.770   4.178  2.3712 -1.2474  1.1225
16686SOL    HW252259   7.596   1.832   4.068 -0.1246 -0.2030 -0.2926
16687SOL     OW52260   1.981   0.142   2.396 -0.0983  0.3142 -0.4845
16687SOL    HW152261   1.920   0.214   2.378 -0.2435  0.2855 -0.1212
16687SOL    HW252262   1.926   0.072   2.430  0.1970  0.4692  0.3383
16688SOL     OW52263   3.988   8.081   5.334 -0.1113  0.3980 -0.0559
16688SOL    HW152264   3.991   7.986   5.323 -1.3352  0.3486 -0.0915
16688SOL    HW252265   4.009   8.095   5.427 -3.3204 -0.2101  0.8877
16689SOL     OW52266   1.104   1.076   2.059  0.1491  0.3707 -0.0222
16689SOL    HW152267   1.149   1.066   2.143 -1.3213 -0.9137  0.6588
16689SOL    HW252268   1.061   1.161   2.066 -1.0342 -0.2874  1.0956
16690SOL     OW52269   1.250   1.335   3.161  0.4252  0.2638  0.1963
16690SOL    HW152270   1.296   1.321   3.078  0.9851 -0.1890  0.5694
16690SOL    HW252271   1.207   1.420   3.151  0.7914  0.3830 -0.4248
16691SOL     OW52272   2.393   3.810   8.363  0.1351  0.4648  0.1269
16691SOL    HW152273   2.377   3.840   8.453  0.9730  2.3404 -0.2800
16691SOL    HW252274   2.312   3.830   8.316 -0.6308 -1.3188  0.5926
16692SOL     OW52275   6.989   0.994   4.984  0.1913 -0.2616 -0.1343
16692SOL    HW152276   6.995   0.899   4.980  0.5714 -0.2501  0.1210
16692SOL    HW252277   7.038   1.025   4.907  1.4051 -0.2341  0.6315
16693SOL     OW52278   6.895   5.157   3.177  0.0753  0.2228 -0.1099
16693SOL    HW152279   6.837   5.228   3.203  0.5673  1.2677 -1.6898
16693SOL    HW252280   6.854   5.120   3.098  0.0799 -0.9519  0.4119
16694SOL     OW52281   4.006   1.957   5.444 -0.6271  0.0299  0.1773
16694SOL    HW152282   3.925   1.998   5.415 -1.7431 -1.1818  1.4344
16694SOL    HW252283   4.011   1.876   5.394 -0.4584 -0.1460  0.4794
16695SOL     OW52284   7.444   8.754   7.586  0.0961  0.5428 -0.2511
16695SOL    HW152285   7.494   8.828   7.619  0.5766  0.6921 -1.2715
16695SOL    HW252286   7.499   8.678   7.606 -0.2615  0.4838  0.5326
16696SOL     OW52287   1.475   4.304   7.422 -0.5884 -0.3914  0.0172
16696SOL    HW152288   1.437   4.348   7.346 -0.6411  0.2108  0.3844
16696SOL    HW252289   1.427   4.340   7.497  0.2775 -0.0837  0.4348
16697SOL     OW52290   8.996   2.835   7.577  0.0673  0.1059  0.4526
16697SOL    HW152291   9.042   2.912   7.610 -0.2322 -0.0096  1.1569
16697SOL    HW252292   9.053   2.801   7.508 -0.4764  1.8200 -0.9443
16698SOL     OW52293   3.039   3.243   0.407  0.3439  0.0242  0.7764
16698SOL    HW152294   3.045   3.246   0.311  0.7391  2.1870  0.8342
16698SOL    HW252295   2.957   3.197   0.424 -0.1019  0.2418 -0.6158
16699SOL     OW52296   0.891   3.412   1.073 -0.0209 -0.0792  0.1611
16699SOL    HW152297   0.899   3.332   1.022  0.0475 -0.7985  1.2790
16699SOL    HW252298   0.980   3.433   1.099 -0.1812 -0.3972  0.9938
16700SOL     OW52299   1.850   7.906   8.203  0.1111 -0.2740 -0.5234
16700SOL    HW152300   1.773   7.930   8.255  0.6526  1.3878 -0.4362
16700SOL    HW252301   1.838   7.813   8.184 -1.2160 -0.3751  0.6699
16701SOL     OW52302   1.352   8.867   8.477 -0.0488 -0.2848  0.2133
16701SOL    HW152303   1.397   8.950   8.492 -0.7666  0.0729  0.4687
16701SOL    HW252304   1.321   8.872   8.387 -1.1680  0.2761  0.6083
16702SOL     OW52305   8.902   9.056   9.575  0.1395 -0.7522  0.0881
16702SOL    HW152306   8.870   9.048   9.485  0.4774 -0.2233 -0.0873
16702SOL    HW252307   8.823   9.068   9.628 -0.0499 -0.9080 -0.1595
16703SOL     OW52308   9.331   9.266   2.499  0.4189 -0.4253  0.4177
16703SOL    HW152309   9.340   9.180   2.459  0.8839 -0.6614  1.0117
16703SOL    HW252310   9.347   9.328   2.427  0.3857 -0.8327  0.0570
16704SOL     OW52311   2.448   6.448   4.162  0.3103  0.0645  0.7839
16704SOL    HW152312   2.493   6.491   4.234  0.8474  1.4213 -0.3177
16704SOL    HW252313   2.479   6.358   4.164  1.5746  0.4951  1.2293
16705SOL     OW52314   1.477   6.729   9.482  0.0995  0.2190  0.2299
16705SOL    HW152315   1.514   6.674   9.413  2.5229  0.6630  1.0591
16705SOL    HW252316   1.447   6.807   9.437 -1.5062 -0.8959 -0.7010
16706SOL     OW52317   3.301   0.185   6.290 -0.7988  0.2809  0.3891
16706SOL    HW152318   3.326   0.135   6.212  0.1635 -0.6231  1.2516
16706SOL    HW252319   3.206   0.176   6.295 -0.7742 -0.3603 -0.1913
16707SOL     OW52320   6.689   0.092   0.927 -0.0045  0.3799  0.1032
16707SOL    HW152321   6.710   0.135   0.844  0.0997 -2.3356 -1.4200
16707SOL    HW252322   6.602   0.054   0.913  0.2920 -0.6856  0.9736
16708SOL     OW52323   0.242   8.248   0.562  0.1440 -0.1590  0.3271
16708SOL    HW152324   0.276   8.296   0.637  1.8805  0.3484 -0.7085
16708SOL    HW252325   0.318   8.198   0.530 -0.4513 -0.0922 -1.2702
16709SOL     OW52326   8.432   2.027   2.473  0.1325  0.0494 -0.4593
16709SOL    HW152327   8.493   1.956   2.494  0.9480  0.3599 -1.6408
16709SOL    HW252328   8.480   2.082   2.411 -0.9163  0.9874 -0.4728
16710SOL     OW52329   8.489   0.003   0.167  0.3676  0.0239 -0.0393
16710SOL    HW152330   8.410  -0.050   0.165 -1.2975  2.2809  1.3055
16710SOL    HW252331   8.508   0.020   0.074  0.5396 -2.1906 -0.4668
16711SOL     OW52332   1.091   6.893   1.101  0.1899  0.4651 -0.3212
16711SOL    HW152333   1.071   6.950   1.175  0.5781  0.2907 -0.0749
16711SOL    HW252334   1.162   6.938   1.055  3.2389 -1.5031  1.9968
16712SOL     OW52335   3.544   0.962   7.639  0.2812  0.3023 -0.4886
16712SOL    HW152336   3.469   0.951   7.698  0.6371  1.1252  0.1349
16712SOL    HW252337   3.620   0.951   7.695  0.6264  0.9935 -0.8197
16713SOL     OW52338   8.503   3.217   8.381 -0.0130 -0.1561  0.3251
16713SOL    HW152339   8.511   3.121   8.388 -1.9041 -0.3949 -0.3063
16713SOL    HW252340   8.553   3.239   8.302 -1.4776 -0.9531 -0.8675
16714SOL     OW52341   5.729   7.463   1.034  0.3853  0.1258  0.0757
16714SOL    HW152342   5.698   7.373   1.045 -0.9195  0.6019  0.4498
16714SOL    HW252343   5.664   7.504   0.977  0.5121  1.0562  0.5775
16715SOL     OW52344   0.067   5.130   3.840  0.1403 -0.2505 -0.0534
16715SOL    HW152345   0.136   5.171   3.891  0.6984 -1.3343  0.1031
16715SOL    HW252346   0.111   5.058   3.794 -0.7245 -0.4632 -0.5769
16716SOL     OW52347   4.475   8.852   1.418  0.5624  0.5338 -0.1343
16716SOL    HW152348   4.487   8.925   1.357  1.1836  0.6913  0.1694
16716SOL    HW252349   4.461   8.776   1.362  0.2844  0.8235 -0.4593
16717SOL     OW52350   7.218   4.283   6.368 -0.6664 -0.2728  0.5221
16717SOL    HW152351   7.298   4.232   6.375 -1.0936 -0.8718  1.3157
16717SOL    HW252352   7.204   4.293   6.274  0.9469  0.8608  0.3662
16718SOL     OW52353   6.028   4.183   6.238 -0.5144 -0.0262 -0.6979
16718SOL    HW152354   6.060   4.109   6.187 -1.3909 -1.5788  0.9090
16718SOL    HW252355   5.961   4.223   6.183  1.6346  1.1709 -2.6331
16719SOL     OW52356   1.256   0.048   3.571  0.0013  0.3544  0.3138
16719SOL    HW152357   1.317   0.101   3.623  1.1586 -0.3501 -0.2890
16719SOL    HW252358   1.238   0.102   3.494 -1.1877  1.1109  1.0799
16720SOL     OW52359   5.067   4.781   4.409  0.8581  0.0621 -0.0595
16720SOL    HW152360   5.082   4.846   4.341 -1.4241  2.6821  1.7221
16720SOL    HW252361   4.973   4.786   4.427  0.8557 -2.6463  1.2915
16721SOL     OW52362   0.116   7.883   1.584  0.0379  0.0599  0.5916
16721SOL    HW152363   0.111   7.857   1.676 -0.4996  1.8771  1.1271
16721SOL    HW252364   0.056   7.958   1.577 -0.2306 -0.2736 -1.3370
16722SOL     OW52365   8.353   0.480   0.304  0.2399  0.3477 -0.3028
16722SOL    HW152366   8.333   0.388   0.317  0.7525  0.2410 -0.2560
16722SOL    HW252367   8.388   0.485   0.215 -1.1868  0.7346 -0.8664
16723SOL     OW52368   1.269   7.604   5.066 -0.3118 -0.1423 -0.0283
16723SOL    HW152369   1.179   7.625   5.091  0.2866  1.0282  1.3112
16723SOL    HW252370   1.277   7.510   5.082 -1.4981 -0.4215 -0.9270
16724SOL     OW52371   0.820   6.692   1.287  0.4333  0.1035  0.7042
16724SOL    HW152372   0.885   6.686   1.217  0.8789 -0.2306  1.1440
16724SOL    HW252373   0.771   6.772   1.266  0.8030  0.2108  0.2175
16725SOL     OW52374   9.034   9.321   6.334  0.2559  0.4088 -0.3717
16725SOL    HW152375   8.962   9.381   6.354  0.4441  0.9211 -1.1634
16725SOL    HW252376   9.013   9.241   6.383  0.1982  1.2427  0.9988
16726SOL     OW52377   1.017   1.248   8.414  0.0678  0.1540 -0.4661
16726SOL    HW152378   1.048   1.235   8.324  0.5519 -2.0034 -0.0502
16726SOL    HW252379   1.096   1.246   8.467 -0.3688 -0.7740  0.1854
16727SOL     OW52380   2.964   6.268   3.910  0.4602  0.7535  0.1501
16727SOL    HW152381   2.897   6.315   3.959 -0.6304 -1.0017  0.4623
16727SOL    HW252382   3.015   6.223   3.977  0.9920  0.8924 -0.1618
16728SOL     OW52383   4.110   1.025   5.307  0.0106  0.0318 -0.4361
16728SOL    HW152384   4.015   1.037   5.300 -0.0426 -0.7916 -1.2768
16728SOL    HW252385   4.143   1.112   5.333 -0.9637  0.3098 -0.0626
16729SOL     OW52386   8.985   6.260   7.606  0.3694  0.0849  0.1526
16729SOL    HW152387   8.971   6.290   7.517 -0.9279 -0.8232  0.0163
16729SOL    HW252388   8.985   6.164   7.599  2.6400 -0.0219  0.8070
16730SOL     OW52389   1.670   8.495   4.365  0.1465  0.3253 -0.2195
16730SOL    HW152390   1.598   8.479   4.425  2.0242 -2.1822  1.5504
16730SOL    HW252391   1.628   8.509   4.280 -2.4566  1.3145  1.1240
16731SOL     OW52392   6.066   8.144   1.207 -0.2703 -0.5355  0.1568
16731SOL    HW152393   6.153   8.171   1.236 -1.0115 -0.3728  2.4695
16731SOL    HW252394   6.009   8.217   1.232 -1.4307 -1.7200  1.1128
16732SOL     OW52395   3.117   9.360   8.120 -0.5191 -0.3596  0.3507
16732SOL    HW152396   3.104   9.454   8.133 -0.5923 -0.1998 -0.8212
16732SOL    HW252397   3.121   9.324   8.209  0.8855  0.9351  0.8614
16733SOL     OW52398   6.768   5.085   1.710  0.3937 -0.1962 -0.4181
16733SOL    HW152399   6.749   5.138   1.633 -1.0611 -1.5302 -1.0179
16733SOL    HW252400   6.851   5.041   1.688 -0.3881 -1.1716 -1.6173
16734SOL     OW52401   8.038   6.521   3.801 -0.2206  0.3401  0.2830
16734SOL    HW152402   7.952   6.486   3.776  0.0023 -0.7750  0.9993
16734SOL    HW252403   8.028   6.543   3.894 -0.2433  1.9166 -0.0593
16735SOL     OW52404   8.169   4.893   6.574  0.1777  0.1257  0.2779
16735SOL    HW152405   8.159   4.848   6.490  0.8593  0.3056  0.0894
16735SOL    HW252406   8.169   4.822   6.638 -2.3118  0.1133  0.3434
16736SOL     OW52407   3.059   9.051   8.045 -0.4703 -0.1968  0.5772
16736SOL    HW152408   3.003   9.009   7.980  0.6666 -1.1289  0.1638
16736SOL    HW252409   2.998   9.088   8.109 -1.5573 -2.2973  0.8458
16737SOL     OW52410   6.274   3.000   7.718 -0.8272 -0.3654  0.1039
16737SOL    HW152411   6.257   3.089   7.749  2.7787  0.6023 -0.2282
16737SOL    HW252412   6.312   3.012   7.631 -0.3657 -2.2356  0.0010
16738SOL     OW52413   8.685   4.271   2.345  0.1387 -0.5015  0.1652
16738SOL    HW152414   8.669   4.335   2.414  0.0906 -1.3737  0.9771
16738SOL    HW252415   8.602   4.264   2.298 -0.0790 -0.5523  0.5623
16739SOL     OW52416   3.117   9.221   8.677  0.1748 -0.4956  0.1174
16739SOL    HW152417   3.141   9.203   8.586 -1.9352  0.2958 -0.6565
16739SOL    HW252418   3.147   9.144   8.725  0.7725 -1.2185 -1.3479
16740SOL     OW52419   1.278   0.832   4.863  0.2257 -0.3810 -0.5871
16740SOL    HW152420   1.301   0.913   4.817  0.9371 -0.3720 -0.2181
16740SOL    HW252421   1.190   0.848   4.896 -0.8875 -0.8659 -3.0455
16741SOL     OW52422   4.021   0.019   2.381 -0.4260 -0.0538  0.1400
16741SOL    HW152423   3.992  -0.051   2.322 -0.0804 -0.4343  0.4141
16741SOL    HW252424   4.001   0.100   2.334 -1.4217 -0.3196  0.0949
16742SOL     OW52425   7.062   7.314   5.607  0.1178  0.7079  0.3918
16742SOL    HW152426   7.006   7.269   5.544  1.4561  2.1331 -1.9785
16742SOL    HW252427   7.016   7.306   5.691 -1.4681 -1.7830 -0.6119
16743SOL     OW52428   1.818   9.517   3.162  0.4496  0.3199 -0.4558
16743SOL    HW152429   1.881   9.520   3.234 -0.5713  0.5498  0.4536
16743SOL    HW252430   1.868   9.481   3.088  1.0685 -1.6439  0.8324
16744SOL     OW52431   7.134   7.334   7.257 -0.7742  0.1790  0.3752
16744SOL    HW152432   7.207   7.374   7.210  1.1828  0.1057  3.1218
16744SOL    HW252433   7.123   7.248   7.216 -0.5102  0.8391 -1.1665
16745SOL     OW52434   4.648   2.607   3.740 -0.1569  0.4459 -0.9115
16745SOL    HW152435   4.730   2.625   3.695  0.4055 -2.0369 -1.0284
16745SOL    HW252436   4.592   2.569   3.672 -0.8082  0.5716 -0.4551
16746SOL     OW52437   1.756   4.230   3.893 -0.3199  0.1162  0.0743
16746SOL    HW152438   1.725   4.160   3.951  0.7905 -0.4644 -0.0089
16746SOL    HW252439   1.706   4.217   3.812 -2.9055  1.7803  1.2684
16747SOL     OW52440   6.306   1.994   6.749 -0.2334  0.1298  0.0016
16747SOL    HW152441   6.382   2.049   6.769 -0.7183  0.4400  1.0389
16747SOL    HW252442   6.282   1.955   6.833  0.3656 -2.0556 -0.7723
16748SOL     OW52443   6.705   2.275   5.730 -0.3712  0.0989 -0.9324
16748SOL    HW152444   6.780   2.237   5.685  1.2619  2.3026 -0.2653
16748SOL    HW252445   6.666   2.334   5.667 -0.6533  0.0632 -0.7951
16749SOL     OW52446   0.905   8.799   1.168  0.0726 -0.3701  0.1948
16749SOL    HW152447   0.895   8.725   1.228  1.3161 -0.4050  0.3828
16749SOL    HW252448   0.938   8.759   1.087  1.7784  0.0755  0.6361
16750SOL     OW52449   1.989   8.505   2.143 -0.0570  0.4291  0.0213
16750SOL    HW152450   2.065   8.463   2.184  1.3778  1.1526 -1.7142
16750SOL    HW252451   1.920   8.501   2.209  1.2254 -1.0455  1.3530
16751SOL     OW52452   1.603   6.346   3.255 -0.1797  0.4176  0.3416
16751SOL    HW152453   1.571   6.383   3.173 -1.0739  1.0338  0.9458
16751SOL    HW252454   1.648   6.265   3.230  0.8013  1.3141 -0.8948
16752SOL     OW52455   2.743   3.897   2.870  0.0447 -0.4377 -0.0587
16752SOL    HW152456   2.822   3.849   2.845  0.7270  1.3387 -1.5358
16752SOL    HW252457   2.699   3.916   2.788  0.3043  2.2133  0.3106
16753SOL     OW52458   6.659   7.926   0.127  0.4273  0.1615 -0.2025
16753SOL    HW152459   6.597   7.992   0.096  0.7280  0.9901  0.9032
16753SOL    HW252460   6.606   7.847   0.138  0.3112 -0.2417 -2.8369
16754SOL     OW52461   7.634   1.429   8.778 -0.3762  0.1403  0.2609
16754SOL    HW152462   7.555   1.389   8.743 -0.4598  1.5328 -1.3093
16754SOL    HW252463   7.696   1.357   8.786 -1.2807 -0.7012 -0.0872
16755SOL     OW52464   7.501   0.154   6.851  0.3927 -0.4744  0.0834
16755SOL    HW152465   7.489   0.114   6.766  0.8984  0.7516 -0.6012
16755SOL    HW252466   7.594   0.142   6.870  0.4204 -0.1770  0.1476
16756SOL     OW52467   1.104   2.320   4.935  0.0838 -0.7868  0.1638
16756SOL    HW152468   1.013   2.297   4.955 -0.2169 -0.9729 -1.2682
16756SOL    HW252469   1.152   2.303   5.016 -1.1011 -1.0064  0.8432
16757SOL     OW52470   0.409   5.634   6.550 -0.0753 -0.7649 -0.0153
16757SOL    HW152471   0.482   5.693   6.571 -0.3492 -0.3370 -0.2629
16757SOL    HW252472   0.450   5.562   6.501 -0.2019  0.8816 -2.7030
16758SOL     OW52473   1.253   6.340   8.372  0.0509  0.5252 -0.1208
16758SOL    HW152474   1.207   6.257   8.364  2.4441 -0.9138  0.0668
16758SOL    HW252475   1.194   6.395   8.424 -1.4282 -1.1685  0.0939
16759SOL     OW52476   2.188   6.930   4.592 -0.4023 -0.5212 -0.0600
16759SOL    HW152477   2.154   6.849   4.629  1.4954 -0.4786  1.9918
16759SOL    HW252478   2.118   6.994   4.607 -0.9442 -1.2350  0.5315
16760SOL     OW52479   7.677   3.677   1.648 -0.1635  0.1952 -0.0241
16760SOL    HW152480   7.704   3.726   1.725  2.0674 -1.9165  0.6760
16760SOL    HW252481   7.699   3.586   1.669 -0.3535 -0.5787 -2.8021
16761SOL     OW52482   8.555   6.845   2.064 -0.2620 -0.6339  0.4988
16761SOL    HW152483   8.537   6.939   2.056  0.4885 -0.4568  0.7939
16761SOL    HW252484   8.485   6.803   2.014  0.1752  0.1343 -0.8284
16762SOL     OW52485   2.131   4.009   7.024  0.2424  0.0279  0.5835
16762SOL    HW152486   2.179   3.929   7.045  0.9428  0.8523  2.3811
16762SOL    HW252487   2.072   3.984   6.954  1.3250 -1.7384  0.2403
16763SOL     OW52488   3.123   1.459   4.933 -0.2530 -0.5613  0.2690
16763SOL    HW152489   3.171   1.389   4.888 -0.9678  0.1354 -1.6958
16763SOL    HW252490   3.139   1.537   4.881 -1.4047  0.2288  1.0453
16764SOL     OW52491   9.540   7.139   1.460  0.6782 -0.2590 -0.0171
16764SOL    HW152492   9.615   7.129   1.402  1.7302 -0.6926  1.3539
16764SOL    HW252493   9.476   7.075   1.430 -0.5553  2.1916 -3.1883
16765SOL     OW52494   7.636   1.911   7.022  0.9973  0.6726 -0.0729
16765SOL    HW152495   7.569   1.901   7.090  0.3541 -0.3221 -0.8234
16765SOL    HW252496   7.622   1.999   6.988  0.1598  0.5270 -0.1243
16766SOL     OW52497   4.038   8.008   2.656  0.0283  0.0518  0.5052
16766SOL    HW152498   4.003   8.064   2.725 -0.8750  0.0605  0.0502
16766SOL    HW252499   3.961   7.969   2.615  0.4788  0.7636 -1.0969
16767SOL     OW52500   6.297   9.337   7.679 -0.0493 -0.3504 -0.3072
16767SOL    HW152501   6.306   9.312   7.771 -0.0319 -2.1263 -0.7659
16767SOL    HW252502   6.233   9.276   7.643 -0.6835  0.8422 -1.3065
16768SOL     OW52503   6.962   2.046   8.432 -0.2238  0.4836 -0.0734
16768SOL    HW152504   7.037   2.008   8.477  1.0414 -0.0048 -2.4291
16768SOL    HW252505   6.902   1.973   8.420 -0.8421  0.7403  1.2520
16769SOL     OW52506   8.239   4.533   3.100  0.4742 -0.1761  0.1634
16769SOL    HW152507   8.271   4.456   3.053  1.3848  1.3425 -1.8430
16769SOL    HW252508   8.226   4.600   3.033 -2.7486  0.7168  1.4878
16770SOL     OW52509   3.529   0.729   3.221  0.6042  0.1409  0.2699
16770SOL    HW152510   3.465   0.660   3.237  1.3695 -0.5040  0.6278
16770SOL    HW252511   3.574   0.702   3.141  1.0459  0.1070  0.5252
16771SOL     OW52512   4.410   4.375   4.685 -0.1502  0.1417  0.0621
16771SOL    HW152513   4.502   4.359   4.707 -0.4627 -1.3120  0.3975
16771SOL    HW252514   4.406   4.366   4.590 -0.0337 -0.3052  0.0978
16772SOL     OW52515   3.492   2.201   5.032 -0.0338 -0.3340  0.0117
16772SOL    HW152516   3.457   2.284   5.001 -0.3017  0.2765  1.8371
16772SOL    HW252517   3.475   2.139   4.961  0.2060  1.1564 -1.3895
16773SOL     OW52518   0.514   3.567   1.279 -0.1353  0.5556 -0.1525
16773SOL    HW152519   0.485   3.641   1.333  0.8253  0.5543  0.3829
16773SOL    HW252520   0.597   3.597   1.241 -1.0604  0.7691 -2.0882
16774SOL     OW52521   6.028   6.018   2.525 -0.1566  0.0936  0.0346
16774SOL    HW152522   5.943   6.033   2.567  0.1405  0.7765  0.4179
16774SOL    HW252523   6.008   5.966   2.448 -0.3909 -4.1401  2.6710
16775SOL     OW52524   0.151   8.843   7.410  0.2305 -0.4463 -0.0878
16775SOL    HW152525   0.063   8.863   7.442  0.7456 -1.3628  2.0534
16775SOL    HW252526   0.180   8.768   7.462  2.0902 -0.5060 -1.1004
16776SOL     OW52527   5.934   2.548   3.053 -0.7942  0.1652 -0.0040
16776SOL    HW152528   5.973   2.463   3.032 -0.2828  0.1970  0.7584
16776SOL    HW252529   5.848   2.526   3.089 -1.5043  0.0919 -1.6678
16777SOL     OW52530   8.028   2.075   5.287  0.0473  0.5993  0.2878
16777SOL    HW152531   7.986   2.081   5.201  0.1623 -0.4628  0.1327
16777SOL    HW252532   8.097   2.141   5.285  0.4211  0.2058 -0.6814
16778SOL     OW52533   6.340   1.851   1.472  0.0737 -0.2796 -0.2556
16778SOL    HW152534   6.252   1.813   1.467 -0.5803  1.1414  0.1357
16778SOL    HW252535   6.354   1.890   1.386 -0.0099  0.2016 -0.0513
16779SOL     OW52536   8.663   0.828   1.678  0.3682 -0.3336  0.0454
16779SOL    HW152537   8.662   0.829   1.582 -1.6972 -0.3944  0.0144
16779SOL    HW252538   8.624   0.744   1.701 -1.6620  0.7579  0.8759
16780SOL     OW52539   9.407   2.089   7.149 -1.2578 -0.5375 -0.0479
16780SOL    HW152540   9.385   2.183   7.150 -2.2929 -0.7337 -1.1089
16780SOL    HW252541   9.458   2.078   7.069 -0.8630 -0.8206  0.2451
16781SOL     OW52542   0.386   6.400   3.419 -0.3736 -0.3583  0.4680
16781SOL    HW152543   0.399   6.348   3.499 -1.5675 -2.0473 -0.3705
16781SOL    HW252544   0.473   6.403   3.378 -0.3014 -1.9137  0.4466
16782SOL     OW52545   6.668   8.659   0.196  0.1778 -0.0801 -0.0167
16782SOL    HW152546   6.620   8.709   0.130  0.4294  0.5361  0.2572
16782SOL    HW252547   6.627   8.572   0.194 -0.2322  0.1141 -0.5382
16783SOL     OW52548   5.578   8.008   1.169 -0.1516  0.4768 -0.4897
16783SOL    HW152549   5.632   8.084   1.148  0.2782  0.8013  1.5352
16783SOL    HW252550   5.497   8.046   1.206 -0.1314 -0.0214  0.0913
16784SOL     OW52551   5.682   5.074   1.564 -0.0101  0.1628  1.1370
16784SOL    HW152552   5.618   5.011   1.533  0.5346 -0.0427  0.4079
16784SOL    HW252553   5.751   5.073   1.498  0.3278  1.0261  1.4615
16785SOL     OW52554   8.745   2.352   7.939  0.1982  0.4262 -0.0174
16785SOL    HW152555   8.669   2.295   7.927  0.5979  0.2361 -1.8204
16785SOL    HW252556   8.790   2.316   8.015  1.3435 -2.7373 -2.0398
16786SOL     OW52557   1.166   3.124   3.486  0.0053  0.0850 -0.2774
16786SOL    HW152558   1.122   3.186   3.545  0.5821  0.6681 -0.4513
16786SOL    HW252559   1.165   3.041   3.533 -1.1165  0.1255 -0.1950
16787SOL     OW52560   3.050   3.252   1.344  0.3003 -0.4387  0.0237
16787SOL    HW152561   3.086   3.287   1.426 -0.1326  0.7096 -0.2464
16787SOL    HW252562   3.034   3.330   1.290 -0.9266 -1.0450 -0.5363
16788SOL     OW52563   9.098   0.227   5.041 -0.2170 -0.2611 -0.3086
16788SOL    HW152564   9.027   0.163   5.031 -0.3011 -0.2609  0.2566
16788SOL    HW252565   9.143   0.201   5.121  0.6423 -0.4678 -0.8556
16789SOL     OW52566   5.934   4.182   2.119 -0.5937 -0.2141  0.1765
16789SOL    HW152567   5.870   4.130   2.070 -0.9509 -1.0027  1.4521
16789SOL    HW252568   5.899   4.271   2.118 -0.3735 -0.1090 -1.3523
16790SOL     OW52569   5.788   7.064   2.852  0.1356  0.4284 -0.0902
16790SOL    HW152570   5.854   7.033   2.914  2.8769 -1.1190 -3.3932
16790SOL    HW252571   5.731   6.989   2.838  0.4210  0.2693 -0.4418
16791SOL     OW52572   9.348   9.020   8.364  0.8654 -0.0496 -0.2869
16791SOL    HW152573   9.264   9.008   8.320  0.8758 -1.3418  0.0134
16791SOL    HW252574   9.339   8.973   8.447  2.5089 -1.8196 -1.0516
16792SOL     OW52575   2.360   4.583   1.269 -0.2545 -0.1930  0.1248
16792SOL    HW152576   2.438   4.621   1.228 -0.0363  0.8172  1.4208
16792SOL    HW252577   2.382   4.490   1.281 -0.0314 -0.3461 -1.3034
16793SOL     OW52578   7.526   8.410   2.799 -0.2775 -0.3720 -0.1389
16793SOL    HW152579   7.456   8.442   2.742 -0.0044 -2.3591 -1.6855
16793SOL    HW252580   7.484   8.349   2.859 -0.3608  0.8407  1.0913
16794SOL     OW52581   3.764   2.271   7.719 -0.8518  0.0307  0.1354
16794SOL    HW152582   3.822   2.222   7.778 -0.8865  1.0694  1.0745
16794SOL    HW252583   3.819   2.295   7.645 -0.4732 -0.2404  0.3247
16795SOL     OW52584   5.035   6.490   2.702 -0.7373 -0.5920 -0.3284
16795SOL    HW152585   5.112   6.434   2.702 -1.5916 -1.8169 -0.0156
16795SOL    HW252586   5.051   6.554   2.633  0.1888 -1.3421 -0.8212
16796SOL     OW52587   8.362   1.551   0.422  0.1921  0.0740  0.2312
16796SOL    HW152588   8.290   1.506   0.378 -0.5003  1.6714 -0.3535
16796SOL    HW252589   8.319   1.609   0.485  0.9733  0.8546  0.0626
16797SOL     OW52590   0.032   4.209   0.151  0.9813 -0.2842  0.0974
16797SOL    HW152591   0.102   4.207   0.086 -1.4501  0.1052 -2.7773
16797SOL    HW252592  -0.043   4.168   0.107 -0.3783 -1.6598  3.3719
16798SOL     OW52593   3.800   8.545   0.631  0.4521 -0.1711  0.0294
16798SOL    HW152594   3.771   8.598   0.704 -1.1902  0.6244 -1.1451
16798SOL    HW252595   3.842   8.469   0.672 -0.7297  0.0656  1.7885
16799SOL     OW52596   5.149   5.245   7.504  0.7713  0.1140 -0.3239
16799SOL    HW152597   5.121   5.159   7.472 -0.1338 -0.3691  1.6690
16799SOL    HW252598   5.216   5.226   7.570 -0.6222  0.8194  1.3448
16800SOL     OW52599   5.181   9.078   5.609  0.4053 -0.8283 -0.0071
16800SOL    HW152600   5.191   9.109   5.699  1.2843  1.2498 -0.7591
16800SOL    HW252601   5.239   9.003   5.602  2.2112  0.4514  0.5536
16801SOL     OW52602   1.931   3.782   1.731  0.2128  0.3955 -0.6405
16801SOL    HW152603   1.906   3.689   1.731 -0.3473  0.5319  0.2431
16801SOL    HW252604   2.027   3.780   1.728  0.2361 -0.2378  0.0667
16802SOL     OW52605   0.548   0.991   5.224  0.2063 -0.2853  0.5007
16802SOL    HW152606   0.593   0.907   5.211 -0.2219 -0.1867 -2.2535
16802SOL    HW252607   0.456   0.971   5.212 -0.0997  0.2850  1.7386
16803SOL     OW52608   7.032   8.779   6.035  0.0803 -0.2617  0.2092
16803SOL    HW152609   7.108   8.835   6.051 -0.0231 -0.4436  1.4554
16803SOL    HW252610   6.968   8.805   6.101 -1.2760  0.4335 -1.3003
16804SOL     OW52611   5.426   2.254   2.254  0.5785  0.1600  0.1102
16804SOL    HW152612   5.506   2.255   2.201  0.9438  0.4246  0.6594
16804SOL    HW252613   5.367   2.314   2.209  0.8909  0.3891 -0.0007
16805SOL     OW52614   4.416   3.098   8.704 -0.3201 -0.7322  0.5532
16805SOL    HW152615   4.439   3.070   8.615  2.4744  2.0746  0.1980
16805SOL    HW252616   4.447   3.027   8.760  0.3964 -1.3437 -0.5783
16806SOL     OW52617   3.954   2.613   5.755  0.4109  0.1213 -0.1909
16806SOL    HW152618   3.900   2.647   5.827 -1.4875 -0.2105 -1.4093
16806SOL    HW252619   3.937   2.519   5.755  0.6463  0.0775 -0.8841
16807SOL     OW52620   7.691   5.362   1.928  0.3530  0.1419 -0.3593
16807SOL    HW152621   7.709   5.456   1.922  0.6841  0.1944  1.0037
16807SOL    HW252622   7.638   5.354   2.007  0.6554 -0.8630 -0.2504
16808SOL     OW52623   8.719   4.229   0.914  0.2910 -0.1529 -0.0731
16808SOL    HW152624   8.717   4.207   1.008 -0.7360  0.8035  0.1490
16808SOL    HW252625   8.789   4.174   0.879 -0.3090 -1.6654  0.9683
16809SOL     OW52626   0.282   1.710   1.275  0.0298 -0.4280  0.7466
16809SOL    HW152627   0.219   1.782   1.278 -0.2143 -0.6007  0.0557
16809SOL    HW252628   0.283   1.675   1.364 -1.2287 -0.7368  0.6534
16810SOL     OW52629   2.000   6.306   7.096  0.2478 -0.1806  0.4146
16810SOL    HW152630   1.935   6.320   7.027 -0.1356 -1.8438  0.4050
16810SOL    HW252631   1.952   6.321   7.178  0.1190 -0.3901  0.3783
16811SOL     OW52632   5.505   5.259   4.494  0.3128 -0.2279 -0.1859
16811SOL    HW152633   5.499   5.354   4.501 -2.6609 -0.3453 -0.1145
16811SOL    HW252634   5.455   5.237   4.415 -2.1811 -1.9133  1.7177
16812SOL     OW52635   1.368   6.599   1.095  0.2218  0.2519 -0.3190
16812SOL    HW152636   1.301   6.531   1.087 -0.4892  0.7984  0.8413
16812SOL    HW252637   1.421   6.589   1.015  0.2790 -1.7967 -0.0825
16813SOL     OW52638   9.517   5.514   4.374  0.1950  0.3173  0.0607
16813SOL    HW152639   9.526   5.555   4.460  0.3684  2.6604 -1.0041
16813SOL    HW252640   9.423   5.522   4.353  0.0228 -0.8867  0.2965
16814SOL     OW52641   8.433   5.911   7.648  0.4190 -0.5183 -0.1843
16814SOL    HW152642   8.340   5.892   7.635  0.0431  0.3919  1.0425
16814SOL    HW252643   8.469   5.832   7.688 -0.3012 -0.1158  1.3103
16815SOL     OW52644   2.621   9.039   2.901  0.5174  0.3433 -0.2317
16815SOL    HW152645   2.588   8.969   2.957 -1.7342  1.4309 -0.0527
16815SOL    HW252646   2.552   9.053   2.836  1.9798  0.7839 -1.7802
16816SOL     OW52647   2.991   0.806   5.070  0.3018 -0.3552 -0.2487
16816SOL    HW152648   2.997   0.735   5.134 -0.6440 -1.3177 -1.1883
16816SOL    HW252649   2.910   0.852   5.094  1.7758  1.5675  1.4434
16817SOL     OW52650   1.291   2.611   5.909  0.1099 -0.2657  0.0954
16817SOL    HW152651   1.334   2.526   5.918 -0.2717 -0.3033  2.0114
16817SOL    HW252652   1.210   2.602   5.959 -1.4791  0.2678 -2.2411
16818SOL     OW52653   9.363   7.487   6.158 -0.3562  0.2248 -0.7686
16818SOL    HW152654   9.332   7.441   6.235 -1.8918  0.2174 -1.3564
16818SOL    HW252655   9.414   7.422   6.110  0.7891  0.2890  0.3050
16819SOL     OW52656   0.422   6.364   0.287  0.0815 -0.1720  0.2616
16819SOL    HW152657   0.494   6.302   0.281 -1.4397 -1.8926 -1.0113
16819SOL    HW252658   0.421   6.408   0.202 -0.4704 -0.2577  0.2252
16820SOL     OW52659   2.715   8.160   2.185 -0.4355 -0.2104  0.2407
16820SOL    HW152660   2.705   8.147   2.279 -0.9673 -1.4234  0.0331
16820SOL    HW252661   2.696   8.075   2.146 -1.0676  0.4685 -1.0194
16821SOL     OW52662   2.430   0.647   0.906 -0.2626 -0.5118 -0.1250
16821SOL    HW152663   2.340   0.669   0.882 -0.3532 -0.9887 -0.2381
16821SOL    HW252664   2.469   0.615   0.825 -0.7453 -2.6865  0.4311
16822SOL     OW52665   1.215   3.783   6.026  0.1667 -0.0935 -0.0511
16822SOL    HW152666   1.289   3.728   6.000 -0.2592 -0.1696 -1.1283
16822SOL    HW252667   1.255   3.864   6.057  0.7323 -0.4497  0.1676
16823SOL     OW52668   2.152   3.109   2.398 -0.3536  0.0379 -0.4990
16823SOL    HW152669   2.199   3.088   2.479  0.3527  0.7160 -0.7213
16823SOL    HW252670   2.090   3.178   2.423  1.8388  2.3414 -1.0713
16824SOL     OW52671   9.283   8.440   9.481  0.4480  0.0122 -1.2849
16824SOL    HW152672   9.206   8.438   9.424  0.0932  0.6063 -0.8410
16824SOL    HW252673   9.306   8.348   9.494 -0.4070 -0.1843 -1.1309
16825SOL     OW52674   1.048   7.973   2.224 -0.6091  0.2580  0.4297
16825SOL    HW152675   1.086   8.049   2.267 -0.2196  0.9546 -1.0620
16825SOL    HW252676   1.114   7.947   2.159 -2.2381  0.9498 -1.6329
16826SOL     OW52677   8.238   8.719   0.712  0.3195 -0.3912  0.0433
16826SOL    HW152678   8.332   8.705   0.725  0.0724 -2.5025 -0.0465
16826SOL    HW252679   8.233   8.789   0.647  1.8842 -0.9658 -0.7572
16827SOL     OW52680   5.550   7.402   6.877 -0.1513 -0.4264 -0.3323
16827SOL    HW152681   5.518   7.397   6.787  1.5965  0.7548 -1.0812
16827SOL    HW252682   5.473   7.387   6.931 -1.2876 -0.9403 -2.0198
16828SOL     OW52683   6.662   5.823   1.588  0.3411 -1.0338 -0.2520
16828SOL    HW152684   6.675   5.774   1.507 -0.8901  0.0774 -1.1684
16828SOL    HW252685   6.681   5.914   1.564  0.8310 -0.8033  0.9462
16829SOL     OW52686   7.786   2.195   0.721  0.6057  0.4968  0.2943
16829SOL    HW152687   7.817   2.161   0.637  1.2907  0.3481  0.6075
16829SOL    HW252688   7.765   2.116   0.772  0.6168  0.5771  0.4223
16830SOL     OW52689   7.725   5.481   3.941  0.7811 -0.2136 -0.1968
16830SOL    HW152690   7.818   5.493   3.924  0.3887 -0.0653 -2.6952
16830SOL    HW252691   7.714   5.386   3.948  0.9324 -0.3355 -1.4124
16831SOL     OW52692   2.140   9.199   6.969  0.4282 -0.5384 -0.1891
16831SOL    HW152693   2.095   9.215   7.052  0.0636  1.3517 -0.7005
16831SOL    HW252694   2.205   9.132   6.989  0.9964  0.5457  1.8637
16832SOL     OW52695   2.977   4.079   8.753 -0.2365  0.2113  0.3606
16832SOL    HW152696   3.047   4.043   8.807 -0.1919  0.2675  0.3415
16832SOL    HW252697   3.022   4.119   8.679 -0.3064  0.0130  0.2112
16833SOL     OW52698   7.360   0.754   2.614  0.1965 -0.0237 -0.2099
16833SOL    HW152699   7.328   0.718   2.697  0.0350  1.4259  0.3711
16833SOL    HW252700   7.323   0.841   2.609 -1.2646 -0.6883 -2.6855
16834SOL     OW52701   3.984   9.379   4.545 -0.5776  0.1564 -0.0135
16834SOL    HW152702   3.973   9.293   4.503  0.4826  0.4886 -1.0187
16834SOL    HW252703   3.971   9.362   4.638  0.3361 -1.2559 -0.1083
16835SOL     OW52704   5.450   6.332   4.380  0.7363  0.0648  0.1263
16835SOL    HW152705   5.492   6.247   4.364 -0.2786 -0.2791 -0.9203
16835SOL    HW252706   5.474   6.385   4.304  1.3894  0.7447  0.7917
16836SOL     OW52707   6.458   8.911   2.505 -0.4140  0.8950  0.3775
16836SOL    HW152708   6.476   8.891   2.413 -0.6597  1.7134  0.1466
16836SOL    HW252709   6.510   8.989   2.524 -0.7695  1.0379  0.7834
16837SOL     OW52710   5.152   6.035   1.412 -0.1733 -0.9355 -0.6491
16837SOL    HW152711   5.124   5.990   1.332 -1.6394 -2.7979  0.8100
16837SOL    HW252712   5.159   5.965   1.477 -1.5224  0.8069  1.5009
16838SOL     OW52713   3.076   3.172   5.551 -0.1199  0.0403 -0.8982
16838SOL    HW152714   3.086   3.111   5.477  0.8062  1.5131 -2.0686
16838SOL    HW252715   3.162   3.214   5.559 -1.1681  2.5023 -1.3932
16839SOL     OW52716   3.477   2.337   3.871  0.3286  0.2456 -0.4925
16839SOL    HW152717   3.409   2.274   3.846  0.8951 -0.8182  0.5029
16839SOL    HW252718   3.548   2.321   3.809  0.9378 -0.9816  0.4580
16840SOL     OW52719   0.200   1.332   5.066  0.2550 -0.1456 -0.7002
16840SOL    HW152720   0.229   1.268   5.000  0.4729 -1.9928  1.0979
16840SOL    HW252721   0.168   1.279   5.138 -1.0046  1.8415  0.2672
16841SOL     OW52722   5.192   7.409   0.501  0.2808  0.1850  0.1072
16841SOL    HW152723   5.131   7.356   0.553  0.5115 -0.7910 -0.5990
16841SOL    HW252724   5.142   7.432   0.422  0.6084 -0.0600 -0.1709
16842SOL     OW52725   1.187   5.992   3.900  0.4080 -0.6086  0.2278
16842SOL    HW152726   1.125   5.963   3.967 -1.1475  2.8785  0.5260
16842SOL    HW252727   1.265   6.016   3.949  0.0895 -0.1684  0.5283
16843SOL     OW52728   0.179   0.953   5.677 -0.3351  0.1335  0.2747
16843SOL    HW152729   0.216   0.987   5.596  1.0446  0.9567  1.2042
16843SOL    HW252730   0.203   1.018   5.743 -1.0806 -0.7135  1.4174
16844SOL     OW52731   5.892   8.397   1.237  0.4587  0.1208 -0.3869
16844SOL    HW152732   5.960   8.444   1.284 -0.1243  1.0611 -0.4434
16844SOL    HW252733   5.813   8.449   1.252  0.3451  0.8141 -2.8745
16845SOL     OW52734   1.278   2.336   7.151 -0.3767  0.7144  0.7200
16845SOL    HW152735   1.298   2.406   7.214  0.7878 -0.0374  1.2054
16845SOL    HW252736   1.332   2.357   7.075  1.6894 -0.8029  1.6816
16846SOL     OW52737   4.313   5.469   0.900  0.2448  0.0478  0.3773
16846SOL    HW152738   4.238   5.411   0.916  0.4904 -0.0930  1.0801
16846SOL    HW252739   4.290   5.551   0.944 -0.8403  1.1241 -2.0214
16847SOL     OW52740   3.251   1.251   4.803  0.1967  0.5405  0.1172
16847SOL    HW152741   3.237   1.199   4.883  2.5158  1.7228  1.4009
16847SOL    HW252742   3.292   1.190   4.742  1.9250  0.5051  1.2347
16848SOL     OW52743   8.537   5.553   1.796 -0.1037 -0.4213  0.2232
16848SOL    HW152744   8.587   5.621   1.751 -1.8458 -0.1057 -1.4074
16848SOL    HW252745   8.454   5.596   1.819 -0.3896 -1.4118  1.1148
16849SOL     OW52746   4.562   8.968   4.750 -0.6113  0.1295 -0.1400
16849SOL    HW152747   4.563   9.058   4.780 -0.7696 -0.0922  0.5473
16849SOL    HW252748   4.570   8.974   4.655  0.1112  0.8356 -0.0433
16850SOL     OW52749   4.061   4.318   9.339 -0.2609  0.4253 -0.1920
16850SOL    HW152750   4.042   4.292   9.248  0.8203  0.8432 -0.5541
16850SOL    HW252751   4.021   4.405   9.347 -0.2133  0.4595 -0.3190
16851SOL     OW52752   6.208   0.128   3.074 -0.1677 -0.1300  0.3006
16851SOL    HW152753   6.147   0.072   3.122 -1.8911 -0.7453 -2.4317
16851SOL    HW252754   6.285   0.073   3.061 -0.8669 -1.0289 -0.1956
16852SOL     OW52755   5.158   6.823   4.471 -0.2139  0.1080 -0.2216
16852SOL    HW152756   5.209   6.768   4.530 -2.7776 -2.4974 -0.1932
16852SOL    HW252757   5.072   6.831   4.514 -0.9062  1.5691 -1.7488
16853SOL     OW52758   4.129   5.942   9.105 -0.0370  0.6468 -0.0995
16853SOL    HW152759   4.154   6.033   9.090  0.6623  0.3518 -0.7597
16853SOL    HW252760   4.066   5.923   9.036 -1.4712  1.1204  1.0321
16854SOL     OW52761   3.332   3.101   1.227  0.0632 -0.2422  0.3442
16854SOL    HW152762   3.241   3.071   1.230 -0.0390  0.1024  2.5810
16854SOL    HW252763   3.326   3.196   1.226  0.3961 -0.2212  0.4323
16855SOL     OW52764   0.863   1.683   1.226 -0.5002  0.8088  0.4615
16855SOL    HW152765   0.780   1.710   1.185 -1.4506 -0.4818  1.4410
16855SOL    HW252766   0.854   1.708   1.318 -1.7678 -3.1289  1.6448
16856SOL     OW52767   6.528   8.453   6.281 -0.7904  0.2119  0.1019
16856SOL    HW152768   6.488   8.375   6.318 -0.9262  0.1471 -0.1777
16856SOL    HW252769   6.557   8.426   6.193 -0.2313  0.2864  0.2595
16857SOL     OW52770   6.569   5.595   7.226  0.0796  0.4100 -0.2341
16857SOL    HW152771   6.499   5.658   7.211  1.1587  1.4109 -1.1732
16857SOL    HW252772   6.645   5.648   7.250  0.8106 -0.5782 -0.3040
16858SOL     OW52773   3.875   7.127   2.565  0.5125 -0.2850  0.0915
16858SOL    HW152774   3.880   7.051   2.507 -2.1997 -1.2530  0.9750
16858SOL    HW252775   3.804   7.181   2.529  1.4248  1.1075  0.3069
16859SOL     OW52776   3.116   2.635   2.291 -0.1106 -0.3620  0.1445
16859SOL    HW152777   3.177   2.684   2.346  1.6612 -1.4080 -0.8407
16859SOL    HW252778   3.121   2.678   2.205 -1.5226  0.1477  0.2896
16860SOL     OW52779   4.326   5.496   7.219 -0.0449  0.5492  0.3811
16860SOL    HW152780   4.393   5.500   7.150 -0.3897 -0.1768 -0.0108
16860SOL    HW252781   4.300   5.587   7.232  0.1727  0.7213 -0.3129
16861SOL     OW52782   5.926   2.327   2.125  0.2544  0.3074  0.6847
16861SOL    HW152783   5.956   2.254   2.179 -0.8040 -1.5450 -1.0681
16861SOL    HW252784   6.004   2.381   2.112  2.0276 -2.3835 -0.7395
16862SOL     OW52785   5.346   5.553   8.492 -0.3383  0.2020 -0.0809
16862SOL    HW152786   5.397   5.506   8.558  1.0041  0.4095 -0.9194
16862SOL    HW252787   5.396   5.543   8.411 -1.0247  1.4128 -0.6935
16863SOL     OW52788   2.161   4.902   5.295  0.2872 -0.4809  0.2593
16863SOL    HW152789   2.164   4.900   5.391  1.1389 -0.5741  0.2388
16863SOL    HW252790   2.206   4.983   5.271 -0.2087 -0.2920 -0.0645
16864SOL     OW52791   7.676   5.022   3.688  0.5981  0.1279  0.1555
16864SOL    HW152792   7.716   4.939   3.716  0.0600  0.1482  1.0304
16864SOL    HW252793   7.704   5.033   3.598  1.0114 -0.8107  0.1582
16865SOL     OW52794   2.296   2.984   3.819 -0.0047 -0.3123 -0.1660
16865SOL    HW152795   2.335   3.068   3.795 -0.8137  0.6452  1.6925
16865SOL    HW252796   2.224   2.972   3.758 -0.7823  1.0681  0.4582
16866SOL     OW52797   7.077   9.540   6.617 -0.4685 -0.0131 -0.3726
16866SOL    HW152798   7.003   9.558   6.559 -0.1566  1.4374 -0.3538
16866SOL    HW252799   7.154   9.569   6.567 -0.0441 -0.1593  0.1800
16867SOL     OW52800   4.301   6.066   6.913 -0.1920  0.3821  0.3225
16867SOL    HW152801   4.230   6.129   6.908  0.1268  0.7207 -0.0548
16867SOL    HW252802   4.339   6.079   7.000 -0.8855 -0.1322  0.7108
16868SOL     OW52803   0.897   4.183   8.442  0.3729 -0.1792 -0.3681
16868SOL    HW152804   0.847   4.159   8.365 -2.2069  2.1284  0.4139
16868SOL    HW252805   0.940   4.266   8.419  0.5219 -0.0665  0.2690
16869SOL     OW52806   2.288   1.656   9.080 -0.4493 -0.4672 -0.0859
16869SOL    HW152807   2.358   1.719   9.064 -1.8948  0.6759 -2.5699
16869SOL    HW252808   2.320   1.574   9.042 -0.3087 -0.0188 -0.9671
16870SOL     OW52809   5.723   3.044   1.418 -0.0081 -0.1449  0.7797
16870SOL    HW152810   5.651   3.000   1.372 -0.1590  0.1111  0.7625
16870SOL    HW252811   5.697   3.045   1.510  0.3681 -0.7978  0.8955
16871SOL     OW52812   1.546   6.494   7.564  0.0691  0.1603 -0.2650
16871SOL    HW152813   1.518   6.456   7.648 -0.4542  1.0486 -0.0167
16871SOL    HW252814   1.629   6.537   7.584  0.5923 -0.7132 -0.5137
16872SOL     OW52815   1.180   3.263   6.405  0.1121 -0.2601  0.5726
16872SOL    HW152816   1.101   3.268   6.459  0.2374 -0.4821  0.7736
16872SOL    HW252817   1.211   3.173   6.415 -1.1025 -1.0118 -1.6102
16873SOL     OW52818   4.656   6.944   1.270 -0.1301 -0.2316 -0.1331
16873SOL    HW152819   4.614   6.860   1.256  0.7180 -0.5904 -0.5839
16873SOL    HW252820   4.641   6.992   1.189  1.3958 -0.8413 -0.8172
16874SOL     OW52821   8.361   4.689   8.190 -0.1474 -0.0299  0.5913
16874SOL    HW152822   8.300   4.747   8.236  0.4871  0.4332  0.8713
16874SOL    HW252823   8.347   4.707   8.097  0.8831  1.4916  0.6880
16875SOL     OW52824   9.014   5.111   0.379 -0.3109  0.0823  0.8978
16875SOL    HW152825   8.971   5.085   0.461  0.4178 -1.1212  0.9307
16875SOL    HW252826   9.064   5.033   0.353 -1.0173  0.2073 -1.0230
16876SOL     OW52827   6.893   5.739   3.361 -0.1366  0.2269  0.0826
16876SOL    HW152828   6.947   5.777   3.292 -1.1609 -1.8126 -1.9724
16876SOL    HW252829   6.952   5.680   3.408 -0.2595 -1.3220 -1.5930
16877SOL     OW52830   8.764   3.983   5.563  0.3862 -0.5510  0.2047
16877SOL    HW152831   8.683   3.957   5.606 -2.5620  3.0185 -2.6005
16877SOL    HW252832   8.775   4.075   5.585  3.0154 -0.5940 -0.6064
16878SOL     OW52833   2.761   0.408   0.733 -0.2779 -0.2501 -0.5591
16878SOL    HW152834   2.676   0.450   0.738  0.0377  0.3603 -0.2408
16878SOL    HW252835   2.779   0.399   0.639 -0.7145 -0.4433 -0.6261
16879SOL     OW52836   8.803   8.797   8.782 -0.3114  0.5261 -0.2753
16879SOL    HW152837   8.867   8.810   8.852 -0.9460 -0.3646  0.4925
16879SOL    HW252838   8.854   8.754   8.712  0.2224  1.0223 -0.1996
16880SOL     OW52839   7.762   6.804   2.554 -0.0975  0.2347  0.2171
16880SOL    HW152840   7.753   6.709   2.565 -0.0829  0.2517  0.3864
16880SOL    HW252841   7.745   6.839   2.642  0.7675  0.3266  0.3593
16881SOL     OW52842   7.480   2.029   2.877  0.6821  0.0002 -0.2335
16881SOL    HW152843   7.405   2.049   2.820  0.6808 -0.5586 -0.4390
16881SOL    HW252844   7.556   2.033   2.818  0.4614 -2.9213 -0.8855
16882SOL     OW52845   0.877   1.374   0.375  0.1340  0.1603  0.0530
16882SOL    HW152846   0.800   1.402   0.425 -0.0556  0.1372 -0.2246
16882SOL    HW252847   0.900   1.288   0.411  0.2937  0.3636  0.4326
16883SOL     OW52848   9.483   0.876   5.785  1.0526  0.1310 -0.6016
16883SOL    HW152849   9.414   0.820   5.750 -0.0049  1.3061 -0.4926
16883SOL    HW252850   9.563   0.844   5.743  1.3323 -4.2058  2.6051
16884SOL     OW52851   4.212   2.217   3.473  0.0322 -0.1332 -0.0222
16884SOL    HW152852   4.197   2.271   3.551 -0.3059  1.8430 -1.3886
16884SOL    HW252853   4.301   2.240   3.445  0.2417 -1.0081 -0.1048
16885SOL     OW52854   6.852   7.776   8.227  0.2617 -0.5185  0.2962
16885SOL    HW152855   6.814   7.741   8.146 -2.0669  0.9178  0.6762
16885SOL    HW252856   6.847   7.704   8.289  0.9320 -1.2590 -0.4879
16886SOL     OW52857   5.976   7.553   1.127  0.2381  0.2899  0.5279
16886SOL    HW152858   5.940   7.636   1.093  0.2197  0.1493  0.1939
16886SOL    HW252859   5.908   7.488   1.108  0.6588  0.0254 -0.0956
16887SOL     OW52860   5.272   1.663   8.610  0.4918  0.4623 -0.0036
16887SOL    HW152861   5.193   1.614   8.586  2.4088 -1.8928 -2.1211
16887SOL    HW252862   5.251   1.703   8.694 -3.4102  1.1707 -1.1378
16888SOL     OW52863   1.144   3.342   5.970 -0.2473 -0.0182 -0.8595
16888SOL    HW152864   1.170   3.261   6.015  0.7752  0.8411  0.1941
16888SOL    HW252865   1.059   3.364   6.007 -0.5205 -0.5920 -1.1366
16889SOL     OW52866   5.614   1.098   1.162  0.0074 -0.1663  0.5596
16889SOL    HW152867   5.678   1.027   1.155  1.5308  1.0333  1.6547
16889SOL    HW252868   5.620   1.144   1.079  0.9116  0.1763  0.7975
16890SOL     OW52869   4.813   1.819   8.299  0.0017  0.2670 -0.5895
16890SOL    HW152870   4.904   1.818   8.327 -0.0452  1.6508 -0.2968
16890SOL    HW252871   4.767   1.765   8.363  0.3496  1.0150  0.3202
16891SOL     OW52872   3.353   5.540   3.501  0.0866 -0.6628 -0.2832
16891SOL    HW152873   3.281   5.506   3.448 -0.2762  0.3788 -0.4811
16891SOL    HW252874   3.412   5.581   3.438 -0.8328  1.4580  0.1707
16892SOL     OW52875   1.172   5.814   9.539  0.1857  0.2687  0.8189
16892SOL    HW152876   1.150   5.729   9.577 -0.2976  0.3475  0.7226
16892SOL    HW252877   1.259   5.802   9.502  0.7202  0.2289  2.0646
16893SOL     OW52878   9.511   4.151   5.159 -0.5706  0.0088 -0.3146
16893SOL    HW152879   9.500   4.140   5.254 -1.4477 -1.0326 -0.5127
16893SOL    HW252880   9.577   4.085   5.136  1.3653  1.7844 -0.1246
16894SOL     OW52881   3.523   3.322   4.075 -0.0922 -0.4510 -0.0528
16894SOL    HW152882   3.458   3.260   4.043 -0.1551 -0.5574  0.2737
16894SOL    HW252883   3.583   3.334   4.001 -1.9005  1.6728 -1.2940
16895SOL     OW52884   1.522   7.594   8.976 -0.3443 -0.6783  0.2612
16895SOL    HW152885   1.457   7.523   8.974 -0.6138 -0.4287  0.1944
16895SOL    HW252886   1.528   7.624   8.886  1.7772 -2.4188 -0.2553
16896SOL     OW52887   5.091   3.868   0.304  0.5067 -0.9689  0.3786
16896SOL    HW152888   5.056   3.799   0.247  1.4730 -1.1520 -0.0092
16896SOL    HW252889   5.084   3.832   0.392 -2.8821  0.0871  0.6872
16897SOL     OW52890   5.685   4.401   6.191 -0.3303  0.1597 -0.2960
16897SOL    HW152891   5.591   4.419   6.188 -0.3164  0.1764 -0.6143
16897SOL    HW252892   5.713   4.438   6.275 -1.2701 -3.0736  1.5908
16898SOL     OW52893   3.961   8.950   3.508  0.0381  0.2596  0.1466
16898SOL    HW152894   3.893   8.993   3.560  0.6935  0.7716  0.5919
16898SOL    HW252895   4.029   9.017   3.497 -0.0159  0.1230 -1.2403
16899SOL     OW52896   6.248   3.764   8.600 -0.4339 -0.4518 -0.2057
16899SOL    HW152897   6.182   3.734   8.537 -0.8431 -0.9955  0.4659
16899SOL    HW252898   6.257   3.857   8.583 -2.5382 -0.0216  0.7011
16900SOL     OW52899   5.647   5.656   5.013 -0.0291  0.5345 -0.0274
16900SOL    HW152900   5.569   5.690   5.058  0.6727  1.0511  0.8458
16900SOL    HW252901   5.716   5.718   5.037  1.2450 -1.3472  1.4180
16901SOL     OW52902   5.182   1.661   8.079 -0.3064 -0.1795  0.0526
16901SOL    HW152903   5.088   1.648   8.084 -0.3968  0.5591  0.4576
16901SOL    HW252904   5.210   1.607   8.005 -1.0845 -0.1878 -0.2452
16902SOL     OW52905   4.058   9.357   1.389  0.8312  0.1137  0.5372
16902SOL    HW152906   4.099   9.274   1.366  0.8320  0.0489  0.7778
16902SOL    HW252907   4.050   9.355   1.484 -1.9436 -0.9612  0.3928
16903SOL     OW52908   0.735   7.402   6.058  0.2856 -1.0614 -0.0545
16903SOL    HW152909   0.665   7.466   6.041  2.7993  2.1326  0.4838
16903SOL    HW252910   0.727   7.384   6.152 -0.1593 -1.1777 -0.1113
16904SOL     OW52911   1.526   3.768   1.120 -0.2165  0.7765  0.2865
16904SOL    HW152912   1.499   3.682   1.153 -0.8225  1.0814  0.6134
16904SOL    HW252913   1.507   3.764   1.026 -0.9313  0.7999  0.4227
16905SOL     OW52914   6.658   3.107   8.009  0.6493  0.3940 -0.4886
16905SOL    HW152915   6.579   3.115   8.061  0.6955  0.1322 -0.3761
16905SOL    HW252916   6.643   3.163   7.933  0.9569  1.5044  0.2469
16906SOL     OW52917   7.396   9.191   4.089 -0.2730  0.0729 -0.0959
16906SOL    HW152918   7.325   9.131   4.112  0.3079  0.3063  2.6535
16906SOL    HW252919   7.453   9.140   4.032 -2.0925 -0.4376 -1.5643
16907SOL     OW52920   5.255   3.996   2.995  0.4543 -0.0913  0.3128
16907SOL    HW152921   5.304   4.022   2.917  0.5092  0.9485  0.6722
16907SOL    HW252922   5.178   4.053   2.994  0.6383  0.1865  1.2111
16908SOL     OW52923   4.123   2.419   8.092 -0.4027 -0.2524  0.3105
16908SOL    HW152924   4.151   2.501   8.132 -0.9699  0.6531 -1.0779
16908SOL    HW252925   4.048   2.443   8.037 -1.9750 -2.0819  1.5428
16909SOL     OW52926   4.679   7.304   5.347 -0.4367 -0.1152 -0.0380
16909SOL    HW152927   4.751   7.266   5.397  0.9906 -0.9525 -2.5175
16909SOL    HW252928   4.609   7.238   5.351  0.1019 -0.6954 -0.0936
16910SOL     OW52929   4.825   5.776   6.812  0.3089  0.0411  0.3978
16910SOL    HW152930   4.831   5.775   6.716  1.1140  2.4669  0.3688
16910SOL    HW252931   4.814   5.868   6.834  0.5012 -0.4372  2.6760
16911SOL     OW52932   6.493   1.665   1.654 -0.2255  0.3104 -0.1173
16911SOL    HW152933   6.585   1.690   1.649  0.0977 -0.0329  2.4193
16911SOL    HW252934   6.450   1.718   1.587  1.7108  0.9357 -0.9536
16912SOL     OW52935   2.299   3.161   7.569 -0.0953 -0.1050 -0.2512
16912SOL    HW152936   2.285   3.231   7.634  0.7234  0.1756 -0.3652
16912SOL    HW252937   2.273   3.200   7.486 -0.0724 -0.0934 -0.2525
16913SOL     OW52938   1.304   2.786   9.351  0.1941  0.4153 -0.6626
16913SOL    HW152939   1.212   2.767   9.337 -0.2353 -0.1564  2.1933
16913SOL    HW252940   1.350   2.727   9.291 -1.2864 -0.4938 -0.9571
16914SOL     OW52941   3.452   7.344   3.321 -0.9793  0.2354 -0.3097
16914SOL    HW152942   3.548   7.346   3.313 -0.7760 -1.2190  0.9727
16914SOL    HW252943   3.420   7.392   3.246  0.7383 -1.0326 -1.9526
16915SOL     OW52944   7.047   3.443   5.041 -0.7626  0.2166 -0.1533
16915SOL    HW152945   7.018   3.493   4.965 -0.7189 -0.6478 -0.7551
16915SOL    HW252946   7.118   3.495   5.079 -0.0184  0.1253 -1.3631
16916SOL     OW52947   6.384   6.048   1.874  0.5571  0.8172  0.5630
16916SOL    HW152948   6.426   6.115   1.927  2.5529  0.6247 -0.6869
16916SOL    HW252949   6.396   5.967   1.924 -1.0654  1.1993  1.6414
16917SOL     OW52950   5.177   0.630   4.900 -0.7201  0.5119  0.1905
16917SOL    HW152951   5.258   0.678   4.883 -0.8497  0.8831  0.6063
16917SOL    HW252952   5.202   0.562   4.964 -0.4378 -0.2786 -0.7394
16918SOL     OW52953   5.703   5.597   4.155  0.3714  0.0999  0.4670
16918SOL    HW152954   5.757   5.608   4.076  0.5880 -1.1766  0.4243
16918SOL    HW252955   5.648   5.521   4.136  0.0065  0.1410  1.3295
16919SOL     OW52956   1.817   5.311   1.051  0.2049  0.8662  1.2176
16919SOL    HW152957   1.819   5.382   0.986  1.1852  0.9554  1.3423
16919SOL    HW252958   1.761   5.244   1.011  1.7657  0.3990 -0.2656
16920SOL     OW52959   6.323   4.570   8.223 -0.2567 -0.6968 -0.3911
16920SOL    HW152960   6.394   4.540   8.165  1.5812  0.3787  1.1660
16920SOL    HW252961   6.327   4.665   8.219 -1.3445 -0.6172  0.0675
16921SOL     OW52962   0.542   6.269   3.049 -0.0755  0.1087  0.0054
16921SOL    HW152963   0.577   6.180   3.045 -0.9695 -0.2294 -0.7500
16921SOL    HW252964   0.619   6.325   3.038  0.3040 -0.5989 -1.1588
16922SOL     OW52965   1.423   1.043   6.469 -0.4115 -0.0971  0.2048
16922SOL    HW152966   1.390   1.112   6.526 -0.5531  0.0055 -0.0008
16922SOL    HW252967   1.487   0.996   6.523  1.1248  1.3672 -0.2612
16923SOL     OW52968   0.994   4.047   6.116  0.0073  0.1674  0.3494
16923SOL    HW152969   0.956   3.974   6.067 -0.5382  0.3977  0.4274
16923SOL    HW252970   0.987   4.021   6.207 -0.6099  0.5153  0.4042
16924SOL     OW52971   0.176   3.079   9.558 -0.2815  0.5498 -0.4135
16924SOL    HW152972   0.099   3.038   9.517 -0.1611 -0.2993  0.1996
16924SOL    HW252973   0.242   3.010   9.559  0.1641  0.9823 -0.0272
16925SOL     OW52974   6.857   7.782   6.206  0.5858 -0.1235 -0.7999
16925SOL    HW152975   6.889   7.810   6.291  0.7926  1.7176 -1.4322
16925SOL    HW252976   6.868   7.687   6.206  1.9325 -0.0098  0.6624
16926SOL     OW52977   9.412   3.251   2.615  0.3804 -0.4410 -0.2302
16926SOL    HW152978   9.358   3.330   2.628 -1.5735 -1.4318 -1.7145
16926SOL    HW252979   9.421   3.244   2.520  3.1983 -0.3763 -0.0535
16927SOL     OW52980   6.492   1.751   8.286  0.3299 -0.1223 -0.0322
16927SOL    HW152981   6.472   1.837   8.249 -0.9697  0.1631  1.2675
16927SOL    HW252982   6.568   1.766   8.342 -1.8557  1.0189  2.8959
16928SOL     OW52983   7.712   2.786   3.318  0.4189 -0.0199  0.2067
16928SOL    HW152984   7.704   2.719   3.386 -1.2297  0.4558  0.5344
16928SOL    HW252985   7.650   2.759   3.251 -0.6699  1.4196  0.5851
16929SOL     OW52986   3.837   6.272   3.717  0.6068 -0.3574 -0.0055
16929SOL    HW152987   3.865   6.189   3.679 -0.3190 -1.0062  0.6769
16929SOL    HW252988   3.743   6.277   3.698  0.7018  0.6820 -0.2976
16930SOL     OW52989   5.218   6.342   1.249 -0.5646 -0.3368 -0.7078
16930SOL    HW152990   5.307   6.346   1.214 -0.5906  1.3813 -0.6669
16930SOL    HW252991   5.199   6.432   1.276 -1.7525 -0.9789  0.7256
16931SOL     OW52992   4.842   3.061   9.559 -0.6775 -0.5696  0.3681
16931SOL    HW152993   4.901   2.986   9.564 -1.9196 -1.7288 -1.1121
16931SOL    HW252994   4.893   3.135   9.591  1.6343 -1.4497 -1.0792
16932SOL     OW52995   5.849   8.111   7.417  0.0354  0.0367 -0.2466
16932SOL    HW152996   5.875   8.129   7.327 -1.7415 -0.2809 -0.8750
16932SOL    HW252997   5.862   8.017   7.428  0.2542  0.0759 -0.1801
16933SOL     OW52998   4.039   6.183   1.157  0.2617 -0.1647  0.2683
16933SOL    HW152999   3.973   6.137   1.208  0.6317 -1.4842 -0.3940
16933SOL    HW253000   4.002   6.270   1.143 -0.1598 -0.0040  2.1306
16934SOL     OW53001   3.205   5.775   2.044 -0.5934  0.9787 -0.1578
16934SOL    HW153002   3.164   5.860   2.026  0.9316  1.3359 -2.2561
16934SOL    HW253003   3.227   5.740   1.958  2.0607  0.1104  0.7997
16935SOL     OW53004   9.335   2.892   1.512  0.2680  0.1716 -0.4006
16935SOL    HW153005   9.377   2.808   1.531 -1.1242 -0.4264  0.1400
16935SOL    HW253006   9.269   2.902   1.581 -0.2411  1.2444 -1.0227
16936SOL     OW53007   5.019   1.282   1.739 -0.0224 -0.1326 -0.3317
16936SOL    HW153008   5.038   1.318   1.826  1.3363  1.7274 -1.3276
16936SOL    HW253009   5.103   1.285   1.693 -0.5238 -1.8950 -1.4604
16937SOL     OW53010   4.496   4.120   3.074 -0.7756 -0.0496 -0.0499
16937SOL    HW153011   4.517   4.210   3.049  0.9026 -0.1307  0.9337
16937SOL    HW253012   4.543   4.066   3.011 -1.5670 -0.2411 -0.4785
16938SOL     OW53013   4.651   7.190   9.374 -0.0455 -0.2870 -0.6187
16938SOL    HW153014   4.639   7.244   9.295  0.9883 -0.8200 -1.1646
16938SOL    HW253015   4.621   7.103   9.348  3.1464 -1.2584 -1.5133
16939SOL     OW53016   7.554   3.839   1.470  0.1892  0.5496  0.0262
16939SOL    HW153017   7.610   3.798   1.535  1.1732  1.1205 -0.4447
16939SOL    HW253018   7.598   3.826   1.386 -0.1586  1.3605 -0.3044
16940SOL     OW53019   5.872   6.259   6.930  0.0352  0.1329 -0.0913
16940SOL    HW153020   5.865   6.326   6.997  0.0024  1.7941 -1.6784
16940SOL    HW253021   5.787   6.260   6.886  0.7318  0.5970 -1.4902
16941SOL     OW53022   6.133   1.708   2.396 -0.2665  0.1198 -0.0206
16941SOL    HW153023   6.102   1.769   2.463 -0.8773 -0.3256  0.1057
16941SOL    HW253024   6.169   1.634   2.444 -1.6255 -0.6640 -0.1705
16942SOL     OW53025   4.191   4.379   6.642 -0.0576 -0.1493  0.1073
16942SOL    HW153026   4.124   4.441   6.614 -1.2171 -1.1586  0.5305
16942SOL    HW253027   4.156   4.341   6.723  1.2454 -0.3800  0.5914
16943SOL     OW53028   8.631   6.923   2.638 -0.1494  0.1087 -1.0068
16943SOL    HW153029   8.587   6.886   2.562 -1.0994  1.7918 -1.3296
16943SOL    HW253030   8.641   7.016   2.617  2.2013  0.0993 -0.2699
16944SOL     OW53031   5.678   1.227   3.775  0.2255 -0.2370  0.3793
16944SOL    HW153032   5.714   1.304   3.732  0.1129 -0.4518 -0.1091
16944SOL    HW253033   5.593   1.214   3.733 -0.0922 -0.1691  1.0032
16945SOL     OW53034   0.916   2.847   5.598  0.0161  0.1974 -0.3065
16945SOL    HW153035   0.900   2.927   5.547  1.0036 -0.2986 -1.4592
16945SOL    HW253036   1.004   2.820   5.572 -0.0291 -0.8933  0.5995
16946SOL     OW53037   7.635   9.351   1.596  0.4798  0.6006  0.6733
16946SOL    HW153038   7.723   9.321   1.618  0.9012  0.8333 -0.6224
16946SOL    HW253039   7.646   9.444   1.574 -0.0806  0.6158  0.4418
16947SOL     OW53040   8.624   7.230   5.837 -0.0763  0.1780  0.4003
16947SOL    HW153041   8.534   7.199   5.851 -0.0574 -0.0010  0.1383
16947SOL    HW253042   8.615   7.305   5.779 -0.3258  2.1549  2.8313
16948SOL     OW53043   6.405   8.610   9.346 -0.2446 -0.2147  0.4013
16948SOL    HW153044   6.334   8.550   9.322 -1.7287  1.2628  0.8742
16948SOL    HW253045   6.482   8.554   9.354 -1.1077 -1.7306 -1.1762
16949SOL     OW53046   1.528   6.818   7.290  0.5486 -0.1852 -0.0605
16949SOL    HW153047   1.571   6.827   7.205  1.6959 -0.5870  0.4592
16949SOL    HW253048   1.471   6.741   7.280 -1.4788  1.3643 -1.3047
16950SOL     OW53049   5.554   5.342   7.171  0.3539  0.2628  0.0795
16950SOL    HW153050   5.515   5.341   7.084  1.2427  0.9158 -0.3433
16950SOL    HW253051   5.559   5.249   7.196 -0.2691  0.0956 -0.3886
16951SOL     OW53052   8.255   8.514   6.403  0.0463  0.6195 -0.2210
16951SOL    HW153053   8.213   8.548   6.324  0.3426 -0.8358 -1.0452
16951SOL    HW253054   8.197   8.542   6.475 -2.2823 -1.1159 -1.2777
16952SOL     OW53055   3.216   5.401   9.180 -0.1253  0.1992  0.4671
16952SOL    HW153056   3.189   5.421   9.090 -1.5190 -2.1253  0.2898
16952SOL    HW253057   3.139   5.361   9.220  1.0811 -0.6167  2.0995
16953SOL     OW53058   6.886   2.436   7.511  0.0620  0.0225  0.1460
16953SOL    HW153059   6.799   2.465   7.484 -0.6028 -0.9301  1.1794
16953SOL    HW253060   6.927   2.514   7.549 -0.1837  0.5691 -0.6835
16954SOL     OW53061   7.174   0.338   3.680  0.6880  0.4977  0.1050
16954SOL    HW153062   7.125   0.288   3.745 -0.8423  0.2118 -1.2057
16954SOL    HW253063   7.126   0.326   3.598  3.8998 -1.2283 -1.7293
16955SOL     OW53064   5.280   2.736   2.020 -0.0788  0.2406 -0.4076
16955SOL    HW153065   5.191   2.729   2.053 -0.8829  2.0712 -1.9935
16955SOL    HW253066   5.293   2.658   1.967 -0.1399 -0.8067  1.0772
16956SOL     OW53067   3.119   7.063   4.966 -0.0983 -0.2476  0.1396
16956SOL    HW153068   3.035   7.019   4.956 -1.4389  1.8141  1.4316
16956SOL    HW253069   3.180   6.995   4.993 -1.7206 -1.5514  0.6548
16957SOL     OW53070   4.990   1.955   6.403  0.4775 -0.1213 -0.2301
16957SOL    HW153071   4.906   1.910   6.388  0.6449 -0.6140  0.2763
16957SOL    HW253072   5.039   1.941   6.322 -0.4786  1.4431 -1.1193
16958SOL     OW53073   8.179   8.710   3.382 -0.3319  0.0529 -0.0514
16958SOL    HW153074   8.119   8.754   3.321 -1.6762 -2.1437 -0.4557
16958SOL    HW253075   8.247   8.673   3.326 -0.6378 -0.5273 -0.0535
16959SOL     OW53076   4.814   9.479   4.631  0.2294  0.5991  0.1711
16959SOL    HW153077   4.794   9.563   4.590  0.0216  0.1071 -0.7599
16959SOL    HW253078   4.908   9.469   4.620  0.0625  0.1096 -0.9052
16960SOL     OW53079   0.024   1.628   0.191 -0.0841  0.3317  0.3860
16960SOL    HW153080  -0.026   1.586   0.261  0.4596  0.1807  0.6893
16960SOL    HW253081   0.034   1.560   0.125  1.0073 -0.1226  0.9821
16961SOL     OW53082   5.569   9.308   3.559  0.3299 -0.7768 -0.8785
16961SOL    HW153083   5.566   9.403   3.560  0.1716 -0.7408  1.8797
16961SOL    HW253084   5.479   9.280   3.574  0.1317 -1.4512 -2.9653
16962SOL     OW53085   0.202   0.752   2.428  0.0956 -0.5455  0.0291
16962SOL    HW153086   0.207   0.665   2.389 -1.0431 -0.3625 -0.5572
16962SOL    HW253087   0.280   0.797   2.396  0.6098 -1.2937  0.2111
16963SOL     OW53088   6.257   6.433   4.148 -0.2355  0.1726 -0.0951
16963SOL    HW153089   6.198   6.447   4.222 -1.6414 -1.5714 -0.8119
16963SOL    HW253090   6.329   6.382   4.184  0.3292  1.3769  0.5482
16964SOL     OW53091   4.133   1.602   7.387 -0.5166 -0.4695  0.3181
16964SOL    HW153092   4.127   1.684   7.437 -2.1382 -1.2218  1.4390
16964SOL    HW253093   4.042   1.571   7.381  0.1371 -2.6364  0.7137
16965SOL     OW53094   9.368   7.847   8.177  0.2529 -0.0049 -0.4618
16965SOL    HW153095   9.327   7.859   8.263 -1.4198 -0.6753 -1.1173
16965SOL    HW253096   9.461   7.858   8.194 -0.1569  1.6175  1.1136
16966SOL     OW53097   7.687   6.600   6.179 -0.4234  0.0598  0.0514
16966SOL    HW153098   7.662   6.597   6.087  0.4779  1.8335 -0.2943
16966SOL    HW253099   7.605   6.595   6.227 -1.1063  1.3711 -0.9292
16967SOL     OW53100   3.113   3.102   5.814  0.0467  0.0611 -0.0362
16967SOL    HW153101   3.094   3.139   5.728  0.6135  0.8600  0.1672
16967SOL    HW253102   3.163   3.170   5.859  0.4094 -0.6404  0.6549
16968SOL     OW53103   7.912   4.021   3.636 -0.0277 -0.2367 -0.0071
16968SOL    HW153104   8.004   4.041   3.655  0.2085  0.0419 -1.3259
16968SOL    HW253105   7.890   3.950   3.696  1.8123 -2.0486 -1.2925
16969SOL     OW53106   1.375   6.411   9.256 -0.2010 -0.3293  0.7271
16969SOL    HW153107   1.403   6.338   9.310 -1.9788 -0.5908  1.3449
16969SOL    HW253108   1.394   6.383   9.166 -0.1966 -1.2313  1.0015
16970SOL     OW53109   6.719   1.901   5.345 -0.2008 -0.1530  0.2568
16970SOL    HW153110   6.666   1.854   5.282  1.8088 -0.0279 -1.6415
16970SOL    HW253111   6.791   1.841   5.366 -0.6106 -0.0375  2.1584
16971SOL     OW53112   5.752   3.736   9.071 -0.4234  0.1014  0.0329
16971SOL    HW153113   5.719   3.813   9.025  0.3213  0.2070 -0.3396
16971SOL    HW253114   5.809   3.771   9.139  0.1358 -0.1190 -0.3124
16972SOL     OW53115   9.557   3.784   0.324  0.1127  0.2331  0.6537
16972SOL    HW153116   9.618   3.829   0.382  1.8179 -2.6212  1.2469
16972SOL    HW253117   9.569   3.828   0.239  3.1023 -0.2251  0.7380
16973SOL     OW53118   0.579   7.613   8.361 -0.3132 -0.0368  0.0423
16973SOL    HW153119   0.591   7.683   8.425 -2.9348 -0.2848  0.9192
16973SOL    HW253120   0.658   7.616   8.307  0.5261  2.2905  1.2706
16974SOL     OW53121   2.164   7.851   6.444 -0.0138 -0.0245 -0.6564
16974SOL    HW153122   2.137   7.901   6.521  1.3965 -1.5640  0.9460
16974SOL    HW253123   2.258   7.840   6.454 -0.1485 -2.2908 -1.3274
16975SOL     OW53124   0.954   4.033   7.204 -0.0417  0.0600  0.3730
16975SOL    HW153125   0.904   3.993   7.275  0.8349  1.0621  1.5996
16975SOL    HW253126   0.899   4.106   7.174  0.6989  1.3156  1.8870
16976SOL     OW53127   1.515   8.666   8.876  0.4931  0.3301  0.1706
16976SOL    HW153128   1.472   8.672   8.791  0.4062  2.7329  0.3178
16976SOL    HW253129   1.604   8.637   8.855  0.6817  1.5450 -0.8450
16977SOL     OW53130   4.161   2.995   6.084  0.6438 -0.1163  0.0499
16977SOL    HW153131   4.164   3.027   6.174 -0.0773  1.0926 -0.3254
16977SOL    HW253132   4.211   3.059   6.033  0.0859 -0.1522 -0.5665
16978SOL     OW53133   5.164   7.469   3.305 -0.2848 -0.2500 -0.7357
16978SOL    HW153134   5.116   7.393   3.271 -1.4839  0.7064 -1.2739
16978SOL    HW253135   5.096   7.527   3.339  0.6990  0.0620  0.7902
16979SOL     OW53136   8.681   3.588   2.512  0.4394 -0.5871 -0.2247
16979SOL    HW153137   8.726   3.567   2.430 -0.2759 -2.1792 -0.2505
16979SOL    HW253138   8.710   3.520   2.573 -1.0969 -1.0192  0.0558
16980SOL     OW53139   7.386   5.871   6.379 -0.4182  0.1143  0.1309
16980SOL    HW153140   7.310   5.925   6.401  0.3833  0.8524  1.1841
16980SOL    HW253141   7.453   5.897   6.442  0.5667 -0.8551 -0.4818
16981SOL     OW53142   7.937   0.271   2.927 -0.0810 -0.5274  0.0400
16981SOL    HW153143   7.994   0.311   2.861  0.3855 -0.5379  0.4332
16981SOL    HW253144   7.863   0.331   2.934  0.2984 -0.0633  0.1524
16982SOL     OW53145   4.347   8.879   3.086  0.0106  0.0242 -0.1129
16982SOL    HW153146   4.363   8.797   3.134  1.8358  1.4197  1.8738
16982SOL    HW253147   4.432   8.902   3.049 -0.1857  1.5352  0.2971
16983SOL     OW53148   2.670   4.516   3.802  0.4123  0.9883  0.2431
16983SOL    HW153149   2.760   4.545   3.815  1.4115 -0.6131 -2.3078
16983SOL    HW253150   2.636   4.571   3.732  0.4139 -0.2264 -0.7473
16984SOL     OW53151   6.776   9.218   7.128 -0.2203 -0.6687  0.3576
16984SOL    HW153152   6.808   9.293   7.178  0.9528 -1.1210  0.3318
16984SOL    HW253153   6.852   9.190   7.077 -0.5858 -1.9795  0.5076
16985SOL     OW53154   7.296   3.760   2.705  0.2061  0.7056 -0.2841
16985SOL    HW153155   7.239   3.734   2.777  1.0334  0.3270  0.2608
16985SOL    HW253156   7.318   3.851   2.724  2.5031 -0.1007  1.4512
16986SOL     OW53157   9.037   0.690   6.049 -0.3012 -0.7427 -0.7762
16986SOL    HW153158   9.096   0.760   6.021 -1.1451  1.0812  1.7002
16986SOL    HW253159   9.088   0.639   6.111 -0.3632 -1.0751 -0.9943
16987SOL     OW53160   5.532   1.102   8.138 -0.1582 -0.1822 -0.1979
16987SOL    HW153161   5.536   1.093   8.234 -3.0571  1.7030  0.2128
16987SOL    HW253162   5.481   1.182   8.123 -0.2614 -0.7125 -3.3274
16988SOL     OW53163   0.689   9.025   9.250 -0.0900 -0.8939 -0.1922
16988SOL    HW153164   0.707   9.119   9.247  1.4478 -1.0490  1.9876
16988SOL    HW253165   0.640   9.012   9.331 -0.0426 -2.0211 -0.3281
16989SOL     OW53166   3.667   6.359   8.990 -0.2744  0.0405  0.1267
16989SOL    HW153167   3.602   6.298   9.025 -0.6499 -0.6385 -1.6151
16989SOL    HW253168   3.709   6.397   9.067 -0.4659 -1.9627  1.3017
16990SOL     OW53169   8.782   7.427   3.717 -0.1380 -0.0183 -0.2337
16990SOL    HW153170   8.693   7.439   3.682 -1.0467 -1.4081  1.4258
16990SOL    HW253171   8.803   7.511   3.758 -0.6288  0.3484 -0.7102
16991SOL     OW53172   8.850   5.050   5.795 -0.2817 -0.0316  0.0810
16991SOL    HW153173   8.926   4.993   5.804 -1.0217 -1.1228 -0.3355
16991SOL    HW253174   8.864   5.097   5.713 -0.1560 -0.3916 -0.1045
16992SOL     OW53175   4.215   1.218   9.160 -0.4126 -0.5333 -0.5626
16992SOL    HW153176   4.202   1.152   9.228  0.5502 -0.9794 -0.8016
16992SOL    HW253177   4.292   1.267   9.189 -0.8239  0.1702 -0.6405
16993SOL     OW53178   0.784   5.849   5.768  0.2004 -0.0446  0.0169
16993SOL    HW153179   0.759   5.886   5.852  0.3769  1.5947 -0.6073
16993SOL    HW253180   0.844   5.913   5.730  0.1371 -0.7400 -1.3533
16994SOL     OW53181   3.806   8.116   8.492  0.0867 -0.0379 -0.2605
16994SOL    HW153182   3.773   8.206   8.500  0.1249 -0.0007 -0.5053
16994SOL    HW253183   3.860   8.117   8.413 -1.2146 -0.6512 -1.2191
16995SOL     OW53184   6.320   4.991   3.026 -0.1943 -0.4479  0.1711
16995SOL    HW153185   6.225   5.002   3.032 -0.4239 -2.3967  0.7148
16995SOL    HW253186   6.354   5.028   3.107 -0.5282 -0.0859  0.1479
16996SOL     OW53187   5.241   7.554   2.478 -0.1655  0.0752 -0.0419
16996SOL    HW153188   5.146   7.547   2.487 -0.3954  0.0354 -2.0315
16996SOL    HW253189   5.263   7.639   2.517 -1.3074  0.9844 -1.3081
16997SOL     OW53190   1.878   4.493   3.489  0.2410  0.5254  0.5700
16997SOL    HW153191   1.913   4.563   3.434  3.2527 -0.6945  0.7584
16997SOL    HW253192   1.896   4.521   3.579 -1.1911  0.7522  0.8218
16998SOL     OW53193   7.209   1.394   4.381 -0.7631  0.1390 -0.1833
16998SOL    HW153194   7.128   1.387   4.432 -0.5318 -0.2794  0.1414
16998SOL    HW253195   7.258   1.464   4.423 -0.2649 -0.6713  0.6298
16999SOL     OW53196   7.250   6.562   8.492  0.2355  0.0389  0.0355
16999SOL    HW153197   7.296   6.632   8.538  2.0496  0.1900 -1.8716
16999SOL    HW253198   7.165   6.599   8.468  0.4276  0.9186  0.6955
17000SOL     OW53199   7.137   7.926   4.189 -0.3695  0.0598  0.9833
17000SOL    HW153200   7.108   7.928   4.098 -0.5256  1.0112  1.0427
17000SOL    HW253201   7.076   7.867   4.233 -2.4264  2.1892  1.1553
17001SOL     OW53202   3.539   5.301   5.606  0.1930  0.2899 -0.1878
17001SOL    HW153203   3.612   5.324   5.664  0.8534 -0.0494 -0.8631
17001SOL    HW253204   3.489   5.383   5.597  0.8698  0.7022 -0.2602
17002SOL     OW53205   1.913   6.385   2.275  0.2409 -0.6825  0.6121
17002SOL    HW153206   1.899   6.332   2.353 -1.3942 -0.5151  0.4781
17002SOL    HW253207   1.849   6.351   2.212 -1.1940  1.7197  0.6739
17003SOL     OW53208   9.195   8.756   7.266 -0.0605 -0.0318  0.0371
17003SOL    HW153209   9.213   8.663   7.254  0.3265  0.2598 -2.1393
17003SOL    HW253210   9.101   8.760   7.287  0.1492 -0.9487  1.2385
17004SOL     OW53211   3.891   2.277   3.952 -0.2243  0.0429 -0.2808
17004SOL    HW153212   3.828   2.345   3.976  0.4499  0.4289  0.4708
17004SOL    HW253213   3.974   2.307   3.991  0.2268 -0.8921 -0.4905
17005SOL     OW53214   7.105   9.137   1.159  0.2484  0.3631  0.5419
17005SOL    HW153215   7.161   9.100   1.228  1.8746  0.0097 -0.8792
17005SOL    HW253216   7.149   9.218   1.134  0.4743 -0.1934 -0.9819
17006SOL     OW53217   6.732   0.438   6.013 -0.2381 -0.8343  0.3384
17006SOL    HW153218   6.760   0.465   5.925 -1.8310 -0.1005  0.0062
17006SOL    HW253219   6.733   0.518   6.065  3.4015 -1.6831  1.8902
17007SOL     OW53220   5.811   3.428   6.629 -0.2701  0.2637  0.2202
17007SOL    HW153221   5.901   3.463   6.630  0.0056 -0.1634  3.4527
17007SOL    HW253222   5.788   3.421   6.722 -2.7319 -2.0453 -0.4505
17008SOL     OW53223   5.688   9.447   8.975 -0.1266 -0.1582  0.0111
17008SOL    HW153224   5.602   9.410   8.994  0.2823 -0.8761  0.5318
17008SOL    HW253225   5.745   9.371   8.965  1.2665  0.2469  3.5223
17009SOL     OW53226   3.696   6.522   6.968 -0.3030  0.1307  0.0795
17009SOL    HW153227   3.730   6.599   6.922 -0.0322  0.2728  0.5238
17009SOL    HW253228   3.771   6.487   7.016 -0.4969 -0.2406  0.1130
17010SOL     OW53229   0.416   8.040   3.588  0.1709 -1.0989 -0.2597
17010SOL    HW153230   0.396   7.966   3.530  0.1978 -1.4749  0.2005
17010SOL    HW253231   0.408   8.117   3.532 -0.1779 -1.4250 -0.6731
17011SOL     OW53232   6.093   6.707   6.593  0.2793 -0.0952 -0.6591
17011SOL    HW153233   6.013   6.687   6.640  0.1628 -1.7693 -1.4889
17011SOL    HW253234   6.069   6.777   6.532 -0.3846 -0.1574 -0.4674
17012SOL     OW53235   0.515   5.293   6.311  0.5525  0.5098  0.0620
17012SOL    HW153236   0.543   5.371   6.263 -1.2432  2.2129  1.6465
17012SOL    HW253237   0.546   5.307   6.400 -0.2673 -0.3205  0.4947
17013SOL     OW53238   5.832   1.648   3.836  0.6620 -0.5083 -0.0970
17013SOL    HW153239   5.759   1.709   3.829  1.9168  0.9090 -1.6484
17013SOL    HW253240   5.810   1.577   3.777  0.6889  0.0942 -0.8398
17014SOL     OW53241   7.752   6.265   4.577 -0.4041 -0.0380 -0.0463
17014SOL    HW153242   7.670   6.241   4.620 -0.6273 -0.9136 -0.9285
17014SOL    HW253243   7.748   6.222   4.491  1.1011 -0.3390  0.0067
17015SOL     OW53244   5.533   9.399   4.218  0.0003  0.7208  0.1857
17015SOL    HW153245   5.550   9.377   4.127 -1.3664  0.9708 -0.1431
17015SOL    HW253246   5.452   9.353   4.239 -0.0613  1.2121  1.0740
17016SOL     OW53247   1.796   6.769   9.383  0.4101  0.0264  0.1140
17016SOL    HW153248   1.850   6.793   9.308 -0.1024  0.8281 -0.0090
17016SOL    HW253249   1.721   6.723   9.345 -0.0049  0.7056  0.1004
17017SOL     OW53250   6.689   4.189   6.682 -0.1139 -0.3911  0.2300
17017SOL    HW153251   6.690   4.247   6.758 -1.3798  1.1968 -0.8970
17017SOL    HW253252   6.690   4.101   6.720 -1.0582  0.3389  2.1154
17018SOL     OW53253   5.111   4.157   1.754 -0.2148  0.1436  0.0825
17018SOL    HW153254   5.145   4.241   1.784  1.4224  0.3472 -2.1291
17018SOL    HW253255   5.189   4.103   1.741 -1.2310 -1.8005  1.5075
17019SOL     OW53256   4.373   0.520   4.485  0.3743 -0.1381  0.3614
17019SOL    HW153257   4.302   0.477   4.533 -0.4967  1.4214  0.5436
17019SOL    HW253258   4.392   0.599   4.537  0.5484  0.7230 -0.9780
17020SOL     OW53259   0.877   3.838   4.524 -0.0828  0.0018 -0.0405
17020SOL    HW153260   0.815   3.772   4.494 -1.7656  1.3771  0.2969
17020SOL    HW253261   0.839   3.873   4.604  2.1944 -0.5692  1.3896
17021SOL     OW53262   7.742   6.225   4.296 -0.0271 -0.3329  0.1813
17021SOL    HW153263   7.662   6.247   4.249 -0.4025  1.1853  1.4359
17021SOL    HW253264   7.759   6.134   4.273 -1.8032 -0.5209 -0.5558
17022SOL     OW53265   4.711   4.415   0.769 -0.2949 -0.0363  0.4072
17022SOL    HW153266   4.794   4.431   0.724  0.3755  0.2246  1.6925
17022SOL    HW253267   4.706   4.320   0.779 -0.9442 -0.1896 -1.0777
17023SOL     OW53268   7.503   9.405   7.133  0.4773  0.0891  0.2108
17023SOL    HW153269   7.479   9.375   7.045 -0.7761  0.7391  0.3127
17023SOL    HW253270   7.560   9.336   7.167  0.2076 -0.6301 -0.7511
17024SOL     OW53271   2.650   2.481   2.990 -0.2785  0.1128  0.1149
17024SOL    HW153272   2.719   2.438   3.042 -0.7221 -0.1489  0.5015
17024SOL    HW253273   2.697   2.532   2.925  0.2768 -0.5444 -0.0126
17025SOL     OW53274   5.758   9.088   9.329  0.1042  0.3426  0.4537
17025SOL    HW153275   5.674   9.130   9.308  0.3716 -0.0701 -1.6877
17025SOL    HW253276   5.771   9.024   9.259  2.0811  0.1832  0.8985
17026SOL     OW53277   7.388   8.781   9.527 -0.2431  0.4240 -0.4590
17026SOL    HW153278   7.476   8.818   9.537  0.2585 -0.5865 -0.9539
17026SOL    HW253279   7.368   8.744   9.613  0.6187 -0.9923 -0.8356
17027SOL     OW53280   7.344   3.393   0.792 -0.4909  0.2723  0.5874
17027SOL    HW153281   7.431   3.406   0.754 -0.4846  0.9171  0.7967
17027SOL    HW253282   7.324   3.477   0.835 -1.0728  0.0195  0.8274
17028SOL     OW53283   8.599   4.351   3.135  0.1630  0.3986  0.2078
17028SOL    HW153284   8.577   4.307   3.053  0.6577  0.5472 -0.0064
17028SOL    HW253285   8.578   4.443   3.119 -0.5962  0.2989  0.5580
17029SOL     OW53286   5.692   6.276   3.914  0.1684 -0.8197  0.1374
17029SOL    HW153287   5.722   6.207   3.855  2.3977 -0.0191  0.2411
17029SOL    HW253288   5.619   6.317   3.867  1.9108 -0.1702 -2.1964
17030SOL     OW53289   4.951   5.619   9.298 -0.1354  0.1055 -0.4312
17030SOL    HW153290   4.906   5.536   9.305 -0.3916  0.3104  0.4447
17030SOL    HW253291   4.974   5.626   9.205 -0.5903 -0.6800 -0.6107
17031SOL     OW53292   4.060   5.377   0.985  0.7816  0.1936 -0.4657
17031SOL    HW153293   4.047   5.418   1.071  0.6549 -0.6963 -0.0453
17031SOL    HW253294   4.085   5.288   1.005 -1.3503 -0.6835 -1.3343
17032SOL     OW53295   4.557   3.706   6.021  0.3579 -0.2902 -0.0111
17032SOL    HW153296   4.636   3.729   5.972 -1.2816  0.2302 -2.5995
17032SOL    HW253297   4.579   3.624   6.065  2.4918  0.1366 -0.1935
17033SOL     OW53298   5.953   2.948   8.044 -0.7329 -0.3686 -0.0768
17033SOL    HW153299   5.863   2.978   8.056 -0.4530 -0.4017  2.7885
17033SOL    HW253300   5.954   2.907   7.958 -3.5260 -0.6462 -0.0493
17034SOL     OW53301   5.610   7.654   0.571  0.7427 -0.3154  0.0204
17034SOL    HW153302   5.527   7.685   0.533  0.8905  0.0965  0.0278
17034SOL    HW253303   5.636   7.724   0.630  1.7085  0.1154 -0.8764
17035SOL     OW53304   9.563   2.540   6.335  0.3989 -0.0226  0.2860
17035SOL    HW153305   9.593   2.616   6.384  0.7246  0.6559 -0.9257
17035SOL    HW253306   9.642   2.506   6.292  0.0595 -0.3428 -0.0956
17036SOL     OW53307   4.797   2.870   0.548 -0.2251  0.4302  0.5925
17036SOL    HW153308   4.849   2.829   0.617 -0.2408 -0.3497  0.1434
17036SOL    HW253309   4.856   2.933   0.507 -0.3007  1.1247  1.4946
17037SOL     OW53310   8.771   8.054   6.592 -0.0504  0.0142  0.0660
17037SOL    HW153311   8.822   8.128   6.558 -0.4870  0.5764  0.6173
17037SOL    HW253312   8.681   8.072   6.564 -0.0256 -0.7617 -0.5486
17038SOL     OW53313   7.415   8.597   4.087 -0.1498 -0.1617  0.3192
17038SOL    HW153314   7.380   8.518   4.047  0.1195 -0.2720  0.3012
17038SOL    HW253315   7.343   8.660   4.082 -0.1298 -0.1793 -0.3123
17039SOL     OW53316   8.594   1.185   7.449  0.1162  0.3475 -0.4051
17039SOL    HW153317   8.507   1.150   7.430  0.0088  0.5541 -0.3045
17039SOL    HW253318   8.645   1.109   7.478  0.1292  0.1290 -0.9867
17040SOL     OW53319   0.744   0.525   0.909  0.0573 -0.1371 -0.0894
17040SOL    HW153320   0.743   0.527   1.005 -0.9532 -0.2860 -0.0931
17040SOL    HW253321   0.733   0.617   0.884 -2.1558 -0.3492 -0.0544
17041SOL     OW53322   9.089   5.695   6.686 -0.1077  0.0592 -0.0944
17041SOL    HW153323   9.099   5.783   6.648  0.8536  0.3019  0.6955
17041SOL    HW253324   9.031   5.649   6.625  2.4737 -0.0377 -2.6800
17042SOL     OW53325   5.009   7.832   8.496 -0.2289 -0.4421 -0.3232
17042SOL    HW153326   4.981   7.824   8.587  0.5126  0.2908 -0.0147
17042SOL    HW253327   4.949   7.776   8.447  0.0024 -1.6430  0.7331
17043SOL     OW53328   3.702   2.068   4.751  0.2367 -0.2583 -0.2148
17043SOL    HW153329   3.747   2.066   4.667 -0.1528  0.1259 -0.4368
17043SOL    HW253330   3.770   2.093   4.814  0.5116 -0.4685 -0.4236
17044SOL     OW53331   5.262   7.310   5.371 -0.8541  0.2644 -0.0390
17044SOL    HW153332   5.286   7.239   5.431 -0.9376 -1.3883 -1.8239
17044SOL    HW253333   5.183   7.349   5.409 -1.6252 -1.5449  0.3269
17045SOL     OW53334   5.968   6.385   7.663  0.2400 -0.0792 -0.3810
17045SOL    HW153335   5.888   6.376   7.715  1.0827  1.3277  1.2656
17045SOL    HW253336   6.039   6.372   7.725  1.3185 -0.3248 -1.6101
17046SOL     OW53337   1.175   2.006   0.109 -0.5403  0.5677 -0.1581
17046SOL    HW153338   1.226   1.998   0.189  0.2797  1.1272 -0.6046
17046SOL    HW253339   1.168   1.917   0.076 -0.0757  0.4486  0.0575
17047SOL     OW53340   1.895   9.266   4.510 -0.1616  0.2347 -0.1255
17047SOL    HW153341   1.927   9.195   4.454 -3.1963  1.0462 -3.1908
17047SOL    HW253342   1.823   9.228   4.559  0.3147  0.4156  0.7420
17048SOL     OW53343   2.872   4.763   6.267 -0.3446  0.0492  0.0757
17048SOL    HW153344   2.829   4.831   6.214  0.7764 -0.0868 -1.0587
17048SOL    HW253345   2.905   4.700   6.203  1.5752  0.1699  0.8924
17049SOL     OW53346   2.345   5.900   1.482 -0.0505 -0.0081 -0.4811
17049SOL    HW153347   2.437   5.925   1.472 -0.1757  1.4337  1.4467
17049SOL    HW253348   2.297   5.974   1.445 -0.4018  1.5656  2.7708
17050SOL     OW53349   4.334   7.852   6.416 -0.8115  0.1936  0.3705
17050SOL    HW153350   4.429   7.838   6.416 -0.6449  1.0207 -1.4984
17050SOL    HW253351   4.310   7.852   6.509  1.3083  1.7357  1.0184
17051SOL     OW53352   5.296   2.002   3.382 -0.9663  0.1278 -0.0091
17051SOL    HW153353   5.222   2.057   3.408 -0.5439  0.6095  0.1995
17051SOL    HW253354   5.372   2.060   3.389 -0.7902  0.2382 -2.1261
17052SOL     OW53355   2.577   0.363   6.510  0.2696  0.0488  0.1843
17052SOL    HW153356   2.640   0.435   6.516  0.5206 -0.0555 -0.9981
17052SOL    HW253357   2.506   0.398   6.456 -0.1125 -0.2508  0.4864
17053SOL     OW53358   7.625   3.346   0.547 -0.1578  0.2795 -0.9423
17053SOL    HW153359   7.628   3.402   0.624 -0.7415 -2.0681  0.8954
17053SOL    HW253360   7.700   3.374   0.494  0.8380  1.3202  0.9300
17054SOL     OW53361   7.236   1.389   0.523  0.9705  0.4693 -0.0059
17054SOL    HW153362   7.162   1.430   0.478  0.4820  1.9613  2.0054
17054SOL    HW253363   7.270   1.325   0.460 -0.0743  1.9339 -2.1843
17055SOL     OW53364   0.699   3.938   2.900  0.1364  0.4902 -0.1412
17055SOL    HW153365   0.715   3.849   2.870 -0.4952  0.6087 -0.8639
17055SOL    HW253366   0.783   3.983   2.889 -0.1971  0.6703 -2.2833
17056SOL     OW53367   8.076   3.057   1.667  0.4283  0.0290  0.0351
17056SOL    HW153368   8.090   3.151   1.675  2.6252 -0.0412 -1.9396
17056SOL    HW253369   8.078   3.025   1.757 -1.3833  1.9093  0.8373
17057SOL     OW53370   8.917   5.448   6.328 -0.0355 -0.3868  0.6150
17057SOL    HW153371   8.851   5.401   6.276  1.9523 -1.2227 -1.3429
17057SOL    HW253372   8.874   5.465   6.411 -2.0484 -2.6711  0.1698
17058SOL     OW53373   0.054   6.425   5.983 -0.1438 -0.2396  0.6705
17058SOL    HW153374   0.065   6.460   6.071 -2.2982 -0.4146  1.0793
17058SOL    HW253375   0.117   6.472   5.929  0.6392  0.4609  2.1580
17059SOL     OW53376   8.449   3.455   1.168  0.4961  0.1366  0.1354
17059SOL    HW153377   8.445   3.474   1.074 -0.7904  0.0935  0.1576
17059SOL    HW253378   8.492   3.532   1.206  0.0454  0.6477 -0.3737
17060SOL     OW53379   5.967   3.933   2.333 -0.0850 -0.3687 -0.3678
17060SOL    HW153380   5.887   3.886   2.310  0.2345 -1.3722  0.4539
17060SOL    HW253381   5.962   3.942   2.428 -0.0498  1.1466 -0.4884
17061SOL     OW53382   3.756   4.967   5.523 -0.0519 -0.1484  0.2337
17061SOL    HW153383   3.767   5.002   5.611  0.5359 -1.6876  0.7938
17061SOL    HW253384   3.845   4.961   5.488 -0.3712  1.8638 -1.0690
17062SOL     OW53385   7.059   0.559   7.135 -0.1550 -0.3235  0.7450
17062SOL    HW153386   7.124   0.489   7.150 -1.4614 -1.6643  0.4229
17062SOL    HW253387   7.010   0.528   7.059 -3.1670 -0.9040  2.7722
17063SOL     OW53388   1.854   5.363   5.754 -0.4508 -0.7357  0.3459
17063SOL    HW153389   1.908   5.313   5.693  0.1627 -1.3129  1.3207
17063SOL    HW253390   1.896   5.449   5.759  0.3345 -1.1401  0.9980
17064SOL     OW53391   4.174   3.052   4.009  0.7330  0.0053 -0.1762
17064SOL    HW153392   4.120   3.019   4.080  1.4561 -0.1012  0.3362
17064SOL    HW253393   4.119   3.044   3.931 -1.0905  2.5596  0.7121
17065SOL     OW53394   0.619   0.881   2.632 -0.2105  0.5268 -0.0618
17065SOL    HW153395   0.578   0.924   2.557 -1.1241 -0.8430 -0.3794
17065SOL    HW253396   0.546   0.846   2.683  0.4495  0.6402  0.9896
17066SOL     OW53397   7.036   1.136   6.415 -0.1037 -0.0841 -0.0815
17066SOL    HW153398   6.989   1.205   6.462 -2.0726 -0.3511 -1.5233
17066SOL    HW253399   7.002   1.141   6.325  1.9043 -1.0144 -0.9544
17067SOL     OW53400   2.120   5.529   2.496 -0.3164  0.1702  0.3406
17067SOL    HW153401   2.208   5.502   2.523 -0.4650  0.5295  1.2066
17067SOL    HW253402   2.061   5.467   2.539 -0.6060  1.3043  1.6477
17068SOL     OW53403   8.631   1.176   4.971 -0.6012  0.1620  0.2548
17068SOL    HW153404   8.625   1.191   4.877  0.3760 -1.7757 -0.1535
17068SOL    HW253405   8.630   1.264   5.010  1.9626  1.1880 -1.7312
17069SOL     OW53406   4.636   0.934   3.987 -0.1461 -0.0265  0.3213
17069SOL    HW153407   4.671   0.994   4.052 -1.9148  1.2678  0.1745
17069SOL    HW253408   4.597   0.992   3.920  1.8938 -1.2710 -2.1157
17070SOL     OW53409   8.342   2.943   6.089 -0.3033 -0.3298  0.0790
17070SOL    HW153410   8.246   2.945   6.083 -0.3845 -0.2117  1.1187
17070SOL    HW253411   8.367   2.859   6.053 -0.5968  0.5482 -2.3378
17071SOL     OW53412   2.240   0.182   2.308  0.0448 -0.1850 -0.0730
17071SOL    HW153413   2.282   0.209   2.389 -1.2862 -1.2381  1.0079
17071SOL    HW253414   2.148   0.168   2.331 -0.6912  0.8279 -2.0740
17072SOL     OW53415   1.480   3.878   3.202 -0.1492 -0.3308 -0.1549
17072SOL    HW153416   1.550   3.897   3.140 -1.0004  0.8705 -0.7754
17072SOL    HW253417   1.412   3.942   3.183 -0.7506 -0.4139  1.5259
17073SOL     OW53418   2.375   5.432   2.898 -0.1661 -0.3190 -0.1797
17073SOL    HW153419   2.338   5.467   2.979 -2.9789  1.4438 -2.0516
17073SOL    HW253420   2.427   5.504   2.862 -1.4414  0.0493 -1.3702
17074SOL     OW53421   2.056   5.721   0.245 -0.3236  0.1909  0.2336
17074SOL    HW153422   2.086   5.808   0.271 -1.8015  0.7897  0.0868
17074SOL    HW253423   1.965   5.717   0.277 -0.6033 -0.9113 -0.6322
17075SOL     OW53424   6.461   3.899   5.235  0.2510 -0.3682 -0.1674
17075SOL    HW153425   6.456   3.977   5.179 -1.1347 -0.6160 -0.4044
17075SOL    HW253426   6.482   3.828   5.175  1.5615 -0.2021  0.0557
17076SOL     OW53427   5.005   0.040   0.289 -0.6567  0.1108 -0.3175
17076SOL    HW153428   5.066   0.004   0.354 -2.0562  0.0029  0.9899
17076SOL    HW253429   4.942   0.090   0.341  0.3516  3.3415 -1.9166
17077SOL     OW53430   4.507   1.810   1.937  0.2311 -0.0917 -0.1957
17077SOL    HW153431   4.441   1.833   2.003  1.5803  0.6481  0.9416
17077SOL    HW253432   4.572   1.880   1.943  2.7576 -2.3554  0.9356
17078SOL     OW53433   1.948   2.707   8.049 -0.0724 -0.4775  0.0396
17078SOL    HW153434   1.972   2.635   7.990 -2.2534 -1.9062  0.7529
17078SOL    HW253435   1.918   2.776   7.991  1.2183 -0.4336 -0.6272
17079SOL     OW53436   1.927   7.963   4.268 -0.3593 -0.1237  0.2716
17079SOL    HW153437   1.866   7.998   4.333  0.8743  1.1351  0.7878
17079SOL    HW253438   2.010   7.953   4.315  0.9473  2.1187 -1.3576
17080SOL     OW53439   2.794   2.270   1.590  0.2531 -0.0827 -0.0025
17080SOL    HW153440   2.785   2.326   1.667 -0.7047 -0.5963  0.2840
17080SOL    HW253441   2.729   2.201   1.604 -1.1322  0.7217 -2.0686
17081SOL     OW53442   5.667   0.822   9.455  1.0035 -0.3588 -0.0085
17081SOL    HW153443   5.603   0.892   9.467  0.2904 -0.8004 -1.0973
17081SOL    HW253444   5.647   0.759   9.525 -0.4059 -0.9443 -0.8802
17082SOL     OW53445   6.968   8.579   7.359 -0.0011 -0.3913 -0.3394
17082SOL    HW153446   7.051   8.533   7.366  0.7778  0.6581 -2.0702
17082SOL    HW253447   6.903   8.517   7.393  1.3962 -1.4837  0.4059
17083SOL     OW53448   7.823   0.124   3.811 -0.1298  0.1442 -0.1125
17083SOL    HW153449   7.890   0.074   3.765 -1.7406 -1.8174 -0.4859
17083SOL    HW253450   7.778   0.059   3.866 -1.7758  1.3432  0.0591
17084SOL     OW53451   3.476   9.164   3.636  0.2036  0.0233  0.8128
17084SOL    HW153452   3.507   9.255   3.629  1.4723 -0.4328  0.1470
17084SOL    HW253453   3.397   9.170   3.689 -1.8165  2.0063 -2.0687
17085SOL     OW53454   9.432   5.985   1.324  0.3607 -0.0347 -0.2021
17085SOL    HW153455   9.448   6.057   1.385  0.1095  1.2339 -1.5769
17085SOL    HW253456   9.519   5.957   1.295  0.4558 -0.2275  0.2723
17086SOL     OW53457   7.931   8.392   4.933  0.3132  0.0377 -0.3144
17086SOL    HW153458   7.908   8.484   4.931 -0.9572 -0.2476 -2.6927
17086SOL    HW253459   8.010   8.387   4.986  1.3178  2.7071 -1.4251
17087SOL     OW53460   0.427   4.373   8.084 -0.3134 -0.3439 -0.2728
17087SOL    HW153461   0.376   4.298   8.053  0.5587 -0.1420 -2.3801
17087SOL    HW253462   0.420   4.438   8.013  2.1074  0.0171 -0.2683
17088SOL     OW53463   3.497   3.327   2.853 -0.0835 -0.2265 -0.4151
17088SOL    HW153464   3.471   3.288   2.937 -1.7621  0.9626 -0.3102
17088SOL    HW253465   3.490   3.255   2.790 -0.6685 -0.6912  0.1622
17089SOL     OW53466   7.793   3.698   0.687  0.2750  0.8307  0.2706
17089SOL    HW153467   7.829   3.620   0.730 -0.3624  0.7195  0.6206
17089SOL    HW253468   7.854   3.717   0.615 -0.9751 -1.6414 -1.5965
17090SOL     OW53469   1.557   6.016   8.636 -0.1702 -0.1437 -0.2306
17090SOL    HW153470   1.523   6.106   8.637  0.5435  0.1522 -1.1765
17090SOL    HW253471   1.643   6.024   8.596 -0.2769 -1.3103 -0.7213
17091SOL     OW53472   2.009   3.150   5.422 -0.2539  0.5552 -0.1133
17091SOL    HW153473   2.013   3.244   5.442 -1.9306  0.3934  1.1589
17091SOL    HW253474   2.051   3.108   5.496 -0.3033  0.2466 -0.2600
17092SOL     OW53475   6.095   6.701   6.217 -0.2396 -0.0406  0.3824
17092SOL    HW153476   6.004   6.728   6.230 -0.3951  0.2122 -1.0955
17092SOL    HW253477   6.102   6.685   6.123  0.2825 -3.5348  0.8891
17093SOL     OW53478   7.216   4.102   5.923 -0.0846  0.0935  0.0132
17093SOL    HW153479   7.185   4.127   6.010 -0.0443 -0.4564  0.1921
17093SOL    HW253480   7.140   4.114   5.866 -0.4849 -0.7223  0.3524
17094SOL     OW53481   4.162   7.734   8.695 -0.1965 -0.0559 -0.3428
17094SOL    HW153482   4.108   7.810   8.672 -1.7966 -0.7100  1.0865
17094SOL    HW253483   4.131   7.665   8.637 -0.4981 -0.2822  0.0866
17095SOL     OW53484   5.020   5.066   5.305  0.0417  0.1761  0.1466
17095SOL    HW153485   5.010   5.105   5.392  0.9144  0.1447  0.2755
17095SOL    HW253486   5.090   5.117   5.264  1.1754 -1.2040  0.2943
17096SOL     OW53487   0.792   7.606   8.168  0.3042  0.8298  0.0215
17096SOL    HW153488   0.873   7.654   8.188  2.8632 -1.7590 -2.9735
17096SOL    HW253489   0.774   7.626   8.077 -1.3143 -0.1945  0.0698
17097SOL     OW53490   4.001   1.338   0.406  0.0487 -0.1100 -0.2917
17097SOL    HW153491   3.917   1.375   0.380  0.1765  0.3473 -0.0523
17097SOL    HW253492   4.054   1.413   0.430  0.9325 -0.2754 -1.5866
17098SOL     OW53493   0.343   0.652   8.327 -0.6287 -0.7968 -0.1505
17098SOL    HW153494   0.430   0.677   8.295 -0.4763 -2.0721 -0.7824
17098SOL    HW253495   0.346   0.670   8.421 -0.1517  0.4519 -0.3907
17099SOL     OW53496   2.045   0.368   4.886 -0.3171 -0.2530  0.2738
17099SOL    HW153497   2.112   0.417   4.839  0.9565 -1.9092  0.2605
17099SOL    HW253498   2.062   0.276   4.863 -1.8785 -0.8169  1.1971
17100SOL     OW53499   2.061   1.546   7.122  0.3048  0.1513  0.1671
17100SOL    HW153500   2.018   1.631   7.111 -2.0292 -1.0310 -0.5587
17100SOL    HW253501   2.112   1.534   7.042  1.9315  1.4775  0.9389
17101SOL     OW53502   9.059   1.046   7.898  0.0964  0.6857  0.4928
17101SOL    HW153503   9.106   0.991   7.836 -1.7668 -0.9418  0.4270
17101SOL    HW253504   9.126   1.075   7.960  1.4309 -0.2396 -0.4642
17102SOL     OW53505   4.892   8.474   7.496 -0.2641  0.2265 -0.0653
17102SOL    HW153506   4.844   8.481   7.578  1.0537  1.3091  0.6359
17102SOL    HW253507   4.825   8.449   7.432 -1.0631 -2.2034  1.5628
17103SOL     OW53508   9.039   1.901   7.520 -0.6053 -0.1204  0.4444
17103SOL    HW153509   9.093   1.854   7.584  0.1068  0.6528  0.4255
17103SOL    HW253510   9.098   1.962   7.478 -1.2825  0.0443 -0.3025
17104SOL     OW53511   4.967   6.899   5.114 -0.3693  0.1983 -0.0063
17104SOL    HW153512   5.014   6.889   5.031 -0.5625 -1.9376  0.0897
17104SOL    HW253513   5.018   6.848   5.177 -1.3290  0.1017  0.7150
17105SOL     OW53514   6.700   1.093   1.341 -0.5412 -0.5957  0.4262
17105SOL    HW153515   6.726   1.155   1.274 -2.0154 -0.8131 -0.3691
17105SOL    HW253516   6.703   1.143   1.423 -0.5156  0.1724 -0.0381
17106SOL     OW53517   4.301   5.342   3.030 -0.0917  0.1739 -0.0889
17106SOL    HW153518   4.276   5.375   3.116 -1.3385 -0.9911  0.0363
17106SOL    HW253519   4.298   5.247   3.039  1.2774  0.0141 -1.0102
17107SOL     OW53520   6.948   0.636   1.127 -0.0215  0.1032 -0.6505
17107SOL    HW153521   6.948   0.722   1.084 -0.0683  0.4542  0.0334
17107SOL    HW253522   6.999   0.649   1.206  0.8334 -0.7673 -1.0369
17108SOL     OW53523   5.702   0.366   0.765  0.3291 -0.6653 -0.5538
17108SOL    HW153524   5.733   0.276   0.767  0.7707 -0.5016  0.4421
17108SOL    HW253525   5.695   0.387   0.672  1.5543 -1.2679 -0.7957
17109SOL     OW53526   6.937   7.791   4.994 -0.4478 -0.0172  0.5131
17109SOL    HW153527   6.955   7.733   4.919  0.0824  0.8544 -0.0613
17109SOL    HW253528   6.911   7.874   4.954 -1.4736  0.0696  1.3261
17110SOL     OW53529   8.350   3.807   5.845  0.1814  0.2704 -0.1923
17110SOL    HW153530   8.334   3.713   5.860  3.8227 -1.1957 -3.6586
17110SOL    HW253531   8.276   3.835   5.791 -0.7803 -0.6923  0.5823
17111SOL     OW53532   6.749   1.278   1.147  0.0772 -0.7127 -0.8305
17111SOL    HW153533   6.694   1.257   1.072 -1.3123  0.7565 -0.2856
17111SOL    HW253534   6.836   1.290   1.111 -0.8327  1.5079 -2.5413
17112SOL     OW53535   2.878   1.096   0.017 -0.2369 -0.0433  0.5687
17112SOL    HW153536   2.845   1.185   0.001  0.3215  0.2247  0.8684
17112SOL    HW253537   2.968   1.097  -0.016 -0.1184 -0.3999  0.8653
17113SOL     OW53538   1.273   9.199   1.790 -0.1013  0.5668 -0.1671
17113SOL    HW153539   1.237   9.147   1.862  0.1917  0.3838 -0.1505
17113SOL    HW253540   1.349   9.242   1.827  0.6280 -0.2904 -0.6183
17114SOL     OW53541   4.948   1.921   5.142  0.7893 -0.5694 -0.0215
17114SOL    HW153542   4.898   1.924   5.060  0.1156 -2.2896  0.2833
17114SOL    HW253543   5.039   1.935   5.116  0.2959  1.8065 -0.6863
17115SOL     OW53544   8.173   2.356   6.929 -0.0518 -0.0534  0.0150
17115SOL    HW153545   8.191   2.449   6.945 -0.9146 -0.0740  1.1983
17115SOL    HW253546   8.193   2.314   7.012 -1.8285 -0.6089  0.1926
17116SOL     OW53547   8.399   3.486   4.168  0.3572  0.1870  0.5727
17116SOL    HW153548   8.473   3.473   4.228  1.2495 -2.8006 -0.9692
17116SOL    HW253549   8.436   3.472   4.081 -1.8715 -0.8020 -0.2975
17117SOL     OW53550   6.724   5.287   7.441  1.1095 -0.1687 -0.1191
17117SOL    HW153551   6.792   5.225   7.416  0.3161 -1.2223  0.2582
17117SOL    HW253552   6.769   5.371   7.448  2.0976 -0.5947 -1.1571
17118SOL     OW53553   4.583   6.091   5.904 -0.3498  0.1172 -0.4411
17118SOL    HW153554   4.508   6.111   5.959  0.9097  0.3516  1.2967
17118SOL    HW253555   4.611   6.003   5.932 -0.1151 -0.0686 -1.2243
17119SOL     OW53556   0.905   0.628   3.825 -0.5380 -0.0361 -0.2238
17119SOL    HW153557   0.988   0.581   3.823 -0.1515  0.6210  0.0228
17119SOL    HW253558   0.842   0.568   3.785  0.1140 -0.4226 -0.6757
17120SOL     OW53559   6.699   2.917   2.995  0.3335  0.2966 -0.1352
17120SOL    HW153560   6.755   2.985   2.959  0.4689 -0.1976 -0.8893
17120SOL    HW253561   6.689   2.854   2.924 -0.0133 -0.3359  0.4560
17121SOL     OW53562   6.137   6.825   5.592 -0.6075 -0.4193 -0.3097
17121SOL    HW153563   6.143   6.748   5.650 -1.1685  0.5248  1.0615
17121SOL    HW253564   6.044   6.832   5.571 -1.1037  1.5762  2.0709
17122SOL     OW53565   8.677   0.808   8.967 -0.8942 -0.1880  0.7250
17122SOL    HW153566   8.748   0.863   8.934 -0.9737 -1.8322 -2.6782
17122SOL    HW253567   8.612   0.870   9.001  1.0610  1.4639  1.6619
17123SOL     OW53568   3.045   2.036   7.386 -0.1289 -0.3892 -0.3037
17123SOL    HW153569   3.005   2.032   7.473 -0.0977  1.5436 -0.1545
17123SOL    HW253570   3.083   1.949   7.373  0.0118 -0.6791  1.6883
17124SOL     OW53571   0.125   6.589   2.233 -0.0689  0.5218  0.5953
17124SOL    HW153572   0.040   6.599   2.189 -0.4409 -2.8994  0.2679
17124SOL    HW253573   0.102   6.570   2.324  0.2492 -1.1608  0.3519
17125SOL     OW53574   3.557   5.983   1.175  0.0233  0.1841 -0.0679
17125SOL    HW153575   3.636   6.012   1.129 -1.2506  2.9543 -0.6622
17125SOL    HW253576   3.589   5.917   1.237  2.7674  1.0645 -0.4196
17126SOL     OW53577   9.281   6.913   3.675  0.7557  0.5775  0.4560
17126SOL    HW153578   9.295   6.840   3.615 -0.8382  1.2043 -0.7549
17126SOL    HW253579   9.254   6.986   3.619  1.5379  1.9008  1.7108
17127SOL     OW53580   0.940   4.737   6.649  0.0601  0.2742 -0.3191
17127SOL    HW153581   0.990   4.815   6.676  0.6725  0.0245 -0.7217
17127SOL    HW253582   0.988   4.703   6.574 -1.3244  0.6453 -1.4068
17128SOL     OW53583   0.357   3.336   6.799 -0.1505  0.0427 -0.0692
17128SOL    HW153584   0.345   3.409   6.859  0.8067  0.5956 -0.5167
17128SOL    HW253585   0.433   3.361   6.746 -0.1998 -0.9920 -0.6600
17129SOL     OW53586   4.837   8.270   5.436 -0.5383 -0.1319  0.3507
17129SOL    HW153587   4.784   8.253   5.357  0.6524 -0.8850 -0.3076
17129SOL    HW253588   4.828   8.364   5.450  0.4289  0.2991 -1.5865
17130SOL     OW53589   2.670   3.060   9.019 -0.6825  0.5160  0.0216
17130SOL    HW153590   2.715   3.140   9.047  0.8606 -1.0782  2.5344
17130SOL    HW253591   2.607   3.043   9.089 -2.1548  0.3510 -1.3043
17131SOL     OW53592   2.706   0.745   7.340 -0.0345  0.4695  0.2903
17131SOL    HW153593   2.666   0.830   7.357 -0.4720  0.3165  0.0236
17131SOL    HW253594   2.781   0.741   7.400 -0.6993  0.5470  1.1369
17132SOL     OW53595   0.359   5.305   8.053 -0.8576 -0.0954 -0.3439
17132SOL    HW153596   0.356   5.284   8.146 -0.0427 -0.7091 -0.4493
17132SOL    HW253597   0.349   5.400   8.050 -0.2469  0.0014  0.4053
17133SOL     OW53598   8.350   6.636   0.017  0.2452  0.5064 -0.0950
17133SOL    HW153599   8.418   6.587   0.063 -0.6533 -0.8846 -0.1718
17133SOL    HW253600   8.279   6.644   0.081 -0.0838  0.6509 -0.4768
17134SOL     OW53601   1.960   3.417   5.499  0.3176 -0.0781 -0.0633
17134SOL    HW153602   1.902   3.418   5.423  0.6990 -1.0864 -0.3758
17134SOL    HW253603   2.011   3.498   5.491  1.1221 -0.6867 -1.4991
17135SOL     OW53604   1.630   5.538   5.016  0.2444 -0.1343  0.2076
17135SOL    HW153605   1.654   5.448   5.035  1.3707  0.0414 -0.2812
17135SOL    HW253606   1.668   5.589   5.088 -0.4813 -0.0513  0.5416
17136SOL     OW53607   3.952   9.028   3.033  0.2075  0.4182 -0.0688
17136SOL    HW153608   3.964   8.968   3.106 -0.1697  0.3959 -0.0199
17136SOL    HW253609   4.038   9.034   2.991  0.5428  0.7751  0.6411
17137SOL     OW53610   6.133   1.540   4.989  0.5998  0.5927  0.7868
17137SOL    HW153611   6.117   1.524   5.082  1.7680  0.0034  0.9143
17137SOL    HW253612   6.179   1.461   4.959  0.5948  0.9500 -0.1928
17138SOL     OW53613   1.811   1.688   8.396 -0.0998 -0.2650 -0.0811
17138SOL    HW153614   1.754   1.619   8.428  0.3561  0.0651  1.4942
17138SOL    HW253615   1.773   1.769   8.429  0.7969  0.0292  0.2562
17139SOL     OW53616   2.779   7.132   7.028  0.4282  0.3847 -0.1398
17139SOL    HW153617   2.735   7.196   7.084 -0.5742 -0.3465 -0.0648
17139SOL    HW253618   2.847   7.094   7.084 -1.4355 -1.3144  1.0887
17140SOL     OW53619   2.132   6.430   1.725  0.3152  0.5964  0.0797
17140SOL    HW153620   2.079   6.481   1.664 -0.2669  0.8664  0.7902
17140SOL    HW253621   2.139   6.485   1.803 -1.1329 -0.7514  1.2341
17141SOL     OW53622   0.219   3.186   1.596 -0.5649  0.3269  0.7629
17141SOL    HW153623   0.257   3.129   1.662 -0.2264 -2.0327 -1.3218
17141SOL    HW253624   0.127   3.160   1.591  0.0379 -1.7338 -1.6798
17142SOL     OW53625   2.200   6.527   3.594  0.5738 -0.2929  0.4480
17142SOL    HW153626   2.191   6.588   3.668  1.6186  0.0949  0.2578
17142SOL    HW253627   2.152   6.569   3.523  0.7324 -0.0094  0.5067
17143SOL     OW53628   4.457   4.391   5.015 -0.1771  0.3148 -0.4692
17143SOL    HW153629   4.515   4.335   5.066  0.6374 -0.4567 -2.1438
17143SOL    HW253630   4.398   4.331   4.970  1.7914  0.4733 -3.6425
17144SOL     OW53631   4.698   8.936   8.941  0.1085  0.2464 -0.0135
17144SOL    HW153632   4.686   8.990   9.020  0.4031  1.5265 -0.8125
17144SOL    HW253633   4.613   8.940   8.897  0.9338  2.5798 -1.5682
17145SOL     OW53634   4.256   0.055   5.373 -0.2298 -0.4811  0.5483
17145SOL    HW153635   4.252   0.132   5.317  1.4872 -0.1464  0.8288
17145SOL    HW253636   4.165   0.027   5.382 -0.8523  1.2569  0.0955
17146SOL     OW53637   3.699   4.583   1.811 -0.4330 -0.0056  0.2456
17146SOL    HW153638   3.662   4.665   1.845  1.6847  0.8084  0.7610
17146SOL    HW253639   3.752   4.609   1.736  2.3315 -0.4512  1.9161
17147SOL     OW53640   6.475   3.859   7.088  0.3463  0.2685 -0.0476
17147SOL    HW153641   6.398   3.808   7.114  1.6747 -1.4803  0.6602
17147SOL    HW253642   6.540   3.793   7.063  1.9324  1.6461  0.2704
17148SOL     OW53643   8.865   6.206   4.168 -0.0921  0.0788 -0.2775
17148SOL    HW153644   8.949   6.177   4.133  0.0994 -0.1306  0.3465
17148SOL    HW253645   8.887   6.280   4.225 -0.3346  0.0476 -0.1416
17149SOL     OW53646   1.542   2.038   5.372  0.4053  0.0861  0.3971
17149SOL    HW153647   1.519   2.114   5.317  1.9528  1.6028  1.7433
17149SOL    HW253648   1.466   2.027   5.430 -1.0885 -1.3042 -1.6551
17150SOL     OW53649   5.402   4.172   6.676  0.3965  0.2443  0.6943
17150SOL    HW153650   5.471   4.160   6.741  0.3884  0.3710  0.7261
17150SOL    HW253651   5.446   4.214   6.602  0.6661 -0.9368  0.1470
17151SOL     OW53652   7.921   9.069   4.564  0.1009 -0.1010  0.2142
17151SOL    HW153653   7.961   9.154   4.544  0.4844  0.1361  1.8087
17151SOL    HW253654   7.994   9.008   4.568  0.0465 -0.1300  0.8617
17152SOL     OW53655   1.688   5.175   6.348 -0.3657  0.6856  0.1105
17152SOL    HW153656   1.735   5.255   6.324 -1.5468  2.1799  2.3161
17152SOL    HW253657   1.624   5.163   6.278  0.3002  1.2525 -0.6171
17153SOL     OW53658   8.387   3.321   1.900  0.2969  0.3871 -0.8415
17153SOL    HW153659   8.478   3.317   1.869  0.5760  0.7579 -0.0953
17153SOL    HW253660   8.358   3.230   1.903  0.9479  0.1904 -0.2164
17154SOL     OW53661   2.780   3.111   4.928  0.4381  0.0056 -0.3120
17154SOL    HW153662   2.775   3.134   4.835 -1.2540  0.7864 -0.0773
17154SOL    HW253663   2.817   3.189   4.970 -1.2232  0.7012 -0.0516
17155SOL     OW53664   1.186   8.175   1.350  0.0943  0.2420  0.1289
17155SOL    HW153665   1.271   8.193   1.309  0.9928 -0.0822  1.7326
17155SOL    HW253666   1.203   8.098   1.405 -1.0319  0.6642  1.0947
17156SOL     OW53667   2.782   6.669   0.884 -0.0289  0.3351 -0.7884
17156SOL    HW153668   2.710   6.663   0.821  0.8616 -0.7712 -1.7730
17156SOL    HW253669   2.846   6.727   0.842  1.6061 -2.2068 -2.1085
17157SOL     OW53670   2.400   6.830   4.147 -0.7330 -0.3061 -0.2614
17157SOL    HW153671   2.404   6.795   4.235 -1.8688 -1.4519 -0.6334
17157SOL    HW253672   2.309   6.857   4.136 -1.6669 -3.5928 -2.2488
17158SOL     OW53673   4.472   5.149   4.480  0.0330 -0.4354 -0.0473
17158SOL    HW153674   4.465   5.178   4.571  0.5047  2.4493 -0.8388
17158SOL    HW253675   4.565   5.159   4.459 -0.3030  0.4077 -1.2435
17159SOL     OW53676   0.014   9.016   4.759  0.0650  0.1643 -0.2665
17159SOL    HW153677   0.011   9.108   4.733  0.4370 -0.1758 -1.6145
17159SOL    HW253678  -0.061   8.976   4.715  0.3690 -0.3340 -0.3406
17160SOL     OW53679   0.894   7.907   4.531  0.5012 -0.9176 -0.6297
17160SOL    HW153680   0.866   7.884   4.442 -2.6803 -0.4257  0.1347
17160SOL    HW253681   0.814   7.908   4.582  1.8202  1.7035  1.6443
17161SOL     OW53682   1.501   4.370   2.133  0.0793 -0.3791 -0.3901
17161SOL    HW153683   1.534   4.281   2.125  0.1696 -0.5765  1.7542
17161SOL    HW253684   1.519   4.410   2.048  0.6026 -2.1950 -1.1786
17162SOL     OW53685   2.987   3.734   7.675  0.7183 -0.1907  0.0933
17162SOL    HW153686   3.077   3.763   7.663  0.2309  0.8570 -1.3373
17162SOL    HW253687   2.980   3.652   7.626  0.8741 -0.2345  0.1454
17163SOL     OW53688   0.335   5.450   7.635  0.1639  0.7310 -0.3025
17163SOL    HW153689   0.314   5.543   7.648  1.8255  0.9667  0.9198
17163SOL    HW253690   0.322   5.437   7.541 -1.0826  1.9297 -0.3376
17164SOL     OW53691   2.814   8.865   7.603 -0.2668  0.3230  0.0790
17164SOL    HW153692   2.747   8.931   7.585  0.4249  0.8313 -0.7345
17164SOL    HW253693   2.766   8.786   7.625 -1.1205  1.1701  1.3587
17165SOL     OW53694   0.934   1.158   5.891  0.3555 -0.6911  0.2910
17165SOL    HW153695   1.007   1.106   5.859 -1.6415 -3.6651  0.1213
17165SOL    HW253696   0.951   1.170   5.984  1.9586  0.3909 -0.1095
17166SOL     OW53697   6.084   4.428   2.714 -0.0169  0.1376 -0.0595
17166SOL    HW153698   6.148   4.393   2.776  1.5379 -1.9042 -2.5841
17166SOL    HW253699   6.129   4.500   2.671 -0.4530  0.4554  0.0082
17167SOL     OW53700   7.891   4.365   3.737  0.2733  0.1395  0.8704
17167SOL    HW153701   7.876   4.304   3.809 -0.7597  0.5391  1.0085
17167SOL    HW253702   7.812   4.419   3.734 -1.0794 -1.6902 -2.3826
17168SOL     OW53703   2.403   3.185   7.941 -0.4509 -0.2011  0.1343
17168SOL    HW153704   2.327   3.217   7.893 -2.5009 -2.7420  1.4649
17168SOL    HW253705   2.439   3.116   7.886  0.5903  0.5737 -0.1987
17169SOL     OW53706   2.226   1.692   5.595  0.0683  0.1139  0.2438
17169SOL    HW153707   2.157   1.725   5.537 -0.3642  1.1418  1.2908
17169SOL    HW253708   2.292   1.656   5.535 -0.4666  0.9131 -0.8816
17170SOL     OW53709   2.604   6.265   3.943  0.1342 -0.2961 -0.0853
17170SOL    HW153710   2.597   6.184   3.994  0.5794 -0.5623 -0.4361
17170SOL    HW253711   2.667   6.319   3.991  0.4619 -0.4974 -0.2868
17171SOL     OW53712   4.570   2.137   0.155  0.2098 -0.3718  0.1305
17171SOL    HW153713   4.507   2.192   0.201  1.1578  1.5383 -0.7390
17171SOL    HW253714   4.646   2.193   0.141  1.7300 -2.2855  0.2337
17172SOL     OW53715   9.382   2.677   4.653  0.2758 -0.1786 -0.2314
17172SOL    HW153716   9.393   2.772   4.655  0.8220 -0.2477  1.9025
17172SOL    HW253717   9.432   2.645   4.728 -1.0130 -2.0357 -0.0898
17173SOL     OW53718   2.907   8.524   4.278 -0.3777  0.1887 -0.4017
17173SOL    HW153719   2.895   8.526   4.183  2.2891  1.3619 -0.7989
17173SOL    HW253720   2.948   8.439   4.294  1.3488  0.9406 -0.6674
17174SOL     OW53721   5.314   0.626   3.226  0.2694  0.2371 -0.3495
17174SOL    HW153722   5.409   0.620   3.214  0.6561  1.6724  1.3962
17174SOL    HW253723   5.300   0.600   3.317 -1.4409 -2.7722 -1.3361
17175SOL     OW53724   3.827   3.354   1.978 -0.1494  0.0423  0.4399
17175SOL    HW153725   3.803   3.281   2.035  0.3368 -0.8119 -0.4176
17175SOL    HW253726   3.752   3.413   1.982 -1.2389 -1.2518 -0.0593
17176SOL     OW53727   1.948   3.846   7.666 -0.2377 -0.4683 -0.2739
17176SOL    HW153728   1.864   3.827   7.625 -0.2442 -2.3024  0.5260
17176SOL    HW253729   1.935   3.932   7.707 -1.4056 -0.2952 -0.9468
17177SOL     OW53730   9.040   5.628   4.574 -0.4817 -0.0038 -0.0596
17177SOL    HW153731   9.119   5.583   4.603  0.4443 -0.2088 -2.6229
17177SOL    HW253732   9.068   5.680   4.499 -2.4688  1.2262 -0.0222
17178SOL     OW53733   2.056   3.623   8.253  0.1425 -0.1885 -0.4164
17178SOL    HW153734   2.117   3.694   8.234  1.0323 -1.0890 -1.0190
17178SOL    HW253735   2.112   3.547   8.269 -0.6216 -0.1238  3.3441
17179SOL     OW53736   6.829   8.205   3.032 -0.8263  0.0199  0.3138
17179SOL    HW153737   6.772   8.148   2.981  0.9294 -0.5839 -1.0706
17179SOL    HW253738   6.790   8.205   3.120 -1.4950 -2.4680  0.0992
17180SOL     OW53739   4.279   3.567   4.564  0.0279 -0.1316 -0.4138
17180SOL    HW153740   4.260   3.516   4.486 -0.8044  0.3051 -0.5120
17180SOL    HW253741   4.329   3.643   4.532 -1.1297  0.5439 -0.6797
17181SOL     OW53742   8.019   1.022   5.464  0.3332  0.4543 -0.2444
17181SOL    HW153743   7.931   1.024   5.425  0.3042  2.0136 -0.1668
17181SOL    HW253744   8.077   1.003   5.390  0.1842  2.4303 -0.9304
17182SOL     OW53745   1.345   7.875   0.107 -0.1551 -0.2788 -0.4976
17182SOL    HW153746   1.306   7.926   0.178  1.9404  0.3845  0.2492
17182SOL    HW253747   1.273   7.858   0.046 -1.1888  2.5950 -0.2017
17183SOL     OW53748   0.807   8.540   4.962 -0.0424 -0.3194 -0.2215
17183SOL    HW153749   0.760   8.622   4.979 -0.0802 -0.2242 -0.7620
17183SOL    HW253750   0.744   8.486   4.915 -0.4365 -1.1350  1.1657
17184SOL     OW53751   4.478   0.991   9.465 -0.0556 -0.0137  0.1048
17184SOL    HW153752   4.443   0.954   9.383 -1.1732 -0.6683  0.8448
17184SOL    HW253753   4.432   0.943   9.534  0.3592  1.0099  1.1239
17185SOL     OW53754   1.171   6.062   3.280 -0.5041 -0.3953  0.3109
17185SOL    HW153755   1.229   6.101   3.346 -0.3930  1.2278 -0.6968
17185SOL    HW253756   1.194   5.969   3.281  0.7493 -0.1133  1.2989
17186SOL     OW53757   9.080   8.296   2.340 -0.3825 -0.0993  0.4228
17186SOL    HW153758   9.057   8.244   2.417  0.8539 -1.7638 -0.2778
17186SOL    HW253759   9.052   8.385   2.362  0.4263 -0.4089  3.0240
17187SOL     OW53760   8.617   7.736   8.994 -0.4584  0.1617 -0.5486
17187SOL    HW153761   8.552   7.679   8.953  0.6060 -0.9467 -0.7713
17187SOL    HW253762   8.701   7.693   8.976  0.1853  0.5595  1.3191
17188SOL     OW53763   9.182   9.159   2.067 -0.1198  0.2536 -0.0736
17188SOL    HW153764   9.158   9.251   2.075 -2.0527  0.0308 -2.3605
17188SOL    HW253765   9.114   9.121   2.012  2.1904 -1.9268 -1.6395
17189SOL     OW53766   5.041   5.035   3.784 -0.1060 -0.4155 -0.5603
17189SOL    HW153767   5.059   4.949   3.823  0.9835 -0.1900 -0.5362
17189SOL    HW253768   5.020   5.017   3.693  2.0176 -0.5957 -1.0709
17190SOL     OW53769   0.778   9.568   3.187  0.1005  0.1609 -0.1959
17190SOL    HW153770   0.740   9.483   3.210  0.6406 -0.0046  0.1294
17190SOL    HW253771   0.836   9.588   3.261  1.0737  0.1190 -0.9202
17191SOL     OW53772   6.968   4.530   3.118 -0.2803 -0.6398 -0.1106
17191SOL    HW153773   6.888   4.572   3.087  1.1746  2.0298 -0.5204
17191SOL    HW253774   7.011   4.499   3.038 -0.5641 -1.5564  0.0682
17192SOL     OW53775   5.597   8.109   8.075  0.0645  0.5800 -0.3732
17192SOL    HW153776   5.522   8.103   8.134 -0.0972 -1.1666 -0.7034
17192SOL    HW253777   5.587   8.035   8.015  1.2820  1.1618 -1.3535
17193SOL     OW53778   8.949   7.904   8.247 -0.5921 -0.2531  0.1463
17193SOL    HW153779   9.040   7.923   8.267 -0.3858 -0.3187 -0.6865
17193SOL    HW253780   8.900   7.979   8.280 -0.1070  0.3413 -0.4642
17194SOL     OW53781   6.117   7.102   4.581 -0.5726  0.0219  0.1998
17194SOL    HW153782   6.121   7.058   4.496  2.6149  0.4385  0.0264
17194SOL    HW253783   6.103   7.031   4.644  1.3799 -0.9257 -0.3490
17195SOL     OW53784   5.951   1.773   8.504  0.4294 -0.3142 -0.3387
17195SOL    HW153785   5.972   1.786   8.411  1.1834 -1.0751 -0.2871
17195SOL    HW253786   6.032   1.738   8.542  0.1960  0.1833  0.6521
17196SOL     OW53787   3.632   7.977   3.293  0.4124 -0.4034  0.0708
17196SOL    HW153788   3.593   7.951   3.377  1.4489  0.3672  0.8228
17196SOL    HW253789   3.590   8.061   3.272  0.1276 -0.6133 -0.2063
17197SOL     OW53790   1.979   0.207   3.333  0.5392  0.1295 -0.3170
17197SOL    HW153791   2.030   0.245   3.261  0.3374 -0.4353 -0.7596
17197SOL    HW253792   1.923   0.279   3.361  1.3183  0.6543 -0.0573
17198SOL     OW53793   5.731   9.014   4.837 -0.0609 -0.5523  0.7527
17198SOL    HW153794   5.636   9.002   4.846 -0.0935 -0.2393  0.8523
17198SOL    HW253795   5.756   8.951   4.769 -0.7435  1.0266 -1.0677
17199SOL     OW53796   8.156   2.095   4.792  0.0982 -0.1116  0.1323
17199SOL    HW153797   8.221   2.122   4.857 -0.1624 -1.4502  1.0016
17199SOL    HW253798   8.143   2.001   4.810 -1.3339 -0.0897 -0.6695
17200SOL     OW53799   2.212   6.556   4.063 -0.2505 -0.6045  0.1581
17200SOL    HW153800   2.287   6.500   4.084  0.6693  0.0546 -1.1799
17200SOL    HW253801   2.183   6.590   4.148  1.0676 -0.7770  0.7136
17201SOL     OW53802   7.920   6.544   4.587  0.4561  0.1282  0.2797
17201SOL    HW153803   7.893   6.631   4.556 -1.9527 -0.6573 -0.0880
17201SOL    HW253804   7.841   6.490   4.576  2.6437 -2.9158 -2.4738
17202SOL     OW53805   6.922   2.377   3.537  0.2940  0.8098  0.0499
17202SOL    HW153806   6.960   2.374   3.449  0.7264  0.7336  0.2334
17202SOL    HW253807   6.973   2.445   3.582  0.9285 -0.0296  0.6207
17203SOL     OW53808   9.354   0.784   6.333 -0.4619  0.0135  0.2189
17203SOL    HW153809   9.437   0.831   6.342 -1.9357  2.7285  1.1646
17203SOL    HW253810   9.366   0.703   6.382  2.3619 -0.9300 -1.7775
17204SOL     OW53811   5.421   4.950   4.183  0.2233  0.3184  0.6091
17204SOL    HW153812   5.347   4.893   4.204 -0.5614  0.4476 -1.4912
17204SOL    HW253813   5.406   5.029   4.235 -0.2918 -0.2435  1.3329
17205SOL     OW53814   3.767   8.861   3.918  0.1486 -0.3305 -0.0883
17205SOL    HW153815   3.717   8.829   3.843  1.3216 -1.5057 -0.3887
17205SOL    HW253816   3.738   8.952   3.928 -1.6569 -0.8020 -0.5553
17206SOL     OW53817   5.499   0.219   9.549  0.1769 -0.0619  0.6572
17206SOL    HW153818   5.486   0.309   9.578 -1.2565 -0.2026  0.5024
17206SOL    HW253819   5.416   0.175   9.567  1.0299 -1.5026  1.2168
17207SOL     OW53820   6.386   7.359   5.800 -0.1087 -0.1826 -1.1079
17207SOL    HW153821   6.366   7.303   5.725 -1.3285  0.0524 -0.9784
17207SOL    HW253822   6.332   7.437   5.787 -0.5112 -0.2354  0.1236
17208SOL     OW53823   0.462   9.309   0.705 -0.2344  0.1019 -0.0612
17208SOL    HW153824   0.399   9.311   0.776  0.9129  0.8788  0.9758
17208SOL    HW253825   0.506   9.225   0.714 -0.2027  0.1305  0.0479
17209SOL     OW53826   2.193   6.605   1.920 -0.5351 -0.0960 -0.1099
17209SOL    HW153827   2.127   6.668   1.950  1.4758  1.8940  0.3631
17209SOL    HW253828   2.200   6.542   1.992 -1.5671 -0.0867  0.0174
17210SOL     OW53829   7.797   7.798   1.874  0.2671 -0.5486  0.4189
17210SOL    HW153830   7.814   7.817   1.782 -1.0352  0.9844  0.4601
17210SOL    HW253831   7.805   7.703   1.881 -1.2454 -0.8855 -1.6438
17211SOL     OW53832   9.406   7.877   2.617  0.5643 -0.1255  0.4566
17211SOL    HW153833   9.338   7.817   2.648 -0.3764 -0.5506 -2.1429
17211SOL    HW253834   9.473   7.820   2.578 -0.1685  0.4008 -1.7222
17212SOL     OW53835   8.590   9.476   6.270  0.1607  0.0575 -0.2248
17212SOL    HW153836   8.567   9.564   6.299  0.1222 -0.2653  0.7603
17212SOL    HW253837   8.506   9.434   6.250  0.0618 -0.2490  0.7917
17213SOL     OW53838   3.312   2.757   2.443  0.5758 -0.0903  0.1511
17213SOL    HW153839   3.267   2.841   2.438 -1.0883 -1.0007 -1.1991
17213SOL    HW253840   3.355   2.758   2.529  1.6386  2.6038 -0.3093
17214SOL     OW53841   1.498   6.932   8.412  0.4341  0.1408  0.2716
17214SOL    HW153842   1.474   7.013   8.366 -0.0470 -1.3810 -2.3007
17214SOL    HW253843   1.419   6.879   8.410  1.0399 -0.8230  1.0411
17215SOL     OW53844   7.282   9.543   3.268  0.2198 -0.2216 -0.2850
17215SOL    HW153845   7.374   9.520   3.279  0.1585  0.0281  0.9094
17215SOL    HW253846   7.277   9.633   3.299  0.1401  0.9387 -3.2888
17216SOL     OW53847   5.872   2.904   1.726 -0.1725 -0.2257 -0.1449
17216SOL    HW153848   5.939   2.971   1.736 -1.5373  1.5424 -1.9940
17216SOL    HW253849   5.844   2.885   1.816  1.8839 -0.1153  0.5710
17217SOL     OW53850   0.527   3.335   9.432  0.4052  0.1875  0.4547
17217SOL    HW153851   0.586   3.313   9.360 -0.6718  0.6801 -0.6157
17217SOL    HW253852   0.582   3.334   9.510  1.4396 -1.1355 -0.2619
17218SOL     OW53853   0.118   0.752   0.067 -0.5443 -0.0916  0.0554
17218SOL    HW153854   0.061   0.814   0.112 -0.3092  0.2069 -0.0593
17218SOL    HW253855   0.205   0.790   0.072 -0.3555 -0.5281  0.1912
17219SOL     OW53856   2.965   3.587   9.541 -0.4267  0.7424  0.0052
17219SOL    HW153857   2.962   3.517   9.476 -1.2221 -0.7676  1.5815
17219SOL    HW253858   3.056   3.617   9.540  0.4234 -1.5947  0.5309
17220SOL     OW53859   0.898   0.113   7.159  0.1068 -0.1303 -0.6575
17220SOL    HW153860   0.983   0.091   7.119  0.5564  0.4177 -0.0100
17220SOL    HW253861   0.834   0.080   7.096  0.7783 -1.7520 -0.5411
17221SOL     OW53862   0.315   9.443   0.932 -0.4838  0.8022  0.3723
17221SOL    HW153863   0.370   9.495   0.990  0.0945  0.5032  0.1033
17221SOL    HW253864   0.285   9.504   0.865 -1.4463  1.2310  1.1698
17222SOL     OW53865   8.731   4.977   0.905  0.1705 -0.2670 -0.6072
17222SOL    HW153866   8.786   5.026   0.844  0.0660  0.6926  0.0528
17222SOL    HW253867   8.642   4.998   0.879  0.1175  0.9225  0.4583
17223SOL     OW53868   9.255   8.720   2.329 -0.1326 -0.4026  0.2084
17223SOL    HW153869   9.337   8.720   2.281 -0.8492 -0.2517 -1.0790
17223SOL    HW253870   9.257   8.799   2.382 -0.6633  1.2304 -2.0639
17224SOL     OW53871   2.666   0.334   1.464 -0.3119 -0.2912  0.0009
17224SOL    HW153872   2.604   0.273   1.423  1.0040 -0.6283 -1.5858
17224SOL    HW253873   2.684   0.296   1.550 -1.7517 -0.5417  0.2227
17225SOL     OW53874   7.766   4.172   1.569 -0.6717  0.3619 -0.1703
17225SOL    HW153875   7.734   4.151   1.656 -1.0066 -1.4032 -0.6783
17225SOL    HW253876   7.839   4.111   1.555 -0.3250  0.9376 -0.9542
17226SOL     OW53877   2.618   9.214   8.364 -0.1265 -0.0015 -0.3270
17226SOL    HW153878   2.598   9.292   8.312  0.2426 -0.2054 -0.7776
17226SOL    HW253879   2.682   9.166   8.312 -1.0718 -1.1005 -0.5186
17227SOL     OW53880   4.873   7.975   3.477 -0.1011  0.1228 -0.2332
17227SOL    HW153881   4.930   7.912   3.432  0.5458 -0.6155  1.5288
17227SOL    HW253882   4.788   7.930   3.481 -0.3544  0.4748 -1.2624
17228SOL     OW53883   0.907   8.480   3.662  0.1344  0.0714 -0.2785
17228SOL    HW153884   0.874   8.437   3.741  0.4802  1.6026  0.7233
17228SOL    HW253885   0.936   8.407   3.607 -0.1926 -1.0409  0.9542
17229SOL     OW53886   5.096   5.409   1.984  0.1137  0.7224  0.0448
17229SOL    HW153887   5.011   5.411   1.940  0.4771 -1.2586 -0.8522
17229SOL    HW253888   5.141   5.486   1.951 -0.0436 -0.0915 -2.3174
17230SOL     OW53889   1.125   9.536   5.900  0.8448 -0.1014  0.3032
17230SOL    HW153890   1.114   9.626   5.869  2.1540 -0.3009 -0.8111
17230SOL    HW253891   1.157   9.546   5.990  1.8787  0.5751 -0.1211
17231SOL     OW53892   0.859   2.794   5.221 -0.4634  0.2069 -0.2811
17231SOL    HW153893   0.779   2.828   5.261  0.5241  0.5114  1.5251
17231SOL    HW253894   0.929   2.844   5.263  0.8766 -2.2144  0.5062
17232SOL     OW53895   1.001   8.470   7.780 -0.1597  0.7582 -0.2614
17232SOL    HW153896   0.910   8.460   7.806 -0.0315  1.7344  0.6393
17232SOL    HW253897   1.012   8.564   7.770  0.9862  0.7351  0.5857
17233SOL     OW53898   0.812   5.346   2.652 -0.6181 -0.2398  0.5145
17233SOL    HW153899   0.754   5.278   2.686  0.2027 -1.3514 -0.2528
17233SOL    HW253900   0.753   5.409   2.610 -1.3926 -0.4112  1.3061
17234SOL     OW53901   8.268   0.085   1.668 -0.2848  0.0791  0.7819
17234SOL    HW153902   8.246   0.009   1.721 -0.5853  0.0301  0.5929
17234SOL    HW253903   8.185   0.110   1.627 -0.1901  0.5063  0.8394
17235SOL     OW53904   2.520   0.353   5.226  0.3987  0.1265 -0.3066
17235SOL    HW153905   2.496   0.274   5.179  1.7969 -0.7308  0.3666
17235SOL    HW253906   2.536   0.324   5.315 -1.3256  1.5794  0.5503
17236SOL     OW53907   5.817   0.997   9.295  0.7128 -0.7402 -0.3899
17236SOL    HW153908   5.751   0.953   9.348  0.2093 -0.8903 -1.1309
17236SOL    HW253909   5.779   1.083   9.275  0.7571 -0.8130 -0.7876
17237SOL     OW53910   4.880   3.098   6.613  0.0062 -0.2583 -0.3479
17237SOL    HW153911   4.953   3.036   6.618  1.4746  1.2100 -2.0756
17237SOL    HW253912   4.802   3.043   6.623  1.2804 -1.9622  1.0698
17238SOL     OW53913   1.063   0.383   6.979  0.0888 -0.1654 -0.9525
17238SOL    HW153914   0.972   0.375   7.007 -0.0010 -1.1682 -1.4884
17238SOL    HW253915   1.108   0.419   7.055 -0.2253 -2.4036  0.3704
17239SOL     OW53916   5.542   4.958   4.470  0.2289  0.2837 -0.1995
17239SOL    HW153917   5.612   5.022   4.482  0.8244 -0.4007  0.0052
17239SOL    HW253918   5.471   4.989   4.527  0.9455  0.1358  0.7923
17240SOL     OW53919   2.100   2.286   1.073 -0.7754  0.1275 -0.3348
17240SOL    HW153920   2.075   2.323   0.988  1.1969  1.6371 -0.3324
17240SOL    HW253921   2.185   2.325   1.091  0.1359 -2.3414  1.0551
17241SOL     OW53922   2.649   2.004   4.054  0.1864  0.5878  0.6018
17241SOL    HW153923   2.596   1.973   3.981  0.8976  1.1790 -0.1935
17241SOL    HW253924   2.595   2.071   4.096  0.0508  0.7473  0.1825
17242SOL     OW53925   7.321   0.500   1.997  0.0784  0.0106  0.0411
17242SOL    HW153926   7.355   0.415   1.969  2.6731  0.9287  0.1094
17242SOL    HW253927   7.370   0.564   1.944  1.5234  1.6064  3.0629
17243SOL     OW53928   4.248   8.016   0.696 -0.1450 -0.1609  0.3901
17243SOL    HW153929   4.231   7.955   0.768  1.3845 -1.2110 -0.0799
17243SOL    HW253930   4.165   8.062   0.684 -1.0689 -1.4551  1.4272
17244SOL     OW53931   1.410   5.377   3.414 -0.0755 -0.2959  0.6193
17244SOL    HW153932   1.439   5.418   3.495 -0.0215  0.4306  0.2369
17244SOL    HW253933   1.481   5.391   3.352 -0.3833 -0.2850  0.2590
17245SOL     OW53934   9.168   8.423   6.022  0.2736  0.1578 -0.2556
17245SOL    HW153935   9.097   8.427   5.959  1.0434  0.5697 -1.1269
17245SOL    HW253936   9.129   8.384   6.100 -0.8583  0.2382 -0.7611
17246SOL     OW53937   0.753   8.024   7.503  0.4648  0.4761  0.1139
17246SOL    HW153938   0.763   8.101   7.560  1.7033  0.9428 -0.6788
17246SOL    HW253939   0.666   8.032   7.466  0.9561  2.1144 -0.7818
17247SOL     OW53940   1.262   7.324   5.098  0.2328  0.0773 -0.4027
17247SOL    HW153941   1.304   7.240   5.078  0.5756  0.5012 -1.5555
17247SOL    HW253942   1.237   7.317   5.190 -0.8908 -1.7622 -0.8066
17248SOL     OW53943   4.110   8.543   4.292 -0.1391 -0.7469 -0.5285
17248SOL    HW153944   4.094   8.548   4.198  0.9582  0.5074 -0.6883
17248SOL    HW253945   4.206   8.538   4.300  0.0127  2.0612  0.5477
17249SOL     OW53946   5.892   2.150   3.248  0.4071 -0.1372 -0.4013
17249SOL    HW153947   5.958   2.199   3.298  0.1550  1.2782 -1.3915
17249SOL    HW253948   5.938   2.072   3.218  2.1767  1.4747 -2.2612
17250SOL     OW53949   3.115   1.028   6.269  0.0572 -0.2197  0.0312
17250SOL    HW153950   3.098   1.120   6.289 -0.9736 -0.4444  0.2540
17250SOL    HW253951   3.179   1.030   6.198 -0.9070  0.6932 -0.8429
17251SOL     OW53952   3.545   5.845   8.482 -0.4026  0.2571  0.2128
17251SOL    HW153953   3.485   5.782   8.523 -0.5798  0.2918  0.0080
17251SOL    HW253954   3.554   5.915   8.547  1.5938 -1.0296  1.4303
17252SOL     OW53955   1.700   2.259   2.719 -0.3474 -0.2951  0.2139
17252SOL    HW153956   1.605   2.270   2.712 -0.1140  0.9303 -2.0323
17252SOL    HW253957   1.719   2.182   2.666 -0.2216 -1.7300  2.2375
17253SOL     OW53958   4.246   7.338   2.491  0.2728  0.1352  0.4413
17253SOL    HW153959   4.156   7.359   2.469 -0.1475 -0.5790  1.3921
17253SOL    HW253960   4.298   7.376   2.421 -0.7659  0.5801 -0.1000
17254SOL     OW53961   4.646   0.145   9.378 -0.1761  0.3461 -0.2015
17254SOL    HW153962   4.650   0.207   9.450 -0.9858  0.7396 -0.4916
17254SOL    HW253963   4.636   0.059   9.421 -0.1769  0.5261  0.1634
17255SOL     OW53964   3.599   6.560   3.670 -0.6466 -0.0544 -0.3837
17255SOL    HW153965   3.610   6.653   3.693 -0.8012  0.4205 -2.0851
17255SOL    HW253966   3.586   6.560   3.575 -3.1370 -1.6044 -0.1559
17256SOL     OW53967   9.196   5.842   3.887 -0.0807 -0.6768 -0.3417
17256SOL    HW153968   9.241   5.925   3.898  1.3538 -1.5234  0.6272
17256SOL    HW253969   9.255   5.790   3.832 -0.9724 -1.0397 -0.9775
17257SOL     OW53970   2.841   0.341   4.867  0.4249 -0.7744 -0.1944
17257SOL    HW153971   2.797   0.258   4.849  0.5755 -0.9152  0.0774
17257SOL    HW253972   2.810   0.366   4.954 -2.9911  1.6097 -1.8296
17258SOL     OW53973   1.468   4.155   6.890  0.8029 -0.0449 -0.1880
17258SOL    HW153974   1.387   4.205   6.886  0.2179 -0.9742 -0.2516
17258SOL    HW253975   1.474   4.125   6.981  1.3550  0.4464 -0.0506
17259SOL     OW53976   5.343   2.626   4.378 -0.9348 -0.3823 -0.2400
17259SOL    HW153977   5.399   2.635   4.455 -0.5331  3.3959 -0.7578
17259SOL    HW253978   5.404   2.619   4.305 -1.1153  1.2264 -0.5865
17260SOL     OW53979   5.068   7.100   8.679 -0.1623 -0.0810 -0.0293
17260SOL    HW153980   5.105   7.018   8.647  1.5268  0.6754 -0.1476
17260SOL    HW253981   5.032   7.078   8.765  0.4243 -0.9183  0.0179
17261SOL     OW53982   9.304   0.553   6.706 -0.0627 -0.2627  0.1276
17261SOL    HW153983   9.272   0.562   6.617 -3.6675 -1.1622  1.1944
17261SOL    HW253984   9.339   0.464   6.710 -0.4334 -0.4250 -0.2223
17262SOL     OW53985   0.393   3.932   6.816  0.1027  0.2935  0.0318
17262SOL    HW153986   0.320   3.907   6.759 -0.9051  1.2672  0.8510
17262SOL    HW253987   0.453   3.858   6.812 -0.7179 -0.3450 -1.0074
17263SOL     OW53988   8.948   1.642   8.636  0.6895  0.1060  0.4147
17263SOL    HW153989   8.900   1.644   8.554 -2.1215 -1.5611  1.8908
17263SOL    HW253990   9.005   1.566   8.629 -0.6755 -0.9606  0.5423
17264SOL     OW53991   1.962   8.292   1.787  0.0650 -0.4881  0.1674
17264SOL    HW153992   1.897   8.358   1.763 -0.0889  0.5049  2.9254
17264SOL    HW253993   1.915   8.209   1.781 -1.4451  0.1733  1.7457
17265SOL     OW53994   2.514   4.820   8.788  0.2372  0.6203  0.1815
17265SOL    HW153995   2.485   4.751   8.729  1.9916 -0.0505  0.0469
17265SOL    HW253996   2.577   4.871   8.736 -0.3017  1.7524  0.5946
17266SOL     OW53997   2.767   0.638   5.727 -0.2103  0.1296  0.6343
17266SOL    HW153998   2.706   0.567   5.749  0.8327 -0.5204  1.5721
17266SOL    HW253999   2.719   0.718   5.746 -0.7290 -0.3762  1.5516
17267SOL     OW54000   8.095   2.357   9.036 -0.0106  0.6033  0.8165
17267SOL    HW154001   8.155   2.422   9.000  0.8031 -0.3889  0.3314
17267SOL    HW254002   8.096   2.372   9.130  1.7880 -0.0216  0.9249
17268SOL     OW54003   8.799   7.776   0.189 -0.3225  0.1317 -0.0816
17268SOL    HW154004   8.707   7.763   0.208 -0.2662  1.5290  1.3782
17268SOL    HW254005   8.838   7.689   0.192 -1.3141 -0.2916  0.9260
17269SOL     OW54006   0.391   6.951   2.470 -0.3709 -0.5974  0.6072
17269SOL    HW154007   0.302   6.967   2.499 -0.6259  0.0113 -0.4644
17269SOL    HW254008   0.412   6.864   2.503 -1.3371 -0.7249  0.9052
17270SOL     OW54009   8.950   1.365   6.337  0.7741 -0.5665 -0.3127
17270SOL    HW154010   8.996   1.285   6.313 -1.2842 -2.1557  0.7396
17270SOL    HW254011   8.861   1.352   6.305  0.3842  1.3399 -0.1348
17271SOL     OW54012   6.893   1.863   6.260  0.5642 -0.3455 -0.2392
17271SOL    HW154013   6.831   1.796   6.230  2.7554 -1.6891 -2.0809
17271SOL    HW254014   6.914   1.837   6.350  0.0263 -1.0781 -0.3117
17272SOL     OW54015   1.432   1.699   5.209 -0.0821 -0.1454 -0.0030
17272SOL    HW154016   1.356   1.743   5.247  0.7420  0.8562  0.5493
17272SOL    HW254017   1.479   1.662   5.284  0.3607 -0.1263 -0.2664
17273SOL     OW54018   3.124   7.898   8.819 -0.0481  0.1237 -0.3913
17273SOL    HW154019   3.173   7.824   8.784 -0.9866 -0.8325  0.2538
17273SOL    HW254020   3.061   7.920   8.750 -0.5956 -0.4939 -0.0948
17274SOL     OW54021   1.002   0.075   4.254  0.2119  0.2321 -0.3147
17274SOL    HW154022   1.064   0.077   4.181 -1.2741  0.7319 -1.6283
17274SOL    HW254023   0.920   0.048   4.214 -0.2307 -1.3242  1.5550
17275SOL     OW54024   2.298   1.167   7.901  0.3656 -0.0211  0.3860
17275SOL    HW154025   2.299   1.193   7.809 -0.8127  1.2233  0.6978
17275SOL    HW254026   2.285   1.072   7.898 -1.9660  0.2617 -0.7503
17276SOL     OW54027   1.990   2.998   3.753 -0.6254  0.0864  0.1535
17276SOL    HW154028   1.986   3.080   3.705 -1.3020  0.2256  0.4368
17276SOL    HW254029   1.911   2.998   3.807  0.0778 -0.0891  1.2147
17277SOL     OW54030   8.342   8.714   1.810 -0.0431 -0.0907 -0.0667
17277SOL    HW154031   8.359   8.782   1.744  3.7833 -0.1039  0.6983
17277SOL    HW254032   8.424   8.665   1.816 -1.3189 -2.1690  2.4092
17278SOL     OW54033   6.729   5.472   3.449  0.4455  0.2190 -0.2188
17278SOL    HW154034   6.702   5.515   3.530  0.2959  2.7286 -1.5139
17278SOL    HW254035   6.774   5.393   3.478  0.2442  0.9351  2.2956
17279SOL     OW54036   2.671   9.555   8.785 -0.3719 -0.4404  0.8461
17279SOL    HW154037   2.694   9.643   8.814  0.4974  0.3085 -1.8339
17279SOL    HW254038   2.754   9.507   8.785 -0.2897 -0.3414 -0.5063
17280SOL     OW54039   0.866   0.297   8.376 -0.2314  0.6014  0.2566
17280SOL    HW154040   0.810   0.221   8.359 -0.4679  1.0567 -1.1614
17280SOL    HW254041   0.955   0.262   8.370 -0.3155  0.0262  1.7850
17281SOL     OW54042   4.408   9.231   2.882  0.4776 -0.0686  0.0208
17281SOL    HW154043   4.386   9.324   2.888 -0.8396 -0.2382 -1.5447
17281SOL    HW254044   4.487   9.222   2.935 -0.2139  1.6391  1.4376
17282SOL     OW54045   5.940   8.211   3.763  0.6723 -0.0288 -0.3432
17282SOL    HW154046   5.979   8.265   3.832  0.4261  2.4407 -2.0256
17282SOL    HW254047   5.859   8.178   3.802 -1.0570  3.7926 -0.2656
17283SOL     OW54048   5.743   5.037   4.914  0.4323 -0.1635  0.5199
17283SOL    HW154049   5.808   5.106   4.912  0.5319 -0.2582  0.4535
17283SOL    HW254050   5.666   5.075   4.871 -0.3183  0.7091  2.5590
17284SOL     OW54051   8.971   6.068   5.349 -0.3457 -0.1980 -0.1649
17284SOL    HW154052   8.985   6.018   5.430  0.9576  1.9316  1.0075
17284SOL    HW254053   8.958   6.158   5.378 -0.7536  0.4857 -2.3050
17285SOL     OW54054   0.751   7.779   5.547  0.3054 -0.2024  0.1749
17285SOL    HW154055   0.657   7.763   5.544  0.1723  0.7540 -1.4430
17285SOL    HW254056   0.788   7.718   5.482  0.4236  1.6237 -1.5559
17286SOL     OW54057   5.051   1.529   4.633  0.1928  0.1496  0.5519
17286SOL    HW154058   5.026   1.438   4.643 -1.1926  0.3130 -0.9922
17286SOL    HW254059   5.143   1.532   4.660  0.1786 -1.6274  0.9090
17287SOL     OW54060   9.523   0.808   5.349  0.3721  0.0332 -0.3231
17287SOL    HW154061   9.522   0.896   5.386  0.7512 -0.5094  1.0299
17287SOL    HW254062   9.601   0.805   5.294 -0.9598  1.3133 -2.4408
17288SOL     OW54063   3.580   6.456   8.332  0.6888 -0.1007 -0.2156
17288SOL    HW154064   3.592   6.502   8.249 -0.3032 -0.8934 -0.8245
17288SOL    HW254065   3.525   6.380   8.310  0.7466 -0.5505  1.0898
17289SOL     OW54066   4.186   3.036   5.066 -0.6076 -0.1818 -0.8634
17289SOL    HW154067   4.195   3.069   5.156 -3.0643 -3.2346  0.6824
17289SOL    HW254068   4.135   3.104   5.021  0.2610  1.1822  0.1137
17290SOL     OW54069   8.694   9.355   8.539 -0.1915  0.9916  0.2852
17290SOL    HW154070   8.773   9.306   8.519 -1.1865  0.1430 -1.8641
17290SOL    HW254071   8.722   9.447   8.540  0.3103  1.1769 -4.5747
17291SOL     OW54072   8.388   9.060   6.777 -0.3622 -1.0403  0.4322
17291SOL    HW154073   8.440   9.117   6.721  0.0917 -2.4056 -0.5838
17291SOL    HW254074   8.297   9.081   6.754 -0.2822  0.5185  1.3739
17292SOL     OW54075   4.340   4.578   2.926  0.0611  0.2510 -0.1863
17292SOL    HW154076   4.293   4.581   2.843 -0.5759 -1.3007  0.0646
17292SOL    HW254077   4.279   4.533   2.985  0.7294  0.8149  0.9616
17293SOL     OW54078   5.215   3.665   4.542 -0.4008  0.2638  0.3387
17293SOL    HW154079   5.147   3.622   4.490 -2.2860  1.9872  1.2193
17293SOL    HW254080   5.167   3.705   4.615  1.8047  0.1175  1.9771
17294SOL     OW54081   1.663   2.500   6.950  0.2672  0.8162  0.7589
17294SOL    HW154082   1.577   2.465   6.974  0.1854  0.7299  0.3494
17294SOL    HW254083   1.685   2.454   6.869 -0.2958  2.4576 -0.3657
17295SOL     OW54084   9.070   0.657   1.307 -0.4990 -0.3915  0.0116
17295SOL    HW154085   9.133   0.660   1.379  0.9724 -1.5770 -1.1326
17295SOL    HW254086   9.024   0.574   1.319 -0.0302 -0.7436 -0.5559
17296SOL     OW54087   7.068   0.230   2.403 -0.0577 -0.7627 -0.3922
17296SOL    HW154088   7.114   0.155   2.364  0.5092  0.0393 -1.3314
17296SOL    HW254089   7.046   0.286   2.328  2.0777  1.4219  0.4771
17297SOL     OW54090   8.218   8.388   1.608 -0.3130 -0.2516  0.0542
17297SOL    HW154091   8.279   8.440   1.555 -1.2297  1.8639  0.9470
17297SOL    HW254092   8.200   8.443   1.684  0.2064 -2.7750  2.1502
17298SOL     OW54093   3.508   5.897   7.334  0.2719  0.2206 -0.3877
17298SOL    HW154094   3.537   5.886   7.425  1.5645 -0.7295 -0.8698
17298SOL    HW254095   3.417   5.926   7.341 -0.3649 -1.8814  1.2125
17299SOL     OW54096   1.194   6.351   2.670 -0.0812 -0.1611 -0.4175
17299SOL    HW154097   1.222   6.438   2.698 -1.2116  0.3543 -0.8408
17299SOL    HW254098   1.132   6.323   2.737  0.4944 -0.7748 -0.1295
17300SOL     OW54099   6.290   2.423   5.564 -0.0494  0.4595  0.1078
17300SOL    HW154100   6.358   2.360   5.588 -0.5632 -0.8525 -1.6825
17300SOL    HW254101   6.320   2.506   5.601  1.5541 -0.4650  0.9889
17301SOL     OW54102   4.152   0.922   8.257 -0.4486 -0.1272 -0.2751
17301SOL    HW154103   4.140   0.872   8.176 -2.0883  2.0586 -1.4607
17301SOL    HW254104   4.160   0.854   8.324 -0.1005 -2.0144 -2.0876
17302SOL     OW54105   3.389   6.828   6.127 -0.2179 -0.3651 -0.1599
17302SOL    HW154106   3.305   6.782   6.123 -1.6954  2.1942 -2.2928
17302SOL    HW254107   3.386   6.877   6.209 -1.0542  0.0594 -0.4318
17303SOL     OW54108   4.492   1.124   7.987  0.0186  0.0166 -0.7598
17303SOL    HW154109   4.543   1.116   8.068  0.7466  0.0948 -1.1927
17303SOL    HW254110   4.425   1.189   8.007  0.4720  0.3710 -0.3528
17304SOL     OW54111   7.359   2.686   1.972 -0.2862  0.3802  0.2132
17304SOL    HW154112   7.356   2.629   2.049 -0.3418  0.1095  0.0134
17304SOL    HW254113   7.363   2.775   2.008 -0.5956  0.2690  0.5256
17305SOL     OW54114   3.121   8.294   6.591 -0.3130 -0.2697  0.1287
17305SOL    HW154115   3.152   8.309   6.680  0.6523  1.6258 -0.4795
17305SOL    HW254116   3.125   8.380   6.549 -1.3684 -0.9959 -1.5708
17306SOL     OW54117   0.964   0.362   4.406 -0.0163 -0.1780 -0.3718
17306SOL    HW154118   1.004   0.275   4.398 -1.2626 -0.6546 -1.8440
17306SOL    HW254119   0.876   0.351   4.371 -1.0340  1.1494  1.6188
17307SOL     OW54120   9.373   2.413   8.678  0.1474 -0.3787 -0.4082
17307SOL    HW154121   9.366   2.446   8.768 -1.8593 -0.3074 -0.5530
17307SOL    HW254122   9.460   2.373   8.674  0.5804  0.3036  1.3249
17308SOL     OW54123   4.835   3.632   0.720  0.2644 -0.2415  0.5781
17308SOL    HW154124   4.748   3.633   0.679  1.0710 -1.4654 -1.2709
17308SOL    HW254125   4.843   3.545   0.757  0.3839  0.1711  1.5651
17309SOL     OW54126   8.520   4.101   4.549  1.0679 -0.2565  0.7306
17309SOL    HW154127   8.565   4.186   4.544  1.6553 -0.4644  2.0045
17309SOL    HW254128   8.540   4.059   4.466 -0.6154  1.4886 -0.6408
17310SOL     OW54129   8.031   2.644   1.004  0.1972 -0.0301 -0.5519
17310SOL    HW154130   8.014   2.615   1.094 -1.2303 -1.8622 -1.3479
17310SOL    HW254131   8.087   2.576   0.967 -0.0482  0.1945 -1.3512
17311SOL     OW54132   4.691   5.075   9.333  0.1178  0.1407  0.4613
17311SOL    HW154133   4.720   5.125   9.409  1.0807  2.7758 -1.4591
17311SOL    HW254134   4.750   5.000   9.328  0.1972  0.0726  2.0983
17312SOL     OW54135   9.090   7.552   8.103 -0.0846 -0.0287 -0.1836
17312SOL    HW154136   9.041   7.494   8.161 -0.7787 -1.1920 -1.8504
17312SOL    HW254137   9.115   7.497   8.029  2.5331  0.8863 -0.0862
17313SOL     OW54138   5.491   0.803   5.586  0.2516 -0.2550  0.3265
17313SOL    HW154139   5.586   0.809   5.572  0.2173 -0.9774 -0.2340
17313SOL    HW254140   5.468   0.887   5.627  1.4837 -0.9290  2.5525
17314SOL     OW54141   4.032   8.544   4.040  0.1413 -0.1005 -0.0261
17314SOL    HW154142   4.100   8.551   3.973  1.4552 -1.4601  1.0910
17314SOL    HW254143   3.950   8.554   3.992  1.0640  0.1282 -1.6431
17315SOL     OW54144   8.709   7.760   1.351 -0.0821  0.2799  0.4230
17315SOL    HW154145   8.656   7.839   1.342 -0.3056  0.0948  0.1190
17315SOL    HW254146   8.708   7.720   1.264 -1.1082 -0.7919  0.8958
17316SOL     OW54147   1.802   6.678   0.634 -0.1133 -0.1128  0.1734
17316SOL    HW154148   1.717   6.646   0.603 -0.2239  1.2473 -1.0319
17316SOL    HW254149   1.819   6.626   0.712 -0.9298 -2.0965 -0.8631
17317SOL     OW54150   6.130   8.379   5.418  0.0753  0.7681 -0.1497
17317SOL    HW154151   6.098   8.394   5.507 -0.1313  0.2746 -0.1386
17317SOL    HW254152   6.165   8.290   5.420  2.1134  1.5204  0.0252
17318SOL     OW54153   6.984   4.667   2.328 -0.2563  0.6722  0.6413
17318SOL    HW154154   7.039   4.662   2.250 -1.0913 -1.1500  0.1039
17318SOL    HW254155   7.031   4.725   2.388  1.0393  1.0688 -0.7145
17319SOL     OW54156   7.064   4.131   9.415 -0.5445  0.5341  0.0192
17319SOL    HW154157   7.103   4.188   9.349 -0.2166  0.6704  0.3254
17319SOL    HW254158   7.138   4.088   9.457 -0.8283 -0.8371 -0.8372
17320SOL     OW54159   1.077   7.369   0.964  0.0788  0.1495 -0.0959
17320SOL    HW154160   1.141   7.299   0.954 -0.0868  0.1077 -0.8971
17320SOL    HW254161   0.995   7.324   0.984 -0.1275  0.0704 -1.0584
17321SOL     OW54162   5.241   6.433   2.043  0.3376 -0.3238  0.0785
17321SOL    HW154163   5.329   6.468   2.030  0.5996 -1.2616 -0.8056
17321SOL    HW254164   5.201   6.434   1.957 -0.4402 -0.1240  0.4350
17322SOL     OW54165   5.648   3.604   1.899 -0.4070  0.0043 -0.0980
17322SOL    HW154166   5.737   3.621   1.930 -0.6975  0.3292  0.6054
17322SOL    HW254167   5.593   3.618   1.977 -1.0727 -0.1515 -0.5302
17323SOL     OW54168   4.914   0.838   3.758  0.2584  0.2314  0.3676
17323SOL    HW154169   4.893   0.793   3.676 -0.9173 -0.1514  0.8564
17323SOL    HW254170   4.933   0.928   3.731 -1.2019  0.3874 -0.2368
17324SOL     OW54171   6.783   0.202   6.758 -0.4087 -0.6016 -0.1924
17324SOL    HW154172   6.822   0.278   6.714  0.6536 -0.3293  1.1542
17324SOL    HW254173   6.751   0.147   6.687 -0.8375  0.9061 -1.2146
17325SOL     OW54174   6.022   1.866   0.652  0.4575 -0.2106  0.7775
17325SOL    HW154175   6.078   1.900   0.722  1.0184  1.7117 -0.4992
17325SOL    HW254176   5.942   1.919   0.658  0.9592  0.7940 -0.6644
17326SOL     OW54177   3.572   8.803   7.359  0.0643  0.2956 -0.5049
17326SOL    HW154178   3.477   8.807   7.346 -0.0928  0.7253  0.6270
17326SOL    HW254179   3.582   8.773   7.449  1.0190 -0.4497 -0.8519
17327SOL     OW54180   1.088   4.301   6.863  0.5027 -0.1482 -0.0158
17327SOL    HW154181   1.121   4.381   6.904  2.6657  0.6410 -2.9047
17327SOL    HW254182   1.128   4.230   6.913  0.7783  0.6657  0.9414
17328SOL     OW54183   2.822   9.475   5.755  0.1733  0.4366 -0.3218
17328SOL    HW154184   2.886   9.463   5.825  0.5330  1.4165 -0.4594
17328SOL    HW254185   2.875   9.502   5.680 -0.1949 -0.6711 -1.0038
17329SOL     OW54186   7.848   4.746   3.341 -0.0318 -0.1190 -0.1007
17329SOL    HW154187   7.925   4.723   3.290 -0.3600 -0.1045 -0.6118
17329SOL    HW254188   7.776   4.702   3.296 -0.7048  1.9396 -1.1461
17330SOL     OW54189   3.246   1.922   2.412  0.5053 -0.5087  0.3384
17330SOL    HW154190   3.220   1.911   2.320  0.2620 -0.4626  0.4019
17330SOL    HW254191   3.226   1.838   2.453 -2.4147  0.4530  1.0855
17331SOL     OW54192   2.870   7.512   5.897 -0.3410  0.3837 -0.1080
17331SOL    HW154193   2.948   7.542   5.851 -1.3974  1.9712 -0.9794
17331SOL    HW254194   2.883   7.540   5.988  1.0593 -1.3600  0.2639
17332SOL     OW54195   4.766   8.296   7.115 -0.4584 -0.3326 -0.4742
17332SOL    HW154196   4.701   8.361   7.142  0.2361  1.2255 -2.2965
17332SOL    HW254197   4.834   8.301   7.183 -1.2448 -0.4696  0.3381
17333SOL     OW54198   0.516   1.769   8.352  0.0849  0.1145 -0.5475
17333SOL    HW154199   0.506   1.697   8.290 -1.5011 -1.6114  1.5774
17333SOL    HW254200   0.426   1.799   8.368  0.6171  1.7030 -0.3931
17334SOL     OW54201   6.517   2.311   4.712 -0.1919 -0.1785  0.3651
17334SOL    HW154202   6.509   2.390   4.764  2.3128 -1.7209  3.4939
17334SOL    HW254203   6.587   2.330   4.649 -0.7021  0.5723  0.0216
17335SOL     OW54204   5.496   6.503   1.994 -0.1741 -0.1735 -0.0671
17335SOL    HW154205   5.528   6.560   2.065 -0.6035  0.8121 -0.6461
17335SOL    HW254206   5.509   6.555   1.915  1.3431 -1.6945 -0.8759
17336SOL     OW54207   9.481   1.495   1.897  0.0464 -0.4625  0.3769
17336SOL    HW154208   9.466   1.406   1.868  0.1987 -0.2073 -0.5121
17336SOL    HW254209   9.568   1.494   1.937  0.2942 -0.5912 -0.1609
17337SOL     OW54210   8.538   3.604   7.451 -0.0528 -1.1100 -0.5546
17337SOL    HW154211   8.477   3.613   7.525 -0.2159 -0.4612 -0.7659
17337SOL    HW254212   8.618   3.646   7.482  0.1614 -1.6023 -0.4304
17338SOL     OW54213   8.479   6.114   0.274 -0.3428  0.1336 -0.2083
17338SOL    HW154214   8.418   6.180   0.241 -0.3236 -0.4101 -1.4100
17338SOL    HW254215   8.530   6.160   0.341 -2.4584  0.4217  1.2872
17339SOL     OW54216   3.149   9.100   7.211  0.4849  0.3137  0.3237
17339SOL    HW154217   3.089   9.039   7.253  0.9991  1.2636  2.5574
17339SOL    HW254218   3.099   9.182   7.203  0.4347  0.1854 -0.8577
17340SOL     OW54219   0.083   4.652   0.499  0.8813  0.1395  0.2469
17340SOL    HW154220   0.016   4.642   0.431  0.6764  2.1312  0.0972
17340SOL    HW254221   0.106   4.745   0.496  0.8699  0.2972  2.8822
17341SOL     OW54222   2.870   7.118   9.551  0.4201  0.3946 -0.1184
17341SOL    HW154223   2.842   7.203   9.586 -0.7660 -0.3272  0.7513
17341SOL    HW254224   2.799   7.058   9.574  0.1263 -0.3858 -2.7207
17342SOL     OW54225   2.312   7.610   5.480  0.0094 -0.1154 -0.4725
17342SOL    HW154226   2.264   7.542   5.432 -1.2948  1.2970 -1.2693
17342SOL    HW254227   2.283   7.692   5.440 -2.3604  1.3482  3.5796
17343SOL     OW54228   4.443   5.653   8.660  0.0645 -0.0922  0.2624
17343SOL    HW154229   4.357   5.669   8.619 -1.2042  0.5780  2.9471
17343SOL    HW254230   4.506   5.673   8.592 -1.8638 -2.7074 -2.5651
17344SOL     OW54231   8.475   2.615   4.964 -0.1457 -0.0277 -0.1612
17344SOL    HW154232   8.440   2.644   4.880 -1.7904 -0.6928  0.2520
17344SOL    HW254233   8.489   2.521   4.953 -1.7014 -0.3843  0.7189
17345SOL     OW54234   7.296   4.892   3.642 -0.1675  0.2789  0.0158
17345SOL    HW154235   7.219   4.899   3.699 -0.7041 -0.2008 -0.6289
17345SOL    HW254236   7.355   4.833   3.688 -1.5356 -1.9411 -0.8752
17346SOL     OW54237   1.758   4.602   4.449  0.0343  0.5265 -0.3767
17346SOL    HW154238   1.820   4.565   4.386 -2.2391 -0.0081 -2.4544
17346SOL    HW254239   1.709   4.526   4.482  0.9700  0.8381  1.8796
17347SOL     OW54240   5.522   6.976   3.426  0.4836 -0.2559  0.2457
17347SOL    HW154241   5.569   7.055   3.399  0.2508  0.6992  2.4881
17347SOL    HW254242   5.430   6.995   3.407  0.6453 -1.0566 -1.5905
17348SOL     OW54243   7.822   1.552   0.549 -0.5692  0.0381 -0.4505
17348SOL    HW154244   7.859   1.497   0.618  1.6267  1.5563 -0.3341
17348SOL    HW254245   7.808   1.492   0.476 -0.4347 -1.0935  0.4271
17349SOL     OW54246   1.215   0.202   8.671 -0.6576 -0.7158  0.4502
17349SOL    HW154247   1.241   0.210   8.579 -2.3470  0.0042  0.0124
17349SOL    HW254248   1.126   0.237   8.675 -0.1488  0.5688  2.6081
17350SOL     OW54249   4.376   1.590   3.412  0.8232 -0.2380  0.0842
17350SOL    HW154250   4.431   1.542   3.474 -0.4083 -1.2451  0.4428
17350SOL    HW254251   4.358   1.526   3.342 -3.3706 -1.5410  2.0362
17351SOL     OW54252   7.987   5.428   5.740 -0.4701  0.7318  0.0870
17351SOL    HW154253   7.901   5.453   5.774  0.7289  2.6545  1.9697
17351SOL    HW254254   7.987   5.458   5.649 -1.5814  1.3001  0.2617
17352SOL     OW54255   0.963   2.411   0.546 -0.3426  0.1425 -0.0790
17352SOL    HW154256   0.877   2.375   0.568 -0.5466  1.1237  0.8356
17352SOL    HW254257   0.979   2.383   0.456 -0.8992 -1.3936  0.2695
17353SOL     OW54258   8.127   8.478   3.105 -0.1620 -0.4637  0.3946
17353SOL    HW154259   8.189   8.406   3.101 -0.0376 -0.4483  1.5433
17353SOL    HW254260   8.181   8.555   3.125 -0.2587  0.0095 -1.0683
17354SOL     OW54261   2.662   6.940   6.879 -0.1593 -0.0746 -0.2538
17354SOL    HW154262   2.702   7.012   6.929 -2.0142  1.4877 -0.9117
17354SOL    HW254263   2.568   6.957   6.883 -0.4677 -0.4971 -3.2996
17355SOL     OW54264   1.202   5.628   8.796 -0.0420  0.0248 -0.0324
17355SOL    HW154265   1.164   5.560   8.740  0.4904  0.0688 -0.4615
17355SOL    HW254266   1.136   5.696   8.801  0.2468  0.4426 -1.3863
17356SOL     OW54267   6.394   7.612   5.546 -0.2888  0.5104  0.2451
17356SOL    HW154268   6.424   7.549   5.481  1.2046  2.5435 -1.1458
17356SOL    HW254269   6.466   7.619   5.608 -1.1492 -0.3655  1.4009
17357SOL     OW54270   4.894   9.510   8.411 -0.0497  0.1306 -0.2146
17357SOL    HW154271   4.863   9.601   8.406 -0.5956 -0.1014 -1.8396
17357SOL    HW254272   4.984   9.517   8.440 -0.3554  1.1283  0.5511
17358SOL     OW54273   6.797   5.622   3.941  1.0767  0.5717  0.3718
17358SOL    HW154274   6.866   5.680   3.974  0.7927  1.0273  0.1677
17358SOL    HW254275   6.814   5.616   3.847  0.0408  1.7784  0.0885
17359SOL     OW54276   6.717   8.965   3.443 -0.1932 -0.7217  0.3470
17359SOL    HW154277   6.705   9.059   3.434  0.2055 -0.6414  0.6316
17359SOL    HW254278   6.630   8.932   3.465 -0.1951 -0.3287  0.9628
17360SOL     OW54279   4.974   0.223   6.884  0.3729 -0.0803 -0.1866
17360SOL    HW154280   4.964   0.275   6.804 -2.9631 -0.2527 -0.0596
17360SOL    HW254281   4.933   0.139   6.862  2.5617 -1.4453  0.6845
17361SOL     OW54282   6.688   5.502   0.881 -0.8733 -0.6136  0.3220
17361SOL    HW154283   6.670   5.595   0.875  2.3675  0.0880  0.0156
17361SOL    HW254284   6.660   5.478   0.970 -3.2873  0.1588 -0.1420
17362SOL     OW54285   5.009   0.573   3.809 -0.2465  0.4271  0.2115
17362SOL    HW154286   4.970   0.531   3.886  0.0304 -1.2320 -0.5027
17362SOL    HW254287   4.952   0.647   3.791 -2.6279 -1.3956 -0.2662
17363SOL     OW54288   5.858   7.431   1.764 -0.5063  0.2415 -0.8151
17363SOL    HW154289   5.828   7.379   1.839 -1.1663  1.5187 -0.1624
17363SOL    HW254290   5.809   7.513   1.771  0.7499  1.0931 -1.6173
17364SOL     OW54291   6.258   0.110   6.932 -0.4146 -0.3671  0.1670
17364SOL    HW154292   6.314   0.180   6.898 -0.9354  0.6194  1.2552
17364SOL    HW254293   6.195   0.094   6.862 -0.6152  0.6406  0.0977
17365SOL     OW54294   2.394   8.618   9.243 -0.3396 -0.6396  0.1749
17365SOL    HW154295   2.399   8.549   9.176 -0.4657 -0.6340  0.1582
17365SOL    HW254296   2.376   8.698   9.194 -1.2830 -0.7700  0.2750
17366SOL     OW54297   3.226   9.082   3.778 -0.3796  0.4777 -0.5565
17366SOL    HW154298   3.242   8.991   3.755 -0.7829  0.0735  0.6977
17366SOL    HW254299   3.131   9.090   3.781 -0.3414  0.8370 -0.2782
17367SOL     OW54300   4.381   2.940   3.263  0.7640 -0.1350  0.0481
17367SOL    HW154301   4.313   2.958   3.198  1.1276 -0.7506 -0.5040
17367SOL    HW254302   4.345   2.868   3.315  0.0806  0.9457  1.1266
17368SOL     OW54303   2.916   1.582   1.257  0.8803  0.0010 -0.0099
17368SOL    HW154304   2.942   1.597   1.348  4.3596 -0.1983 -0.8477
17368SOL    HW254305   2.844   1.644   1.242 -0.4885 -0.6645  3.0964
17369SOL     OW54306   8.366   6.774   2.872 -0.2298 -0.0945  0.0475
17369SOL    HW154307   8.301   6.727   2.923 -0.8257  1.4951  0.8175
17369SOL    HW254308   8.443   6.777   2.929  0.4431 -1.6355 -0.7111
17370SOL     OW54309   1.177   3.678   2.521  0.0948  0.2384  0.3090
17370SOL    HW154310   1.260   3.637   2.546 -0.4316 -0.9361  0.1949
17370SOL    HW254311   1.202   3.749   2.462  1.0876  0.5943  1.1248
17371SOL     OW54312   4.051   3.326   6.336  0.5539 -0.6283  0.1757
17371SOL    HW154313   3.982   3.291   6.280  0.1439  1.0635 -0.4493
17371SOL    HW254314   4.088   3.399   6.286 -0.6569  1.7696  2.5409
17372SOL     OW54315   6.452   7.254   2.556  0.3181  0.3883 -0.1568
17372SOL    HW154316   6.457   7.238   2.650  1.3902  1.1322 -0.0659
17372SOL    HW254317   6.506   7.332   2.542  2.1198 -1.0384 -1.7175
17373SOL     OW54318   0.273   5.402   1.373 -0.0116 -0.2723  0.4534
17373SOL    HW154319   0.343   5.339   1.391 -0.4982 -0.2641  2.6773
17373SOL    HW254320   0.205   5.350   1.329  1.0637 -0.4302 -1.1032
17374SOL     OW54321   8.274   2.113   1.068  0.6384 -0.2240 -0.3445
17374SOL    HW154322   8.205   2.177   1.085  1.5773  0.7851 -0.2763
17374SOL    HW254323   8.348   2.165   1.038  1.2701 -1.3297 -0.7439
17375SOL     OW54324   3.938   0.138   7.055  0.0406 -0.1588 -0.4847
17375SOL    HW154325   3.977   0.221   7.029  0.4051 -0.2551 -0.2614
17375SOL    HW254326   3.879   0.115   6.984  0.9124 -0.3529 -1.1575
17376SOL     OW54327   1.861   9.428   8.555  0.5502 -0.3232  0.3946
17376SOL    HW154328   1.886   9.341   8.586  1.0235 -0.2046  0.3464
17376SOL    HW254329   1.765   9.425   8.550  0.4754 -0.4431  1.5828
17377SOL     OW54330   4.457   2.462   0.127  0.2691  0.1094  0.3618
17377SOL    HW154331   4.419   2.378   0.154  0.6390  0.1130  0.9249
17377SOL    HW254332   4.454   2.461   0.032  1.1474 -0.9656  0.3223
17378SOL     OW54333   0.377   7.266   5.935  0.3139 -0.2048  0.1250
17378SOL    HW154334   0.456   7.291   5.887 -1.1669  2.9001 -0.9831
17378SOL    HW254335   0.388   7.303   6.022  0.2891 -0.1882  0.1215
17379SOL     OW54336   3.664   3.608   7.815 -0.2614  0.6025  0.7277
17379SOL    HW154337   3.677   3.561   7.898 -2.6616 -1.6623 -0.0520
17379SOL    HW254338   3.689   3.545   7.748 -0.2861  1.6833 -0.3182
17380SOL     OW54339   0.605   2.380   4.329  0.2295  0.1462  0.1981
17380SOL    HW154340   0.519   2.394   4.369 -0.2972 -0.2645 -0.7331
17380SOL    HW254341   0.585   2.333   4.248  1.5298 -2.0466  1.0857
17381SOL     OW54342   4.684   2.054   1.853 -0.5997  0.0981  0.6982
17381SOL    HW154343   4.609   2.114   1.852 -2.1702 -1.7537  0.2178
17381SOL    HW254344   4.759   2.110   1.875 -2.0210  2.1230  0.7506
17382SOL     OW54345   5.640   6.782   4.139  0.1447 -0.7420  0.1139
17382SOL    HW154346   5.639   6.764   4.045 -1.4743 -1.4673  0.2240
17382SOL    HW254347   5.572   6.849   4.150  0.3389 -0.6502  0.7739
17383SOL     OW54348   9.454   4.449   8.281  0.2914  0.2132 -0.1119
17383SOL    HW154349   9.481   4.534   8.316  0.6787 -0.3920  1.1202
17383SOL    HW254350   9.373   4.467   8.234  0.6720  1.3588 -0.3657
17384SOL     OW54351   2.807   8.446   4.020 -0.0500  0.3055  0.2726
17384SOL    HW154352   2.731   8.460   4.078 -1.0762 -0.1935 -0.9155
17384SOL    HW254353   2.806   8.521   3.961  0.8537  0.6895  0.7298
17385SOL     OW54354   0.370   2.470   4.496  0.0259 -0.1482  0.6887
17385SOL    HW154355   0.341   2.561   4.509 -0.3386 -0.2087  0.3159
17385SOL    HW254356   0.350   2.427   4.579  0.7141  0.2395  1.0682
17386SOL     OW54357   0.512   8.231   7.723 -0.0833  0.1791  0.0361
17386SOL    HW154358   0.580   8.245   7.789 -1.2533  0.0065  1.3323
17386SOL    HW254359   0.501   8.136   7.719 -1.8994  0.2452  1.6786
17387SOL     OW54360   6.281   1.151   6.641 -0.3790  0.7895  0.5523
17387SOL    HW154361   6.346   1.095   6.684  1.1959  2.6322  0.7104
17387SOL    HW254362   6.253   1.101   6.564 -0.2575 -0.8607  1.5210
17388SOL     OW54363   8.422   5.396   5.399  0.2238  0.1882 -0.1793
17388SOL    HW154364   8.517   5.408   5.393  0.2312  2.0666  2.2932
17388SOL    HW254365   8.387   5.465   5.343  0.3467  1.4966  1.3090
17389SOL     OW54366   9.226   0.474   5.284 -0.1429  0.2625 -0.4895
17389SOL    HW154367   9.295   0.467   5.218  0.1523  0.3387 -0.1952
17389SOL    HW254368   9.261   0.537   5.348  1.5699 -2.9323  2.0685
17390SOL     OW54369   4.219   1.531   2.100  0.3169 -0.1970 -0.3760
17390SOL    HW154370   4.250   1.563   2.184  0.0945 -0.1035 -0.3296
17390SOL    HW254371   4.131   1.568   2.091  0.0138 -0.8827 -0.2745
17391SOL     OW54372   9.135   3.911   7.934  0.5390 -0.2881 -1.0566
17391SOL    HW154373   9.222   3.932   7.969 -0.2495  1.8958 -0.2331
17391SOL    HW254374   9.074   3.949   7.997 -1.0159 -1.0527 -2.0507
17392SOL     OW54375   8.189   3.323   4.918 -0.2382 -0.1932  0.0396
17392SOL    HW154376   8.281   3.311   4.939 -0.6781 -0.2281  2.1428
17392SOL    HW254377   8.144   3.249   4.960 -1.4708  1.2139  1.3209
17393SOL     OW54378   4.566   5.656   7.784 -0.1170  0.7211 -0.3028
17393SOL    HW154379   4.604   5.584   7.833  0.9356  1.1143 -0.5177
17393SOL    HW254380   4.473   5.655   7.807 -0.1949 -0.9257 -0.5972
17394SOL     OW54381   2.182   5.238   1.386  0.4005 -0.3146 -0.1438
17394SOL    HW154382   2.150   5.292   1.314  0.5062  1.2950  0.9838
17394SOL    HW254383   2.277   5.251   1.385  0.3043  0.6282  0.9612
17395SOL     OW54384   9.375   1.321   3.598 -0.6796  0.0788  0.5443
17395SOL    HW154385   9.444   1.335   3.662 -0.3651 -1.4631  0.5824
17395SOL    HW254386   9.294   1.325   3.649 -0.4334 -1.1129  1.0658
17396SOL     OW54387   6.857   0.251   6.202  0.0388  0.0933 -0.2828
17396SOL    HW154388   6.797   0.315   6.164  0.1015  0.6727  0.5752
17396SOL    HW254389   6.878   0.192   6.129 -0.0885  0.9809 -1.0591
17397SOL     OW54390   2.802   5.034   2.551  0.5273 -1.2943  0.2379
17397SOL    HW154391   2.728   5.053   2.493  1.3969  0.7648 -0.2943
17397SOL    HW254392   2.879   5.045   2.496  1.3261 -0.7986  1.4217
17398SOL     OW54393   5.096   0.578   6.437  0.1943  0.5164 -0.5814
17398SOL    HW154394   5.081   0.490   6.402  2.0452  0.1152 -0.4967
17398SOL    HW254395   5.068   0.637   6.368 -0.1055 -0.1679 -1.0590
17399SOL     OW54396   2.359   7.447   9.323 -0.0221  0.0758  0.2906
17399SOL    HW154397   2.332   7.371   9.374  0.3748  0.7983  1.6336
17399SOL    HW254398   2.295   7.515   9.346  0.6735  0.6647  0.5220
17400SOL     OW54399   1.349   2.374   1.034 -0.1048 -0.4869 -0.1759
17400SOL    HW154400   1.281   2.411   1.090  0.1788 -0.8366  0.4092
17400SOL    HW254401   1.334   2.280   1.035  0.6404 -0.6093  0.3055
17401SOL     OW54402   5.230   6.218   0.571  0.1086  0.1740 -0.2931
17401SOL    HW154403   5.324   6.204   0.586 -0.1888  0.3031  2.0502
17401SOL    HW254404   5.211   6.168   0.492  2.4647  1.4990 -1.8560
17402SOL     OW54405   6.308   8.509   8.674 -0.1975  0.5954 -0.7017
17402SOL    HW154406   6.221   8.486   8.640  0.3634  1.9616 -3.2993
17402SOL    HW254407   6.357   8.427   8.669 -0.5256  0.4418 -2.1113
17403SOL     OW54408   2.901   3.125   6.353  0.1411  0.4596  0.1820
17403SOL    HW154409   2.976   3.165   6.398  1.4635 -0.3712 -1.2074
17403SOL    HW254410   2.906   3.032   6.376  0.2211  0.2053 -0.8176
17404SOL     OW54411   0.916   4.592   7.512 -0.4452  0.4669 -0.1073
17404SOL    HW154412   0.884   4.621   7.427 -0.4601  1.3542  0.1932
17404SOL    HW254413   0.924   4.672   7.564 -0.2384 -0.0368  0.6622
17405SOL     OW54414   2.248   9.071   7.278  0.1628 -0.0390 -0.2601
17405SOL    HW154415   2.253   9.020   7.197  0.3357 -0.4481  0.0019
17405SOL    HW254416   2.322   9.132   7.272  0.8756 -0.8435  0.1001
17406SOL     OW54417   8.214   0.314   7.051 -0.3370 -0.3076 -0.1684
17406SOL    HW154418   8.281   0.263   7.006 -1.3401 -2.3521  0.5173
17406SOL    HW254419   8.164   0.356   6.980  0.4583 -0.3249 -0.7530
17407SOL     OW54420   6.062   8.412   6.629 -0.0484 -0.3422  0.2576
17407SOL    HW154421   6.141   8.449   6.670 -1.8897  0.3613  3.4917
17407SOL    HW254422   6.057   8.323   6.665 -0.5622 -0.4806 -0.1608
17408SOL     OW54423   7.168   3.138   8.037 -0.1172 -0.0968 -0.1946
17408SOL    HW154424   7.128   3.164   8.120 -1.3374 -0.4994 -0.6345
17408SOL    HW254425   7.122   3.057   8.012  0.0127  0.1765 -1.3977
17409SOL     OW54426   2.284   1.911   5.071 -0.0654 -0.1887 -1.1987
17409SOL    HW154427   2.355   1.973   5.086 -1.7917  1.5788  0.1321
17409SOL    HW254428   2.306   1.870   4.987  1.3719  1.9123 -1.9370
17410SOL     OW54429   7.753   8.417   7.200 -0.3164  0.1458  0.3276
17410SOL    HW154430   7.742   8.511   7.188  0.1784  0.1088 -0.5674
17410SOL    HW254431   7.722   8.378   7.118  2.1702 -0.2394 -0.5316
17411SOL     OW54432   5.811   0.005   4.830 -0.2834 -0.2321 -0.2456
17411SOL    HW154433   5.730   0.008   4.880  0.2375 -0.1321  0.6037
17411SOL    HW254434   5.850   0.092   4.840  0.4549 -0.6079  0.2533
17412SOL     OW54435   4.437   4.242   7.044 -0.7030  0.1287  0.1104
17412SOL    HW154436   4.366   4.306   7.050 -1.1526 -0.3786  0.2392
17412SOL    HW254437   4.452   4.214   7.134  0.5375  1.1729  0.2538
17413SOL     OW54438   7.837   2.243   2.740 -0.5732  0.6595 -0.2507
17413SOL    HW154439   7.764   2.303   2.725  2.0602  4.5238  1.0831
17413SOL    HW254440   7.871   2.267   2.825 -1.7160 -5.7660  2.6648
17414SOL     OW54441   3.046   6.479   7.245 -0.2264 -0.0289  0.0048
17414SOL    HW154442   2.963   6.453   7.285 -0.6483  2.5831  1.0654
17414SOL    HW254443   3.107   6.486   7.319 -0.2215  2.0176 -0.1170
17415SOL     OW54444   5.847   6.415   5.644 -0.6528  0.3359  0.4018
17415SOL    HW154445   5.814   6.327   5.629  2.1194 -1.1495  2.1486
17415SOL    HW254446   5.878   6.444   5.558  0.8847 -1.5741  0.2366
17416SOL     OW54447   3.987   2.075   7.644  0.0859 -0.2369 -0.3001
17416SOL    HW154448   3.985   2.168   7.622 -0.7528 -0.1168  0.2311
17416SOL    HW254449   3.895   2.048   7.644  0.2463 -0.8435  0.4331
17417SOL     OW54450   8.056   2.525   9.313 -0.0718 -0.7559  0.6156
17417SOL    HW154451   8.087   2.452   9.366  1.2609  0.5908  1.7608
17417SOL    HW254452   8.133   2.580   9.299 -1.1512  0.7578  0.2893
17418SOL     OW54453   7.760   6.560   0.666  0.5818  0.7222 -0.5648
17418SOL    HW154454   7.779   6.473   0.630  0.5243  0.5293 -0.1418
17418SOL    HW254455   7.747   6.616   0.590  1.2854  0.5064 -0.8529
17419SOL     OW54456   4.952   4.620   4.173 -0.1315  0.0951  0.1375
17419SOL    HW154457   4.985   4.530   4.168 -0.3390  0.0839 -1.9666
17419SOL    HW254458   5.026   4.674   4.143 -0.6545  0.4115 -0.6400
17420SOL     OW54459   0.279   4.607   3.478  0.0508 -0.4882  0.4151
17420SOL    HW154460   0.316   4.536   3.531  2.4056 -0.8660 -1.5441
17420SOL    HW254461   0.263   4.567   3.393  0.5668  1.1300 -0.4741
17421SOL     OW54462   0.283   0.403   2.448 -0.2321  0.4111 -0.5897
17421SOL    HW154463   0.212   0.342   2.470  0.6155 -0.2384  0.4141
17421SOL    HW254464   0.283   0.466   2.519  1.4631 -0.7535  0.5134
17422SOL     OW54465   2.267   9.125   5.779 -0.3524 -0.5258  0.7582
17422SOL    HW154466   2.341   9.068   5.798  2.2589  2.6555  1.0450
17422SOL    HW254467   2.227   9.142   5.864  1.4945  1.2286  1.3664
17423SOL     OW54468   1.139   4.591   1.033  0.4956 -0.6234 -0.0012
17423SOL    HW154469   1.069   4.527   1.043  0.8021 -0.8067  1.1045
17423SOL    HW254470   1.141   4.610   0.939  0.7365 -2.5963 -0.4368
17424SOL     OW54471   3.634   3.939   4.250  0.6143 -0.3951 -0.1609
17424SOL    HW154472   3.606   4.030   4.240  0.9258 -0.2868 -0.0445
17424SOL    HW254473   3.720   3.944   4.291 -0.0622 -0.7951  1.3751
17425SOL     OW54474   3.357   6.964   3.782  0.0050  0.3828  0.3294
17425SOL    HW154475   3.333   6.884   3.830 -1.1992 -0.8420 -2.1548
17425SOL    HW254476   3.440   6.943   3.740  1.5634  1.7947  2.4322
17426SOL     OW54477   6.744   1.939   1.721  0.7241  0.3877  0.2262
17426SOL    HW154478   6.739   2.032   1.700  0.5943  0.2746 -0.2596
17426SOL    HW254479   6.801   1.934   1.797  0.1138  0.9402  0.7378
17427SOL     OW54480   7.494   0.237   4.017  0.4521  0.2422  0.5335
17427SOL    HW154481   7.403   0.262   4.034  0.2662 -0.8510  1.2124
17427SOL    HW254482   7.499   0.230   3.921  0.0990  1.2567  0.4257
17428SOL     OW54483   3.491   0.879   2.062  0.4516  0.5490  0.3290
17428SOL    HW154484   3.475   0.806   2.121 -0.9834  0.8928  0.4067
17428SOL    HW254485   3.573   0.857   2.018 -0.6820 -1.8723 -0.7828
17429SOL     OW54486   6.135   8.540   8.255  0.3555  0.1047  0.5490
17429SOL    HW154487   6.201   8.524   8.188  0.6922 -1.2388  1.1633
17429SOL    HW254488   6.144   8.633   8.276  0.6694  0.3973 -0.8008
17430SOL     OW54489   3.781   1.000   3.510  0.1241 -0.0712  0.1811
17430SOL    HW154490   3.733   0.998   3.428 -0.3446  2.3276  0.3224
17430SOL    HW254491   3.717   1.032   3.574  0.6357 -1.3497  1.3800
17431SOL     OW54492   8.483   4.296   6.602  0.0036  0.4448 -0.2804
17431SOL    HW154493   8.570   4.337   6.602  1.6178 -2.5745  1.1753
17431SOL    HW254494   8.494   4.219   6.546 -1.2959 -0.7376  1.0260
17432SOL     OW54495   2.788   3.435   1.968 -0.0737 -0.0558  0.7685
17432SOL    HW154496   2.703   3.480   1.976 -0.4245 -0.7398  0.9878
17432SOL    HW254497   2.765   3.342   1.963  0.6220 -0.1962  0.0185
17433SOL     OW54498   4.031   4.468   2.247 -0.6906  0.0851 -0.3537
17433SOL    HW154499   3.938   4.461   2.267 -0.9420  2.6042 -0.2819
17433SOL    HW254500   4.075   4.440   2.328 -1.3525 -1.2652 -0.4385
17434SOL     OW54501   5.897   1.550   4.771 -0.1558 -0.1100 -0.3224
17434SOL    HW154502   5.988   1.564   4.795 -0.5078  0.6156  0.6758
17434SOL    HW254503   5.863   1.637   4.753 -0.3592 -0.4771 -1.9094
17435SOL     OW54504   3.679   8.857   1.591  0.5898 -0.1006  0.4670
17435SOL    HW154505   3.653   8.948   1.579  1.4485  0.0850 -0.0500
17435SOL    HW254506   3.716   8.853   1.679  0.9397  0.1470  0.3325
17436SOL     OW54507   9.436   7.447   7.636  0.0506  0.5503  0.1848
17436SOL    HW154508   9.360   7.485   7.679  0.5759  2.6804 -0.6703
17436SOL    HW254509   9.498   7.430   7.707 -1.6035 -2.4456  1.0762
17437SOL     OW54510   6.845   6.760   8.334 -0.0503 -0.0081  0.2255
17437SOL    HW154511   6.804   6.740   8.250 -0.5213  0.1389  0.4168
17437SOL    HW254512   6.800   6.839   8.365 -0.3134 -0.4095  0.9006
17438SOL     OW54513   8.697   4.305   4.560  0.2824 -0.3831 -0.4291
17438SOL    HW154514   8.752   4.331   4.486  0.5259  1.8011  0.4239
17438SOL    HW254515   8.758   4.269   4.624  0.7248  1.4837  0.2740
17439SOL     OW54516   5.883   4.636   0.429 -0.1440 -0.5031 -0.3344
17439SOL    HW154517   5.854   4.727   0.424  1.8484  0.2662  1.1406
17439SOL    HW254518   5.831   4.599   0.501  2.6536  1.0568  2.7621
17440SOL     OW54519   0.030   9.506   5.205  0.0714  0.0537 -0.5497
17440SOL    HW154520   0.064   9.507   5.295 -0.8524  1.3513 -0.1855
17440SOL    HW254521   0.107   9.524   5.151  0.3177  1.1472  0.1313
17441SOL     OW54522   5.789   4.783   3.607 -0.5805  0.1164  0.2517
17441SOL    HW154523   5.829   4.747   3.686 -1.0066  0.1887  0.5048
17441SOL    HW254524   5.725   4.846   3.639 -0.7870  0.1143 -0.1512
17442SOL     OW54525   3.165   3.408   5.357 -0.3236 -0.2585 -0.5897
17442SOL    HW154526   3.217   3.371   5.286 -0.6126 -2.1642  0.1565
17442SOL    HW254527   3.080   3.366   5.349 -0.6426  0.1932  0.3373
17443SOL     OW54528   1.117   9.574   6.702  0.0905 -0.2630  0.8219
17443SOL    HW154529   1.173   9.652   6.712  1.5867 -1.1343 -0.2710
17443SOL    HW254530   1.042   9.605   6.652  0.4655  0.5575  0.7393
17444SOL     OW54531   8.547   4.383   1.532  0.0770 -0.6240 -0.6313
17444SOL    HW154532   8.464   4.392   1.485 -0.5075 -0.0147  0.4794
17444SOL    HW254533   8.542   4.296   1.572 -0.4459 -0.2056  0.2178
17445SOL     OW54534   1.478   0.870   7.038  0.2793 -0.4618 -0.2473
17445SOL    HW154535   1.476   0.961   7.067  0.8185 -1.1245  2.0395
17445SOL    HW254536   1.430   0.871   6.955  0.3859  1.9029 -0.3642
17446SOL     OW54537   2.499   5.768   2.596  0.4028  0.2323 -0.0282
17446SOL    HW154538   2.580   5.816   2.577  0.0579  0.8402 -0.0139
17446SOL    HW254539   2.432   5.814   2.545  0.3860 -1.5398 -1.7347
17447SOL     OW54540   0.860   7.686   1.533 -0.6495 -0.3800 -0.4166
17447SOL    HW154541   0.784   7.709   1.479 -0.5505  2.1735  0.3671
17447SOL    HW254542   0.842   7.729   1.617  0.4072 -2.0685  0.7254
17448SOL     OW54543   2.101   7.394   2.555  0.0084  0.6445  0.7944
17448SOL    HW154544   2.046   7.471   2.542 -0.1395  0.2768 -1.1259
17448SOL    HW254545   2.118   7.362   2.466 -0.9680 -2.2536  1.5326
17449SOL     OW54546   0.421   4.436   9.333 -0.6625  0.4161 -0.0712
17449SOL    HW154547   0.456   4.359   9.288 -0.6588 -0.0988  0.7823
17449SOL    HW254548   0.338   4.406   9.370 -0.1491  0.4986  1.1790
17450SOL     OW54549   7.233   2.113   4.440  0.4209  0.4055  0.3867
17450SOL    HW154550   7.262   2.194   4.397 -1.0366  0.4935 -0.5225
17450SOL    HW254551   7.231   2.135   4.533  2.0742  0.7378  0.3674
17451SOL     OW54552   0.478   4.940   8.222  0.5054 -0.0340  0.1839
17451SOL    HW154553   0.560   4.975   8.259  0.6225  1.2054 -1.1508
17451SOL    HW254554   0.413   5.007   8.242  0.6539  0.8733 -2.1275
17452SOL     OW54555   2.833   6.893   0.328 -0.4114  0.4938  0.6651
17452SOL    HW154556   2.817   6.875   0.421  0.9686  2.3881  1.3464
17452SOL    HW254557   2.925   6.917   0.324 -0.3358  0.0254 -1.3000
17453SOL     OW54558   7.096   3.636   4.068 -0.0806  0.1876  0.0109
17453SOL    HW154559   7.107   3.542   4.049 -0.9926  0.2865 -1.1200
17453SOL    HW254560   7.058   3.639   4.156  0.3940 -0.4822  0.2472
17454SOL     OW54561   0.820   0.356   3.495 -0.4185  0.5133  0.1103
17454SOL    HW154562   0.779   0.443   3.491 -0.1105  0.6450 -3.1971
17454SOL    HW254563   0.746   0.296   3.505 -1.0980  0.9901 -1.6040
17455SOL     OW54564   5.758   6.287   5.874  0.6509 -0.1377  0.4560
17455SOL    HW154565   5.813   6.333   5.936  1.3106 -1.6476  1.0422
17455SOL    HW254566   5.794   6.198   5.870 -2.3457 -1.5633  1.7422
17456SOL     OW54567   0.650   3.783   2.349  0.0694 -0.0025  0.1607
17456SOL    HW154568   0.713   3.725   2.308 -0.3272 -1.1452  1.1174
17456SOL    HW254569   0.615   3.733   2.423 -1.3080  0.9245  0.1862
17457SOL     OW54570   0.272   1.204   4.088  0.0612 -0.1120  0.5600
17457SOL    HW154571   0.232   1.290   4.072 -0.6553 -0.6732 -0.8645
17457SOL    HW254572   0.283   1.200   4.183  2.2711  2.4829  0.5636
17458SOL     OW54573   0.271   2.873   2.622 -0.4682  0.0287  0.1700
17458SOL    HW154574   0.347   2.914   2.581 -0.2983  0.7288  1.1310
17458SOL    HW254575   0.229   2.944   2.671  1.5923 -1.3658  4.5576
17459SOL     OW54576   9.416   4.366   0.310 -0.1299 -0.0566 -0.0437
17459SOL    HW154577   9.482   4.338   0.246 -0.0702 -0.3577  0.1512
17459SOL    HW254578   9.369   4.436   0.266  0.9039  0.7818  0.1427
17460SOL     OW54579   3.536   1.693   1.028  0.2665  0.3571  0.1812
17460SOL    HW154580   3.608   1.699   1.090  0.0075 -0.2970  0.5558
17460SOL    HW254581   3.457   1.709   1.080  0.0323 -0.3914  0.0678
17461SOL     OW54582   9.325   0.569   3.609  0.3124 -0.7979 -0.1661
17461SOL    HW154583   9.352   0.635   3.546 -1.1162  0.5094  0.5453
17461SOL    HW254584   9.401   0.558   3.666  0.6441  0.0501 -0.4410
17462SOL     OW54585   3.377   5.762   4.290  0.0090  0.2303 -0.1986
17462SOL    HW154586   3.313   5.802   4.231 -0.2983 -1.7546 -1.3044
17462SOL    HW254587   3.357   5.668   4.287 -0.2431  0.0498  3.3978
17463SOL     OW54588   1.468   9.314   8.985 -0.1553 -0.5309 -0.5057
17463SOL    HW154589   1.426   9.250   8.928  2.1254 -1.8237 -0.8782
17463SOL    HW254590   1.543   9.346   8.933  0.0982  0.6887  0.5687
17464SOL     OW54591   9.482   0.198   2.042  0.1107  0.3402  0.4670
17464SOL    HW154592   9.561   0.207   1.989 -0.9121  2.4832 -0.8275
17464SOL    HW254593   9.413   0.239   1.990 -1.5002  0.1591  2.3374
17465SOL     OW54594   9.419   2.729   6.853  0.3483 -0.0414 -0.1279
17465SOL    HW154595   9.388   2.726   6.762  1.0869  1.4948 -0.4605
17465SOL    HW254596   9.347   2.769   6.902 -0.7359 -2.3937  0.3204
17466SOL     OW54597   2.426   9.220   7.715  0.5737  0.6819 -0.6896
17466SOL    HW154598   2.334   9.248   7.717  1.3483  3.6037 -0.3718
17466SOL    HW254599   2.451   9.230   7.623  0.9474  1.4520 -0.5159
17467SOL     OW54600   7.492   7.501   2.674 -0.0029 -0.3354 -0.0887
17467SOL    HW154601   7.478   7.502   2.768 -0.2943 -1.4863 -0.1001
17467SOL    HW254602   7.429   7.436   2.641 -0.8091  0.9535 -1.2329
17468SOL     OW54603   6.975   0.274   3.452 -0.2326 -0.0901  0.3293
17468SOL    HW154604   6.905   0.246   3.392  0.0700  0.1531 -0.1461
17468SOL    HW254605   6.936   0.344   3.503 -1.4373 -2.1443  2.4488
17469SOL     OW54606   4.298   4.355   9.472  0.0613  0.0003  0.1341
17469SOL    HW154607   4.222   4.342   9.415 -0.5192 -0.5760  1.0120
17469SOL    HW254608   4.305   4.273   9.521  0.3750  0.5901  1.0966
17470SOL     OW54609   4.986   8.224   7.647 -0.0588 -0.1535  0.2527
17470SOL    HW154610   4.955   8.299   7.698  0.4164  0.1145  0.1535
17470SOL    HW254611   4.957   8.147   7.697  1.4174  0.0940  1.5746
17471SOL     OW54612   7.548   8.483   7.363  0.0877 -0.2837 -0.2400
17471SOL    HW154613   7.495   8.536   7.303  1.9596  0.2141 -1.5222
17471SOL    HW254614   7.618   8.448   7.308  1.4282 -0.4601  1.5257
17472SOL     OW54615   5.276   1.430   2.029  0.3113  0.0052 -0.1088
17472SOL    HW154616   5.195   1.381   2.043  1.2753 -1.1630  1.7728
17472SOL    HW254617   5.292   1.475   2.112  1.6958  0.0287 -0.3546
17473SOL     OW54618   7.976   5.185   5.893 -0.7216  0.4400 -0.2102
17473SOL    HW154619   7.991   5.250   5.824  0.5290  1.3379  0.8678
17473SOL    HW254620   7.881   5.189   5.908 -1.1042 -0.1123 -2.1603
17474SOL     OW54621   0.970   4.622   6.151  0.0762 -0.1621  0.6703
17474SOL    HW154622   0.975   4.676   6.072 -0.2349  1.1893  1.5373
17474SOL    HW254623   1.026   4.547   6.132  1.8884  1.2654  0.0067
17475SOL     OW54624   1.147   1.661   0.370  0.4139  0.0414 -0.8078
17475SOL    HW154625   1.192   1.609   0.437  0.3348 -0.6341 -1.2628
17475SOL    HW254626   1.203   1.738   0.358 -0.2500  0.8698  0.9858
17476SOL     OW54627   2.711   2.143   6.953 -0.5459  0.4446 -0.6599
17476SOL    HW154628   2.729   2.222   6.901  1.5491  0.3753 -0.1033
17476SOL    HW254629   2.729   2.169   7.043  0.9507 -0.8458 -0.5452
17477SOL     OW54630   8.634   0.444   6.173 -0.2887 -0.6761 -0.0163
17477SOL    HW154631   8.723   0.471   6.194 -0.8406  1.2778  0.0289
17477SOL    HW254632   8.642   0.394   6.091  0.7664  0.1013 -0.3991
17478SOL     OW54633   0.479   9.180   8.566 -0.5256  0.6055 -0.4061
17478SOL    HW154634   0.476   9.180   8.662  0.5118 -1.1569 -0.3131
17478SOL    HW254635   0.537   9.252   8.543  0.1010  0.3578  0.3669
17479SOL     OW54636   1.539   2.203   7.573  0.8580  0.2090 -0.0319
17479SOL    HW154637   1.621   2.251   7.581 -0.5672  2.7027  0.5954
17479SOL    HW254638   1.543   2.138   7.644  0.7312  2.8677  2.6289
17480SOL     OW54639   1.648   7.277   6.098 -0.2260  0.0479  0.2441
17480SOL    HW154640   1.666   7.361   6.140 -0.4984 -0.1277  0.7101
17480SOL    HW254641   1.620   7.300   6.009  0.5511  0.4062  0.0837
17481SOL     OW54642   9.113   6.169   6.702  0.2449 -0.2750 -0.0707
17481SOL    HW154643   9.093   6.209   6.617 -0.9187 -0.1710  0.2286
17481SOL    HW254644   9.177   6.101   6.682  0.5131  0.2105 -0.9248
17482SOL     OW54645   5.120   3.870   9.186  0.1913  0.2677 -0.2093
17482SOL    HW154646   5.043   3.887   9.239  0.1208 -0.6143 -0.0032
17482SOL    HW254647   5.145   3.955   9.150 -0.8562  0.5624 -0.2584
17483SOL     OW54648   3.673   1.324   1.758  0.0287 -0.2881 -0.0926
17483SOL    HW154649   3.684   1.248   1.701  0.2035  0.2573 -0.8102
17483SOL    HW254650   3.739   1.312   1.826  1.3284  0.1096 -1.2206
17484SOL     OW54651   9.054   7.530   2.947 -0.0460 -0.4331  0.6979
17484SOL    HW154652   9.007   7.613   2.941  2.2282  0.9177  0.2726
17484SOL    HW254653   9.072   7.506   2.856  0.0359 -0.9592  0.8517
17485SOL     OW54654   1.705   0.079   7.461  0.5454 -0.3801  0.5927
17485SOL    HW154655   1.757   0.152   7.494  0.6867 -0.9220  1.6165
17485SOL    HW254656   1.638   0.065   7.529 -1.4644  0.7801 -1.0120
17486SOL     OW54657   8.683   4.792   2.319  0.5060 -0.2376  0.2106
17486SOL    HW154658   8.743   4.811   2.247  0.4667 -0.7776  0.0262
17486SOL    HW254659   8.627   4.721   2.285  0.3893 -0.3909  0.7144
17487SOL     OW54660   4.767   6.666   2.788 -0.1833 -0.0932 -0.0708
17487SOL    HW154661   4.817   6.711   2.719  0.8676 -2.5320 -1.0106
17487SOL    HW254662   4.802   6.701   2.870 -0.8203  2.2061 -0.6930
17488SOL     OW54663   2.843   1.203   1.199 -0.3601  0.1865 -0.3146
17488SOL    HW154664   2.898   1.249   1.135  0.2852  0.6505  0.5576
17488SOL    HW254665   2.866   1.110   1.187  1.3171  0.4303  0.6394
17489SOL     OW54666   0.411   6.440   4.760 -0.2219 -0.1971 -0.1920
17489SOL    HW154667   0.461   6.478   4.832  1.4709 -1.0178 -0.8766
17489SOL    HW254668   0.443   6.486   4.682 -1.0639 -0.2478 -0.5717
17490SOL     OW54669   7.713   1.156   6.130  0.4952  0.6830  0.3846
17490SOL    HW154670   7.645   1.133   6.193  0.3043  1.0347  0.3121
17490SOL    HW254671   7.756   1.073   6.109 -0.8197  0.2146 -0.6185
17491SOL     OW54672   0.605   1.571   2.910 -0.8633 -0.0549 -0.3795
17491SOL    HW154673   0.542   1.518   2.960 -0.0457  1.0084  1.8881
17491SOL    HW254674   0.552   1.642   2.874 -1.3367 -0.3883 -0.3610
17492SOL     OW54675   8.463   6.293   6.601  0.3032 -0.3114 -0.1131
17492SOL    HW154676   8.390   6.348   6.572  0.2757 -0.4221 -0.2521
17492SOL    HW254677   8.492   6.247   6.522  0.8807  0.1430 -0.1787
17493SOL     OW54678   7.666   0.949   4.294 -0.7568 -0.0891 -0.0188
17493SOL    HW154679   7.687   1.041   4.279 -1.8568 -0.0255 -1.3806
17493SOL    HW254680   7.717   0.925   4.372  2.0151  0.7916 -1.4154
17494SOL     OW54681   5.526   6.027   3.591 -0.1041  0.1634  0.2230
17494SOL    HW154682   5.568   6.041   3.506 -0.0161  0.0290  0.2429
17494SOL    HW254683   5.442   5.987   3.570  0.3577 -0.8447  0.2457
17495SOL     OW54684   3.917   6.654   2.299  0.2269  0.6644  0.1523
17495SOL    HW154685   3.971   6.690   2.229 -0.6264  0.8120 -0.4334
17495SOL    HW254686   3.831   6.640   2.260 -0.5410  1.6409  1.4088
17496SOL     OW54687   8.356   4.267   9.261 -0.0051  0.3946  0.1200
17496SOL    HW154688   8.447   4.287   9.241 -0.6230  2.1341 -1.1613
17496SOL    HW254689   8.326   4.339   9.316 -0.5870 -0.2141  0.6263
17497SOL     OW54690   3.539   4.550   7.951  0.6487 -0.2768 -0.0251
17497SOL    HW154691   3.535   4.604   7.871  0.2531  1.7126  1.2655
17497SOL    HW254692   3.564   4.463   7.920  1.6404  0.7065 -2.1865
17498SOL     OW54693   8.277   5.331   7.826  0.0160 -0.4027 -0.3391
17498SOL    HW154694   8.230   5.261   7.781 -2.2388 -0.6624  2.1163
17498SOL    HW254695   8.223   5.409   7.813 -0.2599 -0.3129  1.1294
17499SOL     OW54696   2.720   1.178   8.617 -0.4592 -0.1064  0.6769
17499SOL    HW154697   2.682   1.134   8.541  0.2169 -3.5651  2.1298
17499SOL    HW254698   2.807   1.206   8.587 -0.2490 -1.3151  0.0849
17500SOL     OW54699   0.899   2.956   8.622 -0.5299  0.2177 -0.6033
17500SOL    HW154700   0.945   3.015   8.562  0.1833 -0.1237 -0.4057
17500SOL    HW254701   0.898   2.871   8.576 -0.4574  0.0868 -0.3630
17501SOL     OW54702   0.141   9.506   0.684  0.9418  0.8268  0.1930
17501SOL    HW154703   0.195   9.444   0.634  1.6478  1.8048 -0.2839
17501SOL    HW254704   0.076   9.537   0.621  0.4397  0.4149  0.4962
17502SOL     OW54705   2.136   6.933   7.286 -0.0598 -0.1793  0.6748
17502SOL    HW154706   2.095   6.990   7.220 -0.7291 -2.6469 -1.1821
17502SOL    HW254707   2.229   6.936   7.265 -0.0530  0.4125  0.7624
17503SOL     OW54708   7.758   6.989   1.508  0.1501  0.3006  0.2094
17503SOL    HW154709   7.829   6.994   1.443  0.6266  0.0526  0.6956
17503SOL    HW254710   7.780   7.055   1.573  0.7523 -0.7676  1.1324
17504SOL     OW54711   0.315   4.393   3.672  0.2304 -0.0725  0.0039
17504SOL    HW154712   0.376   4.416   3.742  0.5728 -1.6138  0.2616
17504SOL    HW254713   0.228   4.407   3.709  0.4101 -0.8662  0.7670
17505SOL     OW54714   1.785   9.161   2.740 -0.0989  0.5799  0.1295
17505SOL    HW154715   1.804   9.181   2.832 -1.2609  1.3056  0.2341
17505SOL    HW254716   1.699   9.201   2.724 -0.9335 -1.4283 -0.6545
17506SOL     OW54717   5.277   2.772   7.097  0.3864  0.6713 -0.2258
17506SOL    HW154718   5.220   2.759   7.173  1.0432 -1.4513 -0.0337
17506SOL    HW254719   5.225   2.741   7.023  1.2332 -1.3224 -0.0433
17507SOL     OW54720   7.648   0.832   0.749  0.2789 -0.2866 -0.5722
17507SOL    HW154721   7.627   0.740   0.729  0.0058 -0.4710  0.4927
17507SOL    HW254722   7.734   0.846   0.710  1.3483 -1.6858  1.1125
17508SOL     OW54723   1.904   9.115   0.046 -0.1234  0.0822  0.2464
17508SOL    HW154724   1.814   9.137   0.022  0.1914 -0.6281 -1.8234
17508SOL    HW254725   1.957   9.153  -0.024  1.1724  0.1421  1.2169
17509SOL     OW54726   3.577   2.171   9.171 -0.5023  0.1685 -0.0199
17509SOL    HW154727   3.659   2.140   9.210 -1.1408  0.0778  1.3442
17509SOL    HW254728   3.556   2.106   9.104  1.0534  0.7633 -1.1472
17510SOL     OW54729   4.937   5.182   7.141 -0.4451  0.1667  0.1376
17510SOL    HW154730   4.996   5.249   7.109 -0.4846 -0.0396 -0.3883
17510SOL    HW254731   4.935   5.117   7.071  0.0895 -0.7026  0.9034
17511SOL     OW54732   8.972   0.448   3.602 -0.0071 -0.2372 -0.4484
17511SOL    HW154733   8.878   0.467   3.601 -0.8740 -3.7138 -1.5197
17511SOL    HW254734   9.012   0.521   3.555 -2.1931  1.2017 -0.2195
17512SOL     OW54735   3.559   3.787   3.159  0.7340 -0.0906  0.3089
17512SOL    HW154736   3.531   3.877   3.139 -3.0515 -1.3520 -1.1261
17512SOL    HW254737   3.559   3.743   3.074  1.8442 -1.6411  1.0720
17513SOL     OW54738   7.814   8.185   4.804 -0.2820  0.3641  1.0142
17513SOL    HW154739   7.853   8.194   4.717  0.6568 -0.9426  1.2652
17513SOL    HW254740   7.855   8.255   4.856  1.3909 -0.6204  1.1176
17514SOL     OW54741   6.475   2.557   8.088  0.6547  0.0431  0.4606
17514SOL    HW154742   6.477   2.651   8.071 -2.2428  0.3411  1.1914
17514SOL    HW254743   6.412   2.523   8.024  1.7901 -1.4645  0.0969
17515SOL     OW54744   3.355   8.596   5.668  0.0532 -0.3564 -0.7935
17515SOL    HW154745   3.307   8.678   5.676 -1.2739 -1.1075 -0.6570
17515SOL    HW254746   3.401   8.602   5.585  0.8422  0.9365 -0.2953
17516SOL     OW54747   5.391   7.670   1.981 -0.5501  0.1759 -0.8200
17516SOL    HW154748   5.418   7.579   1.973 -2.1327 -0.3647 -0.2768
17516SOL    HW254749   5.448   7.705   2.050  0.0056 -0.4029 -0.9701
17517SOL     OW54750   6.892   5.866   5.185 -0.2329 -0.1121 -0.5134
17517SOL    HW154751   6.827   5.853   5.115 -0.1409  0.2329 -0.6636
17517SOL    HW254752   6.840   5.877   5.264 -0.3325 -2.1336 -0.2228
17518SOL     OW54753   3.365   6.032   8.944  1.1181  0.3815  0.3060
17518SOL    HW154754   3.279   6.012   8.983  0.0489  0.2980 -1.9714
17518SOL    HW254755   3.423   6.040   9.020 -0.7675 -0.0881  1.9059
17519SOL     OW54756   3.119   8.155   0.239  0.7100  0.1894  0.7875
17519SOL    HW154757   3.142   8.115   0.322 -1.0071 -3.9317 -0.4673
17519SOL    HW254758   3.182   8.119   0.176  0.5151  1.3406 -0.1152
17520SOL     OW54759   7.035   1.471   8.907  0.0439  0.1166 -0.5902
17520SOL    HW154760   6.996   1.424   8.981 -2.6881 -0.9553 -2.5396
17520SOL    HW254761   6.984   1.551   8.900 -0.6701 -0.4407 -2.0971
17521SOL     OW54762   4.509   5.370   8.134  0.4418  0.2865 -0.3733
17521SOL    HW154763   4.452   5.421   8.076  0.3766 -1.2344 -1.7140
17521SOL    HW254764   4.532   5.293   8.083  1.0929 -0.7104  1.3472
17522SOL     OW54765   4.849   3.336   4.567  0.0825  0.0748 -0.0066
17522SOL    HW154766   4.793   3.385   4.627  1.8256  1.9237  0.2165
17522SOL    HW254767   4.882   3.402   4.506  0.0794 -1.3952 -1.6715
17523SOL     OW54768   2.813   5.219   4.057 -0.1130 -0.1403 -0.9596
17523SOL    HW154769   2.717   5.216   4.046 -0.0021  0.3495 -2.1937
17523SOL    HW254770   2.830   5.158   4.129 -1.6135  1.8393  1.2192
17524SOL     OW54771   8.206   1.759   6.898 -0.2172 -0.0858  0.1998
17524SOL    HW154772   8.220   1.665   6.911  2.2049  0.1466 -0.3490
17524SOL    HW254773   8.212   1.796   6.986 -1.0531 -0.4116  0.4030
17525SOL     OW54774   3.662   4.849   4.471  0.0535 -0.0308  0.3183
17525SOL    HW154775   3.756   4.839   4.484  0.0939 -1.3127 -0.6728
17525SOL    HW254776   3.624   4.774   4.518 -0.5510  0.9522  1.4314
17526SOL     OW54777   5.660   0.578   5.833  0.1378 -0.4806  0.5026
17526SOL    HW154778   5.650   0.673   5.830  0.9919 -0.3962 -0.1134
17526SOL    HW254779   5.580   0.546   5.874  0.5200  0.6092  2.1730
17527SOL     OW54780   0.807   7.939   7.216  0.7769  0.2864 -0.9245
17527SOL    HW154781   0.845   7.945   7.304  1.8791  0.6623 -1.4165
17527SOL    HW254782   0.806   8.029   7.184  0.1966  0.1758 -1.2346
17528SOL     OW54783   8.408   7.094   8.982 -0.1906  0.3651  0.0667
17528SOL    HW154784   8.325   7.047   8.973 -0.9651  1.6613  0.1971
17528SOL    HW254785   8.457   7.043   9.047 -1.7795  0.7403  1.6599
17529SOL     OW54786   1.571   3.072   5.483  0.0679  0.3685  0.2494
17529SOL    HW154787   1.663   3.061   5.461  0.0739 -0.0587  0.4808
17529SOL    HW254788   1.568   3.069   5.578 -0.3201 -0.8214  0.2233
17530SOL     OW54789   8.214   4.038   7.985 -0.0349 -0.5234 -0.5687
17530SOL    HW154790   8.179   4.093   8.055 -1.5848  0.0480 -1.7572
17530SOL    HW254791   8.305   4.067   7.975 -0.7853  1.8123 -1.1163
17531SOL     OW54792   4.985   8.347   6.226  0.2400  0.4685 -0.1013
17531SOL    HW154793   4.931   8.374   6.300  1.2970  1.7132  0.2644
17531SOL    HW254794   4.923   8.312   6.161 -0.7174 -0.5685  1.3056
17532SOL     OW54795   2.322   7.633   5.979 -0.1176 -0.5241  0.2035
17532SOL    HW154796   2.318   7.570   5.907 -0.7291 -2.0744  1.5219
17532SOL    HW254797   2.415   7.640   6.000 -0.0180 -0.7414 -0.1723
17533SOL     OW54798   6.263   7.799   3.127  0.5857 -0.2291  0.2936
17533SOL    HW154799   6.194   7.741   3.161  0.1855  0.1446  0.1288
17533SOL    HW254800   6.274   7.864   3.196  1.6122 -0.9512  0.8420
17534SOL     OW54801   4.653   3.236   6.904  0.2468  0.3934  0.2217
17534SOL    HW154802   4.671   3.143   6.921 -1.4981  0.1782  1.1271
17534SOL    HW254803   4.702   3.283   6.971  1.2538  0.1745 -0.3275
17535SOL     OW54804   8.592   9.175   4.224 -0.4594 -0.0868 -0.3550
17535SOL    HW154805   8.543   9.207   4.148 -0.2193 -0.4447 -0.6624
17535SOL    HW254806   8.570   9.082   4.229 -1.0384  0.0808  0.4507
17536SOL     OW54807   2.284   9.035   0.302  0.3460  0.9315 -0.2912
17536SOL    HW154808   2.264   9.021   0.209  0.8758 -0.1455 -0.2630
17536SOL    HW254809   2.285   8.947   0.340 -1.2196  1.4360  1.0550
17537SOL     OW54810   5.721   3.773   7.276 -0.2291  0.0827 -0.0284
17537SOL    HW154811   5.773   3.851   7.295  0.4298  0.0414 -1.6013
17537SOL    HW254812   5.779   3.699   7.295 -0.0403  0.0206 -0.8315
17538SOL     OW54813   8.083   3.594   3.411  0.1972  0.0210 -0.8665
17538SOL    HW154814   8.006   3.623   3.361 -1.8065 -2.1460  0.7474
17538SOL    HW254815   8.108   3.511   3.370  1.6881  0.6580 -1.3167
17539SOL     OW54816   6.026   0.807   1.547  0.6594 -0.5479  0.0918
17539SOL    HW154817   5.952   0.800   1.488 -0.0681 -0.3611  0.9636
17539SOL    HW254818   6.101   0.825   1.490 -0.5306  3.0710 -0.5349
17540SOL     OW54819   4.036   0.661   6.806  0.1632  0.3307  0.2085
17540SOL    HW154820   4.031   0.714   6.886 -2.0174  0.8682 -0.2360
17540SOL    HW254821   4.004   0.718   6.737 -1.4177 -1.2243 -0.4380
17541SOL     OW54822   3.461   4.749   0.649  0.1625  0.1485  0.4247
17541SOL    HW154823   3.455   4.765   0.555 -1.4313 -0.7803  0.3438
17541SOL    HW254824   3.507   4.665   0.656  0.4398  0.3052  0.4838
17542SOL     OW54825   0.675   4.116   3.286 -0.5841  0.2698 -0.0862
17542SOL    HW154826   0.719   4.045   3.333 -0.6919 -0.2683 -0.7789
17542SOL    HW254827   0.673   4.188   3.348  5.5981  2.1563 -1.3070
17543SOL     OW54828   6.525   5.584   2.181  0.0906 -0.5401 -0.1149
17543SOL    HW154829   6.519   5.675   2.210  2.7652  0.1614 -1.4196
17543SOL    HW254830   6.444   5.568   2.133 -0.1452  1.4208 -0.4422
17544SOL     OW54831   1.472   2.990   3.505  0.7058  0.2256  0.0172
17544SOL    HW154832   1.379   3.013   3.512  0.9094  1.3227 -0.6446
17544SOL    HW254833   1.494   3.007   3.413  1.5548 -0.0410  0.1628
17545SOL     OW54834   3.227   4.042   8.883  0.3525 -0.5961  0.5958
17545SOL    HW154835   3.253   4.051   8.791 -1.3525 -1.3242 -0.0001
17545SOL    HW254836   3.217   4.132   8.914  0.0841 -0.3387 -0.2024
17546SOL     OW54837   4.372   3.875   6.936 -0.1224 -0.1123  0.2747
17546SOL    HW154838   4.385   3.899   6.845 -0.9928  1.0084  0.4155
17546SOL    HW254839   4.303   3.809   6.934 -0.0182 -0.2147  0.1021
17547SOL     OW54840   8.152   0.322   5.081  0.3023 -0.0692  0.3118
17547SOL    HW154841   8.081   0.338   5.144 -0.2967  0.5728 -0.4965
17547SOL    HW254842   8.227   0.297   5.135 -0.4077 -0.2954  1.2229
17548SOL     OW54843   7.898   2.845   0.868 -0.4247  0.4841 -0.1220
17548SOL    HW154844   7.974   2.878   0.819  0.9227  1.2209  2.2707
17548SOL    HW254845   7.935   2.777   0.925 -1.7434  0.1762  0.3931
17549SOL     OW54846   3.584   9.414   7.111  0.3133 -0.0995  0.4883
17549SOL    HW154847   3.548   9.444   7.195 -1.3563 -0.8832  0.0904
17549SOL    HW254848   3.534   9.463   7.045  2.1863  1.1449 -0.0794
17550SOL     OW54849   6.276   5.363   1.056 -0.8238 -0.2429  0.1954
17550SOL    HW154850   6.357   5.313   1.061 -0.3059  0.6216  0.8103
17550SOL    HW254851   6.271   5.408   1.140 -0.7367  1.5236 -0.7008
17551SOL     OW54852   0.945   7.443   3.365 -0.0430  0.6875  0.0802
17551SOL    HW154853   0.860   7.419   3.401 -0.7717  1.6705 -0.9313
17551SOL    HW254854   1.008   7.387   3.412 -1.3854 -1.2587 -0.3569
17552SOL     OW54855   7.262   3.212   8.675 -0.0231 -0.7709  0.1299
17552SOL    HW154856   7.271   3.244   8.585  0.3050 -2.2658 -0.3889
17552SOL    HW254857   7.246   3.291   8.726 -0.1617  0.1210 -1.2264
17553SOL     OW54858   6.299   8.657   3.425 -0.1327 -0.1780  0.2623
17553SOL    HW154859   6.355   8.723   3.384  0.0486  0.4923  1.5413
17553SOL    HW254860   6.231   8.640   3.360 -0.4714  1.6550  0.0758
17554SOL     OW54861   2.218   1.873   8.556  0.1776  0.3043 -0.0318
17554SOL    HW154862   2.299   1.823   8.567  0.6525  0.8364 -0.9914
17554SOL    HW254863   2.202   1.912   8.642  1.4636  0.9384 -0.0473
17555SOL     OW54864   1.436   8.908   1.984 -0.0358 -0.0843 -0.2758
17555SOL    HW154865   1.466   8.998   1.998  0.1083 -0.1076 -0.4364
17555SOL    HW254866   1.413   8.904   1.891  1.1850 -0.5726 -0.5712
17556SOL     OW54867   4.092   0.375   1.933  0.7047 -0.0370  0.0577
17556SOL    HW154868   4.070   0.460   1.970  1.8155  2.0819 -3.5801
17556SOL    HW254869   4.187   0.376   1.923  0.7036 -1.5329 -0.4278
17557SOL     OW54870   0.771   7.742   0.031 -0.2001  0.6999 -0.3822
17557SOL    HW154871   0.792   7.697  -0.051 -0.8760  0.1133 -0.2434
17557SOL    HW254872   0.857   7.764   0.069  0.1331 -0.1204 -0.6424
17558SOL     OW54873   9.506   9.550   4.578 -0.2188  0.4079  0.5635
17558SOL    HW154874   9.569   9.622   4.581  0.3708 -0.1155  1.7075
17558SOL    HW254875   9.422   9.593   4.562  0.2933  1.2174 -0.0554
17559SOL     OW54876   1.037   4.953   7.832  0.2552  0.2756  0.0269
17559SOL    HW154877   1.080   4.923   7.912 -0.2351  0.0237  0.1991
17559SOL    HW254878   0.973   5.018   7.861 -0.1091 -0.0087 -0.1302
17560SOL     OW54879   7.796   8.744   3.119 -0.0156 -0.4643  0.7334
17560SOL    HW154880   7.791   8.779   3.208  0.1286  1.2089  0.1260
17560SOL    HW254881   7.705   8.745   3.088 -0.0723 -1.0935  0.8758
17561SOL     OW54882   7.988   4.835   5.045 -0.4028  0.2248 -0.1934
17561SOL    HW154883   8.061   4.839   4.983 -0.6625  0.9964 -0.4691
17561SOL    HW254884   7.965   4.927   5.060  0.2023  0.0849  1.7137
17562SOL     OW54885   3.437   1.456   9.002  0.3623  0.2003 -0.2018
17562SOL    HW154886   3.401   1.514   9.069 -0.5034 -0.1290 -0.3720
17562SOL    HW254887   3.489   1.392   9.051  0.7108  0.6739  0.0480
17563SOL     OW54888   8.880   5.352   7.996 -0.4012 -0.1139 -0.4431
17563SOL    HW154889   8.857   5.350   7.903  1.1803  0.7738 -0.8940
17563SOL    HW254890   8.834   5.430   8.030 -0.8075 -0.3169 -0.5167
17564SOL     OW54891   9.242   4.963   5.147  0.0393 -0.2734 -0.6857
17564SOL    HW154892   9.311   4.980   5.083  0.6122 -2.2145 -0.6433
17564SOL    HW254893   9.289   4.936   5.226 -0.7472 -1.7008 -0.6818
17565SOL     OW54894   0.319   9.457   3.904  0.1368 -0.1103 -0.0253
17565SOL    HW154895   0.348   9.443   3.994  0.3534  0.5052  0.0046
17565SOL    HW254896   0.382   9.408   3.851  1.3247  1.2533  0.0352
17566SOL     OW54897   4.489   6.597   0.919 -0.1782 -0.4409 -0.4820
17566SOL    HW154898   4.545   6.675   0.911 -2.4317  1.3626  0.2165
17566SOL    HW254899   4.430   6.601   0.844 -0.5287 -1.3033 -0.2670
17567SOL     OW54900   8.361   0.588   2.314  0.4158  0.4278 -0.1045
17567SOL    HW154901   8.401   0.639   2.244  1.1082 -0.4905 -0.4034
17567SOL    HW254902   8.384   0.636   2.394  0.3289  1.0337 -0.4396
17568SOL     OW54903   5.771   4.030   1.943  0.1762 -0.3372 -0.5477
17568SOL    HW154904   5.694   4.000   1.992 -0.3868 -0.0662 -1.2415
17568SOL    HW254905   5.741   4.032   1.851  1.6678 -2.4154 -1.1560
17569SOL     OW54906   1.529   1.513   5.457  0.8142 -0.3909  0.1620
17569SOL    HW154907   1.602   1.486   5.403  2.1952 -0.5750  2.0103
17569SOL    HW254908   1.569   1.551   5.535 -1.0723  0.7601  0.6531
17570SOL     OW54909   4.484   8.724   1.841  0.5089  0.4184 -0.0895
17570SOL    HW154910   4.472   8.785   1.914  2.3300  1.5972 -0.7334
17570SOL    HW254911   4.431   8.761   1.770 -1.1173 -0.6335  0.4930
17571SOL     OW54912   4.323   1.877   5.125 -0.1545  0.0595 -0.1002
17571SOL    HW154913   4.344   1.809   5.189  2.4569  0.6156 -0.2292
17571SOL    HW254914   4.293   1.951   5.177 -0.7841 -0.4208  0.2304
17572SOL     OW54915   2.354   8.722   1.001  0.7332 -0.4114 -0.4224
17572SOL    HW154916   2.272   8.675   1.016  1.5049 -2.2756 -1.6400
17572SOL    HW254917   2.333   8.813   1.019 -1.9515 -0.6227 -1.8943
17573SOL     OW54918   2.071   8.087   7.458 -0.3594  0.1951  0.2838
17573SOL    HW154919   2.089   8.086   7.552 -2.3252  1.1408  0.7137
17573SOL    HW254920   2.148   8.130   7.420  0.9509 -1.1627  1.3067
17574SOL     OW54921   7.924   4.967   0.309 -0.4555 -0.0210 -0.2058
17574SOL    HW154922   7.891   4.887   0.351  0.8476 -0.9443 -0.8584
17574SOL    HW254923   7.919   5.034   0.377 -2.0059 -0.5318  0.2216
17575SOL     OW54924   3.301   8.669   9.578 -0.0927  0.1513 -0.0450
17575SOL    HW154925   3.356   8.676   9.656  1.5667  1.2067 -1.2559
17575SOL    HW254926   3.226   8.725   9.596  0.1998  0.2638  0.8615
17576SOL     OW54927   7.381   5.767   5.015 -0.2533  0.3121  0.3914
17576SOL    HW154928   7.468   5.762   4.977 -0.0788 -1.8477  0.9426
17576SOL    HW254929   7.333   5.826   4.957  1.3767  1.0304 -0.2830
17577SOL     OW54930   5.547   9.124   6.709  0.3168 -0.4673 -0.3594
17577SOL    HW154931   5.635   9.120   6.671  0.4171  0.4539 -0.2629
17577SOL    HW254932   5.527   9.218   6.710 -0.4677 -0.6371  0.0751
17578SOL     OW54933   7.416   6.056   5.356  0.4217 -0.2896 -0.8481
17578SOL    HW154934   7.433   6.147   5.333  0.4751  0.2152  0.9749
17578SOL    HW254935   7.498   6.011   5.337  2.7294  1.2649  3.6911
17579SOL     OW54936   8.188   8.979   6.299 -0.4536 -0.5283 -0.2383
17579SOL    HW154937   8.123   9.031   6.251 -2.0439 -0.3399  1.9971
17579SOL    HW254938   8.246   9.045   6.338 -0.3964 -0.5886 -0.2230
17580SOL     OW54939   9.289   2.810   7.363  0.0849 -0.3772 -0.5923
17580SOL    HW154940   9.343   2.835   7.288  1.7549 -3.8695 -0.7395
17580SOL    HW254941   9.339   2.840   7.439  0.5633 -0.6100 -0.8063
17581SOL     OW54942   9.122   8.821   8.405  0.2146 -0.2225 -0.1746
17581SOL    HW154943   9.133   8.848   8.314  0.4248  1.1947  0.2448
17581SOL    HW254944   9.029   8.799   8.412  0.0998  0.1044 -0.6114
17582SOL     OW54945   5.349   1.679   6.690 -0.6782 -0.5706  0.1157
17582SOL    HW154946   5.361   1.624   6.613 -2.8672  0.0924 -0.7602
17582SOL    HW254947   5.255   1.697   6.693 -0.6634 -0.4214  2.8408
17583SOL     OW54948   5.047   3.737   0.552 -0.2671 -0.6390  0.0041
17583SOL    HW154949   5.005   3.807   0.603 -1.9750 -0.7998 -1.1052
17583SOL    HW254950   4.990   3.661   0.563  0.2840 -1.1727 -0.7326
17584SOL     OW54951   2.395   5.322   8.264 -0.4147  0.0399 -0.2675
17584SOL    HW154952   2.444   5.269   8.201 -0.5816  0.3531 -0.6635
17584SOL    HW254953   2.303   5.308   8.239 -0.5670 -0.8418  0.6966
17585SOL     OW54954   1.423   4.279   8.234 -0.6222  0.1358 -0.6014
17585SOL    HW154955   1.469   4.218   8.292 -0.0398  2.3472  1.4436
17585SOL    HW254956   1.375   4.337   8.294 -1.6547  1.3033 -2.4612
17586SOL     OW54957   3.929   2.221   5.182 -0.9916  0.4142  0.0080
17586SOL    HW154958   3.999   2.271   5.140 -1.5270  1.3249  0.1891
17586SOL    HW254959   3.867   2.203   5.112  0.3384 -2.1761 -0.6446
17587SOL     OW54960   2.303   0.870   3.818  0.1301  0.1483 -0.4999
17587SOL    HW154961   2.278   0.890   3.908 -0.5857  0.3577 -0.7384
17587SOL    HW254962   2.397   0.857   3.822  0.3106  1.4560  0.0415
17588SOL     OW54963   3.517   6.839   2.953  0.2033 -0.4418  0.0101
17588SOL    HW154964   3.565   6.757   2.957 -0.2999 -0.7624 -0.4046
17588SOL    HW254965   3.441   6.820   2.897 -0.4754  0.0228  0.7583
17589SOL     OW54966   6.289   8.935   0.099 -0.0148 -0.0661  0.5974
17589SOL    HW154967   6.225   8.868   0.123  1.0298 -1.1666  0.3974
17589SOL    HW254968   6.238   9.016   0.094 -2.0753 -1.3632 -2.6932
17590SOL     OW54969   6.148   7.672   4.589  0.5948 -0.1924  0.2253
17590SOL    HW154970   6.110   7.676   4.677  2.0802 -0.7697  0.9091
17590SOL    HW254971   6.183   7.760   4.574 -2.3114  0.8931 -1.0867
17591SOL     OW54972   2.150   2.438   4.603  0.0080  0.0980 -0.5180
17591SOL    HW154973   2.227   2.428   4.547  0.6409  1.6637  0.0115
17591SOL    HW254974   2.184   2.432   4.692 -0.4536  0.8979 -0.2786
17592SOL     OW54975   0.218   2.459   5.616 -0.1369 -0.4364  1.0844
17592SOL    HW154976   0.205   2.545   5.577 -2.0657  0.1912  2.9170
17592SOL    HW254977   0.191   2.397   5.548 -0.0303  0.4507  0.2131
17593SOL     OW54978   6.325   2.514   0.538 -0.1598  0.4011 -0.3825
17593SOL    HW154979   6.365   2.600   0.550  0.6781  0.1243 -1.0708
17593SOL    HW254980   6.368   2.458   0.603 -0.1546  0.3294 -0.4473
17594SOL     OW54981   8.023   1.668   0.145 -0.0524 -0.3638  0.1909
17594SOL    HW154982   8.061   1.716   0.218 -1.2984 -0.1839  0.7553
17594SOL    HW254983   7.934   1.704   0.137 -0.1511 -0.8253 -1.0057
17595SOL     OW54984   9.425   9.546   8.610 -0.1180  0.1330 -0.2002
17595SOL    HW154985   9.484   9.474   8.586 -0.5036  0.3053 -1.7271
17595SOL    HW254986   9.351   9.503   8.653 -0.6651 -0.4841 -1.7024
17596SOL     OW54987   7.492   6.577   2.146 -0.1781  0.1921 -0.0585
17596SOL    HW154988   7.411   6.525   2.148 -0.0539  0.0043  0.0965
17596SOL    HW254989   7.518   6.577   2.054  0.0858 -0.4367  0.0080
17597SOL     OW54990   7.398   1.193   5.002 -0.2810  0.4033 -0.3056
17597SOL    HW154991   7.489   1.164   5.001  0.0348  1.3569 -1.1552
17597SOL    HW254992   7.391   1.254   4.929 -1.2989  1.3012  0.5011
17598SOL     OW54993   9.029   4.181   7.627  0.3091  0.7972  0.2546
17598SOL    HW154994   9.085   4.103   7.631  0.1699  0.6727 -0.1163
17598SOL    HW254995   9.075   4.241   7.569 -0.4004  0.2993 -0.8693
17599SOL     OW54996   7.640   8.214   4.502 -0.5740  0.2587 -0.1067
17599SOL    HW154997   7.734   8.233   4.496 -0.3692 -0.6767 -0.0894
17599SOL    HW254998   7.615   8.242   4.590 -0.1122 -0.2625  0.1994
17600SOL     OW54999   1.204   4.260   9.511 -0.1538  0.4597  0.4730
17600SOL    HW155000   1.267   4.190   9.527 -0.3932  0.2353  0.4428
17600SOL    HW255001   1.134   4.245   9.575  1.1031  2.3145  2.4096
17601SOL     OW55002   8.859   2.939   2.062 -0.3304 -0.2990  0.0778
17601SOL    HW155003   8.788   2.999   2.038 -0.0081 -0.7841 -2.3556
17601SOL    HW255004   8.909   2.986   2.128 -0.8269  1.5973 -0.8171
17602SOL     OW55005   5.567   0.309   8.761  0.0309  0.0242  0.4354
17602SOL    HW155006   5.630   0.238   8.776  1.7197  1.4010  0.2233
17602SOL    HW255007   5.504   0.301   8.833  0.2343 -1.6004  0.4656
17603SOL     OW55008   8.858   6.170   0.946 -0.1304 -0.3637  0.1069
17603SOL    HW155009   8.920   6.129   1.007  0.6618 -1.0360 -1.1046
17603SOL    HW255010   8.788   6.106   0.935  0.4810 -0.8909 -0.8227
17604SOL     OW55011   7.626   6.904   1.040 -0.3738 -0.2092 -0.0477
17604SOL    HW155012   7.594   6.889   1.129 -1.4023 -0.5310 -0.4598
17604SOL    HW255013   7.553   6.878   0.984  0.3916 -0.3435 -0.9969
17605SOL     OW55014   8.023   6.810   2.587  0.2366  0.0343 -0.5679
17605SOL    HW155015   8.033   6.716   2.571 -0.0134  0.1526 -1.4379
17605SOL    HW255016   7.933   6.829   2.563 -0.7466 -0.0868  2.6331
17606SOL     OW55017   8.975   8.457   8.046 -0.1443 -0.0857 -0.4126
17606SOL    HW155018   9.009   8.379   8.001 -0.4418 -0.2273 -0.3919
17606SOL    HW255019   9.023   8.530   8.007 -0.8350 -0.1452 -1.3793
17607SOL     OW55020   8.016   4.801   6.054  0.3728  0.8549  0.0866
17607SOL    HW155021   7.932   4.756   6.045  1.1927 -0.6270 -0.6479
17607SOL    HW255022   8.038   4.828   5.965  1.5155 -0.4573 -0.0770
17608SOL     OW55023   5.535   3.151   0.504  0.2400  0.3170 -0.3087
17608SOL    HW155024   5.476   3.155   0.579  0.6501 -0.0853  0.0488
17608SOL    HW255025   5.543   3.242   0.474 -0.3164  0.4120 -0.1766
17609SOL     OW55026   2.690   0.335   5.665 -0.4121  0.9179  0.3160
17609SOL    HW155027   2.595   0.344   5.656 -0.4119  0.5112 -0.1816
17609SOL    HW255028   2.719   0.303   5.579  0.2052  1.2716  0.3899
17610SOL     OW55029   7.275   9.070   1.610 -0.3635  0.5284 -0.0463
17610SOL    HW155030   7.271   9.119   1.528 -0.6917  1.1180  0.3149
17610SOL    HW255031   7.351   9.106   1.656 -0.6381  0.7466  0.2434
17611SOL     OW55032   6.446   3.905   4.517 -0.1220  0.2973 -0.7154
17611SOL    HW155033   6.516   3.840   4.516 -1.7690 -1.8246  2.5542
17611SOL    HW255034   6.383   3.873   4.452 -1.1759 -1.9538  1.2307
17612SOL     OW55035   5.299   2.896   1.476 -0.0615 -0.4614 -0.0555
17612SOL    HW155036   5.258   2.943   1.404  0.8861  0.1971 -0.1871
17612SOL    HW255037   5.269   2.942   1.555 -0.2562 -0.5177 -0.0972
17613SOL     OW55038   2.714   7.929   1.646  0.5366  0.1513  0.0673
17613SOL    HW155039   2.676   7.892   1.566 -0.8209  3.0351 -0.7295
17613SOL    HW255040   2.662   7.892   1.717 -1.1568  0.8937 -0.7353
17614SOL     OW55041   3.998   2.728   0.944  0.1701  0.0803  0.3779
17614SOL    HW155042   4.015   2.764   0.856  0.4886  1.4323  0.9694
17614SOL    HW255043   3.973   2.637   0.928  1.7761 -0.1709 -1.0063
17615SOL     OW55044   0.466   6.085   1.131  0.0702  0.0042  0.4445
17615SOL    HW155045   0.442   6.072   1.223  1.6334 -1.2102  0.7206
17615SOL    HW255046   0.537   6.023   1.116 -1.2504 -1.0369 -2.0705
17616SOL     OW55047   6.465   2.342   8.939 -0.2316 -0.5618 -0.0286
17616SOL    HW155048   6.484   2.310   9.027 -2.6296  1.7658  1.5077
17616SOL    HW255049   6.392   2.287   8.909 -0.2239 -0.5760 -0.0210
17617SOL     OW55050   5.358   9.149   0.350  0.6780 -0.1565  0.0216
17617SOL    HW155051   5.309   9.231   0.343 -0.1935 -0.4299  2.1892
17617SOL    HW255052   5.295   9.086   0.385  1.4796 -1.6338 -1.1021
17618SOL     OW55053   1.704   0.228   4.168  0.1977  0.5730 -0.1569
17618SOL    HW155054   1.731   0.136   4.169 -3.2535 -0.5913 -1.1831
17618SOL    HW255055   1.696   0.251   4.261  0.0304 -0.5211  0.1163
17619SOL     OW55056   4.374   4.449   1.641  0.1275 -0.0415 -0.2038
17619SOL    HW155057   4.441   4.492   1.694  0.2175  1.4224 -1.4160
17619SOL    HW255058   4.380   4.357   1.664  2.9377 -0.0425 -0.6464
17620SOL     OW55059   0.238   2.632   8.197  0.2115  0.2650  0.4330
17620SOL    HW155060   0.263   2.724   8.183 -2.3042  1.0236  0.5578
17620SOL    HW255061   0.165   2.617   8.138 -0.9048 -0.9596  2.0485
17621SOL     OW55062   3.882   3.974   4.364 -0.2251 -0.1460 -0.2448
17621SOL    HW155063   3.967   4.016   4.372  1.0667 -2.3351 -1.5455
17621SOL    HW255064   3.836   3.997   4.445  2.0606  0.0927  1.0612
17622SOL     OW55065   5.818   1.167   5.424 -0.2269 -0.1884  0.5177
17622SOL    HW155066   5.749   1.165   5.358 -1.0240 -0.8921  1.3261
17622SOL    HW255067   5.812   1.254   5.463 -0.5212 -0.1625  0.4198
17623SOL     OW55068   7.055   0.719   4.913  0.3011 -0.1826 -0.3204
17623SOL    HW155069   7.065   0.652   4.980  0.2319  0.4591  0.3481
17623SOL    HW255070   7.010   0.675   4.841  0.8638 -1.0241 -0.1732
17624SOL     OW55071   7.855   0.726   2.614 -0.2517  0.6873  0.3790
17624SOL    HW155072   7.801   0.729   2.693  2.4159 -1.2728  2.4573
17624SOL    HW255073   7.937   0.767   2.639  0.4544  0.6321 -1.6462
17625SOL     OW55074   4.579   3.447   7.636  0.0503  0.1614  0.1494
17625SOL    HW155075   4.628   3.366   7.620  1.1056  1.3649 -3.8383
17625SOL    HW255076   4.647   3.512   7.655 -0.5186  0.7368  0.2427
17626SOL     OW55077   0.569   4.398   1.498 -0.3173 -0.2774 -0.0258
17626SOL    HW155078   0.527   4.337   1.558 -0.5498  1.8083  2.0592
17626SOL    HW255079   0.499   4.428   1.441 -0.2704 -1.6031 -0.8361
17627SOL     OW55080   4.290   0.012   6.986  0.1951  0.3932 -0.3922
17627SOL    HW155081   4.384   0.020   7.003 -0.1487  0.6948  1.6539
17627SOL    HW255082   4.269   0.082   6.925  0.7755  2.4173  1.6159
17628SOL     OW55083   0.956   0.179   2.826  0.1947 -0.1898  0.1481
17628SOL    HW155084   1.004   0.252   2.865  1.6896 -1.2713  0.4631
17628SOL    HW255085   0.922   0.213   2.743 -0.4295  1.2665  0.9770
17629SOL     OW55086   9.311   6.728   8.612  0.0173 -0.0969  0.2051
17629SOL    HW155087   9.325   6.809   8.564 -1.4278  0.6337  0.9613
17629SOL    HW255088   9.259   6.674   8.552 -1.2212  0.5641  0.6301
17630SOL     OW55089   7.124   4.496   1.348  0.1524 -0.0233  0.0299
17630SOL    HW155090   7.183   4.564   1.316 -2.7245  2.2033 -1.0291
17630SOL    HW255091   7.097   4.526   1.435 -0.1286 -0.5431  0.1307
17631SOL     OW55092   8.425   5.324   3.569  0.6709 -0.2026  0.6580
17631SOL    HW155093   8.357   5.382   3.534  2.1719  0.1934 -1.9031
17631SOL    HW255094   8.445   5.359   3.656 -1.1403  0.7292  0.7361
17632SOL     OW55095   2.830   4.393   2.434 -0.5504  0.3638  0.7306
17632SOL    HW155096   2.755   4.348   2.395 -0.2322  0.2992  0.1843
17632SOL    HW255097   2.791   4.451   2.500 -1.0127 -0.2519  1.0110
17633SOL     OW55098   6.412   1.227   7.800  0.7511 -0.1453  0.8681
17633SOL    HW155099   6.441   1.179   7.723 -1.1987  0.8855 -0.6071
17633SOL    HW255100   6.468   1.305   7.801  0.1743  0.3026 -0.0990
17634SOL     OW55101   1.521   2.610   6.251  0.0229  0.0984  0.3566
17634SOL    HW155102   1.502   2.530   6.201  0.1687  0.5371 -0.4095
17634SOL    HW255103   1.581   2.659   6.196  0.0390  0.6865  0.8882
17635SOL     OW55104   4.595   9.176   3.054  0.1340 -0.4869 -0.5119
17635SOL    HW155105   4.583   9.197   3.147  0.7975 -3.3454  0.2961
17635SOL    HW255106   4.679   9.217   3.031 -0.8665  1.7744 -0.4334
17636SOL     OW55107   6.742   2.283   0.438 -0.2226 -0.3251 -0.2141
17636SOL    HW155108   6.749   2.332   0.520  3.3300 -3.7833  1.8735
17636SOL    HW255109   6.685   2.208   0.459  0.1827 -0.9070 -1.1085
17637SOL     OW55110   1.866   7.112   0.195 -0.2887  0.3668 -0.3250
17637SOL    HW155111   1.874   7.188   0.137  0.4298 -0.1983 -0.9918
17637SOL    HW255112   1.774   7.088   0.189 -0.1918  0.1812 -1.4367
17638SOL     OW55113   7.538   8.131   5.903 -0.2097 -0.2215 -0.2252
17638SOL    HW155114   7.464   8.149   5.844  0.0821 -0.5707 -0.7055
17638SOL    HW255115   7.529   8.038   5.924 -1.3638  0.2737  1.7634
17639SOL     OW55116   9.241   0.642   0.505 -0.2168  0.3289 -0.1052
17639SOL    HW155117   9.246   0.668   0.597 -0.2266 -0.9755  0.2849
17639SOL    HW255118   9.200   0.556   0.507  0.2486  0.0635 -1.3030
17640SOL     OW55119   1.614   9.281   3.045 -0.1097 -0.1190  0.2656
17640SOL    HW155120   1.707   9.266   3.027 -0.6220 -0.8128 -2.1312
17640SOL    HW255121   1.583   9.198   3.081 -0.1845 -0.5738 -0.8020
17641SOL     OW55122   1.830   8.519   1.666 -0.3095 -0.0216 -0.2306
17641SOL    HW155123   1.886   8.534   1.743 -0.8069 -0.7580  0.2880
17641SOL    HW255124   1.790   8.605   1.649 -0.2510  0.1365  0.3837
17642SOL     OW55125   1.361   0.751   2.663 -0.3966 -0.1336  0.1641
17642SOL    HW155126   1.372   0.661   2.632 -2.3202 -0.6285  0.7771
17642SOL    HW255127   1.275   0.778   2.630 -0.7727  0.7077  1.6975
17643SOL     OW55128   6.792   0.091   4.869  0.1460  0.9430  0.0440
17643SOL    HW155129   6.758   0.027   4.931 -0.2319  0.0695 -1.0378
17643SOL    HW255130   6.866   0.047   4.828  2.2593  2.5574  1.8666
17644SOL     OW55131   7.239   1.975   5.054  0.2783 -0.2356 -0.2488
17644SOL    HW155132   7.145   1.962   5.057  0.0522  1.0715 -1.0088
17644SOL    HW255133   7.275   1.905   5.109 -1.0792 -1.1156 -0.4482
17645SOL     OW55134   8.392   8.343   3.838 -0.2561  0.2073 -0.1079
17645SOL    HW155135   8.322   8.329   3.774 -0.1021 -0.1427 -0.1960
17645SOL    HW255136   8.461   8.388   3.790 -0.6653  1.1100  0.1261
17646SOL     OW55137   3.792   8.539   6.697 -0.6572 -0.0805  0.2174
17646SOL    HW155138   3.742   8.612   6.662  0.3319  0.7580  0.5075
17646SOL    HW255139   3.880   8.575   6.713  0.2525 -1.6571 -0.9075
17647SOL     OW55140   8.841   0.491   0.493  0.2357 -0.2691 -0.3260
17647SOL    HW155141   8.848   0.492   0.588 -1.4773 -1.5364 -0.1326
17647SOL    HW255142   8.749   0.513   0.476  0.3126 -0.8860 -1.6378
17648SOL     OW55143   5.375   9.524   3.795 -0.4444  0.7930  0.9163
17648SOL    HW155144   5.305   9.589   3.784  0.4810  1.8803  1.2580
17648SOL    HW255145   5.437   9.565   3.856  1.4718  0.7217 -0.8497
17649SOL     OW55146   6.103   4.672   8.951 -0.3114  0.1457 -0.2478
17649SOL    HW155147   6.027   4.629   8.911 -0.3944 -0.2819  0.3539
17649SOL    HW255148   6.123   4.744   8.892  0.4625 -1.3010 -1.8173
17650SOL     OW55149   0.258   7.042   9.265  0.8415  0.5669 -0.0267
17650SOL    HW155150   0.284   7.043   9.173 -1.8046 -2.5303 -1.0073
17650SOL    HW255151   0.206   7.121   9.277  1.5296  1.1926 -1.0645
17651SOL     OW55152   3.660   1.465   3.213 -0.0993 -0.0458 -0.0200
17651SOL    HW155153   3.663   1.421   3.298  0.8677 -0.5148 -0.2872
17651SOL    HW255154   3.712   1.544   3.226  2.3279 -1.4171 -0.8763
17652SOL     OW55155   6.699   3.788   6.303  0.5479 -0.1203 -0.3425
17652SOL    HW155156   6.621   3.786   6.248 -0.3259  1.2484  0.7630
17652SOL    HW255157   6.708   3.698   6.335 -0.3650 -0.3846 -0.7859
17653SOL     OW55158   7.892   9.212   1.370  0.3291  0.0377 -0.5902
17653SOL    HW155159   7.895   9.211   1.465 -0.3068 -0.3880 -0.5696
17653SOL    HW255160   7.975   9.172   1.343 -0.0278 -0.9928 -0.1994
17654SOL     OW55161   2.616   7.721   8.627  0.2623  0.0935 -0.1658
17654SOL    HW155162   2.633   7.695   8.718  0.7463 -1.9250 -0.7972
17654SOL    HW255163   2.702   7.727   8.587 -0.0306 -2.0556 -1.2467
17655SOL     OW55164   0.927   4.831   5.386 -0.1450  0.4444  0.2875
17655SOL    HW155165   0.896   4.809   5.474  2.5819 -1.4303  0.9352
17655SOL    HW255166   0.969   4.917   5.396  1.2761 -0.3066  1.2246
17656SOL     OW55167   7.795   1.997   4.459 -0.5602  0.6500 -0.3988
17656SOL    HW155168   7.883   2.023   4.486  0.2624 -1.5135 -0.7776
17656SOL    HW255169   7.757   2.076   4.421  2.4032  0.9177 -3.1781
17657SOL     OW55170   1.010   9.563   0.329  0.1258 -0.0422 -0.7024
17657SOL    HW155171   1.024   9.636   0.389  1.3739 -0.0115 -0.9961
17657SOL    HW255172   1.006   9.486   0.385 -0.4817  0.1732 -0.4451
17658SOL     OW55173   1.390   2.605   8.935 -0.0915 -0.5169 -0.4531
17658SOL    HW155174   1.392   2.541   8.864  0.6531 -1.1557  0.1264
17658SOL    HW255175   1.301   2.638   8.935 -0.9312 -2.6129  0.1396
17659SOL     OW55176   7.488   8.826   6.317  0.1844  0.3170  1.2063
17659SOL    HW155177   7.416   8.778   6.276  0.3913  0.4574  0.6720
17659SOL    HW255178   7.504   8.900   6.259  0.5301  0.4777  1.5053
17660SOL     OW55179   6.590   0.483   9.037  0.2062  0.1129  0.5040
17660SOL    HW155180   6.678   0.507   9.067  0.4935  0.1835 -0.3721
17660SOL    HW255181   6.532   0.538   9.089  0.7789  1.4872 -0.2596
17661SOL     OW55182   6.487   0.221   3.920 -0.0831  0.1481 -0.2497
17661SOL    HW155183   6.396   0.220   3.893 -0.5596  1.3046  1.1741
17661SOL    HW255184   6.505   0.131   3.946 -1.2372  0.1599  0.6857
17662SOL     OW55185   0.025   0.454   7.333  0.7256 -0.4547  0.1669
17662SOL    HW155186   0.010   0.489   7.421  1.1566 -0.2374  0.1514
17662SOL    HW255187   0.115   0.477   7.312  0.7146 -0.7509 -0.2228
17663SOL     OW55188   4.586   0.709   2.910 -0.2355  0.2029  0.5110
17663SOL    HW155189   4.539   0.630   2.937  0.4562 -0.4798 -0.2296
17663SOL    HW255190   4.525   0.756   2.854  0.0739 -0.8679 -0.7645
17664SOL     OW55191   3.735   5.025   3.778  0.6296 -0.3678 -0.4191
17664SOL    HW155192   3.727   5.121   3.779 -0.0536 -0.4111 -0.8858
17664SOL    HW255193   3.649   4.994   3.749  0.1553 -1.2145  1.7338
17665SOL     OW55194   7.101   5.641   7.540  0.1192  0.1139  0.2636
17665SOL    HW155195   7.166   5.697   7.582  1.6055 -0.2673 -1.3582
17665SOL    HW255196   7.090   5.567   7.600 -0.7527  1.3723  1.7251
17666SOL     OW55197   1.289   5.870   1.776  0.0936 -0.1339  0.2499
17666SOL    HW155198   1.223   5.825   1.828 -0.0736 -1.1057 -0.7552
17666SOL    HW255199   1.357   5.895   1.839 -0.7928  0.0457  1.1463
17667SOL     OW55200   8.083   0.517   3.022 -0.2618  0.4829  0.5651
17667SOL    HW155201   8.115   0.553   3.104  0.0724 -1.2614  1.2323
17667SOL    HW255202   7.997   0.557   3.010  0.1587  1.6034  1.1644
17668SOL     OW55203   1.825   2.406   8.786  0.2342 -0.2032 -0.2112
17668SOL    HW155204   1.906   2.434   8.745  0.3095  1.6639  1.1050
17668SOL    HW255205   1.764   2.478   8.773 -1.3146 -1.6273 -1.2999
17669SOL     OW55206   4.175   6.059   2.544  0.0314  0.2420  0.3033
17669SOL    HW155207   4.243   6.098   2.599 -0.4005 -0.7641  1.6039
17669SOL    HW255208   4.093   6.091   2.580 -0.2560 -0.4013  0.2343
17670SOL     OW55209   3.204   3.969   2.824  0.0410 -0.1407 -0.0716
17670SOL    HW155210   3.179   4.048   2.873  0.6283 -0.6431  1.0879
17670SOL    HW255211   3.213   3.902   2.891  1.0786 -0.8133 -0.8635
17671SOL     OW55212   2.707   3.770   7.693  0.5834 -0.0653 -0.4050
17671SOL    HW155213   2.803   3.766   7.691  0.5467 -1.6862 -0.1275
17671SOL    HW255214   2.680   3.679   7.696 -0.9513  0.4011  1.2919
17672SOL     OW55215   2.867   8.661   8.832 -0.0943 -0.3314 -0.7737
17672SOL    HW155216   2.948   8.641   8.785  2.3823  2.0565  1.9879
17672SOL    HW255217   2.818   8.719   8.773  3.1203  2.9890 -0.5528
17673SOL     OW55218   3.180   2.546   3.942 -0.0388 -0.1810 -0.0244
17673SOL    HW155219   3.208   2.459   3.915 -0.3804 -0.9319  1.9256
17673SOL    HW255220   3.094   2.533   3.980 -0.6975  1.2496 -0.9126
17674SOL     OW55221   3.264   7.057   1.333 -0.3182 -0.3421  0.0727
17674SOL    HW155222   3.196   7.097   1.387 -0.9696 -1.4418  0.1015
17674SOL    HW255223   3.346   7.084   1.373 -0.7482  0.6688  0.2846
17675SOL     OW55224   6.686   6.146   7.252  0.5165 -0.2568  0.2010
17675SOL    HW155225   6.637   6.227   7.235 -0.9876 -0.7338  1.9695
17675SOL    HW255226   6.755   6.172   7.313  0.4083 -0.2094  0.3020
17676SOL     OW55227   1.506   6.727   3.746 -0.2682  0.2736  0.5262
17676SOL    HW155228   1.492   6.641   3.786  1.8541 -0.8350 -0.9534
17676SOL    HW255229   1.425   6.745   3.698  0.2854 -2.3496 -1.6089
17677SOL     OW55230   6.467   5.162   8.155  0.4690 -0.1494  0.5495
17677SOL    HW155231   6.487   5.105   8.229 -1.0763 -3.5958 -1.4901
17677SOL    HW255232   6.387   5.208   8.182  0.6042 -0.4336  1.4736
17678SOL     OW55233   3.726   3.896   8.820  0.8950  0.1970  0.0165
17678SOL    HW155234   3.685   3.897   8.734  0.3568  2.9213  0.2241
17678SOL    HW255235   3.660   3.930   8.879  1.4379 -1.1198  1.4694
17679SOL     OW55236   7.068   2.396   7.127 -0.0974  0.0449  0.0243
17679SOL    HW155237   7.082   2.489   7.142  1.4225 -0.2889  0.8698
17679SOL    HW255238   7.141   2.369   7.071 -0.6135 -0.6142 -0.3487
17680SOL     OW55239   1.493   1.618   6.372  0.3286  0.4720  0.3430
17680SOL    HW155240   1.550   1.596   6.446 -0.1181 -1.0396  0.2740
17680SOL    HW255241   1.544   1.595   6.294  0.4572  1.2160  0.2027
17681SOL     OW55242   2.153   1.741   0.564  0.7492 -0.2333 -0.4298
17681SOL    HW155243   2.104   1.658   0.557  1.0766 -0.3432 -1.6762
17681SOL    HW255244   2.105   1.791   0.631 -1.3211 -0.1927 -1.8330
17682SOL     OW55245   5.546   6.024   6.200  0.1328  0.0091 -0.1349
17682SOL    HW155246   5.524   5.932   6.213  2.0783 -0.8137 -2.0477
17682SOL    HW255247   5.621   6.039   6.257  0.4296  0.1314 -0.5554
17683SOL     OW55248   2.864   7.145   4.356  0.3628 -0.3833  0.3484
17683SOL    HW155249   2.867   7.083   4.283  1.1619  0.1773 -0.1024
17683SOL    HW255250   2.915   7.102   4.425  0.2938 -0.5485  0.2983
17684SOL     OW55251   4.473   6.868   9.183  0.5092  0.2342  0.2062
17684SOL    HW155252   4.556   6.915   9.184 -0.3637  1.8744 -0.3530
17684SOL    HW255253   4.407   6.935   9.203 -0.6305 -1.1736  1.4931
17685SOL     OW55254   5.977   5.483   1.231  0.2232  0.8690  0.4826
17685SOL    HW155255   5.995   5.539   1.155  0.9440  1.2324  0.9130
17685SOL    HW255256   5.886   5.502   1.253  0.3877  1.6989  0.4741
17686SOL     OW55257   3.079   2.740   8.672 -0.1071 -0.1204 -0.5324
17686SOL    HW155258   2.994   2.781   8.684 -0.5820 -1.2256  0.0329
17686SOL    HW255259   3.061   2.646   8.670  0.5797 -0.3653 -4.6790
17687SOL     OW55260   1.483   6.114   3.867 -0.1670  0.4340 -0.2873
17687SOL    HW155261   1.536   6.110   3.946 -0.6710 -0.1044  0.0321
17687SOL    HW255262   1.478   6.023   3.837 -0.9260  0.4731 -0.2962
17688SOL     OW55263   2.352   2.413   1.056  0.0827  0.2250  0.0008
17688SOL    HW155264   2.359   2.477   1.127 -1.4097  1.4196 -0.8569
17688SOL    HW255265   2.381   2.460   0.978 -0.6599 -0.2444 -0.5819
17689SOL     OW55266   7.828   1.228   8.781 -0.5951  0.1940  0.3658
17689SOL    HW155267   7.889   1.252   8.851  0.3979  1.1553 -0.7932
17689SOL    HW255268   7.813   1.135   8.793 -1.4020  0.5342  2.5778
17690SOL     OW55269   0.213   8.852   5.384 -0.2649  0.1124  0.0168
17690SOL    HW155270   0.238   8.814   5.300  0.6681  2.5452 -0.8926
17690SOL    HW255271   0.147   8.792   5.419  0.5619 -1.8546 -1.6267
17691SOL     OW55272   9.011   9.051   0.547  0.0911  0.3791 -0.3924
17691SOL    HW155273   9.030   8.987   0.479  0.7794  0.4329 -0.2561
17691SOL    HW255274   8.930   9.020   0.587  0.3970 -0.3962 -0.3451
17692SOL     OW55275   3.189   5.322   4.436  0.2132  0.4592 -0.1666
17692SOL    HW155276   3.217   5.240   4.396  0.7407  0.0774  0.9473
17692SOL    HW255277   3.242   5.330   4.515 -0.5690  1.3422  0.2979
17693SOL     OW55278   2.684   3.436   2.950 -0.6220  0.0490  0.0618
17693SOL    HW155279   2.727   3.401   2.872  0.0078 -0.4157  0.6051
17693SOL    HW255280   2.729   3.518   2.968 -0.9546  0.2997 -0.2109
17694SOL     OW55281   6.800   3.765   8.609 -0.6738  0.2444  0.7592
17694SOL    HW155282   6.704   3.771   8.601 -0.5686 -0.4166 -2.1026
17694SOL    HW255283   6.815   3.716   8.690 -2.7773 -0.3779  0.8290
17695SOL     OW55284   3.921   4.409   0.510 -0.1564  0.1327 -0.2119
17695SOL    HW155285   3.951   4.360   0.586 -1.4490  0.9959  0.8834
17695SOL    HW255286   3.985   4.388   0.442  2.1335  0.8187  1.6044
17696SOL     OW55287   1.805   4.942   3.863 -0.0345  0.2162 -0.1113
17696SOL    HW155288   1.793   4.870   3.925 -1.1524  0.5258  0.0718
17696SOL    HW255289   1.814   5.020   3.919  0.9673  0.2570 -0.3107
17697SOL     OW55290   0.836   2.547   7.194  0.1799  0.0872  0.2883
17697SOL    HW155291   0.769   2.500   7.243  0.5866  0.0726  0.8487
17697SOL    HW255292   0.917   2.499   7.212  0.4856  0.6055  0.3315
17698SOL     OW55293   4.674   5.464   1.229  0.0347 -0.8864 -1.1832
17698SOL    HW155294   4.663   5.548   1.274  2.2554 -0.3101 -1.5600
17698SOL    HW255295   4.628   5.476   1.146 -1.9116 -1.0407 -0.1842
17699SOL     OW55296   6.666   7.493   8.555 -0.3679 -0.1553 -0.6934
17699SOL    HW155297   6.635   7.448   8.634 -1.3545 -0.0272 -1.0000
17699SOL    HW255298   6.588   7.532   8.517  0.0272 -0.5590 -1.9718
17700SOL     OW55299   4.023   9.422   0.153 -0.3392 -0.2909 -0.4463
17700SOL    HW155300   3.936   9.406   0.188 -0.4197  3.0743  1.3475
17700SOL    HW255301   4.009   9.446   0.061 -0.8860 -2.7040 -1.0417
17701SOL     OW55302   2.151   6.476   4.438  0.5924  0.1606 -0.2670
17701SOL    HW155303   2.099   6.401   4.467 -0.4057  0.1227 -2.0605
17701SOL    HW255304   2.242   6.448   4.450  0.2281 -1.1958 -0.5696
17702SOL     OW55305   2.803   4.569   0.729  0.2148 -0.1842 -0.2362
17702SOL    HW155306   2.896   4.550   0.718  0.3236  0.4477 -0.4143
17702SOL    HW255307   2.800   4.649   0.780 -0.2473 -0.6789  0.5393
17703SOL     OW55308   8.718   7.060   9.139 -0.6770  0.4297 -0.2050
17703SOL    HW155309   8.728   7.143   9.187 -2.5354 -0.1888  1.3723
17703SOL    HW255310   8.714   6.993   9.208 -0.0622 -0.9061 -1.4166
17704SOL     OW55311   1.338   3.252   5.208 -0.5401 -0.0983 -0.3757
17704SOL    HW155312   1.287   3.243   5.289 -1.2301  0.0435 -0.7824
17704SOL    HW255313   1.320   3.172   5.159 -0.6718  0.1180 -0.6857
17705SOL     OW55314   1.626   2.006   4.124 -0.9193  0.1358  0.6370
17705SOL    HW155315   1.577   1.990   4.044 -1.8559  1.9812  0.7846
17705SOL    HW255316   1.632   1.920   4.166  0.5769 -1.0987 -1.8900
17706SOL     OW55317   8.235   4.923   1.381 -0.0129  0.1126  0.5257
17706SOL    HW155318   8.156   4.976   1.386  0.6999  1.0813  2.2226
17706SOL    HW255319   8.285   4.962   1.309 -0.4703  0.3569  0.3389
17707SOL     OW55320   2.958   2.030   6.861  0.0010  0.5705  0.7055
17707SOL    HW155321   2.871   2.032   6.900 -0.3124  0.2252  0.0584
17707SOL    HW255322   2.946   1.978   6.781  0.7991  0.5268  0.6082
17708SOL     OW55323   5.050   7.285   6.833  0.4681 -0.6304  0.0619
17708SOL    HW155324   5.056   7.203   6.884 -1.7450 -1.2931 -0.6148
17708SOL    HW255325   5.012   7.348   6.894  2.0664 -0.0790  0.5466
17709SOL     OW55326   1.377   1.995   2.315  0.2735 -0.5210 -0.0978
17709SOL    HW155327   1.303   1.936   2.306 -0.0219 -0.1062 -0.4322
17709SOL    HW255328   1.347   2.077   2.276  0.9105 -0.3530 -0.2483
17710SOL     OW55329   4.614   6.648   7.759 -0.1529  0.3404 -0.9406
17710SOL    HW155330   4.672   6.718   7.730 -1.1634  1.6223  0.0083
17710SOL    HW255331   4.613   6.655   7.854 -1.8265  0.3563 -0.9251
17711SOL     OW55332   5.792   1.079   8.064  0.6244 -0.1057  0.0169
17711SOL    HW155333   5.698   1.099   8.060  0.9964  1.6912 -0.4013
17711SOL    HW255334   5.814   1.084   8.157  0.5141  0.5854  0.0121
17712SOL     OW55335   3.368   9.353   1.125 -0.5003 -0.1026 -0.7488
17712SOL    HW155336   3.337   9.406   1.051 -1.6096 -0.2064 -0.3671
17712SOL    HW255337   3.374   9.415   1.198 -0.5315 -0.2369 -0.6316
17713SOL     OW55338   0.671   9.569   0.401  0.1320 -0.1513 -0.0741
17713SOL    HW155339   0.694   9.659   0.423 -2.7995  0.3180  1.5755
17713SOL    HW255340   0.755   9.524   0.394  1.6798  2.6152 -0.7082
17714SOL     OW55341   8.669   0.445   0.814 -0.5398  0.1433  0.4876
17714SOL    HW155342   8.731   0.376   0.835 -0.2541 -0.2486 -1.4678
17714SOL    HW255343   8.606   0.404   0.755 -0.4295  1.5068 -0.6186
17715SOL     OW55344   2.008   0.856   2.565 -0.5116 -0.0348  0.5991
17715SOL    HW155345   1.939   0.825   2.506 -0.3778  0.6756  0.0607
17715SOL    HW255346   1.984   0.946   2.586  0.1292  0.1426  0.5921
17716SOL     OW55347   2.581   6.774   2.526  0.2072 -0.6298  0.3940
17716SOL    HW155348   2.612   6.822   2.603 -0.9377  0.1707  0.3836
17716SOL    HW255349   2.575   6.683   2.555 -0.2673 -0.3291  1.2784
17717SOL     OW55350   7.791   0.349   0.931 -0.8342 -0.7867  0.3288
17717SOL    HW155351   7.784   0.381   0.841 -2.4506 -0.1369  0.6446
17717SOL    HW255352   7.736   0.270   0.932  0.4191 -1.6774  0.3887
17718SOL     OW55353   4.948   8.110   0.493  0.0573 -0.3521  0.5870
17718SOL    HW155354   4.864   8.112   0.448 -0.0114 -0.8969  0.6813
17718SOL    HW255355   4.944   8.031   0.547  0.6303 -0.3850  0.5859
17719SOL     OW55356   2.207   3.072   5.926  0.3810 -0.1903 -0.1489
17719SOL    HW155357   2.268   3.010   5.965  0.2446 -0.0198  0.3345
17719SOL    HW255358   2.120   3.036   5.944  0.3388 -1.2781 -2.2256
17720SOL     OW55359   1.030   5.518   8.199  0.1545  0.0894  0.3922
17720SOL    HW155360   1.062   5.477   8.279  0.2574 -0.9734 -0.1765
17720SOL    HW255361   0.955   5.464   8.174  0.0903  0.4525 -0.1981
17721SOL     OW55362   8.390   3.511   8.975  0.1493 -0.5392  0.5445
17721SOL    HW155363   8.361   3.492   9.064 -0.7537 -0.0824  0.3514
17721SOL    HW255364   8.465   3.569   8.987 -1.0599  1.0000  0.9942
17722SOL     OW55365   1.627   4.285   5.100 -0.1703 -0.6386  0.4031
17722SOL    HW155366   1.595   4.373   5.079  0.9690 -0.1080  0.8418
17722SOL    HW255367   1.671   4.256   5.019  0.9173 -0.1142  0.7890
17723SOL     OW55368   3.141   2.174   0.710 -0.0744 -0.1251  0.4428
17723SOL    HW155369   3.213   2.234   0.688  0.5859  0.0464  2.7309
17723SOL    HW255370   3.085   2.224   0.769 -0.2576 -1.3016  1.3151
17724SOL     OW55371   9.525   0.502   3.788 -0.1073  0.4588  0.0329
17724SOL    HW155372   9.599   0.462   3.742  0.4029  0.8460  0.5044
17724SOL    HW255373   9.564   0.573   3.839 -0.6661  0.0227  1.0910
17725SOL     OW55374   8.231   7.893   2.153 -0.0038 -0.1473 -0.2870
17725SOL    HW155375   8.151   7.943   2.137  0.7908  1.4125  0.3690
17725SOL    HW255376   8.231   7.878   2.248  0.2408 -0.5560 -0.3512
17726SOL     OW55377   8.370   2.501   7.366 -0.3773  0.7854 -0.1061
17726SOL    HW155378   8.432   2.572   7.383 -1.0016  1.0060  1.4031
17726SOL    HW255379   8.288   2.546   7.346 -0.4133  0.4923 -0.6149
17727SOL     OW55380   7.149   7.543   5.301  0.4799  0.2184 -0.2410
17727SOL    HW155381   7.066   7.557   5.348 -0.3352 -0.2403 -1.4738
17727SOL    HW255382   7.195   7.626   5.310  1.5702 -0.5767  3.5120
17728SOL     OW55383   1.960   0.032   3.617 -0.3685 -0.4844  0.1595
17728SOL    HW155384   1.939  -0.027   3.545 -1.4068 -0.8939  0.7817
17728SOL    HW255385   1.989   0.113   3.575  0.9070 -1.3539 -0.7085
17729SOL     OW55386   3.725   2.324   3.414 -0.1038 -0.4736  0.0561
17729SOL    HW155387   3.745   2.388   3.482 -0.1208 -1.1460  0.7110
17729SOL    HW255388   3.811   2.295   3.382 -0.0348 -1.4417  1.0404
17730SOL     OW55389   0.511   5.600   6.849 -0.0922  0.4906  0.7387
17730SOL    HW155390   0.566   5.646   6.786  0.6941 -0.1969  0.9117
17730SOL    HW255391   0.485   5.520   6.805  0.5826 -0.0636  1.3283
17731SOL     OW55392   6.735   2.672   3.175 -0.1326  0.7269 -0.0584
17731SOL    HW155393   6.659   2.644   3.124  0.8456  2.2780 -2.5361
17731SOL    HW255394   6.742   2.766   3.160 -0.0244  1.4329  3.4275
17732SOL     OW55395   6.696   2.850   4.379  0.3901 -0.5604 -0.2874
17732SOL    HW155396   6.719   2.915   4.446 -0.7585  0.1937 -0.6002
17732SOL    HW255397   6.630   2.796   4.421  0.1912 -0.5340 -0.5663
17733SOL     OW55398   4.312   4.104   0.035 -0.1966 -1.0070  0.1738
17733SOL    HW155399   4.315   4.012   0.008  1.1035 -0.9374  0.0008
17733SOL    HW255400   4.341   4.103   0.127 -0.1462 -0.7729  0.1609
17734SOL     OW55401   9.093   6.365   3.339 -0.0498 -0.4704  0.1843
17734SOL    HW155402   9.072   6.412   3.420 -0.1145 -1.8868  1.0265
17734SOL    HW255403   9.031   6.292   3.338  1.3856 -1.7126 -0.0150
17735SOL     OW55404   6.906   5.751   5.533  0.2143  0.1959  0.2463
17735SOL    HW155405   6.839   5.761   5.600  1.5750  0.1645  1.6699
17735SOL    HW255406   6.920   5.656   5.527 -0.4312  0.1471 -0.6473
17736SOL     OW55407   6.415   5.013   3.932 -0.0279 -0.1787 -0.8402
17736SOL    HW155408   6.458   5.078   3.877 -1.3312  0.4404 -1.1567
17736SOL    HW255409   6.327   5.006   3.897 -0.9627  0.3669  1.2604
17737SOL     OW55410   8.653   2.802   7.747 -0.1892  0.5284  0.1496
17737SOL    HW155411   8.629   2.762   7.831  0.9353 -0.7293 -0.0773
17737SOL    HW255412   8.745   2.777   7.735 -0.2764  0.8614 -1.3641
17738SOL     OW55413   0.560   8.738   1.087 -0.3213  0.1236  0.7296
17738SOL    HW155414   0.610   8.744   1.169 -0.5526  1.0709  0.8198
17738SOL    HW255415   0.537   8.829   1.067 -2.1618 -0.2941  0.7816
17739SOL     OW55416   0.328   6.640   0.966 -0.1144  0.3570  0.5161
17739SOL    HW155417   0.349   6.643   0.873  1.2905 -1.7003  0.7102
17739SOL    HW255418   0.413   6.644   1.010 -0.4832 -2.0792  1.5737
17740SOL     OW55419   2.192   2.562   8.276  0.0379  0.6237 -0.4376
17740SOL    HW155420   2.113   2.508   8.269 -0.0412  0.6187  0.4560
17740SOL    HW255421   2.161   2.648   8.305  0.2643  0.9001 -0.9922
17741SOL     OW55422   2.408   7.943   8.202  0.1089  0.9210  0.6583
17741SOL    HW155423   2.397   7.905   8.290  0.1433 -0.6810 -0.0022
17741SOL    HW255424   2.319   7.961   8.173 -0.4907 -3.6559 -1.0854
17742SOL     OW55425   1.691   4.508   7.132  1.0117 -0.5448 -0.3263
17742SOL    HW155426   1.691   4.596   7.170  0.9593 -0.1315 -1.2638
17742SOL    HW255427   1.603   4.475   7.150  1.5866 -1.1692  1.6853
17743SOL     OW55428   4.442   9.310   1.477  0.5992  0.2337  0.2511
17743SOL    HW155429   4.525   9.262   1.486  0.5580  0.2518  0.7656
17743SOL    HW255430   4.400   9.272   1.401  2.0387  1.6485 -1.3375
17744SOL     OW55431   3.474   1.244   6.941  0.7440 -0.2494  0.3334
17744SOL    HW155432   3.431   1.284   7.016  0.4017  0.1035 -0.0502
17744SOL    HW255433   3.410   1.181   6.908  0.6162  0.0962 -0.0849
17745SOL     OW55434   2.212   2.308   0.603 -0.6659  0.3985  0.7603
17745SOL    HW155435   2.260   2.246   0.549 -2.2977 -0.0401 -0.2616
17745SOL    HW255436   2.254   2.303   0.689  0.6120 -0.4922  0.1117
17746SOL     OW55437   6.821   4.071   8.205 -0.4443 -0.1289 -0.3137
17746SOL    HW155438   6.758   4.142   8.217  2.8062  2.7119  2.0314
17746SOL    HW255439   6.875   4.074   8.284  1.5282 -3.5754 -1.3220
17747SOL     OW55440   1.326   2.078   1.084 -0.9348 -0.0889 -0.5052
17747SOL    HW155441   1.241   2.106   1.119 -0.8599 -1.9812  1.4229
17747SOL    HW255442   1.380   2.064   1.161  1.0119  0.5770 -1.6805
17748SOL     OW55443   4.188   4.726   1.281  0.0622  0.5899  0.0261
17748SOL    HW155444   4.163   4.719   1.189 -1.0897  0.3692  0.3380
17748SOL    HW255445   4.269   4.674   1.288 -1.3334 -1.7777 -0.3158
17749SOL     OW55446   6.468   3.198   6.012  0.1864 -0.1343  0.1317
17749SOL    HW155447   6.540   3.261   6.007 -0.0989  0.1966  0.1793
17749SOL    HW255448   6.415   3.217   5.935  0.1386 -0.3640  0.1092
17750SOL     OW55449   5.106   8.684   1.429 -0.4943  0.2824 -0.3261
17750SOL    HW155450   5.164   8.656   1.358  0.9542 -2.1376  1.6036
17750SOL    HW255451   5.029   8.719   1.386  0.6797 -0.2605 -3.0520
17751SOL     OW55452   8.444   5.127   8.367 -0.0332  0.4114 -0.5777
17751SOL    HW155453   8.538   5.144   8.373 -0.0999  0.2163  1.9726
17751SOL    HW255454   8.403   5.212   8.384 -0.2994  0.0535  0.6592
17752SOL     OW55455   9.498   7.717   6.298 -0.0915 -0.0266  0.3792
17752SOL    HW155456   9.440   7.647   6.269  2.6589 -2.7270  0.8140
17752SOL    HW255457   9.529   7.758   6.218 -3.2734  2.2753  0.1516
17753SOL     OW55458   8.051   3.300   6.756 -0.3128 -0.1156  0.1958
17753SOL    HW155459   7.992   3.375   6.748  0.0470  0.2802  1.1404
17753SOL    HW255460   8.123   3.320   6.696 -0.0726  0.4580  0.6554
17754SOL     OW55461   1.129   3.857   2.268  0.7533 -0.1927 -0.0925
17754SOL    HW155462   1.077   3.792   2.220  1.8997 -1.2608  0.0674
17754SOL    HW255463   1.069   3.890   2.335  0.4612 -1.9582  0.5908
17755SOL     OW55464   2.774   3.928   0.204  0.2099  0.3472 -0.3671
17755SOL    HW155465   2.857   3.940   0.250 -0.4398  1.5658  0.5443
17755SOL    HW255466   2.768   3.833   0.189  1.6558  0.2226 -0.2610
17756SOL     OW55467   9.410   1.801   3.674  1.0584  0.5857 -0.2043
17756SOL    HW155468   9.403   1.865   3.604  0.1438  0.2866 -0.3939
17756SOL    HW255469   9.323   1.764   3.682  0.9543  1.1194  1.5783
17757SOL     OW55470   2.311   6.495   7.200 -0.1317  0.0607  0.5251
17757SOL    HW155471   2.330   6.425   7.263 -1.3711 -1.2379 -0.4657
17757SOL    HW255472   2.261   6.560   7.251  2.0079  0.8403  1.7406
17758SOL     OW55473   0.595   8.174   6.933 -0.5075  0.8252 -0.6859
17758SOL    HW155474   0.664   8.185   6.999 -0.6312 -1.2073 -0.1672
17758SOL    HW255475   0.516   8.204   6.977 -0.5930 -0.5418  0.1288
17759SOL     OW55476   8.787   7.693   8.148  0.3551  0.0625  0.2650
17759SOL    HW155477   8.774   7.709   8.055 -0.9015  0.7847  0.5342
17759SOL    HW255478   8.862   7.747   8.172  0.9488 -0.4491 -0.3984
17760SOL     OW55479   1.484   7.683   6.025 -0.0443 -0.5663 -0.0297
17760SOL    HW155480   1.458   7.591   6.024 -1.7388 -0.1275  1.0457
17760SOL    HW255481   1.461   7.715   5.938  1.4216 -1.3354 -0.7500
17761SOL     OW55482   6.939   6.729   6.478  0.1520 -0.4021  0.5580
17761SOL    HW155483   7.030   6.749   6.499 -0.1763  0.9927  0.7255
17761SOL    HW255484   6.900   6.707   6.562 -0.1764  1.1493  0.8286
17762SOL     OW55485   4.637   0.854   0.177  0.3503 -0.4326  0.0166
17762SOL    HW155486   4.627   0.773   0.127  1.1994  0.1533 -1.1462
17762SOL    HW255487   4.731   0.858   0.196  0.3237  0.3196 -0.0023
17763SOL     OW55488   4.548   2.052   8.558  0.0506 -0.6721 -0.2116
17763SOL    HW155489   4.558   2.065   8.464  2.4261 -1.2875 -0.1103
17763SOL    HW255490   4.472   1.995   8.566 -2.0117  1.6947 -1.4928
17764SOL     OW55491   7.467   7.641   4.702  0.0677  0.1119  0.1420
17764SOL    HW155492   7.373   7.651   4.688  0.3137  1.2882 -0.9425
17764SOL    HW255493   7.479   7.651   4.796 -1.0994 -2.2404  0.6153
17765SOL     OW55494   6.787   2.438   6.262  0.6535 -0.8049  0.3906
17765SOL    HW155495   6.709   2.384   6.271 -0.7460  0.9628 -0.4084
17765SOL    HW255496   6.780   2.502   6.333  0.2086  0.6817 -0.9387
17766SOL     OW55497   3.766   4.118   9.337  1.1852 -0.7288  0.0370
17766SOL    HW155498   3.729   4.155   9.416  0.7531  1.9379 -1.3049
17766SOL    HW255499   3.854   4.091   9.362  0.4796 -1.5181  1.7894
17767SOL     OW55500   4.797   5.839   6.014  0.8375 -0.1368 -0.7972
17767SOL    HW155501   4.713   5.830   6.058  1.1712 -1.4477 -0.3770
17767SOL    HW255502   4.793   5.776   5.942  1.6858 -0.6667 -0.3976
17768SOL     OW55503   3.315   1.788   4.246  0.5980 -0.1988 -0.0080
17768SOL    HW155504   3.334   1.834   4.327 -3.4837  0.6808  0.6739
17768SOL    HW255505   3.259   1.848   4.196 -2.6226 -3.1516 -0.3307
17769SOL     OW55506   3.669   5.338   9.060  0.3725 -0.0480 -0.5790
17769SOL    HW155507   3.683   5.303   8.972 -0.9907 -1.9199 -0.0985
17769SOL    HW255508   3.581   5.375   9.058  1.4817  2.9307 -0.8499
17770SOL     OW55509   0.179   7.673   9.396 -0.0076 -0.6396 -0.4244
17770SOL    HW155510   0.144   7.635   9.477  3.0788  1.2780  2.0376
17770SOL    HW255511   0.259   7.624   9.379 -0.6376 -1.0534 -2.4491
17771SOL     OW55512   0.764   2.679   6.041 -0.3736 -0.2328  0.5011
17771SOL    HW155513   0.670   2.685   6.023 -0.1293 -1.1975 -1.3889
17771SOL    HW255514   0.769   2.648   6.131 -1.9395 -2.0818  0.0321
17772SOL     OW55515   0.958   2.899   2.488  0.2232  0.5030 -0.0832
17772SOL    HW155516   0.943   2.865   2.576 -0.0628 -0.2439 -0.4044
17772SOL    HW255517   1.049   2.878   2.468 -0.0992 -0.6159 -0.4857
17773SOL     OW55518   7.511   1.536   4.753 -0.4634 -0.0210 -0.0712
17773SOL    HW155519   7.592   1.523   4.803 -0.0522  0.7694 -0.5153
17773SOL    HW255520   7.491   1.629   4.764 -0.2544  0.2110 -1.5265
17774SOL     OW55521   0.779   4.526   3.186  0.1918  0.7435  0.4777
17774SOL    HW155522   0.743   4.500   3.101 -0.4491 -0.1107  1.0031
17774SOL    HW255523   0.856   4.578   3.163 -1.0828  2.2372 -0.6599
17775SOL     OW55524   5.921   6.978   7.091 -0.2740 -0.0470  0.0389
17775SOL    HW155525   5.829   6.998   7.109  0.1504  1.9925  0.1569
17775SOL    HW255526   5.937   7.019   7.006  0.5503 -0.3018  0.0677
17776SOL     OW55527   6.934   5.262   8.374  0.4867 -0.4531 -0.6341
17776SOL    HW155528   7.007   5.319   8.399  1.4829 -1.9446 -0.0578
17776SOL    HW255529   6.862   5.291   8.430  0.6217  0.9861 -1.1518
17777SOL     OW55530   3.522   7.727   5.940  0.5363 -0.0135  0.0584
17777SOL    HW155531   3.573   7.654   5.905 -0.8102 -0.7065 -0.5352
17777SOL    HW255532   3.576   7.804   5.921  1.7282 -0.7739  0.1930
17778SOL     OW55533   0.566   2.014   6.182  0.3832  0.0622  0.4037
17778SOL    HW155534   0.491   1.973   6.224 -0.7424  1.7390  0.1393
17778SOL    HW255535   0.610   2.062   6.253  1.0985 -0.7388  0.5156
17779SOL     OW55536   2.088   9.045   6.286  0.3207 -0.5413  0.1410
17779SOL    HW155537   2.062   9.103   6.358 -0.7809  1.4807 -1.7910
17779SOL    HW255538   2.009   8.995   6.266 -0.1588  0.7355 -1.2864
17780SOL     OW55539   2.512   7.507   3.626 -0.0081  0.1314  0.8886
17780SOL    HW155540   2.518   7.516   3.721  0.3506  1.7194  0.7362
17780SOL    HW255541   2.461   7.582   3.597  1.1047  0.4770 -0.3057
17781SOL     OW55542   1.576   3.509   1.440  0.3228  0.1893  0.1786
17781SOL    HW155543   1.655   3.552   1.406  0.9722 -0.5052  0.7654
17781SOL    HW255544   1.609   3.449   1.507 -0.7359  0.0747  0.6131
17782SOL     OW55545   9.574   0.334   5.175  0.0020 -0.1708  0.0914
17782SOL    HW155546   9.550   0.308   5.264 -0.8051 -1.9921 -0.6039
17782SOL    HW255547   9.520   0.411   5.158 -1.4900 -1.0831  0.4474
17783SOL     OW55548   4.441   8.439   0.672 -0.1890  0.1694  0.0266
17783SOL    HW155549   4.479   8.422   0.759  0.1154  0.1964 -0.1007
17783SOL    HW255550   4.510   8.484   0.624 -0.6353  0.8713  0.0302
17784SOL     OW55551   1.077   7.032   8.493  0.0546  0.6468  0.3576
17784SOL    HW155552   0.999   7.021   8.547 -0.2785  2.0527  0.1864
17784SOL    HW255553   1.045   7.068   8.411  0.9423  2.0329  0.5812
17785SOL     OW55554   0.483   0.328   8.424  0.3496 -0.2949  0.6468
17785SOL    HW155555   0.442   0.393   8.366  0.4180 -0.6227  0.2237
17785SOL    HW255556   0.484   0.370   8.510  0.5914  0.3558  0.3369
17786SOL     OW55557   6.073   2.294   3.033 -0.6012  0.0354  0.1953
17786SOL    HW155558   6.004   2.250   2.983 -1.3419 -1.2421  2.1936
17786SOL    HW255559   6.047   2.281   3.124  0.6424  2.3137  0.9316
17787SOL     OW55560   1.362   3.943   2.068  0.3905 -0.2608  0.0835
17787SOL    HW155561   1.341   4.035   2.051 -1.4538 -0.9216 -1.5939
17787SOL    HW255562   1.312   3.922   2.147  0.0082 -0.0555 -0.0951
17788SOL     OW55563   8.547   4.092   3.902 -0.2779 -0.4185 -0.3214
17788SOL    HW155564   8.584   4.132   3.980  2.7856  1.5018 -2.5001
17788SOL    HW255565   8.572   4.000   3.907  1.2215 -0.0064  0.3134
17789SOL     OW55566   8.348   4.170   6.136 -0.3435 -0.2882 -0.3774
17789SOL    HW155567   8.335   4.244   6.195 -0.4341  0.6221 -1.4963
17789SOL    HW255568   8.274   4.175   6.075  1.0550  0.3179 -2.1001
17790SOL     OW55569   4.998   3.628   2.129  0.1081 -0.1367 -0.4556
17790SOL    HW155570   5.025   3.612   2.219  0.7432  0.4425 -0.5285
17790SOL    HW255571   4.999   3.723   2.120  0.5823 -0.1958 -1.2187
17791SOL     OW55572   9.114   0.285   2.039  0.4531 -0.0390  0.5603
17791SOL    HW155573   9.076   0.326   2.117  2.0200  2.2590  0.1987
17791SOL    HW255574   9.144   0.358   1.985  0.0977 -1.5988 -1.8864
17792SOL     OW55575   3.088   9.098   3.493 -0.6912 -0.0174  0.3017
17792SOL    HW155576   3.014   9.115   3.435 -0.9534 -0.6340  0.4515
17792SOL    HW255577   3.122   9.185   3.514 -0.2175  0.2110 -1.2514
17793SOL     OW55578   2.148   8.139   3.292  0.1591 -0.0987  0.3914
17793SOL    HW155579   2.160   8.071   3.226  0.8603 -0.4667  0.8903
17793SOL    HW255580   2.232   8.185   3.295 -0.3296  0.8459  0.0105
17794SOL     OW55581   7.327   3.147   7.174 -0.8733 -0.1725  0.0740
17794SOL    HW155582   7.302   3.193   7.095 -0.6349  0.5146  0.3878
17794SOL    HW255583   7.401   3.198   7.209 -0.4526 -0.9233  0.3056
17795SOL     OW55584   7.140   0.982   9.333  0.4512 -0.3941 -0.7407
17795SOL    HW155585   7.095   1.065   9.351  0.3115 -0.4065 -1.0225
17795SOL    HW255586   7.225   0.991   9.374  0.0787 -0.4879  0.0773
17796SOL     OW55587   5.275   2.644   6.042 -0.0709 -0.0677  0.4810
17796SOL    HW155588   5.214   2.685   5.982 -1.0598  0.8423  2.0451
17796SOL    HW255589   5.222   2.618   6.117  1.2073 -0.6647  1.2236
17797SOL     OW55590   6.571   4.629   3.443 -0.1591  0.1788  0.2785
17797SOL    HW155591   6.499   4.584   3.399 -0.7977 -0.6705  2.1224
17797SOL    HW255592   6.628   4.558   3.475  1.3911  0.8224 -0.8979
17798SOL     OW55593   3.117   5.457   8.926 -0.0278  0.5597  0.4837
17798SOL    HW155594   3.032   5.420   8.906  0.0657 -0.5893  2.0450
17798SOL    HW255595   3.104   5.552   8.921 -0.8744  0.3793 -1.2167
17799SOL     OW55596   2.283   1.962   6.425 -0.2573  0.2977 -0.0135
17799SOL    HW155597   2.204   2.005   6.457 -0.8919  1.8598 -3.2180
17799SOL    HW255598   2.329   2.030   6.376  1.9640 -1.1495 -0.0834
17800SOL     OW55599   0.293   2.281   8.675  0.4392  0.0713 -0.3112
17800SOL    HW155600   0.358   2.288   8.605 -0.6133 -1.9657 -1.6048
17800SOL    HW255601   0.342   2.251   8.751  1.3960  0.9892 -0.5524
17801SOL     OW55602   0.205   5.867   5.382  0.1560 -0.2266  0.2864
17801SOL    HW155603   0.111   5.872   5.363  0.3239 -1.1220 -0.9152
17801SOL    HW255604   0.223   5.944   5.436 -1.5303 -0.8213  1.7720
17802SOL     OW55605   8.986   1.484   8.341 -0.0612  0.8250  0.0535
17802SOL    HW155606   8.965   1.504   8.250  1.2055  0.6450 -0.3022
17802SOL    HW255607   8.977   1.389   8.347 -0.5235  0.8806  0.2166
17803SOL     OW55608   1.491   6.208   6.772  0.0292 -0.2256  0.2136
17803SOL    HW155609   1.416   6.150   6.783 -0.7433  0.8999  1.1172
17803SOL    HW255610   1.567   6.154   6.793 -0.6220 -1.1041  0.3292
17804SOL     OW55611   1.307   2.251   2.241 -0.2053 -0.0244  0.0102
17804SOL    HW155612   1.228   2.278   2.287 -0.9496  0.1603 -1.3188
17804SOL    HW255613   1.369   2.322   2.256 -0.9478  0.7528 -0.4832
17805SOL     OW55614   3.343   7.705   3.587  0.0795  0.2830  0.1241
17805SOL    HW155615   3.294   7.623   3.594  0.9298 -0.2756 -0.3002
17805SOL    HW255616   3.388   7.713   3.672 -1.2274  1.1362  0.7704
17806SOL     OW55617   9.372   1.984   3.887  0.6938 -0.3458  0.2406
17806SOL    HW155618   9.403   1.909   3.836  0.9173 -1.4637  1.9374
17806SOL    HW255619   9.419   1.978   3.970  1.1536  2.0360  0.2360
17807SOL     OW55620   3.636   4.179   0.015 -0.4738 -0.7906  0.0315
17807SOL    HW155621   3.649   4.231   0.094 -1.4365 -0.0017 -0.2895
17807SOL    HW255622   3.542   4.190  -0.005 -0.9303 -3.3658  0.4170
17808SOL     OW55623   4.562   8.678   3.905  0.4882  0.4627 -0.3296
17808SOL    HW155624   4.506   8.687   3.828  0.2110 -1.5935 -0.4195
17808SOL    HW255625   4.552   8.761   3.952 -1.4089  0.7366 -1.1411
17809SOL     OW55626   8.351   8.747   3.927  0.0195  0.1560 -0.6838
17809SOL    HW155627   8.445   8.763   3.934  0.5651 -2.1369 -2.0336
17809SOL    HW255628   8.334   8.674   3.987 -0.9093  0.5030 -0.5018
17810SOL     OW55629   0.818   5.185   2.141 -0.4529 -0.3526  0.4754
17810SOL    HW155630   0.722   5.182   2.144 -0.7118  3.0940 -0.6521
17810SOL    HW255631   0.844   5.203   2.232 -1.3931  4.1552  0.0640
17811SOL     OW55632   1.200   0.702   2.016 -0.4874  0.4592  0.0858
17811SOL    HW155633   1.106   0.712   2.004 -0.4591  0.2002 -0.4052
17811SOL    HW255634   1.221   0.621   1.969 -0.1997 -0.0829  1.1315
17812SOL     OW55635   4.447   4.587   0.007  0.2053  0.0012  0.1307
17812SOL    HW155636   4.362   4.581  -0.036  1.1628 -1.3412 -1.7374
17812SOL    HW255637   4.449   4.675   0.045 -1.4586  0.5650 -0.9768
17813SOL     OW55638   6.800   8.885   1.270 -0.0228 -0.2408  0.5636
17813SOL    HW155639   6.708   8.872   1.293 -0.1495  1.5198  1.2116
17813SOL    HW255640   6.844   8.893   1.355  0.6939 -0.7954  0.2480
17814SOL     OW55641   0.846   5.266   6.454 -0.7015 -0.1708 -0.4608
17814SOL    HW155642   0.885   5.182   6.480 -1.6516 -0.9631 -1.5140
17814SOL    HW255643   0.853   5.268   6.359  1.7224  2.2005 -0.3818
17815SOL     OW55644   8.953   1.208   7.055 -0.1942 -0.7896  0.5053
17815SOL    HW155645   8.880   1.267   7.074 -0.6448 -1.1722  0.0060
17815SOL    HW255646   9.029   1.265   7.047 -0.4971 -0.3511  0.7256
17816SOL     OW55647   0.488   6.910   4.000 -0.5721  0.2792  0.5833
17816SOL    HW155648   0.482   6.858   4.081  1.7963  1.1846  1.4277
17816SOL    HW255649   0.553   6.865   3.948  0.2845  1.4557  0.6011
17817SOL     OW55650   5.073   6.589   5.010  0.5305  0.2876 -0.5211
17817SOL    HW155651   5.156   6.630   5.035  1.5998 -0.7769 -2.0927
17817SOL    HW255652   5.099   6.506   4.969 -1.3988 -0.7556  0.2381
17818SOL     OW55653   0.481   1.922   4.247 -1.0754 -0.1381  0.2437
17818SOL    HW155654   0.516   1.868   4.176 -0.0627  0.4922  0.2355
17818SOL    HW255655   0.505   2.011   4.222  0.8482 -0.0291  2.1838
17819SOL     OW55656   2.222   7.772   2.021 -0.1012 -0.0494  0.2769
17819SOL    HW155657   2.306   7.752   2.062  0.2589  1.0386  0.1057
17819SOL    HW255658   2.194   7.689   1.982  1.7548 -0.0588 -1.1824
17820SOL     OW55659   3.018   2.666   6.754  0.4243 -0.1114 -0.0956
17820SOL    HW155660   2.932   2.684   6.717 -0.0212  0.4760  1.1811
17820SOL    HW255661   3.000   2.630   6.841  1.4739  0.0358  0.1946
17821SOL     OW55662   0.686   0.477   6.819 -0.1998  0.2024 -0.2256
17821SOL    HW155663   0.633   0.491   6.897  2.3223  0.5473  1.5396
17821SOL    HW255664   0.671   0.385   6.796  0.6674 -0.5519  2.0325
17822SOL     OW55665   1.545   1.535   6.953 -0.1330 -0.2306  0.0627
17822SOL    HW155666   1.636   1.559   6.931 -0.1887 -0.1350 -0.0707
17822SOL    HW255667   1.546   1.440   6.955 -0.4751 -0.3392 -2.0059
17823SOL     OW55668   0.818   6.655   7.460  0.1906  0.3962  0.2093
17823SOL    HW155669   0.819   6.713   7.536 -0.5438  0.2606  0.3279
17823SOL    HW255670   0.881   6.695   7.399 -0.6344  1.5735  0.0968
17824SOL     OW55671   8.986   2.724   1.342  0.2480  0.2919  0.6840
17824SOL    HW155672   9.062   2.691   1.293 -0.7098  0.1332 -0.7783
17824SOL    HW255673   8.938   2.645   1.366 -0.8622  0.4531 -0.8343
17825SOL     OW55674   2.065   2.951   6.888  0.2251  0.2774  0.0336
17825SOL    HW155675   2.102   2.955   6.976 -2.0175  0.2242  1.0645
17825SOL    HW255676   2.038   2.860   6.878  2.5361 -0.2830 -1.6899
17826SOL     OW55677   2.742   1.381   4.236  0.5630  0.3643  0.7162
17826SOL    HW155678   2.681   1.408   4.304 -1.5913  2.5087 -1.8119
17826SOL    HW255679   2.794   1.459   4.217  3.0864 -0.9758  1.6818
17827SOL     OW55680   5.192   1.303   2.746  1.0196 -0.3841  0.0576
17827SOL    HW155681   5.180   1.369   2.813  0.7292 -0.2255 -0.1476
17827SOL    HW255682   5.212   1.223   2.794 -0.3546 -0.5475  0.4013
17828SOL     OW55683   6.002   5.085   0.143  0.1043  0.2515  0.3966
17828SOL    HW155684   6.039   5.000   0.120 -0.5914 -0.2468  1.0320
17828SOL    HW255685   5.907   5.072   0.139 -0.0251  1.2997 -0.5302
17829SOL     OW55686   3.878   2.607   7.620  0.6095  0.4446  0.7374
17829SOL    HW155687   3.942   2.609   7.549  0.9899 -2.2527  0.8871
17829SOL    HW255688   3.819   2.680   7.602 -0.6359 -1.3504 -3.6759
17830SOL     OW55689   2.899   4.673   6.519  0.1385 -0.3886 -0.4914
17830SOL    HW155690   2.816   4.668   6.567  0.3601 -0.5575 -0.1228
17830SOL    HW255691   2.873   4.682   6.427 -0.2862  0.0406 -0.3293
17831SOL     OW55692   7.394   1.399   6.278  0.0881 -0.4390  0.1507
17831SOL    HW155693   7.425   1.475   6.327  2.8737  0.3219 -2.5100
17831SOL    HW255694   7.307   1.425   6.246  0.5786  1.2601  0.1146
17832SOL     OW55695   4.927   5.444   5.994  0.3692 -0.0412 -0.2977
17832SOL    HW155696   4.883   5.360   6.011 -0.4120  0.5819  0.9328
17832SOL    HW255697   5.013   5.419   5.959  1.9906 -1.5911  4.0922
17833SOL     OW55698   2.614   8.623   2.067 -0.0353  0.5496 -0.4058
17833SOL    HW155699   2.622   8.584   2.153 -1.1778  0.5514 -0.2763
17833SOL    HW255700   2.697   8.668   2.052  1.0229 -1.2544 -0.2419
17834SOL     OW55701   4.872   2.461   9.486 -0.0830 -0.6614 -0.3078
17834SOL    HW155702   4.836   2.383   9.529 -1.7414 -1.6759 -3.2711
17834SOL    HW255703   4.964   2.440   9.471  0.6329 -0.1597  2.7739
17835SOL     OW55704   1.406   7.664   1.462  0.4471  0.8855 -0.0214
17835SOL    HW155705   1.331   7.691   1.514 -0.7474  0.1186 -1.2684
17835SOL    HW255706   1.482   7.692   1.512 -0.6706  2.4480  0.8820
17836SOL     OW55707   5.757   5.670   8.463 -0.1500  0.1506 -0.1849
17836SOL    HW155708   5.691   5.607   8.435  1.1142 -0.5530 -1.7421
17836SOL    HW255709   5.766   5.730   8.389 -0.1132  1.1630  0.6103
17837SOL     OW55710   5.859   0.646   4.422  0.3571 -0.0115 -0.0466
17837SOL    HW155711   5.845   0.686   4.508  1.6178  0.1882  0.0875
17837SOL    HW255712   5.839   0.716   4.360  1.7516  0.6239  0.1699
17838SOL     OW55713   1.533   0.005   0.663  0.2214 -0.5407  0.3542
17838SOL    HW155714   1.569   0.092   0.648  0.0372 -0.7591 -1.7611
17838SOL    HW255715   1.609  -0.052   0.672  0.3445 -0.2800  0.9897
17839SOL     OW55716   8.420   7.911   4.138  0.4287  0.3688 -0.1508
17839SOL    HW155717   8.395   7.938   4.226 -0.0395  0.0019 -0.1674
17839SOL    HW255718   8.460   7.989   4.099  0.6499  0.5279  0.3872
17840SOL     OW55719   7.106   6.372   8.175  0.0416 -0.0319  0.4705
17840SOL    HW155720   7.126   6.283   8.206  2.6997 -0.0833 -1.1406
17840SOL    HW255721   7.034   6.359   8.113 -1.7344 -0.5742  2.5056
17841SOL     OW55722   0.251   6.928   1.231 -0.0698 -0.4622 -0.0065
17841SOL    HW155723   0.205   6.858   1.186 -3.1212  1.2852  0.0800
17841SOL    HW255724   0.197   7.006   1.216  1.4317  1.2234  2.5132
17842SOL     OW55725   0.147   2.106   3.950  0.2406 -0.4165  0.5321
17842SOL    HW155726   0.123   2.060   3.870 -1.8426 -0.0149  0.8766
17842SOL    HW255727   0.197   2.183   3.919  3.0382 -2.3153 -0.0813
17843SOL     OW55728   6.074   8.748   4.067 -0.3110 -0.3698 -0.1181
17843SOL    HW155729   6.135   8.695   4.117  0.8374 -1.0320 -2.1045
17843SOL    HW255730   6.084   8.837   4.102  2.3997 -0.2960 -0.8420
17844SOL     OW55731   1.748   4.133   0.419  0.7406 -0.2059 -0.0231
17844SOL    HW155732   1.674   4.132   0.479  0.3158 -0.0086 -0.5402
17844SOL    HW255733   1.712   4.164   0.336  1.6331  0.9863  0.0151
17845SOL     OW55734   2.560   5.284   2.593  0.2660  0.0076  0.4277
17845SOL    HW155735   2.495   5.354   2.585  0.8213  0.5684  0.7639
17845SOL    HW255736   2.604   5.281   2.508  0.4176  0.2444  0.4971
17846SOL     OW55737   3.208   1.757   2.837 -0.8757  0.6428 -0.0488
17846SOL    HW155738   3.290   1.732   2.881 -0.5203  0.0313 -1.0376
17846SOL    HW255739   3.232   1.833   2.784 -1.2552  1.2385  0.6077
17847SOL     OW55740   0.550   6.162   1.910 -0.3532  0.1816 -0.3197
17847SOL    HW155741   0.629   6.214   1.922 -0.9515  0.8660  0.8648
17847SOL    HW255742   0.582   6.074   1.892  0.6884  0.4185  0.2867
17848SOL     OW55743   5.055   8.286   9.447 -0.3420 -0.8360  0.3291
17848SOL    HW155744   5.137   8.287   9.398 -0.7750 -0.0242 -0.4043
17848SOL    HW255745   4.992   8.242   9.390 -0.4656 -1.3345  0.8313
17849SOL     OW55746   0.224   6.663   8.393  0.4511 -0.2112 -0.4063
17849SOL    HW155747   0.144   6.688   8.346  0.4609 -1.3682 -1.0796
17849SOL    HW255748   0.193   6.637   8.479  0.2873  0.7897 -0.1537
17850SOL     OW55749   3.946   6.889   8.111 -0.0999  0.1147 -0.3401
17850SOL    HW155750   4.008   6.875   8.039 -0.2484 -1.1068 -0.2461
17850SOL    HW255751   3.997   6.878   8.190 -0.5847 -1.8552 -0.2508
17851SOL     OW55752   8.984   3.783   5.571 -0.0718  0.3924  0.1267
17851SOL    HW155753   8.921   3.854   5.583  0.9322  1.4291 -0.5696
17851SOL    HW255754   8.978   3.760   5.479 -0.0217 -0.0678  0.2376
17852SOL     OW55755   2.581   0.447   0.140  0.5697 -0.5136 -0.1146
17852SOL    HW155756   2.532   0.498   0.204 -1.3116 -0.8779 -1.1732
17852SOL    HW255757   2.610   0.510   0.075 -1.7749 -0.7009 -1.4364
17853SOL     OW55758   0.027   6.375   8.944  0.5685 -0.0101 -0.2320
17853SOL    HW155759   0.045   6.419   9.027  2.0766 -0.7003 -0.1594
17853SOL    HW255760  -0.026   6.437   8.894  1.9311  1.5560  0.1801
17854SOL     OW55761   9.189   3.002   1.814 -0.3652  0.2609 -0.2726
17854SOL    HW155762   9.148   3.077   1.770 -2.2064 -0.9485 -0.6941
17854SOL    HW255763   9.222   3.038   1.896 -2.9960  1.1856  0.4767
17855SOL     OW55764   8.544   4.035   7.024  0.2206  0.3805  0.4910
17855SOL    HW155765   8.581   4.023   6.936 -0.5522 -0.6346  0.2822
17855SOL    HW255766   8.537   3.946   7.059  1.1533  0.8251  1.8667
17856SOL     OW55767   4.769   3.033   8.166  0.4503  0.0736 -0.1249
17856SOL    HW155768   4.695   3.047   8.108 -0.5116 -1.6725  0.5985
17856SOL    HW255769   4.741   3.069   8.250  0.9410  0.5548 -0.1593
17857SOL     OW55770   0.252   5.116   9.362  0.1528  0.4752 -0.5584
17857SOL    HW155771   0.227   5.023   9.357 -1.4862  0.8337  0.4508
17857SOL    HW255772   0.241   5.139   9.454  0.6954  1.6546 -0.7702
17858SOL     OW55773   4.424   7.110   4.596  0.1301  0.0994 -0.5109
17858SOL    HW155774   4.422   7.021   4.631  2.0629 -0.3978 -1.5009
17858SOL    HW255775   4.478   7.103   4.517  0.4101  2.1680 -0.5493
17859SOL     OW55776   3.403   3.880   6.635  0.1133  0.0006  0.1139
17859SOL    HW155777   3.489   3.885   6.676  0.3651  1.1905 -0.5256
17859SOL    HW255778   3.345   3.846   6.704  0.8486  0.3432  0.9150
17860SOL     OW55779   3.663   3.573   8.533  0.4657 -0.1707 -0.6883
17860SOL    HW155780   3.630   3.535   8.614  1.3983  1.5778  0.5778
17860SOL    HW255781   3.742   3.522   8.513 -0.4650 -1.4471 -1.2680
17861SOL     OW55782   2.520   6.996   2.299  0.0211  0.6858 -0.0834
17861SOL    HW155783   2.525   6.931   2.369 -2.3628  1.9182  1.3485
17861SOL    HW255784   2.459   7.062   2.331 -0.2837  1.9099 -2.8717
17862SOL     OW55785   8.223   5.547   5.770  0.1036  0.1628  0.4215
17862SOL    HW155786   8.200   5.629   5.726 -0.9629  0.4387  1.4205
17862SOL    HW255787   8.148   5.490   5.755  1.5364 -1.3019 -1.7050
17863SOL     OW55788   8.475   2.485   6.807  0.5717 -0.1014  0.1740
17863SOL    HW155789   8.495   2.462   6.716  0.5354 -0.1018  0.1662
17863SOL    HW255790   8.410   2.556   6.800 -0.0947 -0.6975  0.2020
17864SOL     OW55791   2.209   2.237   4.890 -0.0336  0.3489  0.0335
17864SOL    HW155792   2.303   2.227   4.907 -0.1398 -0.1714  0.3602
17864SOL    HW255793   2.197   2.330   4.874  0.3590  0.6071  1.1485
17865SOL     OW55794   5.952   0.189   8.695 -0.1345  0.1252 -0.1022
17865SOL    HW155795   5.933   0.282   8.684  0.3711  0.5319  2.0296
17865SOL    HW255796   5.875   0.154   8.739  0.8157  0.1878  1.7034
17866SOL     OW55797   1.407   1.331   3.390 -0.3105  0.1586  0.3253
17866SOL    HW155798   1.394   1.241   3.419 -0.7709 -0.2624 -1.0899
17866SOL    HW255799   1.350   1.340   3.314 -0.8567  1.9047  0.8927
17867SOL     OW55800   5.770   3.461   4.359  0.5027  0.0704  0.6430
17867SOL    HW155801   5.739   3.512   4.433 -0.5217  0.2002  0.1442
17867SOL    HW255802   5.742   3.510   4.282 -1.5950 -1.7678  0.1151
17868SOL     OW55803   6.601   3.469   7.965 -0.4886 -0.0804 -0.0388
17868SOL    HW155804   6.547   3.514   7.900 -0.3017 -0.1256 -0.2282
17868SOL    HW255805   6.583   3.515   8.047 -1.1373 -0.3727 -0.0149
17869SOL     OW55806   1.936   3.393   5.787  0.5645 -0.9606 -0.0952
17869SOL    HW155807   1.934   3.385   5.692  0.5052 -1.5259 -0.0488
17869SOL    HW255808   2.028   3.384   5.810  0.4840 -1.6592 -0.0329
17870SOL     OW55809   1.532   6.564   1.912 -0.4318 -0.4269 -0.0932
17870SOL    HW155810   1.575   6.540   1.830  1.6393  2.6289 -0.0410
17870SOL    HW255811   1.469   6.631   1.888 -0.2586  0.0479  0.7427
17871SOL     OW55812   9.301   1.078   8.030  0.0852 -0.0800  0.6181
17871SOL    HW155813   9.383   1.123   8.049 -0.0986  1.0764 -1.0618
17871SOL    HW255814   9.322   0.985   8.036  1.2239  0.2128  1.3371
17872SOL     OW55815   1.977   5.044   6.586 -0.2771  0.1577 -0.6492
17872SOL    HW155816   1.881   5.051   6.583 -0.2750  2.5267  1.3203
17872SOL    HW255817   1.996   5.013   6.674  0.7899 -0.7021 -1.1630
17873SOL     OW55818   2.053   8.065   6.888  0.0899  0.3975  0.7241
17873SOL    HW155819   1.982   8.032   6.833 -0.8800  1.7271  1.1395
17873SOL    HW255820   2.093   7.986   6.925 -1.2495 -0.3776  0.5766
17874SOL     OW55821   0.036   0.892   0.923  0.0070  0.1298 -0.1214
17874SOL    HW155822   0.065   0.980   0.946  0.0504  0.8780 -2.6856
17874SOL    HW255823   0.115   0.839   0.924  0.5303  0.8406 -1.4495
17875SOL     OW55824   5.911   6.332   8.279  0.2494  0.1520  0.0852
17875SOL    HW155825   5.975   6.261   8.284  1.2709  1.0431 -0.0579
17875SOL    HW255826   5.920   6.379   8.362  0.0744  0.5348 -0.1100
17876SOL     OW55827   1.610   9.018   5.509 -0.2247  0.0766  0.7290
17876SOL    HW155828   1.561   9.077   5.451 -0.5761 -0.0902  0.8517
17876SOL    HW255829   1.559   8.937   5.509  1.2787 -0.9504 -1.0101
17877SOL     OW55830   4.883   6.272   2.739  0.3447 -0.1302 -0.1608
17877SOL    HW155831   4.926   6.357   2.733  0.7722 -0.2552  0.9745
17877SOL    HW255832   4.893   6.234   2.652 -0.2752  1.1740 -0.8242
17878SOL     OW55833   7.144   7.482   7.958 -0.1290  0.1317  0.2241
17878SOL    HW155834   7.049   7.480   7.946 -0.0034  0.0555 -0.8937
17878SOL    HW255835   7.179   7.452   7.874  0.8670 -1.0671  1.0228
17879SOL     OW55836   5.339   3.748   3.531 -0.1350 -0.5181 -0.1455
17879SOL    HW155837   5.263   3.793   3.493  0.0114  0.3991  0.6119
17879SOL    HW255838   5.306   3.661   3.554 -0.4627 -0.7742 -1.5118
17880SOL     OW55839   1.238   9.577   0.198  0.3934  0.3660 -0.3156
17880SOL    HW155840   1.311   9.534   0.242 -0.4856 -1.6871 -0.7551
17880SOL    HW255841   1.172   9.587   0.266  0.3269  0.3647 -0.3803
17881SOL     OW55842   3.283   7.583   2.412 -0.6508  0.0825  0.0822
17881SOL    HW155843   3.307   7.511   2.471 -0.5026  1.4690  1.8224
17881SOL    HW255844   3.211   7.548   2.360  0.2508 -1.7231 -0.0495
17882SOL     OW55845   8.495   2.111   7.745  0.1851  0.3900 -0.0410
17882SOL    HW155846   8.538   2.063   7.674  0.8343  0.9520 -0.0309
17882SOL    HW255847   8.444   2.179   7.700 -1.0278 -0.5042 -0.0786
17883SOL     OW55848   1.967   1.300   6.362  0.4275  0.3042  0.6817
17883SOL    HW155849   2.004   1.369   6.306  2.0137 -1.6856 -0.9078
17883SOL    HW255850   2.043   1.258   6.402 -0.2903 -1.6535  0.1331
17884SOL     OW55851   9.014   0.067   1.047 -0.2819  0.0218 -0.2378
17884SOL    HW155852   9.087   0.045   1.104  0.9047  2.1247 -0.8219
17884SOL    HW255853   8.939   0.075   1.106  0.1553 -1.2012  0.5115
17885SOL     OW55854   1.054   2.336   1.622  0.1989  0.2183 -0.3180
17885SOL    HW155855   1.040   2.411   1.679 -0.6983  1.0185 -1.5378
17885SOL    HW255856   0.973   2.285   1.630  1.5752 -1.7687  2.0739
17886SOL     OW55857   7.683   1.219   4.315  0.2942 -0.5620 -0.4510
17886SOL    HW155858   7.664   1.276   4.240 -0.3853 -0.5800 -0.3013
17886SOL    HW255859   7.728   1.275   4.377 -0.0691 -0.2688 -0.4458
17887SOL     OW55860   0.727   8.083   1.877  0.0430 -0.2737 -0.3968
17887SOL    HW155861   0.744   7.993   1.907  1.5384  0.5927  1.5341
17887SOL    HW255862   0.792   8.098   1.808  0.1477 -0.4918 -0.3463
17888SOL     OW55863   8.227   0.171   6.400 -0.8389  0.4401  0.0834
17888SOL    HW155864   8.263   0.248   6.356  1.5758 -1.0643 -0.8159
17888SOL    HW255865   8.157   0.141   6.343 -0.7743  1.0936 -0.3531
17889SOL     OW55866   5.763   9.073   1.112 -0.1754 -0.9520  0.0496
17889SOL    HW155867   5.851   9.098   1.085  0.1927 -0.5160  1.5695
17889SOL    HW255868   5.736   9.142   1.173 -1.1047 -1.6962  0.5104
17890SOL     OW55869   9.300   2.693   5.205 -0.8278 -0.3137  0.3414
17890SOL    HW155870   9.263   2.656   5.285  0.5331  2.9033  2.6739
17890SOL    HW255871   9.395   2.687   5.218 -0.5761  1.8643 -0.1081
17891SOL     OW55872   6.549   3.115   2.634 -0.0245  0.4747 -0.2387
17891SOL    HW155873   6.481   3.164   2.679  0.4867  0.0857  0.9942
17891SOL    HW255874   6.630   3.163   2.654  0.1046  0.8381 -1.5475
17892SOL     OW55875   8.219   7.284   8.602 -0.2683  0.4545 -0.0894
17892SOL    HW155876   8.290   7.301   8.663  0.5575  0.3722 -1.0112
17892SOL    HW255877   8.208   7.189   8.604  0.3385  0.3645 -0.6924
17893SOL     OW55878   2.321   7.352   6.363  0.0969  0.7972 -0.1749
17893SOL    HW155879   2.351   7.319   6.278 -0.7830 -0.7799  0.0855
17893SOL    HW255880   2.343   7.445   6.362  1.3305  0.5239 -1.5739
17894SOL     OW55881   6.767   0.108   5.765 -0.1570 -0.2057 -0.0030
17894SOL    HW155882   6.804   0.189   5.729  0.3138 -0.5674 -0.3412
17894SOL    HW255883   6.676   0.131   5.786 -0.6724 -0.1673 -2.0944
17895SOL     OW55884   8.334   5.022   2.979 -0.1479 -0.5466 -0.7220
17895SOL    HW155885   8.426   5.049   2.979 -0.2220 -0.2195 -2.0092
17895SOL    HW255886   8.337   4.927   2.965  0.0001 -0.5410 -0.7310
17896SOL     OW55887   7.292   5.079   5.875  0.5744  0.4137  1.1208
17896SOL    HW155888   7.223   5.022   5.909 -0.2780  0.5916 -0.2203
17896SOL    HW255889   7.365   5.020   5.854  0.2601  0.0179  1.1378
17897SOL     OW55890   6.809   0.636   3.607  1.0437 -0.2882 -0.4136
17897SOL    HW155891   6.740   0.701   3.600  2.3070  1.1476 -0.0194
17897SOL    HW255892   6.765   0.557   3.640 -0.4213  0.5248 -0.3688
17898SOL     OW55893   1.908   1.902   4.476 -0.4951  0.1508  0.2049
17898SOL    HW155894   1.817   1.898   4.503 -0.3482  1.0311  0.8590
17898SOL    HW255895   1.930   1.995   4.476  0.0503  0.0524 -1.1742
17899SOL     OW55896   1.022   6.846   0.101 -0.1845  0.0178 -0.2271
17899SOL    HW155897   0.958   6.785   0.138 -1.5682 -0.0684 -2.5922
17899SOL    HW255898   1.081   6.791   0.049  0.9569  0.2817  0.7425
17900SOL     OW55899   4.017   5.104   4.283  0.1272  0.4568 -0.3718
17900SOL    HW155900   4.017   5.049   4.361  0.9111  1.1518  0.1376
17900SOL    HW255901   4.101   5.087   4.240 -0.4942 -0.2778 -1.3399
17901SOL     OW55902   9.364   4.217   1.995 -0.1090  0.1129  0.0795
17901SOL    HW155903   9.277   4.218   2.035 -0.0017 -1.2501  0.3865
17901SOL    HW255904   9.425   4.217   2.068  0.1608  1.0321 -0.1347
17902SOL     OW55905   5.470   7.202   4.926  0.2693 -0.3901  0.1132
17902SOL    HW155906   5.461   7.265   4.854  2.4520 -0.3696 -0.2294
17902SOL    HW255907   5.504   7.123   4.883 -1.7422 -1.6142  0.6461
17903SOL     OW55908   4.403   1.923   0.946 -0.6094  0.1678  0.4013
17903SOL    HW155909   4.468   1.937   0.877 -2.5668 -0.5916 -1.7290
17903SOL    HW255910   4.441   1.964   1.024  2.0893  0.3073 -0.8843
17904SOL     OW55911   9.149   2.290   6.641  0.0238  0.2242 -0.0473
17904SOL    HW155912   9.155   2.356   6.572  3.1700 -1.9896 -2.1932
17904SOL    HW255913   9.206   2.323   6.711  0.5559  0.3926 -0.5515
17905SOL     OW55914   0.185   0.862   5.159  0.5248 -0.4103  0.4662
17905SOL    HW155915   0.183   0.924   5.087  3.3315  0.5331  1.0702
17905SOL    HW255916   0.207   0.778   5.118  1.7163  0.0410  0.1496
17906SOL     OW55917   1.323   0.397   3.530  0.3306  0.1745  0.1712
17906SOL    HW155918   1.355   0.314   3.565  2.3414  1.0693  0.5903
17906SOL    HW255919   1.380   0.414   3.455 -0.8668  0.5955 -0.6650
17907SOL     OW55920   2.677   3.318   6.733  0.2595  0.2048  0.2297
17907SOL    HW155921   2.603   3.327   6.792 -0.2702 -0.2738 -0.3460
17907SOL    HW255922   2.666   3.387   6.668 -0.7753 -1.0280 -0.9787
17908SOL     OW55923   0.737   3.628   1.113  0.3849  0.1394  0.4252
17908SOL    HW155924   0.799   3.556   1.099 -0.5243 -0.3359 -1.4221
17908SOL    HW255925   0.769   3.699   1.058 -0.8451 -0.2223 -0.8072
17909SOL     OW55926   1.825   0.804   1.982  0.6546  0.0920 -0.6752
17909SOL    HW155927   1.871   0.832   2.061 -0.3143 -0.7935  0.2216
17909SOL    HW255928   1.888   0.749   1.936  0.7300 -0.5756  0.2078
17910SOL     OW55929   4.462   7.061   5.241  0.1238  0.7745 -0.0158
17910SOL    HW155930   4.401   7.044   5.169 -0.7455  0.3446  0.7886
17910SOL    HW255931   4.527   6.992   5.234  0.0579  0.7534 -0.4162
17911SOL     OW55932   8.414   8.301   5.312  0.2457 -0.2088 -0.1880
17911SOL    HW155933   8.359   8.378   5.331  2.6907  2.4005 -2.7252
17911SOL    HW255934   8.359   8.246   5.256 -1.1009  0.3273  0.5487
17912SOL     OW55935   8.935   8.812   7.390  0.3378 -0.6694  0.1738
17912SOL    HW155936   8.948   8.880   7.456 -0.3971  0.0139 -0.3623
17912SOL    HW255937   8.869   8.754   7.429  0.4174 -0.6575  0.3266
17913SOL     OW55938   2.833   3.377   3.987  0.4449  0.0173  0.1474
17913SOL    HW155939   2.882   3.344   4.062 -1.3283  1.0108  1.8300
17913SOL    HW255940   2.853   3.470   3.984  2.2417 -0.3479 -2.0695
17914SOL     OW55941   0.032   6.952   3.817  0.2463  0.2313 -0.0421
17914SOL    HW155942   0.102   6.982   3.875  1.5211 -2.8704  0.1745
17914SOL    HW255943   0.019   7.025   3.756  3.7716  0.9021 -0.1743
17915SOL     OW55944   5.580   3.506   0.824 -0.3759 -0.0980 -0.5034
17915SOL    HW155945   5.635   3.544   0.755 -1.1933  0.6933 -0.7413
17915SOL    HW255946   5.642   3.461   0.882  0.4820  0.4499 -0.9687
17916SOL     OW55947   9.193   4.364   9.509 -0.0525 -0.3077 -0.4090
17916SOL    HW155948   9.100   4.378   9.493 -0.3492  0.4854  1.6975
17916SOL    HW255949   9.236   4.440   9.469 -0.3414 -0.4341 -0.9652
17917SOL     OW55950   0.720   6.397   7.546 -0.6331  0.0672  0.0513
17917SOL    HW155951   0.627   6.396   7.521 -1.6399  1.6484  3.1885
17917SOL    HW255952   0.751   6.484   7.521  0.0338 -0.4547 -0.9826
17918SOL     OW55953   0.156   8.131   9.172  0.3057 -0.5885 -0.0302
17918SOL    HW155954   0.191   8.048   9.203  2.7330  0.0547 -0.8169
17918SOL    HW255955   0.121   8.173   9.250  0.8518 -1.5206  0.7328
17919SOL     OW55956   5.068   3.762   5.912 -0.1363  0.5026 -0.5825
17919SOL    HW155957   5.029   3.694   5.966 -0.9307 -0.0002 -1.7500
17919SOL    HW255958   5.050   3.735   5.822  3.5753 -0.2068 -1.2909
17920SOL     OW55959   1.691   3.352   3.490 -0.0415 -0.3186 -0.2757
17920SOL    HW155960   1.708   3.313   3.404  0.7113 -0.9330  0.1423
17920SOL    HW255961   1.603   3.324   3.512 -0.6127  0.6278 -1.2607
17921SOL     OW55962   2.982   7.734   4.000 -0.2002 -0.4592  0.3917
17921SOL    HW155963   2.929   7.739   3.921 -0.6780  1.4995  0.7787
17921SOL    HW255964   2.922   7.704   4.068 -0.6265  0.8970  0.6418
17922SOL     OW55965   0.525   2.632   6.751 -0.6197 -0.2839 -0.2840
17922SOL    HW155966   0.565   2.626   6.838 -0.1953 -0.4928 -0.4924
17922SOL    HW255967   0.437   2.666   6.768 -0.8048 -1.0217  0.3051
17923SOL     OW55968   4.481   5.510   0.608 -0.7077  0.0130 -0.5169
17923SOL    HW155969   4.484   5.606   0.599 -1.5144 -0.1062 -2.9457
17923SOL    HW255970   4.427   5.495   0.686  1.7280  1.4755  1.6131
17924SOL     OW55971   2.707   5.426   2.784 -0.1854  0.7563  0.1673
17924SOL    HW155972   2.667   5.510   2.804 -1.4019  0.1653  0.2864
17924SOL    HW255973   2.647   5.385   2.722  1.9007  1.2383 -2.3646
17925SOL     OW55974   1.652   9.317   7.910  0.6184 -0.1423 -0.5983
17925SOL    HW155975   1.694   9.402   7.900  0.1988  0.1384 -0.0117
17925SOL    HW255976   1.565   9.328   7.872  0.7596 -0.4805 -1.0414
17926SOL     OW55977   8.570   8.425   4.289  1.1181  0.0215  0.1851
17926SOL    HW155978   8.579   8.520   4.292  0.0911  0.1869 -1.2883
17926SOL    HW255979   8.477   8.409   4.274  1.1678 -1.2490  1.0417
17927SOL     OW55980   3.241   3.913   3.376 -0.4509  0.4187  0.2400
17927SOL    HW155981   3.190   3.831   3.378 -0.4678  0.3910 -0.6854
17927SOL    HW255982   3.330   3.886   3.399 -0.3558  0.0396 -0.5055
17928SOL     OW55983   2.084   2.852   2.343  0.0871  0.6408  0.0611
17928SOL    HW155984   2.063   2.836   2.435  1.5523  0.8326  0.4679
17928SOL    HW255985   2.109   2.944   2.340  0.2608  0.5791 -0.4803
17929SOL     OW55986   1.480   5.287   5.361  0.0702 -0.0348  0.2642
17929SOL    HW155987   1.458   5.256   5.449 -2.7954  0.2306 -0.2543
17929SOL    HW255988   1.467   5.211   5.305  0.1356  0.2499 -0.1364
17930SOL     OW55989   8.962   2.030   5.576 -0.2334 -0.2624 -0.6162
17930SOL    HW155990   9.044   2.042   5.624  0.4192  0.3688 -1.8474
17930SOL    HW255991   8.894   2.040   5.642  0.6125  1.1863  0.0811
17931SOL     OW55992   3.123   9.222   0.815 -0.6534  0.0025  0.9302
17931SOL    HW155993   3.073   9.203   0.736 -0.8469 -0.3295  1.1325
17931SOL    HW255994   3.086   9.305   0.847  0.1619  0.7189  0.0757
17932SOL     OW55995   7.692   7.505   0.888  0.1432 -0.2236  0.1556
17932SOL    HW155996   7.732   7.510   0.975  2.9543  0.4107 -1.0689
17932SOL    HW255997   7.598   7.499   0.906  0.4745  1.3591  3.2017
17933SOL     OW55998   0.050   1.411   0.018  0.6212 -0.3628  1.0177
17933SOL    HW155999  -0.006   1.347  -0.025  0.1928  1.1522 -0.8350
17933SOL    HW256000   0.125   1.420  -0.040  2.5042 -1.8009  3.0883
17934SOL     OW56001   9.147   5.756   0.700  0.1508 -0.4881  0.3733
17934SOL    HW156002   9.136   5.759   0.605 -1.5107  0.6300  0.5510
17934SOL    HW256003   9.116   5.669   0.725 -1.8404  0.0962  0.1008
17935SOL     OW56004   5.965   1.456   2.273 -0.1223  0.0632 -0.2607
17935SOL    HW156005   6.038   1.403   2.241 -0.4257 -0.0144 -0.8312
17935SOL    HW256006   5.966   1.535   2.218 -0.6875 -0.1009 -0.5142
17936SOL     OW56007   6.436   7.995   8.720 -0.2206  0.1796 -0.1418
17936SOL    HW156008   6.524   7.966   8.745 -0.0725 -0.4677 -1.3266
17936SOL    HW256009   6.391   7.914   8.696 -1.2165  0.4840  0.6489
17937SOL     OW56010   1.452   5.752   1.372 -0.2928 -0.2341  0.2503
17937SOL    HW156011   1.424   5.665   1.398  0.7383 -0.2811  1.3142
17937SOL    HW256012   1.542   5.740   1.340 -0.4985  0.2859 -0.5547
17938SOL     OW56013   0.772   5.761   2.487 -0.6350  0.2973  0.3943
17938SOL    HW156014   0.722   5.681   2.499 -1.2901  0.4820 -0.9126
17938SOL    HW256015   0.846   5.753   2.547 -1.2828 -0.7772  1.0710
17939SOL     OW56016   0.049   8.159   1.246  0.3656 -0.7072  0.5852
17939SOL    HW156017  -0.027   8.173   1.188  0.2816  0.6750  0.9907
17939SOL    HW256018   0.085   8.247   1.259  1.4589 -1.2315  1.1986
17940SOL     OW56019   2.897   5.068   3.404  0.0951  0.2088  0.0834
17940SOL    HW156020   2.814   5.023   3.420  0.6802 -0.3399  1.6706
17940SOL    HW256021   2.872   5.145   3.353 -1.1641 -0.8516 -0.9901
17941SOL     OW56022   1.015   6.251   2.840 -0.0917 -0.0975  0.6767
17941SOL    HW156023   1.067   6.235   2.919 -0.6521 -0.7776  0.9274
17941SOL    HW256024   0.971   6.167   2.824  0.9447 -0.3543 -1.0677
17942SOL     OW56025   5.907   2.167   4.027 -0.1322  0.1669  0.0099
17942SOL    HW156026   5.904   2.100   3.958  0.6069 -1.0229  1.0954
17942SOL    HW256027   5.985   2.145   4.078 -1.6192 -0.0720  2.3057
17943SOL     OW56028   1.113   8.796   1.924 -0.0684 -0.4338 -0.1827
17943SOL    HW156029   1.197   8.749   1.928  0.6028  0.8276  1.5868
17943SOL    HW256030   1.087   8.791   1.832  3.1380  1.1474 -1.3084
17944SOL     OW56031   4.140   8.260   2.824 -0.1204  0.2786  0.1626
17944SOL    HW156032   4.215   8.223   2.779  0.9862  2.0397  0.4776
17944SOL    HW256033   4.125   8.344   2.781 -1.1747  0.4873  0.8936
17945SOL     OW56034   4.864   1.419   7.100  0.5660 -0.5265  0.7974
17945SOL    HW156035   4.920   1.362   7.153 -1.5905 -2.4221  1.2239
17945SOL    HW256036   4.855   1.372   7.017  2.0690  1.3157 -0.5061
17946SOL     OW56037   7.129   7.638   3.859  0.6275  0.0442 -0.4217
17946SOL    HW156038   7.127   7.732   3.872 -2.4796  0.0091  0.1098
17946SOL    HW256039   7.150   7.627   3.766 -0.0122  1.3145 -0.7337
17947SOL     OW56040   4.024   2.762   1.594 -0.0216 -0.1787  0.3080
17947SOL    HW156041   3.979   2.752   1.511 -1.2512 -1.0219  1.0381
17947SOL    HW256042   4.012   2.677   1.638 -0.9938  0.8315  2.0997
17948SOL     OW56043   8.170   8.264   8.163 -0.5022 -0.0536  0.5424
17948SOL    HW156044   8.247   8.240   8.111 -0.2860 -0.9186  1.2266
17948SOL    HW256045   8.207   8.304   8.242 -0.8083  0.7613  0.2848
17949SOL     OW56046   5.276   2.780   4.772 -0.0646 -0.4072 -0.2444
17949SOL    HW156047   5.247   2.796   4.682 -0.6638  0.6351  0.1226
17949SOL    HW256048   5.371   2.768   4.765 -0.0484  0.1025 -0.9662
17950SOL     OW56049   0.100   7.629   7.278 -0.2991  0.4390  0.1734
17950SOL    HW156050   0.115   7.721   7.301 -2.1616  0.6387  0.7582
17950SOL    HW256051   0.005   7.618   7.284 -0.2147 -1.2601 -0.9425
17951SOL     OW56052   7.694   1.590   1.446  0.0120  0.3050 -0.1950
17951SOL    HW156053   7.745   1.543   1.511 -2.0201  0.1561  1.3814
17951SOL    HW256054   7.722   1.553   1.362 -1.2620 -3.6410  0.9001
17952SOL     OW56055   6.261   8.013   4.218 -0.1968 -0.3669  0.6980
17952SOL    HW156056   6.330   7.953   4.247  0.3131 -0.1311 -0.0147
17952SOL    HW256057   6.306   8.094   4.196 -0.6781 -0.2386  0.1420
17953SOL     OW56058   2.369   5.514   3.487 -0.2745 -0.1520 -0.1105
17953SOL    HW156059   2.368   5.483   3.577  0.6046  1.5358  0.5330
17953SOL    HW256060   2.459   5.499   3.458 -0.7154 -1.3007 -0.9725
17954SOL     OW56061   0.779   5.271   1.053 -0.3944 -0.0977  0.1711
17954SOL    HW156062   0.688   5.276   1.022 -0.0594  1.1743 -0.7062
17954SOL    HW256063   0.791   5.179   1.078 -1.5300 -0.5809 -0.9414
17955SOL     OW56064   9.142   1.507   4.224  0.0169  0.1240  0.1904
17955SOL    HW156065   9.139   1.411   4.220 -0.8243  0.1660 -0.9408
17955SOL    HW256066   9.057   1.532   4.260  1.1998  0.4162  3.0629
17956SOL     OW56067   8.486   8.010   2.759 -0.0748  1.0228 -0.6198
17956SOL    HW156068   8.554   8.058   2.711  1.5690 -0.7498 -0.2190
17956SOL    HW256069   8.464   7.937   2.702  0.9995 -0.4092  0.6967
17957SOL     OW56070   1.126   9.498   1.299 -0.0611  0.1998  0.3991
17957SOL    HW156071   1.141   9.462   1.386 -0.1197 -0.2192  0.2379
17957SOL    HW256072   1.031   9.493   1.287 -0.2683  2.0365  1.0720
17958SOL     OW56073   5.907   8.381   3.126  0.0559 -0.2369  0.0320
17958SOL    HW156074   5.918   8.296   3.082  0.3167  0.2419 -0.8593
17958SOL    HW256075   5.814   8.385   3.147  0.0482 -0.7612  0.1213
17959SOL     OW56076   3.549   0.135   7.151  0.5220 -0.4141  0.1786
17959SOL    HW156077   3.453   0.136   7.149  0.4512  1.9111  1.4377
17959SOL    HW256078   3.575   0.183   7.073  0.5912  0.6663  0.8563
17960SOL     OW56079   6.692   8.830   4.925  0.0350  0.7126 -0.3199
17960SOL    HW156080   6.780   8.794   4.925 -0.5733 -0.9025  1.2201
17960SOL    HW256081   6.678   8.861   5.015 -0.8861  1.1581 -0.5978
17961SOL     OW56082   0.687   7.880   0.352  0.2200 -0.1375 -0.0457
17961SOL    HW156083   0.756   7.931   0.393  0.3108 -0.1227 -0.2142
17961SOL    HW256084   0.658   7.933   0.277 -0.0411 -0.0990  0.0802
17962SOL     OW56085   4.811   8.939   1.981 -0.3142  0.0054  0.3983
17962SOL    HW156086   4.762   8.998   1.923 -0.4641  1.3798  1.8544
17962SOL    HW256087   4.800   8.853   1.941  0.7958  1.0313 -2.4196
17963SOL     OW56088   1.629   4.578   5.366 -0.4639 -0.2436 -0.3788
17963SOL    HW156089   1.598   4.669   5.369 -0.7844 -0.3795  1.6799
17963SOL    HW256090   1.719   4.582   5.398 -1.2199 -0.8786  2.0282
17964SOL     OW56091   0.521   2.163   4.106  0.0776  0.0359 -0.3758
17964SOL    HW156092   0.482   2.225   4.044  0.8847  1.9695  0.9588
17964SOL    HW256093   0.612   2.155   4.077  0.0996 -0.1486 -0.2507
17965SOL     OW56094   4.837   9.369   7.672  0.0124 -0.2775  0.4581
17965SOL    HW156095   4.930   9.386   7.685 -0.0010  2.2433 -1.7205
17965SOL    HW256096   4.834   9.296   7.611  0.6045  0.0057  0.0760
17966SOL     OW56097   2.233   4.099   5.168 -0.2923  0.0896 -0.5404
17966SOL    HW156098   2.193   4.033   5.225 -0.8269  1.4471  0.7426
17966SOL    HW256099   2.190   4.181   5.193  0.0102  0.8636 -2.4058
17967SOL     OW56100   3.613   8.519   9.178  0.6201  0.2538  0.3060
17967SOL    HW156101   3.582   8.432   9.205  1.9164 -0.0893  0.7854
17967SOL    HW256102   3.550   8.580   9.216 -0.2264 -0.4578  0.0949
17968SOL     OW56103   1.276   8.579   1.973 -0.7222  0.0798 -0.0402
17968SOL    HW156104   1.266   8.484   1.971 -2.2308  0.2256 -0.5992
17968SOL    HW256105   1.274   8.602   2.066 -0.1241 -0.4409  0.1071
17969SOL     OW56106   1.535   0.671   3.456  0.4713 -0.2361 -0.0050
17969SOL    HW156107   1.440   0.680   3.453  0.6144  1.4065 -0.7990
17969SOL    HW256108   1.561   0.722   3.533  0.7651  0.0383 -0.2826
17970SOL     OW56109   0.964   0.382   3.986  0.5768  0.5341 -0.4371
17970SOL    HW156110   0.950   0.330   3.907 -1.7925 -2.2471  1.6107
17970SOL    HW256111   1.053   0.362   4.013  1.2875  1.2308 -2.0971
17971SOL     OW56112   4.147   8.294   4.368 -0.2543 -0.2957  0.2865
17971SOL    HW156113   4.137   8.380   4.327  0.3472 -0.0750  0.5923
17971SOL    HW256114   4.201   8.244   4.307  2.0264  0.5551  1.5084
17972SOL     OW56115   2.806   2.757   8.702  0.4267 -0.0832  0.4786
17972SOL    HW156116   2.736   2.816   8.728  2.6287  2.8326  0.4136
17972SOL    HW256117   2.786   2.734   8.611  0.8689  3.0467 -0.5302
17973SOL     OW56118   8.239   9.460   0.145 -0.7337  0.1383  0.2010
17973SOL    HW156119   8.163   9.518   0.149 -1.1886 -0.5193  2.0714
17973SOL    HW256120   8.202   9.373   0.129 -0.1698  0.1202 -1.1294
17974SOL     OW56121   8.762   2.278   2.620  0.2180 -0.3575 -0.8771
17974SOL    HW156122   8.703   2.312   2.687 -1.3016 -1.3674 -1.6371
17974SOL    HW256123   8.838   2.336   2.623  0.3624 -0.5778  1.9152
17975SOL     OW56124   4.407   0.880   3.141 -0.4409  0.2130 -0.2647
17975SOL    HW156125   4.377   0.810   3.084 -0.2528  1.0580 -1.4407
17975SOL    HW256126   4.339   0.947   3.136 -1.1553 -0.3072  1.7206
17976SOL     OW56127   3.669   9.162   1.257  0.4509 -0.3192 -0.3645
17976SOL    HW156128   3.667   9.109   1.177 -1.5034  0.1279 -0.6630
17976SOL    HW256129   3.579   9.161   1.289  1.0146  0.2583  1.3575
17977SOL     OW56130   1.893   0.877   3.444  0.2105  0.2761  0.1061
17977SOL    HW156131   1.864   0.803   3.392  3.2123 -1.2182  0.3374
17977SOL    HW256132   1.822   0.893   3.506 -1.0970 -1.4666 -0.8649
17978SOL     OW56133   3.047   0.537   2.669  1.0850 -0.3336 -0.1937
17978SOL    HW156134   2.992   0.491   2.605  0.4061 -1.3252  1.0415
17978SOL    HW256135   3.067   0.470   2.735  2.4789  0.4341  0.1937
17979SOL     OW56136   3.672   0.169   5.245 -0.2055  0.5058 -0.0281
17979SOL    HW156137   3.765   0.171   5.226 -0.5024 -0.0792 -1.7159
17979SOL    HW256138   3.651   0.076   5.251 -1.0951  0.4989 -2.1810
17980SOL     OW56139   5.937   8.459   7.744 -0.2113  0.0633  0.7641
17980SOL    HW156140   5.842   8.452   7.746 -0.3081 -0.4694 -1.7699
17980SOL    HW256141   5.968   8.369   7.753  0.0746  0.2408  1.6486
17981SOL     OW56142   1.415   6.072   5.928  0.0267 -0.0614 -0.5362
17981SOL    HW156143   1.461   6.154   5.908 -3.0272  2.0963  0.5424
17981SOL    HW256144   1.331   6.080   5.883 -1.8976 -0.8007  2.6501
17982SOL     OW56145   5.110   1.309   2.324 -0.0018 -0.1514 -0.0522
17982SOL    HW156146   5.072   1.350   2.402 -1.4525  0.8225 -1.2240
17982SOL    HW256147   5.036   1.301   2.263  1.4127  0.5973 -1.9407
17983SOL     OW56148   9.196   2.995   5.731  0.5154  0.0856  0.4879
17983SOL    HW156149   9.144   2.915   5.732  0.2426  0.2556 -0.0723
17983SOL    HW256150   9.287   2.964   5.727  0.3948 -0.1979 -0.2726
17984SOL     OW56151   2.882   5.130   2.821  0.0255 -0.3026  0.0871
17984SOL    HW156152   2.885   5.109   2.728  2.4788 -0.6738  0.1620
17984SOL    HW256153   2.825   5.206   2.828  1.8074  1.3871 -2.1257
17985SOL     OW56154   2.829   2.342   5.065  0.3495  0.0892 -1.0062
17985SOL    HW156155   2.919   2.327   5.094  0.1858  1.7982  0.5051
17985SOL    HW256156   2.821   2.437   5.057 -1.5548  0.0412 -0.2411
17986SOL     OW56157   9.481   2.626   4.894 -0.6035 -0.2286  0.3239
17986SOL    HW156158   9.513   2.709   4.928 -0.4335 -0.6500  1.2072
17986SOL    HW256159   9.387   2.627   4.912 -0.5872 -0.2623  0.4101
17987SOL     OW56160   2.681   1.742   9.117  0.0041  0.3135  0.0487
17987SOL    HW156161   2.726   1.813   9.071  1.0766  0.4265  1.2442
17987SOL    HW256162   2.748   1.676   9.132 -1.0154 -1.0857 -1.2162
17988SOL     OW56163   3.541   5.648   7.869 -0.7192  0.1722 -0.2372
17988SOL    HW156164   3.614   5.698   7.832 -0.4185  0.8117  1.1372
17988SOL    HW256165   3.582   5.577   7.918 -1.0704 -0.1597 -0.4177
17989SOL     OW56166   1.763   7.278   0.485 -0.4415 -0.3466 -0.0084
17989SOL    HW156167   1.752   7.183   0.483  0.6256 -0.4628 -1.8576
17989SOL    HW256168   1.729   7.308   0.401  0.2292  0.7733  0.1001
17990SOL     OW56169   5.681   4.512   3.652 -0.3343  0.1192  0.5896
17990SOL    HW156170   5.648   4.540   3.737  0.9043  0.6543  0.9212
17990SOL    HW256171   5.683   4.592   3.600  3.1406  0.8108  1.5118
17991SOL     OW56172   0.436   4.621   0.719  0.5104  0.4730  0.2452
17991SOL    HW156173   0.392   4.543   0.687  0.3108  0.9848 -0.7967
17991SOL    HW256174   0.512   4.588   0.767 -0.4575 -0.3881  1.2224
17992SOL     OW56175   0.063   2.573   0.731 -0.1045  0.0917 -0.3008
17992SOL    HW156176   0.012   2.513   0.677  0.7771  0.7717 -1.9827
17992SOL    HW256177   0.007   2.594   0.805 -1.0544 -1.5111 -0.5416
17993SOL     OW56178   2.227   7.292   1.833 -0.0447 -0.6410 -0.0167
17993SOL    HW156179   2.232   7.315   1.926  1.0927  1.2934 -0.4970
17993SOL    HW256180   2.309   7.247   1.815 -0.2757 -1.0377 -0.0891
17994SOL     OW56181   3.746   0.125   1.748 -0.4048 -0.1769 -0.1264
17994SOL    HW156182   3.825   0.147   1.796 -0.4239  1.0126 -0.5919
17994SOL    HW256183   3.773   0.057   1.687  0.3483  0.4104 -0.4736
17995SOL     OW56184   3.865   0.323   7.840  0.0369  0.0998 -0.2001
17995SOL    HW156185   3.835   0.250   7.895 -0.6964  0.5287 -0.0125
17995SOL    HW256186   3.787   0.377   7.829  0.6541  1.0397 -0.0446
17996SOL     OW56187   3.009   7.078   2.210 -0.6883 -0.5867 -0.1200
17996SOL    HW156188   3.073   7.132   2.164 -1.4692 -0.6302 -1.2890
17996SOL    HW256189   3.060   7.003   2.242 -0.2402 -0.9545 -1.6137
17997SOL     OW56190   3.307   9.187   8.006 -0.4609 -0.2891  0.3378
17997SOL    HW156191   3.243   9.119   8.028  0.3918 -1.0235  0.5945
17997SOL    HW256192   3.258   9.269   8.016 -1.3768 -0.8305  0.4697
17998SOL     OW56193   3.602   5.968   7.887 -0.3666 -0.3416  0.0879
17998SOL    HW156194   3.530   5.994   7.944  0.8133  1.2457  0.9640
17998SOL    HW256195   3.664   5.922   7.944  0.3821  0.4071 -0.0870
17999SOL     OW56196   1.079   8.460   8.135 -0.4304 -0.2274 -0.0067
17999SOL    HW156197   1.133   8.428   8.207 -0.1615  1.6298  0.6585
17999SOL    HW256198   0.991   8.426   8.153 -0.4324  0.4584  1.3739
18000SOL     OW56199   5.817   1.080   8.352 -0.6983  0.6858  0.6466
18000SOL    HW156200   5.733   1.103   8.391 -0.4451  0.1637  1.5113
18000SOL    HW256201   5.877   1.070   8.426 -0.1037  0.1159  0.1051
18001SOL     OW56202   3.279   5.114   3.118 -0.3451  0.1199 -0.1822
18001SOL    HW156203   3.201   5.074   3.080 -1.2084  1.2850  0.3328
18001SOL    HW256204   3.256   5.130   3.209  0.9203 -0.5958  0.2930
18002SOL     OW56205   4.053   6.780   0.442 -0.4551 -0.5989 -0.4747
18002SOL    HW156206   4.019   6.865   0.414 -2.6495 -1.6568 -1.2239
18002SOL    HW256207   4.009   6.717   0.386  1.6570 -2.2355 -0.4247
18003SOL     OW56208   8.990   6.794   4.994 -0.3707  0.4988  0.0859
18003SOL    HW156209   9.054   6.853   5.035  0.3017 -0.3736  0.3317
18003SOL    HW256210   9.004   6.806   4.900  0.6417 -0.1727  0.1337
18004SOL     OW56211   2.020   4.340   6.348  0.6412 -0.0657 -0.6693
18004SOL    HW156212   2.027   4.435   6.337  2.4160  0.2059  1.8657
18004SOL    HW256213   2.069   4.304   6.274  0.5290  0.9867 -1.2905
18005SOL     OW56214   7.250   3.281   8.393 -0.4260 -0.1613 -0.0361
18005SOL    HW156215   7.204   3.318   8.318 -0.1324  0.9392  0.2999
18005SOL    HW256216   7.339   3.315   8.386 -0.5459  0.4711  1.1150
18006SOL     OW56217   8.684   8.716   3.143 -0.2703  0.4504  0.3253
18006SOL    HW156218   8.767   8.691   3.102 -0.2780  0.0795  0.5276
18006SOL    HW256219   8.633   8.756   3.072  0.9850  2.9189  0.7359
18007SOL     OW56220   5.822   1.743   8.733 -0.0711  0.2227  0.0386
18007SOL    HW156221   5.729   1.756   8.716  0.4395  2.0487 -1.7538
18007SOL    HW256222   5.864   1.758   8.649  1.9258  0.3855  1.0008
18008SOL     OW56223   2.070   0.095   5.938  0.1950 -0.3342  0.2882
18008SOL    HW156224   2.051   0.189   5.931 -1.0670 -0.5171  0.9199
18008SOL    HW256225   2.055   0.061   5.850  0.0580 -0.0470  0.2000
18009SOL     OW56226   7.092   3.075   6.455  0.3903 -0.3673 -0.3735
18009SOL    HW156227   7.001   3.099   6.471 -1.3988 -5.1441 -1.6644
18009SOL    HW256228   7.093   3.040   6.366  2.7514 -3.0014  0.5104
18010SOL     OW56229   9.172   7.090   3.494 -0.2920  0.6233  0.2699
18010SOL    HW156230   9.110   7.141   3.545 -1.7744  0.2252 -1.0602
18010SOL    HW256231   9.189   7.142   3.416  0.5809  0.4458  0.3237
18011SOL     OW56232   1.913   7.402   0.980  0.0119  0.3043 -0.3565
18011SOL    HW156233   1.909   7.344   1.056  1.2443  0.3863 -0.1993
18011SOL    HW256234   1.847   7.369   0.920 -1.6190  0.7862  1.1117
18012SOL     OW56235   8.927   4.266   0.556  0.2613  0.1905 -0.2134
18012SOL    HW156236   8.939   4.335   0.622 -0.4814  1.4963 -1.3915
18012SOL    HW256237   9.015   4.252   0.520  0.7984 -1.0106  1.4609
18013SOL     OW56238   5.706   8.637   4.568  0.0010  0.2978  0.0681
18013SOL    HW156239   5.645   8.635   4.641 -0.9340  1.0680 -0.6661
18013SOL    HW256240   5.740   8.548   4.562 -1.5199 -0.3169  0.1154
18014SOL     OW56241   3.973   8.515   3.506  0.0540 -0.1971 -0.0330
18014SOL    HW156242   4.051   8.569   3.516  0.3721 -0.2323 -1.9496
18014SOL    HW256243   3.919   8.561   3.442  0.5170 -2.2258 -2.0322
18015SOL     OW56244   8.847   3.484   5.985  0.4531  0.1331 -0.0678
18015SOL    HW156245   8.758   3.505   6.010  0.1321 -0.2995 -0.7922
18015SOL    HW256246   8.902   3.537   6.042 -0.2797  1.0781 -0.2224
18016SOL     OW56247   0.120   9.345   6.062 -0.2265 -0.3819  0.8005
18016SOL    HW156248   0.077   9.260   6.073  0.2814 -0.9272 -1.0376
18016SOL    HW256249   0.206   9.335   6.103 -0.0815 -0.8335  0.3890
18017SOL     OW56250   3.857   8.094   3.538  0.2318  0.1636  0.7455
18017SOL    HW156251   3.934   8.095   3.596 -0.4101  2.6927  1.6559
18017SOL    HW256252   3.784   8.076   3.597 -0.2788  1.4558  0.5262
18018SOL     OW56253   4.007   2.197   6.265 -0.7484  0.3123  0.1337
18018SOL    HW156254   4.048   2.275   6.226 -2.4905  0.3787 -1.7053
18018SOL    HW256255   3.941   2.233   6.324 -1.9512  0.2818 -1.1521
18019SOL     OW56256   7.298   1.982   5.917  0.4801  0.6140  0.6666
18019SOL    HW156257   7.313   2.059   5.972  1.8225  2.4377 -2.0425
18019SOL    HW256258   7.238   2.012   5.850 -1.1186 -1.5533  1.0307
18020SOL     OW56259   0.921   4.975   9.570  0.6141  0.5547  0.4607
18020SOL    HW156260   0.989   4.939   9.513 -1.0442 -0.9822 -0.6726
18020SOL    HW256261   0.876   5.040   9.516 -0.8837 -0.8172 -0.0439
18021SOL     OW56262   2.074   6.691   6.228 -0.5797 -0.2157  0.4300
18021SOL    HW156263   1.997   6.654   6.184 -0.3957  1.0732 -1.0884
18021SOL    HW256264   2.058   6.785   6.228  1.3454  0.1619 -0.6687
18022SOL     OW56265   7.568   7.460   7.803  0.0480  0.4616  1.1209
18022SOL    HW156266   7.482   7.425   7.825  0.6178 -2.0801 -0.3571
18022SOL    HW256267   7.623   7.440   7.878 -0.2992  0.7985  1.4684
18023SOL     OW56268   6.536   2.013   4.827  0.1881  0.0364  0.3920
18023SOL    HW156269   6.578   1.928   4.840 -1.1812 -0.6197  0.6788
18023SOL    HW256270   6.544   2.029   4.733  0.4228 -0.4309  0.3292
18024SOL     OW56271   7.825   7.467   5.293 -0.0293  0.1519  0.3880
18024SOL    HW156272   7.796   7.376   5.301  1.2736 -0.3798 -0.6384
18024SOL    HW256273   7.822   7.485   5.199  0.1613  1.0320  0.5428
18025SOL     OW56274   8.316   5.420   9.117  0.3213  0.5824  0.6314
18025SOL    HW156275   8.271   5.445   9.198  0.9411  2.3065  0.4843
18025SOL    HW256276   8.283   5.482   9.051  1.7807  0.9294  0.1899
18026SOL     OW56277   0.520   5.138   7.367  0.5495  0.2281 -0.1567
18026SOL    HW156278   0.581   5.208   7.393 -0.4846  0.6754  1.1591
18026SOL    HW256279   0.462   5.127   7.442 -1.0180 -0.1806 -1.3722
18027SOL     OW56280   3.207   7.749   0.369  0.1982 -0.5662 -0.0771
18027SOL    HW156281   3.193   7.823   0.429 -0.6234  0.2176 -1.1854
18027SOL    HW256282   3.202   7.788   0.282  4.2186 -1.1436 -0.7219
18028SOL     OW56283   7.681   1.987   2.660  0.4469 -0.0954 -0.0439
18028SOL    HW156284   7.739   2.059   2.687 -0.2827 -0.0247  1.4302
18028SOL    HW256285   7.710   1.912   2.710  0.9292 -0.7596 -1.2700
18029SOL     OW56286   8.687   5.501   7.402 -0.1231  0.1246  0.0468
18029SOL    HW156287   8.609   5.486   7.348  0.0361  1.3098 -0.5437
18029SOL    HW256288   8.757   5.454   7.355 -0.1831  0.3399 -0.2653
18030SOL     OW56289   2.164   5.111   7.488 -0.1374 -0.4205 -0.9379
18030SOL    HW156290   2.183   5.037   7.430  1.5470  0.3461 -1.4440
18030SOL    HW256291   2.238   5.112   7.550 -0.1530  0.7892 -0.9103
18031SOL     OW56292   8.575   4.470   7.195 -0.4051  0.0645  0.0306
18031SOL    HW156293   8.621   4.406   7.141  1.0747  0.3725  0.8568
18031SOL    HW256294   8.612   4.458   7.283  0.0272  2.1088  0.1819
18032SOL     OW56295   4.151   3.490   7.053  0.1663  0.7997  0.9014
18032SOL    HW156296   4.128   3.419   6.994  0.6613  1.7470 -0.4796
18032SOL    HW256297   4.242   3.473   7.077  0.0024  0.4815  1.3144
18033SOL     OW56298   0.041   2.159   0.801  0.0303 -0.0355 -0.1721
18033SOL    HW156299   0.133   2.142   0.784  0.3093  0.1800  0.9997
18033SOL    HW256300   0.021   2.106   0.879 -0.3751  1.1980  0.5906
18034SOL     OW56301   7.453   3.037   1.209 -0.0150  0.2168  0.8027
18034SOL    HW156302   7.468   3.117   1.159 -1.2318  0.6643  1.1245
18034SOL    HW256303   7.539   3.017   1.247  0.6909  0.4189 -0.6215
18035SOL     OW56304   6.809   4.152   1.912 -0.3641 -0.5140  0.1185
18035SOL    HW156305   6.725   4.183   1.879  0.8436  1.2277 -1.4914
18035SOL    HW256306   6.824   4.205   1.991 -1.2361 -1.5925  1.0366
18036SOL     OW56307   9.096   5.447   2.429 -0.1708  0.4023 -0.3413
18036SOL    HW156308   9.178   5.425   2.473 -0.6038  0.5623  0.5952
18036SOL    HW256309   9.122   5.484   2.346  0.6619 -1.0526 -0.7764
18037SOL     OW56310   3.783   3.223   7.058 -0.2042 -0.0279  0.3963
18037SOL    HW156311   3.752   3.301   7.103  0.4712 -0.0727  0.9671
18037SOL    HW256312   3.761   3.237   6.966 -1.3544  0.1943  0.6981
18038SOL     OW56313   3.677   1.415   4.704 -0.2872 -0.3494  0.1198
18038SOL    HW156314   3.684   1.361   4.626  1.9030  0.9999 -0.7034
18038SOL    HW256315   3.628   1.492   4.676  0.7474  0.2686 -0.0241
18039SOL     OW56316   2.408   7.755   2.905 -0.2334 -0.6051 -0.8086
18039SOL    HW156317   2.452   7.670   2.906  2.1764  0.5474  0.9167
18039SOL    HW256318   2.316   7.734   2.925  0.3974 -2.7678  0.1770
18040SOL     OW56319   9.170   8.431   4.351 -0.3386 -0.7591 -0.3668
18040SOL    HW156320   9.249   8.383   4.375 -0.8970 -2.3138 -1.4963
18040SOL    HW256321   9.129   8.378   4.283 -3.2576 -0.8549  1.3304
18041SOL     OW56322   7.363   8.479   8.736  0.1439 -0.3437  0.0359
18041SOL    HW156323   7.273   8.475   8.768 -0.3417  0.2247 -1.1692
18041SOL    HW256324   7.365   8.558   8.682  2.4605  1.9818  3.1622
18042SOL     OW56325   1.869   0.012   4.909 -0.2548 -0.0400  0.9573
18042SOL    HW156326   1.954   0.056   4.904  0.0654 -0.4166  2.5576
18042SOL    HW256327   1.886  -0.077   4.879 -0.2302  0.0598  0.6711
18043SOL     OW56328   1.297   1.800   7.776  0.4519 -0.3532 -0.1885
18043SOL    HW156329   1.227   1.835   7.832 -1.0853 -0.5654 -1.8889
18043SOL    HW256330   1.282   1.706   7.775  0.9968 -0.4391 -0.2549
18044SOL     OW56331   8.773   3.762   4.627 -0.1246  0.5782 -0.2023
18044SOL    HW156332   8.751   3.783   4.536  1.3634 -1.0439 -0.9904
18044SOL    HW256333   8.802   3.671   4.624  1.4448  0.9555  1.6232
18045SOL     OW56334   5.852   0.857   3.075  0.2083  0.2557  0.7317
18045SOL    HW156335   5.928   0.915   3.085 -0.3027  0.9266  0.7783
18045SOL    HW256336   5.858   0.824   2.985  1.3765 -0.8853  1.1943
18046SOL     OW56337   4.387   0.342   7.559  0.2053 -0.0371  0.9007
18046SOL    HW156338   4.480   0.350   7.537 -0.0326  1.2797  0.1912
18046SOL    HW256339   4.383   0.359   7.653  0.6186  0.6992  0.7991
18047SOL     OW56340   4.165   7.847   0.912 -0.4839  0.3674  0.1907
18047SOL    HW156341   4.120   7.762   0.912 -1.9050  1.0798  0.0446
18047SOL    HW256342   4.240   7.835   0.969  0.8464 -1.7348 -1.8457
18048SOL     OW56343   3.735   7.519   1.329 -0.6553  0.6529  0.2692
18048SOL    HW156344   3.805   7.584   1.330 -0.5747  0.5775 -0.4248
18048SOL    HW256345   3.735   7.483   1.418 -0.3156  1.1846  0.4895
18049SOL     OW56346   5.771   7.041   1.170 -0.3929 -0.8917 -0.3915
18049SOL    HW156347   5.816   7.099   1.109  1.1704 -0.1677  1.3663
18049SOL    HW256348   5.800   6.953   1.146 -0.0844 -0.6505 -0.9082
18050SOL     OW56349   8.444   4.763   6.474  0.1965  0.5897 -0.0718
18050SOL    HW156350   8.402   4.839   6.433  0.0383  0.5128 -0.0531
18050SOL    HW256351   8.415   4.765   6.565 -0.3383  0.1348 -0.2249
18051SOL     OW56352   3.472   8.315   8.418 -0.0672  0.4254 -0.1915
18051SOL    HW156353   3.456   8.373   8.492  0.0692  1.2841 -0.8260
18051SOL    HW256354   3.566   8.298   8.420 -0.0964  0.2733 -0.0489
18052SOL     OW56355   6.567   0.355   2.636 -0.3753 -0.4014 -0.0678
18052SOL    HW156356   6.634   0.418   2.664 -0.3252 -0.4988  0.0310
18052SOL    HW256357   6.517   0.336   2.716 -0.6783 -0.1402 -0.1905
18053SOL     OW56358   7.312   4.678   9.575 -0.7275  1.0650 -0.5660
18053SOL    HW156359   7.389   4.697   9.628 -1.3031 -0.2482  0.8076
18053SOL    HW256360   7.240   4.720   9.622 -1.1633  0.3438 -0.5715
18054SOL     OW56361   6.543   5.219   7.673  0.5101  0.1483  0.9083
18054SOL    HW156362   6.597   5.159   7.725  0.1881 -0.3158  0.7087
18054SOL    HW256363   6.594   5.233   7.594 -0.2039 -1.2959  0.1494
18055SOL     OW56364   5.271   6.519   5.447  0.5519 -0.0100 -0.6639
18055SOL    HW156365   5.251   6.546   5.536  0.3366 -0.4898 -0.5619
18055SOL    HW256366   5.195   6.467   5.420  1.9450 -2.5856  0.0312
18056SOL     OW56367   2.766   1.947   8.907  0.2456  0.1070  0.2536
18056SOL    HW156368   2.677   1.970   8.934  0.3631 -0.4082  1.1203
18056SOL    HW256369   2.771   1.973   8.815 -1.0763 -0.6410 -0.0539
18057SOL     OW56370   1.319   0.201   6.563  0.2403  0.0655 -0.1996
18057SOL    HW156371   1.289   0.228   6.650 -1.1369 -0.1786 -0.5880
18057SOL    HW256372   1.364   0.117   6.579 -0.4314 -0.2226  0.2077
18058SOL     OW56373   5.700   8.271   3.434 -0.2111 -0.0291 -0.0544
18058SOL    HW156374   5.668   8.271   3.343  0.7778  1.4183 -0.4325
18058SOL    HW256375   5.768   8.204   3.435  1.1869  1.3134 -0.9541
18059SOL     OW56376   6.404   2.129   5.281 -0.2177  0.7079  0.5870
18059SOL    HW156377   6.411   2.136   5.186 -0.8038 -0.5156  0.4300
18059SOL    HW256378   6.335   2.064   5.295  2.5224 -2.2670  1.7474
18060SOL     OW56379   6.617   1.280   6.069 -0.6689  0.0480  0.1551
18060SOL    HW156380   6.681   1.296   6.140 -1.0760 -0.0973  0.5584
18060SOL    HW256381   6.629   1.355   6.010 -0.0603 -0.0242  0.1775
18061SOL     OW56382   2.642   6.769   8.795 -0.2031 -0.3144  0.3365
18061SOL    HW156383   2.719   6.748   8.849 -0.6324 -0.0701  1.0537
18061SOL    HW256384   2.573   6.787   8.858 -1.4810 -2.6746 -0.2636
18062SOL     OW56385   0.668   6.980   2.347  0.5275  0.7692 -0.2157
18062SOL    HW156386   0.595   6.966   2.406  0.5564 -0.2456 -0.4075
18062SOL    HW256387   0.628   7.011   2.265  0.1860 -0.9278 -0.7161
18063SOL     OW56388   5.237   7.487   9.072  0.3050 -0.3323  0.6453
18063SOL    HW156389   5.176   7.545   9.026  0.2444 -0.5981  0.3901
18063SOL    HW256390   5.292   7.450   9.002 -0.0803 -1.0815  0.7360
18064SOL     OW56391   7.427   1.544   3.574 -0.6347 -0.1455  0.5436
18064SOL    HW156392   7.366   1.473   3.594  1.0278 -1.5102  1.0190
18064SOL    HW256393   7.442   1.588   3.657 -0.4005 -0.3013  0.5861
18065SOL     OW56394   6.448   2.945   3.090 -0.3622  0.2663  0.2520
18065SOL    HW156395   6.398   2.883   3.038 -1.0305  0.3809  0.7394
18065SOL    HW256396   6.539   2.929   3.066 -0.5259 -0.8306  0.2933
18066SOL     OW56397   3.213   2.821   4.045 -0.3790 -0.2404  0.2124
18066SOL    HW156398   3.206   2.740   3.994  0.3937 -0.6071  0.6722
18066SOL    HW256399   3.196   2.794   4.135  1.0455 -0.1321  0.5415
18067SOL     OW56400   1.346   4.000   9.285  0.1833  0.5083 -0.6598
18067SOL    HW156401   1.267   3.949   9.267  0.4848  0.0622 -0.7609
18067SOL    HW256402   1.361   3.988   9.379  0.9277 -0.6092 -0.8960
18068SOL     OW56403   5.666   4.699   1.438  0.1802  0.0712 -0.3517
18068SOL    HW156404   5.603   4.757   1.481  0.7917 -0.9304  2.0751
18068SOL    HW256405   5.613   4.650   1.374 -0.9406  1.1069 -0.2597
18069SOL     OW56406   4.498   6.588   2.088 -0.1080  0.4056  0.1866
18069SOL    HW156407   4.477   6.496   2.103 -3.1689  0.7686 -1.0447
18069SOL    HW256408   4.418   6.635   2.111  1.2505  2.7481  0.4314
18070SOL     OW56409   2.497   5.338   5.360 -0.1909 -0.2770 -0.0115
18070SOL    HW156410   2.567   5.363   5.421 -0.7847 -1.3590  1.1778
18070SOL    HW256411   2.535   5.267   5.308 -0.5222 -1.2476  1.0084
18071SOL     OW56412   7.506   0.784   8.251  0.2872  0.2852 -0.4497
18071SOL    HW156413   7.529   0.820   8.337 -0.6468  0.2905 -0.1945
18071SOL    HW256414   7.587   0.743   8.221  0.9259  1.1715 -0.0261
18072SOL     OW56415   6.053   9.046   8.458 -0.1984  0.0132  0.3544
18072SOL    HW156416   6.028   9.128   8.415 -1.9004 -0.5296  0.2241
18072SOL    HW256417   6.009   9.050   8.543  0.2994 -0.4557  0.6372
18073SOL     OW56418   2.709   3.621   4.844  0.0234  0.0110  0.3268
18073SOL    HW156419   2.650   3.676   4.791  1.1839  1.6187  0.6196
18073SOL    HW256420   2.788   3.612   4.791  0.0533 -0.9600  0.5166
18074SOL     OW56421   0.805   9.275   8.477  0.4101 -0.1835  0.5472
18074SOL    HW156422   0.875   9.306   8.419  1.3234 -1.7860  0.7150
18074SOL    HW256423   0.842   9.283   8.565 -0.0521 -0.0209  0.7283
18075SOL     OW56424   7.744   9.129   6.267 -0.3470  0.0384 -0.1533
18075SOL    HW156425   7.738   9.192   6.339 -0.7981  0.6997 -0.7475
18075SOL    HW256426   7.739   9.043   6.309  1.9322  0.3300  0.8412
18076SOL     OW56427   6.615   9.125   5.505  0.0160 -0.2645  0.6176
18076SOL    HW156428   6.598   9.211   5.543  2.8721  0.6137  0.0997
18076SOL    HW256429   6.607   9.138   5.411  1.4475 -0.2813  0.4764
18077SOL     OW56430   5.879   5.007   1.329  0.1826 -0.4908 -0.2827
18077SOL    HW156431   5.892   5.099   1.307  1.2268 -0.6561 -0.3875
18077SOL    HW256432   5.840   4.969   1.250  0.7402 -0.3593 -0.6275
18078SOL     OW56433   4.101   6.018   0.195 -0.1190  0.1562 -0.3507
18078SOL    HW156434   4.181   6.058   0.227 -0.6658  1.0268 -0.0465
18078SOL    HW256435   4.110   6.021   0.099  1.2080 -1.8353 -0.3590
18079SOL     OW56436   3.486   4.639   6.213  0.1475  0.2829  0.3184
18079SOL    HW156437   3.482   4.595   6.128  0.2129  1.2962 -0.2301
18079SOL    HW256438   3.416   4.599   6.264  0.7384 -1.0362  0.1489
18080SOL     OW56439   3.225   4.750   3.087  0.0107 -0.5895 -0.6738
18080SOL    HW156440   3.147   4.794   3.122 -0.6197 -3.1356  1.3541
18080SOL    HW256441   3.270   4.714   3.163  2.4915 -0.3801 -1.9264
18081SOL     OW56442   8.118   6.062   9.533  0.2720  0.3935  0.3452
18081SOL    HW156443   8.075   6.136   9.490 -1.0683 -0.4748  0.1440
18081SOL    HW256444   8.084   5.985   9.489  1.9463 -0.3608  0.2869
18082SOL     OW56445   1.269   7.730   6.556 -0.5077  0.1790 -0.5174
18082SOL    HW156446   1.189   7.747   6.606 -0.5151  0.0548 -0.4860
18082SOL    HW256447   1.335   7.786   6.597 -0.7072  0.7026 -0.8982
18083SOL     OW56448   5.246   4.157   7.101  0.5318 -0.0049  0.0727
18083SOL    HW156449   5.291   4.086   7.148 -1.1486 -0.3481  1.2472
18083SOL    HW256450   5.199   4.113   7.030 -1.2475 -0.2703  1.3418
18084SOL     OW56451   9.464   0.586   7.019 -0.1256  0.0144 -0.1718
18084SOL    HW156452   9.550   0.607   7.055 -0.1147 -0.7765  0.3010
18084SOL    HW256453   9.442   0.502   7.059 -1.3041  0.4085  0.0292
18085SOL     OW56454   8.415   0.635   9.036  0.1657  0.1389  0.2520
18085SOL    HW156455   8.429   0.580   8.959  1.4844  1.0472 -0.2038
18085SOL    HW256456   8.493   0.691   9.039  0.1635  0.1065  2.2742
18086SOL     OW56457   1.245   8.202   6.179 -0.1757  0.5172  0.1393
18086SOL    HW156458   1.242   8.162   6.266 -1.1095  0.9984  0.3440
18086SOL    HW256459   1.249   8.128   6.119 -0.3666  0.1568  0.5652
18087SOL     OW56460   6.710   1.684   4.370 -0.0887  0.1565 -0.3435
18087SOL    HW156461   6.751   1.722   4.292  0.6011 -0.3568 -0.2427
18087SOL    HW256462   6.641   1.746   4.394  0.3705  0.8393 -0.7600
18088SOL     OW56463   8.832   4.124   4.741  0.3660  0.1453  0.1262
18088SOL    HW156464   8.751   4.097   4.785 -0.0620  1.0670 -0.0645
18088SOL    HW256465   8.850   4.054   4.678 -0.3887  0.0210  0.0407
18089SOL     OW56466   4.852   3.996   7.034 -0.2417  0.3242 -0.2611
18089SOL    HW156467   4.835   4.072   6.979  0.6583  1.2105  0.6447
18089SOL    HW256468   4.766   3.956   7.048 -0.6430  0.8475 -1.1978
18090SOL     OW56469   3.049   0.808   1.867 -0.1671 -0.4119  0.0605
18090SOL    HW156470   3.059   0.867   1.793 -0.6552  0.8017  0.9224
18090SOL    HW256471   2.992   0.738   1.835  1.0898 -0.8918 -1.2286
18091SOL     OW56472   3.815   2.016   5.026 -0.3253  0.5919  0.1742
18091SOL    HW156473   3.886   1.952   5.035  0.8502  1.5469 -1.7009
18091SOL    HW256474   3.735   1.964   5.031  0.5844 -0.9852 -0.8055
18092SOL     OW56475   1.744   3.835   3.015  0.4536 -0.0509  0.0573
18092SOL    HW156476   1.831   3.874   3.014  0.6884 -0.4574 -2.1899
18092SOL    HW256477   1.756   3.747   3.050  0.9528 -0.0656 -0.1458
18093SOL     OW56478   8.022   7.848   3.928  0.0518  0.1836 -0.1779
18093SOL    HW156479   8.016   7.842   3.833  1.9908 -0.8088 -0.2939
18093SOL    HW256480   7.932   7.844   3.959 -0.5340 -0.7641 -1.9178
18094SOL     OW56481   7.497   2.067   6.519 -0.0145  0.1275  0.4649
18094SOL    HW156482   7.525   1.976   6.506 -0.0790  0.3111 -1.0383
18094SOL    HW256483   7.558   2.101   6.585  0.3353 -0.8379  0.6617
18095SOL     OW56484   5.152   7.220   4.836  0.0130  0.5528  0.0239
18095SOL    HW156485   5.179   7.198   4.925 -0.6895 -0.3372  0.0327
18095SOL    HW256486   5.220   7.180   4.781 -0.5752 -0.6017  0.0983
18096SOL     OW56487   3.053   1.020   3.876  0.0696  0.2513  0.3090
18096SOL    HW156488   3.081   0.933   3.903  0.0183 -0.1975 -1.0189
18096SOL    HW256489   3.123   1.078   3.905  0.6311 -0.3747  0.2144
18097SOL     OW56490   7.924   0.086   1.215 -0.7173 -0.1289  0.5992
18097SOL    HW156491   7.851   0.122   1.265 -0.8104 -0.2593  0.5592
18097SOL    HW256492   7.974   0.162   1.188 -1.4011  0.0459 -0.2318
18098SOL     OW56493   9.010   9.254   1.361 -0.1112  0.5132 -0.1633
18098SOL    HW156494   9.013   9.235   1.268  0.1424 -1.0638  0.1376
18098SOL    HW256495   8.930   9.211   1.392  0.7910 -0.6353  0.6614
18099SOL     OW56496   8.344   2.565   3.296  0.4675  0.0383  0.5517
18099SOL    HW156497   8.432   2.601   3.308  0.1498  0.5511  1.4638
18099SOL    HW256498   8.334   2.503   3.369  0.6314 -1.1795 -0.4241
18100SOL     OW56499   8.377   4.754   2.943 -0.0319  0.5043  0.1440
18100SOL    HW156500   8.466   4.742   2.910  0.0814  0.9128  0.2855
18100SOL    HW256501   8.325   4.689   2.897  0.2309  0.6669 -0.3960
18101SOL     OW56502   7.943   5.083   1.674 -0.5348 -0.4771 -0.3794
18101SOL    HW156503   8.037   5.074   1.656 -0.5231 -0.7802 -0.1646
18101SOL    HW256504   7.925   5.176   1.656 -0.0859 -0.2947  0.0715
18102SOL     OW56505   9.524   0.207   1.052 -0.4487  0.3293 -0.2854
18102SOL    HW156506   9.588   0.198   1.122 -0.0229 -0.0602 -0.7233
18102SOL    HW256507   9.552   0.285   1.003  0.1284 -0.2788 -0.9291
18103SOL     OW56508   4.905   8.813   1.259  0.2324  0.5210  0.4583
18103SOL    HW156509   4.884   8.877   1.192 -3.3728 -2.9974 -2.2573
18103SOL    HW256510   4.848   8.836   1.333  1.8616  2.5087  1.2095
18104SOL     OW56511   0.473   1.332   4.687 -0.0121 -0.9951 -0.4477
18104SOL    HW156512   0.386   1.371   4.684 -0.5675 -2.2318 -1.2257
18104SOL    HW256513   0.495   1.315   4.595  0.8037 -1.2422 -0.2222
18105SOL     OW56514   0.786   8.283   8.996 -0.7001 -0.2389 -0.4498
18105SOL    HW156515   0.817   8.372   9.013 -0.5117 -0.2595 -0.6865
18105SOL    HW256516   0.863   8.235   8.967 -0.6548 -0.6551  0.3269
18106SOL     OW56517   2.941   3.803   6.745  0.3039  0.4363  1.2688
18106SOL    HW156518   2.854   3.827   6.775 -0.1485  0.4727  0.0112
18106SOL    HW256519   2.987   3.887   6.734 -0.0663  0.5256  0.3444
18107SOL     OW56520   2.871   4.042   7.971 -0.3398 -0.5139 -0.2998
18107SOL    HW156521   2.787   4.032   7.927 -0.9511 -1.4718  1.0374
18107SOL    HW256522   2.862   3.992   8.052  1.2761 -0.0459  0.1996
18108SOL     OW56523   0.047   2.463   1.794  0.1775  0.2574  0.0502
18108SOL    HW156524   0.109   2.535   1.809 -0.5256  0.9116 -0.1235
18108SOL    HW256525   0.082   2.416   1.718 -1.0785  2.4204 -1.9919
18109SOL     OW56526   2.177   7.897   8.884  0.8898 -0.1005 -0.2576
18109SOL    HW156527   2.103   7.949   8.855  0.2728 -0.3501  0.8046
18109SOL    HW256528   2.175   7.819   8.828  0.1358 -0.2612 -0.0223
18110SOL     OW56529   2.202   0.120   6.532 -0.0695 -0.1259  0.2709
18110SOL    HW156530   2.222   0.179   6.460  0.9875  0.8159  1.2931
18110SOL    HW256531   2.181   0.177   6.606 -0.0039 -1.0423  1.0258
18111SOL     OW56532   2.042   6.079   1.007 -0.2995  0.1983  0.2336
18111SOL    HW156533   2.099   6.149   1.038  1.5015 -1.0418 -0.0595
18111SOL    HW256534   2.008   6.110   0.923 -0.3212  1.1054  0.5752
18112SOL     OW56535   9.529   4.397   1.513 -0.0302 -0.3217 -0.7768
18112SOL    HW156536   9.460   4.331   1.518 -1.2163  0.9107 -0.1219
18112SOL    HW256537   9.592   4.371   1.580 -0.5263 -0.7580 -0.4696
18113SOL     OW56538   2.824   3.240   7.462  0.6632  0.2584  0.4007
18113SOL    HW156539   2.867   3.324   7.443 -1.0657  1.7796  2.7035
18113SOL    HW256540   2.739   3.247   7.419  0.1978  0.0154  1.2791
18114SOL     OW56541   8.520   3.508   8.437 -0.0005 -0.5666  0.7041
18114SOL    HW156542   8.609   3.545   8.432 -0.8613  1.4737 -0.7729
18114SOL    HW256543   8.534   3.413   8.443  2.2704 -0.2927  0.6646
18115SOL     OW56544   7.518   6.284   4.166 -0.0321  0.1402 -0.0995
18115SOL    HW156545   7.552   6.235   4.091 -1.5622 -0.1853 -0.6140
18115SOL    HW256546   7.499   6.371   4.130 -3.1092 -0.7031 -0.8261
18116SOL     OW56547   1.090   1.241   8.149  0.5213 -0.1485  0.2554
18116SOL    HW156548   1.158   1.196   8.098  1.2168  0.1378  0.8993
18116SOL    HW256549   1.079   1.325   8.105  0.8752 -0.0377  0.3736
18117SOL     OW56550   0.463   7.155   7.468 -0.5944 -0.0387  0.0364
18117SOL    HW156551   0.510   7.236   7.452 -1.2712  0.1174 -1.3090
18117SOL    HW256552   0.388   7.158   7.409 -1.4330 -0.9905  0.9939
18118SOL     OW56553   6.841   9.444   0.110  0.8186  0.0286  0.4554
18118SOL    HW156554   6.916   9.479   0.158  0.1489  1.7684  0.3044
18118SOL    HW256555   6.778   9.420   0.178  0.1393  1.8694  0.5361
18119SOL     OW56556   5.484   4.151   4.904 -0.1963  0.2226 -0.2543
18119SOL    HW156557   5.412   4.130   4.964  0.3905  0.7808  0.6810
18119SOL    HW256558   5.559   4.166   4.962  0.1446  1.8071 -1.0578
18120SOL     OW56559   7.461   6.883   2.530 -0.3684  0.6138 -0.2112
18120SOL    HW156560   7.461   6.957   2.590  1.1607 -0.3849  1.0797
18120SOL    HW256561   7.546   6.887   2.487 -0.3643 -0.2718 -0.2962
18121SOL     OW56562   6.136   5.887   3.602 -0.4072 -0.4372  0.0550
18121SOL    HW156563   6.142   5.973   3.643 -1.1845 -0.7401  0.8377
18121SOL    HW256564   6.079   5.900   3.526  0.6971  0.0370 -0.7224
18122SOL     OW56565   3.161   3.880   8.174  0.0753 -0.4571  0.1947
18122SOL    HW156566   3.163   3.792   8.137  2.1398  0.0248 -1.0236
18122SOL    HW256567   3.155   3.938   8.098  0.1266  0.4755  0.8886
18123SOL     OW56568   3.668   6.201   8.514 -0.0305 -0.1368  0.4644
18123SOL    HW156569   3.735   6.235   8.573  0.1610  0.6516 -0.1894
18123SOL    HW256570   3.590   6.253   8.534 -0.3105 -0.6920  0.8532
18124SOL     OW56571   0.807   1.894   0.049  0.5586  0.1220 -0.0217
18124SOL    HW156572   0.766   1.978   0.070 -0.6251 -0.4015 -0.1948
18124SOL    HW256573   0.832   1.858   0.134  2.2199  1.1841 -0.0118
18125SOL     OW56574   3.114   7.889   1.088  0.6710  0.4259 -0.0422
18125SOL    HW156575   3.138   7.811   1.138  2.0281  0.9875  0.2415
18125SOL    HW256576   3.043   7.930   1.137  0.5541 -0.1604  0.2768
18126SOL     OW56577   8.030   7.087   8.349 -0.2136  0.0746  0.5446
18126SOL    HW156578   7.994   7.174   8.329 -2.0637 -0.8839 -0.5271
18126SOL    HW256579   7.955   7.028   8.341  1.4762 -1.9663 -1.1904
18127SOL     OW56580   5.126   0.759   3.464 -0.0713  0.1729 -0.1942
18127SOL    HW156581   5.167   0.696   3.523 -0.2645 -0.4352 -0.6924
18127SOL    HW256582   5.191   0.829   3.454  0.6344 -0.5222 -0.5637
18128SOL     OW56583   6.701   7.183   0.859  0.4032 -0.1804 -0.0183
18128SOL    HW156584   6.614   7.155   0.888  1.0503 -1.5533  0.7241
18128SOL    HW256585   6.687   7.222   0.773 -1.1000  0.6922  0.5848
18129SOL     OW56586   0.878   6.720   4.418 -0.0745 -0.5748  0.2592
18129SOL    HW156587   0.783   6.732   4.420  0.1912  1.9910  0.5695
18129SOL    HW256588   0.898   6.696   4.328 -0.9798 -0.9265  0.1462
18130SOL     OW56589   4.114   6.690   9.177 -0.3360  0.3669 -0.2916
18130SOL    HW156590   4.023   6.712   9.196 -0.0386  0.5406  1.0481
18130SOL    HW256591   4.129   6.725   9.089 -0.9840  2.1842  0.2635
18131SOL     OW56592   5.903   7.005   5.362 -0.4044 -0.7034  0.0617
18131SOL    HW156593   5.844   7.080   5.356 -1.1649 -1.0534  2.2096
18131SOL    HW256594   5.990   7.043   5.370 -0.4063 -0.1561 -1.9443
18132SOL     OW56595   2.370   5.273   3.233 -0.5282 -0.3404  0.2683
18132SOL    HW156596   2.319   5.200   3.199  0.2568 -1.0908  0.6863
18132SOL    HW256597   2.424   5.235   3.302 -0.0150  0.6072  0.4049
18133SOL     OW56598   0.631   2.892   8.312 -0.3443 -0.3969  0.4083
18133SOL    HW156599   0.616   2.911   8.405 -0.5869 -3.5297  1.1292
18133SOL    HW256600   0.726   2.895   8.302 -0.3635  2.6170 -0.0247
18134SOL     OW56601   6.363   5.363   2.804 -0.2463  1.1145  0.3198
18134SOL    HW156602   6.342   5.394   2.892 -3.2775  0.1055  0.0818
18134SOL    HW256603   6.454   5.333   2.809 -0.4003  0.9178  3.1648
18135SOL     OW56604   6.677   7.521   6.388 -0.4314 -0.1852  0.7184
18135SOL    HW156605   6.669   7.605   6.343  0.5813 -1.1296 -1.3195
18135SOL    HW256606   6.591   7.508   6.430 -0.2559  2.3483  2.0903
18136SOL     OW56607   0.948   0.316   7.334  0.0498 -0.3430  0.4601
18136SOL    HW156608   1.014   0.349   7.274  0.0198 -1.1707 -0.0569
18136SOL    HW256609   0.901   0.250   7.283 -0.4405 -0.5600  1.1750
18137SOL     OW56610   4.436   3.741   0.169  0.2488 -0.2079 -0.8455
18137SOL    HW156611   4.412   3.773   0.082  0.4789 -0.9709 -1.1953
18137SOL    HW256612   4.431   3.646   0.162 -0.7040 -0.2609  0.2568
18138SOL     OW56613   6.891   8.282   1.144 -0.1620  0.0904 -0.6051
18138SOL    HW156614   6.901   8.268   1.050  0.1057 -1.1313 -0.4084
18138SOL    HW256615   6.946   8.358   1.163 -1.3269  1.2281 -1.6573
18139SOL     OW56616   0.224   5.066   6.900  0.1735  0.1306 -0.3364
18139SOL    HW156617   0.293   5.081   6.836  1.8325 -0.0549  1.3080
18139SOL    HW256618   0.221   4.971   6.911 -0.6030  0.1137 -0.6518
18140SOL     OW56619   3.142   9.059   0.377  0.0254 -0.1442  0.1837
18140SOL    HW156620   3.150   9.143   0.423  0.9168 -0.9219  1.5278
18140SOL    HW256621   3.053   9.059   0.343 -0.1300  1.1655  0.5154
18141SOL     OW56622   1.313   6.813   8.023 -0.2336 -0.3798 -0.2802
18141SOL    HW156623   1.402   6.791   7.996  0.2987  0.1702  0.9646
18141SOL    HW256624   1.258   6.748   7.979  0.8506 -1.1856 -0.4892
18142SOL     OW56625   4.423   2.282   3.847 -0.2467  0.2445  0.3858
18142SOL    HW156626   4.456   2.203   3.805 -0.0685 -0.1902  1.3254
18142SOL    HW256627   4.360   2.317   3.784 -0.1119 -0.4754 -0.1704
18143SOL     OW56628   3.220   2.683   1.660  0.0370  0.6398  0.1050
18143SOL    HW156629   3.240   2.755   1.719 -1.7291  1.3320 -0.0593
18143SOL    HW256630   3.145   2.640   1.701  0.6022 -0.6536 -0.1876
18144SOL     OW56631   1.921   8.619   4.452 -0.4013  0.5672 -0.0116
18144SOL    HW156632   1.975   8.560   4.401  0.4193  2.5859 -1.6089
18144SOL    HW256633   1.833   8.611   4.414 -0.7890 -1.0846  1.1419
18145SOL     OW56634   1.401   2.475   4.012 -0.3830 -0.4852 -0.3172
18145SOL    HW156635   1.354   2.438   4.086 -0.0266 -1.8770 -0.7689
18145SOL    HW256636   1.334   2.521   3.962 -0.9539 -1.0476 -0.0800
18146SOL     OW56637   3.541   5.770   4.001 -0.3026 -0.3055 -0.0964
18146SOL    HW156638   3.633   5.796   4.011 -0.1004 -0.6095 -1.0905
18146SOL    HW256639   3.531   5.697   4.061 -0.5742  1.2568  1.8793
18147SOL     OW56640   4.655   3.650   7.289 -0.3176  0.0784 -0.6619
18147SOL    HW156641   4.581   3.591   7.305 -0.4918  0.0643 -1.4562
18147SOL    HW256642   4.721   3.596   7.247 -0.3865  0.3838 -1.1792
18148SOL     OW56643   6.432   6.696   5.756  0.3141 -0.2449 -0.2701
18148SOL    HW156644   6.368   6.694   5.827 -1.4117  0.3532 -1.7541
18148SOL    HW256645   6.454   6.604   5.741 -0.0885 -0.4417  0.3306
18149SOL     OW56646   0.864   8.226   6.376 -0.2636 -0.3085  0.1407
18149SOL    HW156647   0.803   8.195   6.444  0.8356  0.9630  1.8031
18149SOL    HW256648   0.808   8.261   6.307 -1.4633  0.5795  1.4956
18150SOL     OW56649   9.269   3.728   7.115  0.5291 -0.3773 -0.2712
18150SOL    HW156650   9.262   3.812   7.070 -0.5142 -0.0613  0.4286
18150SOL    HW256651   9.179   3.694   7.116  0.7802 -1.0653  0.2612
18151SOL     OW56652   8.691   9.485   3.667  0.3888  0.0700 -0.0416
18151SOL    HW156653   8.755   9.510   3.733 -1.7987 -1.4602  2.8890
18151SOL    HW256654   8.649   9.568   3.641  2.8797  0.9904 -1.4815
18152SOL     OW56655   0.192   4.344   4.631  0.1468  0.0239 -0.3767
18152SOL    HW156656   0.119   4.331   4.571 -1.0808  0.8752  0.8870
18152SOL    HW256657   0.264   4.374   4.574 -0.3768 -1.0292 -1.6653
18153SOL     OW56658   6.999   4.302   8.242  0.1436  0.2258 -0.0624
18153SOL    HW156659   6.982   4.260   8.327  0.3502 -0.2466 -0.2538
18153SOL    HW256660   6.912   4.314   8.203 -0.0524  1.4121  0.6601
18154SOL     OW56661   4.453   4.262   0.524  0.1283 -0.2348  0.2339
18154SOL    HW156662   4.530   4.318   0.513  1.3154 -1.7411  0.4856
18154SOL    HW256663   4.380   4.323   0.536  1.3807  1.2383  0.6437
18155SOL     OW56664   4.462   0.072   4.561 -0.7929 -0.2352  0.6908
18155SOL    HW156665   4.383   0.101   4.515 -1.1783 -0.6602  1.0674
18155SOL    HW256666   4.513   0.152   4.574 -1.1663  0.0463  0.4497
18156SOL     OW56667   0.660   5.980   6.004 -0.7188 -0.1094  0.1024
18156SOL    HW156668   0.698   5.933   6.079 -1.3799  0.6609  0.9387
18156SOL    HW256669   0.565   5.966   6.013 -0.9678  1.7267  0.6248
18157SOL     OW56670   0.936   7.693   8.477  0.0687  0.1509  0.1328
18157SOL    HW156671   0.986   7.729   8.403  1.0523  0.2892  0.8386
18157SOL    HW256672   0.855   7.745   8.478  0.4704  0.8163 -0.2464
18158SOL     OW56673   5.850   2.285   4.545 -0.0146 -0.1677  0.0861
18158SOL    HW156674   5.905   2.210   4.523 -0.3578 -0.3360 -0.2101
18158SOL    HW256675   5.772   2.247   4.585 -0.3615 -0.0049 -0.4165
18159SOL     OW56676   1.392   3.346   5.848  0.1338  0.2467 -0.0572
18159SOL    HW156677   1.347   3.427   5.872 -1.2680 -0.7462  0.8258
18159SOL    HW256678   1.359   3.281   5.910  0.9602 -1.0762 -0.9550
18160SOL     OW56679   4.621   0.644   8.288 -0.0349  0.4047  0.3586
18160SOL    HW156680   4.541   0.693   8.310 -0.1774  0.6979 -0.7179
18160SOL    HW256681   4.671   0.704   8.233 -0.9421 -1.1108 -2.3550
18161SOL     OW56682   7.154   5.488   6.583  0.7228  0.2103  0.2725
18161SOL    HW156683   7.249   5.499   6.583  1.0932 -1.1074 -3.9532
18161SOL    HW256684   7.127   5.508   6.493 -2.7038 -1.4833  0.7328
18162SOL     OW56685   6.035   1.922   3.187  0.2410  0.1434 -0.2219
18162SOL    HW156686   6.013   1.874   3.267 -1.7617  0.3966 -0.5608
18162SOL    HW256687   6.125   1.950   3.200  0.5386 -1.3302  1.1797
18163SOL     OW56688   7.804   2.667   7.320 -0.0853  0.4589 -0.0886
18163SOL    HW156689   7.779   2.603   7.387 -0.4922 -0.3959 -1.0346
18163SOL    HW256690   7.841   2.739   7.370 -0.2931 -0.1911  1.0618
18164SOL     OW56691   6.582   1.733   6.964 -0.2511 -0.3309 -0.5724
18164SOL    HW156692   6.556   1.645   6.936  0.0565  0.2070 -2.7368
18164SOL    HW256693   6.666   1.748   6.920  0.0811  0.7732  0.3848
18165SOL     OW56694   8.088   4.753   7.363  0.2104 -0.3920 -0.1216
18165SOL    HW156695   8.104   4.660   7.374 -1.1031 -0.5774  0.4450
18165SOL    HW256696   8.004   4.758   7.316  0.2962  0.4973 -0.2103
18166SOL     OW56697   4.959   1.323   4.062 -0.2063  0.0415 -0.4083
18166SOL    HW156698   5.039   1.373   4.077 -0.5114  1.3020 -2.5686
18166SOL    HW256699   4.888   1.384   4.083 -0.6497 -0.9160  1.0342
18167SOL     OW56700   9.115   7.435   2.668 -0.2527 -0.2648 -0.1758
18167SOL    HW156701   9.189   7.431   2.607  0.8713  0.7946  1.0588
18167SOL    HW256702   9.097   7.344   2.691 -0.7078 -0.6918 -2.0427
18168SOL     OW56703   8.157   7.662   7.913 -0.3106 -0.3645  0.5034
18168SOL    HW156704   8.248   7.640   7.933 -0.7628 -0.3611  2.7279
18168SOL    HW256705   8.141   7.743   7.961 -1.4235 -0.1995 -0.1212
18169SOL     OW56706   4.004   2.646   5.438 -0.2047 -0.1794 -0.0997
18169SOL    HW156707   4.045   2.582   5.495  0.4110  0.2882 -0.0108
18169SOL    HW256708   4.022   2.615   5.349 -0.6250 -0.5711 -0.0501
18170SOL     OW56709   6.440   4.122   9.236  0.0277  0.2131  0.2052
18170SOL    HW156710   6.468   4.189   9.174  1.4805 -0.3726  0.2056
18170SOL    HW256711   6.521   4.087   9.272 -0.6117 -2.3587 -0.6532
18171SOL     OW56712   1.859   6.271   5.350  0.5733 -0.1171 -0.9037
18171SOL    HW156713   1.804   6.329   5.297  1.7091  0.8817 -1.0048
18171SOL    HW256714   1.909   6.329   5.407  1.9196 -0.9515 -1.1836
18172SOL     OW56715   8.612   1.480   6.913  0.0894 -0.2976 -0.0774
18172SOL    HW156716   8.627   1.439   6.998 -1.5182 -1.5826 -0.3485
18172SOL    HW256717   8.644   1.415   6.850 -2.5535 -1.3010 -0.5192
18173SOL     OW56718   6.395   2.394   2.688  0.8380 -0.1771 -0.8062
18173SOL    HW156719   6.414   2.474   2.640 -0.6185  0.1253 -0.9254
18173SOL    HW256720   6.340   2.423   2.761  2.0654 -0.7849  0.3969
18174SOL     OW56721   1.137   7.769   6.311  0.3708 -0.4783 -0.0688
18174SOL    HW156722   1.195   7.786   6.385  0.2147 -2.1805  0.4977
18174SOL    HW256723   1.187   7.796   6.234  1.3832 -0.6856  0.5026
18175SOL     OW56724   2.260   6.874   5.271 -0.1686  0.5895  0.1059
18175SOL    HW156725   2.355   6.876   5.259 -0.1183  1.4151  0.5860
18175SOL    HW256726   2.225   6.890   5.183  0.0988 -1.3424 -0.3987
18176SOL     OW56727   4.154   0.047   2.616 -0.5996 -0.5744  0.0743
18176SOL    HW156728   4.086  -0.005   2.659 -1.9433  0.1104 -1.0988
18176SOL    HW256729   4.128   0.047   2.523  0.8910 -0.1038 -0.3673
18177SOL     OW56730   8.819   2.715   6.020 -0.1021  0.1009  0.0858
18177SOL    HW156731   8.850   2.663   5.946 -0.4859  1.1262 -0.8123
18177SOL    HW256732   8.780   2.793   5.981 -0.9215  0.3539  1.3389
18178SOL     OW56733   6.195   5.339   8.212 -0.5035 -0.1120 -0.3167
18178SOL    HW156734   6.108   5.306   8.232 -0.1206 -0.8999  0.0927
18178SOL    HW256735   6.190   5.433   8.230 -0.9955 -0.3172  0.6837
18179SOL     OW56736   4.659   4.173   6.889 -0.2326  0.4371 -0.0644
18179SOL    HW156737   4.569   4.143   6.898 -0.7250  1.8753 -0.0150
18179SOL    HW256738   4.676   4.224   6.968  0.1037  1.4210 -0.7410
18180SOL     OW56739   0.949   5.721   2.131  0.0126  0.0238 -0.4375
18180SOL    HW156740   0.996   5.682   2.204 -0.8512  1.1687  0.7838
18180SOL    HW256741   0.942   5.814   2.154 -3.1525 -0.1300 -0.3264
18181SOL     OW56742   5.190   2.004   5.031 -0.6177  0.1135  0.5249
18181SOL    HW156743   5.150   2.018   4.945 -1.8608  1.3438  1.2714
18181SOL    HW256744   5.281   2.029   5.020 -0.6551 -0.2034 -0.5563
18182SOL     OW56745   5.414   8.289   8.745  0.1066 -0.1608  0.1175
18182SOL    HW156746   5.393   8.243   8.825  0.4492  1.9218  1.4840
18182SOL    HW256747   5.329   8.318   8.711  0.0719  0.5070  0.7443
18183SOL     OW56748   0.717   1.939   5.935  0.1572  0.3641  0.0683
18183SOL    HW156749   0.670   1.979   6.008  0.1872  1.0037 -0.2607
18183SOL    HW256750   0.710   1.845   5.951 -1.3375  0.4406 -0.0410
18184SOL     OW56751   2.525   2.140   4.734  0.6562 -0.4005 -0.2707
18184SOL    HW156752   2.452   2.078   4.737  1.2945 -1.4494 -3.1523
18184SOL    HW256753   2.578   2.118   4.811 -1.2472 -0.6019  1.0595
18185SOL     OW56754   5.822   2.884   9.515  0.1899  0.0496 -0.6450
18185SOL    HW156755   5.833   2.792   9.540  0.6657  0.2347 -0.1742
18185SOL    HW256756   5.802   2.929   9.597  0.4253  0.4446 -0.8032
18186SOL     OW56757   5.171   8.888   9.220  0.1996 -0.2154 -0.3560
18186SOL    HW156758   5.109   8.829   9.176 -0.4034  0.2141 -0.0917
18186SOL    HW256759   5.198   8.840   9.298 -2.3635  0.8853  1.3226
18187SOL     OW56760   0.620   4.090   2.430 -0.0534 -0.3577  0.2542
18187SOL    HW156761   0.626   4.086   2.526 -0.9098 -1.6892  0.2778
18187SOL    HW256762   0.582   4.006   2.405  0.5704 -0.2115 -1.3028
18188SOL     OW56763   9.449   7.731   8.626 -0.1909 -0.3492  0.7046
18188SOL    HW156764   9.518   7.789   8.658  0.0291 -0.6222  0.7323
18188SOL    HW256765   9.456   7.653   8.682 -1.6704  0.3263  1.8892
18189SOL     OW56766   8.318   2.597   1.264 -0.1011  0.3745  0.2125
18189SOL    HW156767   8.329   2.638   1.178  0.3958  1.7066  0.8985
18189SOL    HW256768   8.269   2.517   1.245 -0.9924  1.2012 -1.1761
18190SOL     OW56769   2.371   4.711   7.061 -0.0812  0.0172  0.0148
18190SOL    HW156770   2.281   4.742   7.049  0.1098  0.3863 -0.5095
18190SOL    HW256771   2.364   4.639   7.124 -0.8126 -0.2771 -0.3919
18191SOL     OW56772   9.075   3.646   3.496 -0.1427  0.1464 -0.2437
18191SOL    HW156773   9.002   3.603   3.451  0.9130 -0.5960 -1.3126
18191SOL    HW256774   9.150   3.633   3.438  1.0035  0.2675  1.1425
18192SOL     OW56775   0.804   8.323   5.373 -0.5812  0.3007  0.4155
18192SOL    HW156776   0.717   8.289   5.392 -1.2390  2.2270  1.1366
18192SOL    HW256777   0.848   8.254   5.324 -3.3264  0.1365 -2.0562
18193SOL     OW56778   3.342   6.347   3.507 -0.1461  0.4221 -0.1081
18193SOL    HW156779   3.434   6.326   3.525  0.5393  1.3953 -2.1834
18193SOL    HW256780   3.333   6.439   3.534 -0.2868  0.5697 -0.6506
18194SOL     OW56781   4.892   3.340   3.831  0.4773 -0.1271  0.3096
18194SOL    HW156782   4.830   3.412   3.817 -1.1494 -1.5904 -0.4335
18194SOL    HW256783   4.854   3.289   3.903  0.5858 -1.2587 -0.4040
18195SOL     OW56784   3.590   9.479   5.249 -0.1106  0.3830  0.2923
18195SOL    HW156785   3.519   9.428   5.289 -0.1606 -1.6776 -2.1037
18195SOL    HW256786   3.545   9.538   5.188 -0.0209 -3.0783 -3.6316
18196SOL     OW56787   3.532   3.030   8.152 -0.3571  0.0112 -0.2224
18196SOL    HW156788   3.505   2.964   8.215  1.3322 -0.8794 -0.3687
18196SOL    HW256789   3.545   2.982   8.070  2.1174  0.2124 -0.0295
18197SOL     OW56790   1.400   1.568   1.751 -0.1026  0.0401 -0.2218
18197SOL    HW156791   1.449   1.549   1.831  0.1323  0.0621 -0.3617
18197SOL    HW256792   1.310   1.582   1.782 -0.5377 -2.3931 -0.2421
18198SOL     OW56793   2.807   7.225   6.046 -0.1225  0.3607 -0.4781
18198SOL    HW156794   2.746   7.297   6.031 -1.0597  0.0192  1.3355
18198SOL    HW256795   2.883   7.267   6.089 -0.7175  0.2954  0.6868
18199SOL     OW56796   0.383   0.527   1.061 -0.3139  0.0500  0.0783
18199SOL    HW156797   0.445   0.578   1.114  0.5011 -0.6674 -0.1578
18199SOL    HW256798   0.355   0.587   0.992 -0.1547  0.4949  0.3961
18200SOL     OW56799   1.402   6.625   4.425 -0.4035  0.2889 -0.3669
18200SOL    HW156800   1.378   6.533   4.418 -0.0068  0.0301  1.3357
18200SOL    HW256801   1.479   6.634   4.368 -0.3743 -0.4460 -0.4473
18201SOL     OW56802   7.638   9.170   2.415 -0.6408  0.2120  0.0636
18201SOL    HW156803   7.583   9.169   2.493 -0.1929 -0.1828  0.3861
18201SOL    HW256804   7.595   9.110   2.354 -1.7009  1.5262 -0.5094
18202SOL     OW56805   2.110   9.059   8.455  0.1330  0.4649 -0.3620
18202SOL    HW156806   2.148   9.111   8.385  0.0794  1.5664  0.4034
18202SOL    HW256807   2.157   8.976   8.452  0.9296  0.9281 -0.9500
18203SOL     OW56808   6.654   2.667   7.743  0.2225 -0.4949  0.4634
18203SOL    HW156809   6.725   2.653   7.681  1.0883 -0.5729  1.4526
18203SOL    HW256810   6.586   2.606   7.716  1.2750 -1.7715  0.6270
18204SOL     OW56811   2.942   9.069   5.788  0.2281  0.1341  0.1952
18204SOL    HW156812   2.903   8.983   5.775 -0.5817  0.5620 -0.2523
18204SOL    HW256813   2.874   9.131   5.763  0.5490  0.9210  1.1867
18205SOL     OW56814   2.441   7.848   8.472  0.0924 -0.1038 -0.2282
18205SOL    HW156815   2.394   7.902   8.536  0.4480 -1.1802  0.9771
18205SOL    HW256816   2.522   7.823   8.516  0.2383 -1.0577 -0.9981
18206SOL     OW56817   4.985   6.796   5.576 -0.0743 -0.3821 -0.3070
18206SOL    HW156818   4.894   6.785   5.603 -0.2882  0.7094 -0.5376
18206SOL    HW256819   5.029   6.833   5.653  0.3466 -1.5254  0.0326
18207SOL     OW56820   3.203   3.666   9.196  0.5827 -0.1329  0.0182
18207SOL    HW156821   3.134   3.619   9.243  2.0788 -0.5491  1.8956
18207SOL    HW256822   3.284   3.623   9.223  1.7111  1.1528 -1.1550
18208SOL     OW56823   3.771   0.709   2.233  0.2913  0.1551  0.4281
18208SOL    HW156824   3.694   0.691   2.286 -0.5072  0.5966 -0.5608
18208SOL    HW256825   3.775   0.804   2.227  1.8756  0.2409  1.8192
18209SOL     OW56826   3.657   2.592   4.954 -0.1451  0.6005 -0.2290
18209SOL    HW156827   3.565   2.609   4.975 -0.2784 -0.7327  0.4044
18209SOL    HW256828   3.669   2.499   4.976  1.2082  0.6163 -0.8278
18210SOL     OW56829   7.689   2.942   7.506 -0.2137 -0.5170 -0.6663
18210SOL    HW156830   7.637   2.867   7.533 -0.6337 -0.7874 -2.1231
18210SOL    HW256831   7.699   2.995   7.585  0.1385 -2.1209  0.4050
18211SOL     OW56832   9.307   0.297   1.192  0.1412  0.7507  0.1018
18211SOL    HW156833   9.368   0.240   1.145  1.6987 -1.7490  4.5397
18211SOL    HW256834   9.344   0.385   1.183  1.3808  0.1220 -1.5801
18212SOL     OW56835   4.783   3.975   1.129 -0.3771  0.0307 -0.1339
18212SOL    HW156836   4.875   3.990   1.152 -0.2579  0.1648 -0.6729
18212SOL    HW256837   4.774   3.880   1.132  0.6154 -0.2725 -2.9790
18213SOL     OW56838   5.896   4.495   2.367  0.0342  0.3496 -0.0033
18213SOL    HW156839   5.928   4.406   2.383 -1.2450 -0.0521  0.3732
18213SOL    HW256840   5.974   4.551   2.381  0.4818 -0.5560  1.3954
18214SOL     OW56841   7.215   3.665   0.805  0.7006 -0.0135 -0.0839
18214SOL    HW156842   7.241   3.743   0.853  1.9658 -2.1506  2.9707
18214SOL    HW256843   7.138   3.631   0.852  1.4399 -1.7039 -0.0106
18215SOL     OW56844   5.473   3.604   2.130 -0.0572 -0.1101 -0.3714
18215SOL    HW156845   5.454   3.511   2.143  0.4699 -0.3796 -1.3792
18215SOL    HW256846   5.462   3.643   2.217  0.3642 -1.2298  0.2126
18216SOL     OW56847   0.346   8.508   2.525 -0.0079 -0.0111  0.0964
18216SOL    HW156848   0.287   8.488   2.597 -1.1364  0.4915 -0.6556
18216SOL    HW256849   0.315   8.454   2.452 -0.8309  1.6845 -0.8923
18217SOL     OW56850   1.625   2.210   1.808  0.5995 -0.1547  1.1292
18217SOL    HW156851   1.707   2.161   1.802  0.8389  0.3960 -0.3093
18217SOL    HW256852   1.647   2.287   1.860  0.6977 -0.5610  1.7103
18218SOL     OW56853   8.694   2.300   3.132  0.1627  0.4661  0.2900
18218SOL    HW156854   8.651   2.380   3.102 -0.0408 -0.0625 -0.8673
18218SOL    HW256855   8.623   2.237   3.142  0.5291 -0.1258 -0.6818
18219SOL     OW56856   5.631   0.547   7.677  0.3863 -0.4798 -0.3989
18219SOL    HW156857   5.554   0.603   7.690  1.5960  1.2294 -0.3299
18219SOL    HW256858   5.621   0.513   7.588 -1.5011 -2.0383  0.3207
18220SOL     OW56859   3.258   4.272   0.573 -0.0853  0.1777 -0.0206
18220SOL    HW156860   3.217   4.303   0.654 -0.8008  2.4020 -1.1516
18220SOL    HW256861   3.352   4.283   0.588 -0.2287  0.8585  0.4163
18221SOL     OW56862   8.544   1.169   7.174 -0.3254 -0.0626 -0.2005
18221SOL    HW156863   8.542   1.092   7.230 -0.7382  1.7555  2.4901
18221SOL    HW256864   8.456   1.206   7.179 -0.1303  0.6221 -1.3817
18222SOL     OW56865   4.540   8.303   8.901  0.0135 -0.4446 -0.0558
18222SOL    HW156866   4.518   8.269   8.988 -2.3859  0.1785 -0.3590
18222SOL    HW256867   4.600   8.375   8.918 -0.3447 -0.3971  1.0821
18223SOL     OW56868   1.346   7.612   7.514 -0.4319  0.0619 -0.4590
18223SOL    HW156869   1.351   7.533   7.568  0.4339 -0.4125 -1.1910
18223SOL    HW256870   1.325   7.682   7.576  0.2624 -0.5053  0.4570
18224SOL     OW56871   5.778   2.259   0.097  0.0635  0.4275  0.2016
18224SOL    HW156872   5.835   2.286   0.168  0.8748 -1.8347  0.5188
18224SOL    HW256873   5.838   2.243   0.023 -0.3947 -0.0306 -0.0788
18225SOL     OW56874   2.744   3.762   9.432 -0.4546  0.2472 -0.2095
18225SOL    HW156875   2.804   3.827   9.395  1.5238 -1.2550  0.2110
18225SOL    HW256876   2.779   3.744   9.519 -1.5680 -0.6467  0.0728
18226SOL     OW56877   1.184   0.130   4.448 -0.6141  0.2386 -0.0381
18226SOL    HW156878   1.173   0.054   4.506 -0.2873  0.5621  0.4472
18226SOL    HW256879   1.127   0.110   4.373 -2.0525  0.3910  0.9618
18227SOL     OW56880   0.584   8.722   1.646  0.2090 -0.1286 -0.1693
18227SOL    HW156881   0.563   8.766   1.564 -1.3027 -1.4251 -0.5283
18227SOL    HW256882   0.595   8.630   1.622 -1.5666 -0.7636  1.2267
18228SOL     OW56883   3.576   0.195   6.057  0.3735 -0.2162 -0.3396
18228SOL    HW156884   3.635   0.196   5.982  0.3005 -1.6491 -0.4421
18228SOL    HW256885   3.630   0.161   6.129 -0.2727 -1.3781 -0.3926
18229SOL     OW56886   1.617   0.279   4.732 -0.0335 -0.3983 -0.2134
18229SOL    HW156887   1.561   0.354   4.710  0.0943 -0.8587 -2.2967
18229SOL    HW256888   1.664   0.307   4.811 -1.1970  1.0486  0.0212
18230SOL     OW56889   2.530   6.479   7.603  0.3735  0.5925  0.5830
18230SOL    HW156890   2.525   6.572   7.627 -1.6638  0.7105 -0.1345
18230SOL    HW256891   2.440   6.453   7.588  0.8722 -1.6389  1.1139
18231SOL     OW56892   1.783   0.181   5.896  0.0533  0.2655  0.4776
18231SOL    HW156893   1.831   0.144   5.822 -0.6482 -0.3228  0.3053
18231SOL    HW256894   1.847   0.238   5.939  0.3057  1.0888 -0.9071
18232SOL     OW56895   6.888   4.419   0.810 -0.2745  0.8717 -0.2616
18232SOL    HW156896   6.893   4.325   0.793 -0.7648  0.8222 -0.1536
18232SOL    HW256897   6.951   4.434   0.880 -0.5989  0.5216  0.1173
18233SOL     OW56898   4.310   2.366   6.539 -0.2494  0.3746  0.2519
18233SOL    HW156899   4.362   2.393   6.463 -2.1122 -1.0496 -1.6645
18233SOL    HW256900   4.221   2.390   6.516 -0.9367 -0.5848  1.7750
18234SOL     OW56901   0.145   2.896   8.288 -0.0857 -0.1948  1.1981
18234SOL    HW156902   0.208   2.870   8.356  0.7820 -0.0982  0.4418
18234SOL    HW256903   0.149   2.991   8.286  1.5327 -0.2447 -0.4733
18235SOL     OW56904   3.645   0.349   0.714  0.0227 -0.0918  0.1197
18235SOL    HW156905   3.676   0.341   0.624  0.6220  0.5655  0.2506
18235SOL    HW256906   3.619   0.261   0.739 -0.2033 -0.2659 -0.7145
18236SOL     OW56907   0.596   4.093   1.108  0.2977  0.1286  0.4648
18236SOL    HW156908   0.625   4.048   1.187  1.6484  0.6986  0.3147
18236SOL    HW256909   0.675   4.132   1.072 -0.0721 -1.0001 -1.7506
18237SOL     OW56910   8.813   4.743   6.341 -0.0278 -0.1708  0.3766
18237SOL    HW156911   8.774   4.799   6.274  0.2446 -0.8037 -0.3338
18237SOL    HW256912   8.804   4.654   6.306 -0.4320 -0.5703  1.4689
18238SOL     OW56913   0.942   2.788   5.871 -0.5949 -0.7937  0.1390
18238SOL    HW156914   0.920   2.777   5.779  1.9388 -0.0759 -0.6356
18238SOL    HW256915   0.861   2.770   5.918 -1.9543 -1.1534 -2.2200
18239SOL     OW56916   9.394   8.143   6.432  0.1693  0.5069 -0.2192
18239SOL    HW156917   9.426   8.206   6.496 -0.3256  0.3161  0.2163
18239SOL    HW256918   9.437   8.169   6.350 -1.8668  2.9225 -0.6387
18240SOL     OW56919   5.016   4.286   2.392  0.1670 -0.5666 -0.1002
18240SOL    HW156920   5.053   4.310   2.307 -0.5847 -0.4663 -0.4066
18240SOL    HW256921   5.092   4.269   2.448  0.7249  1.4967 -0.1592
18241SOL     OW56922   5.678   2.381   4.294 -0.1926  0.1078  0.3303
18241SOL    HW156923   5.588   2.360   4.317 -0.5626 -2.0440 -2.5137
18241SOL    HW256924   5.731   2.318   4.342 -0.3778  0.0417  0.4492
18242SOL     OW56925   8.578   5.553   6.082  0.3154 -0.1990  0.3535
18242SOL    HW156926   8.662   5.509   6.095  0.5506 -0.1732 -0.9735
18242SOL    HW256927   8.600   5.638   6.044 -0.2877  0.0556  0.5453
18243SOL     OW56928   6.637   6.199   4.532 -0.0377 -0.2804  0.9324
18243SOL    HW156929   6.636   6.293   4.513  2.4073 -0.4380 -0.4053
18243SOL    HW256930   6.724   6.183   4.567  1.0304 -2.5624 -2.3048
18244SOL     OW56931   0.065   1.382   2.564 -0.0113  0.4397  0.2018
18244SOL    HW156932   0.003   1.324   2.607  0.7613  0.3715  1.2571
18244SOL    HW256933   0.080   1.341   2.478 -1.4198  0.4803 -0.0881
18245SOL     OW56934   1.943   1.450   5.457 -0.0645  1.0384  0.1434
18245SOL    HW156935   1.909   1.429   5.370  0.1499  1.0913  0.0473
18245SOL    HW256936   1.992   1.531   5.444  1.4947  0.0939 -0.0462
18246SOL     OW56937   2.640   7.650   9.166 -0.4497  0.2835  0.1306
18246SOL    HW156938   2.651   7.613   9.253 -3.6979 -0.4981  0.3287
18246SOL    HW256939   2.616   7.576   9.111 -0.8167  1.1169 -0.8773
18247SOL     OW56940   8.920   5.457   5.524 -0.2931  0.0263  0.6800
18247SOL    HW156941   8.888   5.479   5.611 -1.4333 -0.1155  0.3189
18247SOL    HW256942   8.970   5.533   5.496 -3.6564  2.0658 -0.3244
18248SOL     OW56943   4.086   3.511   2.973  0.4630 -0.7425  0.0226
18248SOL    HW156944   3.990   3.509   2.978  0.4134  1.1587  0.6479
18248SOL    HW256945   4.105   3.570   2.901  1.1735 -0.7396  0.2050
18249SOL     OW56946   7.969   8.715   2.910 -0.1754  0.3796 -0.5757
18249SOL    HW156947   7.968   8.798   2.863 -1.3726  0.0764 -1.1273
18249SOL    HW256948   7.914   8.729   2.987 -0.3279  0.1266 -0.6344
18250SOL     OW56949   2.566   5.771   8.294  0.4108 -0.2206 -0.1608
18250SOL    HW156950   2.572   5.675   8.289 -0.9642 -0.3250 -0.0408
18250SOL    HW256951   2.532   5.788   8.381  1.4990  0.4427  0.1558
18251SOL     OW56952   2.371   9.536   2.647  0.0031 -0.7594  0.4632
18251SOL    HW156953   2.361   9.588   2.727  1.8953 -2.7020  2.0997
18251SOL    HW256954   2.461   9.550   2.620 -0.5251 -0.3558 -1.2412
18252SOL     OW56955   9.400   2.009   8.502 -0.3806 -0.3563 -0.4758
18252SOL    HW156956   9.466   1.960   8.454  0.5903  0.0926  0.3741
18252SOL    HW256957   9.412   1.984   8.594  0.0063  1.2703 -0.0441
18253SOL     OW56958   2.861   9.067   3.019  0.8869 -0.5752  0.3513
18253SOL    HW156959   2.766   9.057   3.009  0.8050  0.7696 -0.6128
18253SOL    HW256960   2.897   8.985   2.986  0.0724 -0.8564  0.1262
18254SOL     OW56961   3.875   2.835   7.213  0.3652 -0.0214  0.1250
18254SOL    HW156962   3.916   2.749   7.220  0.5279  0.1406  1.5193
18254SOL    HW256963   3.946   2.897   7.233 -0.4471  0.2745  2.3048
18255SOL     OW56964   0.503   6.683   8.856  0.3377 -0.1697  0.2303
18255SOL    HW156965   0.531   6.656   8.944  4.3794 -0.2245 -0.8956
18255SOL    HW256966   0.451   6.609   8.825  0.2361 -0.8755  1.9322
18256SOL     OW56967   0.078   5.214   3.033  0.7856  0.1869 -0.3920
18256SOL    HW156968   0.013   5.158   3.075  1.1405 -0.4356 -0.6598
18256SOL    HW256969   0.030   5.295   3.013  0.0783 -0.2754 -0.6212
18257SOL     OW56970   5.390   1.499   6.496 -0.2080  0.1471  1.0286
18257SOL    HW156971   5.451   1.565   6.462 -3.7737  3.6514  0.7348
18257SOL    HW256972   5.379   1.437   6.425 -1.1406  2.6299 -1.1577
18258SOL     OW56973   8.451   7.656   4.677 -0.1427  0.4816 -0.1323
18258SOL    HW156974   8.396   7.645   4.600  2.4969 -0.3247 -2.0845
18258SOL    HW256975   8.416   7.594   4.741 -1.6768  0.2674 -1.1335
18259SOL     OW56976   0.659   2.839   8.942 -0.1920 -0.4407 -0.1831
18259SOL    HW156977   0.754   2.855   8.944 -0.3980  0.9703 -0.6799
18259SOL    HW256978   0.630   2.855   9.032 -0.2327  1.1247 -0.4451
18260SOL     OW56979   4.182   1.238   4.791  0.0463 -0.3550  0.0216
18260SOL    HW156980   4.195   1.290   4.870  0.2258  0.2322 -0.3829
18260SOL    HW256981   4.086   1.232   4.782  0.0146  0.3932 -0.2278
18261SOL     OW56982   0.830   9.475   8.798 -0.1396  0.6574 -0.1725
18261SOL    HW156983   0.809   9.454   8.889  0.4668  0.3332 -0.1061
18261SOL    HW256984   0.745   9.473   8.753 -0.2749 -0.6694  0.0922
18262SOL     OW56985   6.015   3.957   4.404 -0.3084 -0.1107  0.1994
18262SOL    HW156986   5.925   3.975   4.380 -0.0288  0.9475 -0.1052
18262SOL    HW256987   6.048   4.040   4.438  1.4589  0.4895 -2.6118
18263SOL     OW56988   0.249   3.432   8.361 -1.1993  0.0003 -0.2803
18263SOL    HW156989   0.171   3.429   8.306 -1.7046 -0.2107  0.4309
18263SOL    HW256990   0.247   3.349   8.410 -0.5033 -0.0279 -0.3002
18264SOL     OW56991   2.048   6.313   7.504 -0.0124  0.1441  0.5593
18264SOL    HW156992   2.034   6.350   7.591  1.6556  0.8312  0.5841
18264SOL    HW256993   2.049   6.218   7.518  2.7060  0.2355  1.8124
18265SOL     OW56994   5.630   0.475   4.447  0.0258 -0.0521  0.5674
18265SOL    HW156995   5.666   0.425   4.520 -0.0805 -0.7365  0.1519
18265SOL    HW256996   5.695   0.543   4.431  0.9702 -1.0421  0.0723
18266SOL     OW56997   0.225   6.877   0.378 -0.2208 -0.2173  0.0598
18266SOL    HW156998   0.164   6.875   0.305 -1.1141 -2.4364  0.7900
18266SOL    HW256999   0.241   6.785   0.399  0.9214  0.3451  1.9199
18267SOL     OW57000   9.073   8.231   2.044  0.0464 -0.5751  0.3038
18267SOL    HW157001   9.107   8.261   2.128  2.2223 -0.8296 -0.4372
18267SOL    HW257002   9.104   8.295   1.981 -1.0904 -0.6989 -0.4131
18268SOL     OW57003   7.184   3.194   2.928 -0.2960 -0.2672  0.1311
18268SOL    HW157004   7.201   3.173   3.020  0.9081  2.0317  0.5066
18268SOL    HW257005   7.252   3.147   2.880  0.6831  0.5220  0.6916
18269SOL     OW57006   1.043   9.241   6.153 -0.2613  0.0481  0.0030
18269SOL    HW157007   1.020   9.246   6.060  2.1469  1.0402 -0.6183
18269SOL    HW257008   1.089   9.158   6.162  0.1470  0.2834  0.1308
18270SOL     OW57009   5.480   2.954   4.941  0.0957  0.0427  0.0670
18270SOL    HW157010   5.444   2.969   4.854  0.1552  0.3413  0.0933
18270SOL    HW257011   5.514   3.039   4.969  0.9045 -0.2457  0.0063
18271SOL     OW57012   4.158   3.044   8.760  0.4465  0.2768  0.3615
18271SOL    HW157013   4.117   3.119   8.714  2.1138  1.0887  0.1315
18271SOL    HW257014   4.248   3.044   8.730  0.4151 -2.0905  0.0978
18272SOL     OW57015   7.645   4.201   1.093 -0.2523  0.3089 -0.1715
18272SOL    HW157016   7.642   4.242   1.007 -0.4837  1.7145  0.4769
18272SOL    HW257017   7.686   4.266   1.150  1.9678 -1.4275  0.3735
18273SOL     OW57018   1.893   6.850   7.094 -0.3278  0.2066  0.1392
18273SOL    HW157019   1.923   6.759   7.092  0.7418  0.5593 -0.8848
18273SOL    HW257020   1.940   6.889   7.168  0.6961  0.4005 -0.6001
18274SOL     OW57021   6.287   3.222   2.699  0.3368 -0.5935  0.7366
18274SOL    HW157022   6.233   3.301   2.702 -0.9822 -1.4604  0.5292
18274SOL    HW257023   6.281   3.185   2.786  0.2530 -0.9248  0.5904
18275SOL     OW57024   5.500   4.269   1.043  0.2661  0.6707  0.4115
18275SOL    HW157025   5.443   4.200   1.011 -1.9203  1.6190  2.0071
18275SOL    HW257026   5.549   4.229   1.115 -1.0368  0.7364  1.3691
18276SOL     OW57027   0.777   8.990   2.650  0.1643  0.1665 -0.1735
18276SOL    HW157028   0.761   8.907   2.606  2.6645 -0.3097 -0.3295
18276SOL    HW257029   0.847   9.031   2.599  1.2701  0.8302  1.7691
18277SOL     OW57030   2.055   8.836   5.570 -0.0053  0.1136 -0.1467
18277SOL    HW157031   2.106   8.826   5.490  0.9870 -1.0999  0.5874
18277SOL    HW257032   1.964   8.821   5.543  0.2807  0.0425 -1.0891
18278SOL     OW57033   5.801   3.154   1.869 -0.2240 -0.0855  0.3534
18278SOL    HW157034   5.784   3.069   1.909  0.8885  0.9717  3.3417
18278SOL    HW257035   5.897   3.160   1.865 -0.2491  1.6296  1.6730
18279SOL     OW57036   8.543   8.722   1.272 -0.3457  0.2042  0.2499
18279SOL    HW157037   8.613   8.787   1.280 -0.0183 -0.1709  0.4230
18279SOL    HW257038   8.464   8.775   1.258 -0.0185  0.6275 -0.0464
18280SOL     OW57039   0.864   2.916   4.298  0.9702  0.0527 -0.6906
18280SOL    HW157040   0.900   2.891   4.213  0.2648  1.3094 -1.3912
18280SOL    HW257041   0.803   2.846   4.319 -1.6218  1.4203 -3.0178
18281SOL     OW57042   5.980   3.710   7.768  0.4331  0.3751  0.5169
18281SOL    HW157043   6.010   3.800   7.756 -0.0838  0.6678  1.4000
18281SOL    HW257044   5.941   3.708   7.855 -1.1519 -0.2685 -0.1737
18282SOL     OW57045   3.504   3.152   5.414 -0.0074  0.1976 -0.1464
18282SOL    HW157046   3.427   3.209   5.426  0.3926  0.5494  0.8105
18282SOL    HW257047   3.576   3.201   5.453  0.7588 -0.0494 -1.1996
18283SOL     OW57048   3.569   9.120   8.157  0.3157 -0.4316  0.1506
18283SOL    HW157049   3.532   9.061   8.222 -0.1062 -0.3425 -0.0034
18283SOL    HW257050   3.493   9.166   8.120  0.2167 -2.2004 -2.1299
18284SOL     OW57051   9.337   5.545   9.292 -0.0438  0.2652 -0.3232
18284SOL    HW157052   9.314   5.618   9.350 -1.8271 -0.3626 -0.1824
18284SOL    HW257053   9.395   5.490   9.344  0.8825  1.2639 -0.2452
18285SOL     OW57054   1.867   1.952   5.056 -0.2060 -0.5889  0.3453
18285SOL    HW157055   1.953   1.958   5.016  0.5264  0.9625  1.9976
18285SOL    HW257056   1.851   1.859   5.067  0.1761 -0.9999 -2.1580
18286SOL     OW57057   2.586   0.818   3.092 -0.2723 -0.4688 -0.2467
18286SOL    HW157058   2.605   0.732   3.055  0.2848  0.3098 -1.8411
18286SOL    HW257059   2.571   0.874   3.016  0.5095  1.1125  0.7153
18287SOL     OW57060   7.815   8.805   1.052 -1.0643  0.4350  0.0406
18287SOL    HW157061   7.824   8.754   0.972  2.6772  0.8970 -0.0297
18287SOL    HW257062   7.737   8.858   1.038 -0.8738  0.0732 -3.0614
18288SOL     OW57063   3.812   3.813   1.508  0.3024 -0.2630 -0.4569
18288SOL    HW157064   3.865   3.734   1.502  1.3593  0.2426  1.5330
18288SOL    HW257065   3.868   3.882   1.473  0.2455 -0.0424 -0.1169
18289SOL     OW57066   5.001   4.805   1.271  0.3790  0.3109  0.0818
18289SOL    HW157067   5.045   4.774   1.351  1.1844 -0.1076 -0.5113
18289SOL    HW257068   5.020   4.738   1.206 -1.3625  0.0039 -0.1388
18290SOL     OW57069   2.771   4.633   8.746 -0.7076  0.2009  0.1764
18290SOL    HW157070   2.749   4.546   8.711 -1.0354  0.1136  0.5908
18290SOL    HW257071   2.837   4.667   8.685 -0.3147 -0.4826  0.2077
18291SOL     OW57072   5.864   4.953   2.359  0.3942  0.2837  0.0540
18291SOL    HW157073   5.888   5.036   2.317  0.5377  0.3120  0.1935
18291SOL    HW257074   5.814   4.906   2.292 -0.0930  0.6823  0.1269
18292SOL     OW57075   6.174   6.367   7.810  0.1528 -0.3343  0.1141
18292SOL    HW157076   6.182   6.406   7.897 -0.4835  1.8453 -0.7386
18292SOL    HW257077   6.197   6.438   7.750 -1.5996 -1.1190 -1.5691
18293SOL     OW57078   3.225   6.135   6.565  0.0568 -0.6971  0.0114
18293SOL    HW157079   3.195   6.190   6.493  0.8322 -0.2446  0.0157
18293SOL    HW257080   3.273   6.064   6.522  1.1866 -0.0079  0.0902
18294SOL     OW57081   2.403   6.417   6.728 -0.3312 -0.6468  0.0423
18294SOL    HW157082   2.469   6.354   6.699  1.5212  1.0696  0.3211
18294SOL    HW257083   2.393   6.400   6.822  1.3167  0.3948  0.4491
18295SOL     OW57084   0.389   7.085   0.873 -0.4356  0.3241 -0.3680
18295SOL    HW157085   0.459   7.053   0.931 -0.9749  0.4335  0.3690
18295SOL    HW257086   0.424   7.075   0.785 -0.1414 -1.2469 -0.1142
18296SOL     OW57087   6.600   8.504   7.763  0.0869  0.5027  0.1254
18296SOL    HW157088   6.557   8.516   7.678 -0.4107 -1.9610 -0.0542
18296SOL    HW257089   6.688   8.471   7.741 -0.1538 -0.4485  0.5502
18297SOL     OW57090   3.052   2.039   5.526 -0.1908  0.1283 -0.0444
18297SOL    HW157091   3.003   2.104   5.476  0.3728  1.6245  1.2729
18297SOL    HW257092   3.096   2.089   5.595  1.6112 -1.4136  0.0207
18298SOL     OW57093   8.913   5.753   8.603 -0.1788 -0.0518 -0.2153
18298SOL    HW157094   8.902   5.840   8.641  0.2037 -0.2567  0.3812
18298SOL    HW257095   8.825   5.719   8.593 -0.4386  0.9856 -1.8587
18299SOL     OW57096   7.240   0.899   7.035 -0.3552 -0.0657 -0.4232
18299SOL    HW157097   7.298   0.974   7.020  0.3453 -0.7207 -1.0519
18299SOL    HW257098   7.231   0.894   7.130  0.1555  0.3877 -0.3475
18300SOL     OW57099   5.097   3.567   7.153 -0.0771  0.1351  0.2718
18300SOL    HW157100   5.076   3.660   7.148  0.3015  0.2133  0.1608
18300SOL    HW257101   5.052   3.538   7.233  0.3761  0.5651  0.6948
18301SOL     OW57102   3.704   6.487   8.565 -0.4412  0.3434 -0.7663
18301SOL    HW157103   3.625   6.482   8.619 -0.3935 -1.3617 -0.7950
18301SOL    HW257104   3.677   6.452   8.480  1.2349 -4.5660  0.4201
18302SOL     OW57105   8.057   4.637   7.024 -0.1031 -0.2815 -0.1328
18302SOL    HW157106   8.034   4.556   7.070  0.2190  0.0418  0.6059
18302SOL    HW257107   7.983   4.695   7.040 -0.4326 -0.4928 -0.8445
18303SOL     OW57108   3.991   0.780   3.968 -0.2216 -0.1867 -0.0386
18303SOL    HW157109   3.971   0.814   4.055  0.7598 -0.6867  0.4065
18303SOL    HW257110   4.070   0.828   3.942  0.3835 -1.1149  0.0196
18304SOL     OW57111   6.265   0.979   8.593 -0.6781 -0.2800  0.0700
18304SOL    HW157112   6.232   0.889   8.588 -1.3012 -0.1529  1.3617
18304SOL    HW257113   6.333   0.976   8.660 -0.9711  0.2910  0.3969
18305SOL     OW57114   4.566   4.518   6.145 -0.1039  0.4580 -0.0313
18305SOL    HW157115   4.604   4.471   6.219 -2.4853 -1.2692  0.2245
18305SOL    HW257116   4.601   4.474   6.067 -0.3906 -0.1192  0.1619
18306SOL     OW57117   1.619   6.596   2.199  0.4394 -0.4622 -0.2945
18306SOL    HW157118   1.541   6.630   2.242  1.5160  0.5636  0.9094
18306SOL    HW257119   1.586   6.554   2.119 -1.2884  0.2566  0.0059
18307SOL     OW57120   6.249   6.706   8.693  0.2347  0.3718  0.2353
18307SOL    HW157121   6.289   6.780   8.737  1.5643 -0.1613 -0.0177
18307SOL    HW257122   6.323   6.657   8.656 -0.5678 -1.2089  0.6056
18308SOL     OW57123   8.114   5.846   0.343 -0.1359 -0.3403 -0.1901
18308SOL    HW157124   8.159   5.786   0.404  0.0395 -0.3912 -0.3645
18308SOL    HW257125   8.143   5.933   0.369  0.8296 -0.4277 -0.8946
18309SOL     OW57126   9.118   3.561   5.893  0.6399 -0.5233  0.4384
18309SOL    HW157127   9.059   3.541   5.821  0.2642 -1.6074  1.0315
18309SOL    HW257128   9.199   3.514   5.872  0.5142 -0.8792  0.7332
18310SOL     OW57129   7.065   5.714   2.013  0.5936 -0.4406 -0.0256
18310SOL    HW157130   6.981   5.672   2.031  0.9486 -1.7817 -1.2746
18310SOL    HW257131   7.129   5.659   2.057  0.8448  0.4114  0.6783
18311SOL     OW57132   8.082   4.715   4.347 -0.6085 -0.0003 -0.3148
18311SOL    HW157133   8.106   4.799   4.307 -0.5656  0.6390  1.0184
18311SOL    HW257134   8.152   4.655   4.319  0.5765  0.9437  0.5035
18312SOL     OW57135   8.608   7.276   7.385 -0.8074  0.1773  0.2183
18312SOL    HW157136   8.512   7.278   7.383 -0.8644 -1.2691  0.5053
18312SOL    HW257137   8.635   7.336   7.315 -1.9092  0.7850  0.2965
18313SOL     OW57138   5.972   3.363   8.578 -0.0557 -0.0705  0.0327
18313SOL    HW157139   5.931   3.356   8.664 -0.6164 -0.7820 -0.2807
18313SOL    HW257140   5.899   3.361   8.516  0.1150  2.6925 -0.4245
18314SOL     OW57141   1.006   6.221   8.073  0.4286  0.2886 -0.2441
18314SOL    HW157142   0.990   6.292   8.011 -1.6023 -1.2628 -1.6427
18314SOL    HW257143   1.009   6.142   8.018 -1.8742 -1.2040  1.5929
18315SOL     OW57144   1.160   8.836   0.762  0.4713 -0.4356  0.1096
18315SOL    HW157145   1.140   8.742   0.755  0.0142 -0.5437  2.2824
18315SOL    HW257146   1.153   8.855   0.855  1.2177  1.6412 -0.2162
18316SOL     OW57147   4.867   3.381   8.059 -0.3733 -0.1203 -0.0645
18316SOL    HW157148   4.914   3.458   8.029  2.0965 -1.1844  0.8422
18316SOL    HW257149   4.805   3.414   8.124 -0.6628  1.2774 -1.0046
18317SOL     OW57150   9.139   4.927   1.946 -0.9655 -0.1550  0.6459
18317SOL    HW157151   9.179   4.929   1.860  1.4810  0.8874  1.7041
18317SOL    HW257152   9.085   5.007   1.949  0.2363  0.6751  0.6244
18318SOL     OW57153   0.614   8.308   8.431  0.2572 -0.7707  0.2348
18318SOL    HW157154   0.530   8.267   8.451 -0.2743  0.9562  1.8579
18318SOL    HW257155   0.672   8.280   8.503  0.0062  0.8568  1.1255
18319SOL     OW57156   4.658   2.440   6.195  0.3677 -0.1371 -0.1529
18319SOL    HW157157   4.748   2.463   6.217  0.5009 -2.4121  2.1261
18319SOL    HW257158   4.632   2.505   6.130  3.2266  1.3214  0.0056
18320SOL     OW57159   6.487   3.245   2.348 -0.0938 -0.5184  0.4721
18320SOL    HW157160   6.430   3.201   2.412 -0.6099 -0.5052  0.0322
18320SOL    HW257161   6.437   3.243   2.266 -0.4780  1.5990  0.6048
18321SOL     OW57162   6.795   7.439   7.247  0.3694  0.2911  0.0349
18321SOL    HW157163   6.760   7.528   7.240  1.4945  0.7558  0.0313
18321SOL    HW257164   6.838   7.424   7.163 -0.4818 -0.5761 -0.2671
18322SOL     OW57165   4.897   7.793   2.783 -0.2259  0.1015 -0.3741
18322SOL    HW157166   4.858   7.881   2.782  0.3200  0.4215  1.5436
18322SOL    HW257167   4.868   7.755   2.866  0.4618 -1.1132 -0.6641
18323SOL     OW57168   5.228   7.185   0.007 -0.0143 -0.2343  0.1680
18323SOL    HW157169   5.246   7.183   0.101  0.8797  0.2613  0.0286
18323SOL    HW257170   5.140   7.221  -0.000  0.1652  0.3693  0.8078
18324SOL     OW57171   0.201   9.518   1.568 -0.0662 -0.0586  0.0838
18324SOL    HW157172   0.202   9.429   1.601  0.0225 -0.2550 -0.4309
18324SOL    HW257173   0.138   9.564   1.622  0.9958 -0.0434  1.3551
18325SOL     OW57174   4.963   2.199   6.791  0.3583  0.1305 -0.1522
18325SOL    HW157175   4.975   2.109   6.821 -1.4765 -0.5380 -1.2477
18325SOL    HW257176   5.015   2.204   6.711 -0.1482 -0.2224 -0.5134
18326SOL     OW57177   4.589   4.058   7.545 -0.1083 -0.4098 -0.4316
18326SOL    HW157178   4.646   3.985   7.518 -1.4644 -2.2413  1.3439
18326SOL    HW257179   4.591   4.055   7.640 -1.5059  0.8603 -0.3374
18327SOL     OW57180   7.958   2.405   4.876 -0.0806 -0.5450  0.1914
18327SOL    HW157181   8.012   2.339   4.919  0.1560 -0.5493 -0.1119
18327SOL    HW257182   8.013   2.439   4.805  0.1022  0.5294  0.8154
18328SOL     OW57183   5.000   2.425   8.109 -0.0025  0.7372  0.4479
18328SOL    HW157184   4.940   2.461   8.174  1.5091  0.4164  2.1010
18328SOL    HW257185   5.083   2.471   8.124 -0.2559  2.7504 -3.1877
18329SOL     OW57186   5.490   4.931   0.137 -0.2199  0.7755  0.0216
18329SOL    HW157187   5.515   4.838   0.131  0.6334  1.0793 -1.9405
18329SOL    HW257188   5.397   4.929   0.162  0.1453 -0.5411  1.4371
18330SOL     OW57189   4.791   1.530   9.333  0.1340 -0.4836  0.5002
18330SOL    HW157190   4.743   1.469   9.277  0.8035 -0.7303  0.1813
18330SOL    HW257191   4.785   1.614   9.286  0.5874 -0.6622  0.1125
18331SOL     OW57192   0.581   5.240   2.993  0.1668  0.1990 -0.3112
18331SOL    HW157193   0.571   5.292   3.073  2.0077  0.1004  0.0154
18331SOL    HW257194   0.588   5.150   3.023 -0.3916  0.0195 -0.6958
18332SOL     OW57195   7.227   4.489   4.749  0.1402 -0.2579 -0.4454
18332SOL    HW157196   7.286   4.482   4.674  0.6790 -0.4383 -0.0176
18332SOL    HW257197   7.275   4.446   4.820  0.5823  1.7788  0.5597
18333SOL     OW57198   8.590   9.542   7.035  0.1950 -0.1642  0.7398
18333SOL    HW157199   8.555   9.502   7.115 -0.8469  0.3829  0.5616
18333SOL    HW257200   8.526   9.521   6.967  0.4100  0.5006  0.3203
18334SOL     OW57201   3.817   2.375   5.451  0.4270  0.1269 -0.4836
18334SOL    HW157202   3.911   2.363   5.442  0.2792 -2.1447  0.2037
18334SOL    HW257203   3.798   2.459   5.409  2.8245  0.9724 -0.0024
18335SOL     OW57204   2.151   0.118   4.837 -0.4505  0.4153  0.1974
18335SOL    HW157205   2.234   0.135   4.792 -0.8983  1.4005 -0.2628
18335SOL    HW257206   2.178   0.081   4.921  0.4845  1.2361  0.2840
18336SOL     OW57207   6.964   7.017   5.218  0.6647  0.2334  0.1604
18336SOL    HW157208   6.996   7.107   5.217  0.5780  0.2841 -1.7970
18336SOL    HW257209   6.976   6.988   5.309  0.4616  2.2733  0.8862
18337SOL     OW57210   3.033   2.760   9.238 -0.4830 -0.0124  0.3696
18337SOL    HW157211   2.977   2.798   9.171 -1.5563 -2.4774 -0.2410
18337SOL    HW257212   3.023   2.818   9.313 -1.8050  1.0372 -0.5628
18338SOL     OW57213   8.145   6.907   2.795 -0.2706 -0.1374 -0.1707
18338SOL    HW157214   8.107   6.845   2.732  1.2306 -0.6148 -0.6392
18338SOL    HW257215   8.231   6.872   2.816  0.8870  2.0391 -0.8919
18339SOL     OW57216   3.409   7.128   8.135 -1.0338  0.3094  0.0255
18339SOL    HW157217   3.338   7.189   8.113 -0.9959  0.4734  0.3545
18339SOL    HW257218   3.429   7.147   8.226 -0.1264  0.6999 -0.2509
18340SOL     OW57219   4.930   3.222   5.268  0.0042 -0.4358 -0.1213
18340SOL    HW157220   4.997   3.288   5.284 -0.4551 -0.1658  0.7302
18340SOL    HW257221   4.972   3.157   5.211  1.1854 -0.6153  0.9420
18341SOL     OW57222   5.333   6.549   9.306  0.1660  0.3601 -0.0792
18341SOL    HW157223   5.301   6.460   9.293 -1.4379  0.9411 -0.3774
18341SOL    HW257224   5.310   6.571   9.396 -1.3081  1.1508 -0.6136
18342SOL     OW57225   5.235   5.436   5.622 -0.2885 -0.2008  0.5512
18342SOL    HW157226   5.234   5.525   5.586  0.4545  0.0100  1.0249
18342SOL    HW257227   5.304   5.391   5.573 -0.2688 -0.3502  0.7150
18343SOL     OW57228   8.043   3.835   4.677  0.2701  0.5908  0.4517
18343SOL    HW157229   7.964   3.813   4.727 -0.4594  1.3109 -0.3452
18343SOL    HW257230   8.104   3.764   4.698 -1.6823 -1.8449 -1.3862
18344SOL     OW57231   4.699   5.825   8.054  0.4561  0.0907  0.0229
18344SOL    HW157232   4.605   5.809   8.062  0.7845 -1.0507  2.7639
18344SOL    HW257233   4.706   5.894   7.988 -2.3571  0.7991  0.3396
18345SOL     OW57234   1.487   4.078   5.231 -0.2059 -0.4523 -0.1051
18345SOL    HW157235   1.514   4.152   5.177  1.0656  0.0777  1.2012
18345SOL    HW257236   1.392   4.073   5.220 -0.1226  0.4407 -1.3556
18346SOL     OW57237   1.250   9.398   7.078  0.5069 -0.7388  0.1386
18346SOL    HW157238   1.312   9.433   7.013  0.4482 -1.5416 -0.3693
18346SOL    HW257239   1.276   9.306   7.089 -0.2453 -0.9364  0.3365
18347SOL     OW57240   5.243   5.995   6.243  0.0097  0.2009  0.6313
18347SOL    HW157241   5.263   6.074   6.293  0.3804 -0.4922  1.5952
18347SOL    HW257242   5.280   5.924   6.294 -0.7292 -0.6544  0.0058
18348SOL     OW57243   7.120   9.273   5.192  0.6856 -0.1079  0.1128
18348SOL    HW157244   7.114   9.221   5.272  2.0283  0.8190  0.8502
18348SOL    HW257245   7.061   9.346   5.207  0.3472 -0.3377 -0.0791
18349SOL     OW57246   5.312   2.435   2.763 -0.2262 -0.4335  0.1357
18349SOL    HW157247   5.336   2.402   2.677  2.3752  0.1797  0.5488
18349SOL    HW257248   5.351   2.373   2.824 -0.3693  0.2058  0.8960
18350SOL     OW57249   1.677   5.982   5.132  0.2055  0.5673 -0.3815
18350SOL    HW157250   1.692   5.999   5.039  0.4424  1.8339 -0.1398
18350SOL    HW257251   1.582   5.990   5.143  0.2475  1.1606 -0.3958
18351SOL     OW57252   0.360   8.239   7.101  0.7188  0.5919  0.0847
18351SOL    HW157253   0.317   8.164   7.059  0.5868  0.2739  0.7743
18351SOL    HW257254   0.333   8.234   7.193  2.5894  0.0998  0.6604
18352SOL     OW57255   5.876   6.883   3.392  0.3500  0.0499 -0.1349
18352SOL    HW157256   5.890   6.886   3.487  1.2647  0.7026 -0.2828
18352SOL    HW257257   5.866   6.789   3.373  3.2899 -0.4437  0.2031
18353SOL     OW57258   5.162   6.940   4.193  0.0639  0.1898  0.1492
18353SOL    HW157259   5.110   6.891   4.131  2.4341 -0.3994 -1.5207
18353SOL    HW257260   5.163   6.886   4.272 -0.0579 -0.8495 -0.5469
18354SOL     OW57261   6.554   3.680   7.495 -0.0830  0.4139 -0.2631
18354SOL    HW157262   6.514   3.675   7.408  0.5796 -0.4846 -0.5336
18354SOL    HW257263   6.554   3.589   7.526  0.5344  0.5959  0.2825
18355SOL     OW57264   6.743   5.537   7.030 -0.0499 -0.0879  0.1936
18355SOL    HW157265   6.829   5.560   7.066 -0.0447  0.7607 -0.3258
18355SOL    HW257266   6.685   5.534   7.105  0.6703 -2.0104  0.7508
18356SOL     OW57267   9.138   4.596   3.797  0.3845 -0.5487  0.4695
18356SOL    HW157268   9.194   4.525   3.766  1.2417  0.8044 -1.2539
18356SOL    HW257269   9.055   4.582   3.751 -0.8070 -2.4793  2.9265
18357SOL     OW57270   5.787   0.370   5.442  0.0818 -0.0589  0.3782
18357SOL    HW157271   5.823   0.282   5.431  1.2928  0.6096 -1.5121
18357SOL    HW257272   5.819   0.419   5.365 -2.9998  1.2288 -0.2330
18358SOL     OW57273   6.372   5.054   4.586  0.0910 -0.2884 -0.0967
18358SOL    HW157274   6.453   5.033   4.539  0.3141 -1.7747  0.8594
18358SOL    HW257275   6.311   5.083   4.518  0.7199 -1.3754 -1.1653
18359SOL     OW57276   2.776   3.802   2.393  0.0989  0.2225  0.5892
18359SOL    HW157277   2.860   3.756   2.400  0.7083  1.3393  0.8599
18359SOL    HW257278   2.794   3.877   2.337 -0.5964  0.7423  1.0419
18360SOL     OW57279   6.599   6.394   8.458 -0.0478 -0.0594  0.1679
18360SOL    HW157280   6.586   6.320   8.518 -1.0633  0.0923  0.1614
18360SOL    HW257281   6.681   6.375   8.413 -1.1376 -2.0636 -1.0764
18361SOL     OW57282   3.926   1.227   2.681  0.0156  0.3868 -0.2016
18361SOL    HW157283   3.839   1.263   2.700  0.3883  1.5635 -0.6529
18361SOL    HW257284   3.984   1.269   2.745  0.3770  0.2034 -0.4041
18362SOL     OW57285   7.702   5.220   5.913 -0.2620 -0.2519 -0.2354
18362SOL    HW157286   7.625   5.255   5.869  0.6232  1.8891 -0.2154
18362SOL    HW257287   7.674   5.205   6.003 -0.6915  0.3685 -0.2622
18363SOL     OW57288   8.903   1.625   1.746 -0.4030  0.4083 -0.2734
18363SOL    HW157289   8.899   1.576   1.664 -0.3422  1.1536 -0.7294
18363SOL    HW257290   8.811   1.641   1.769 -0.4739 -1.1261  0.6285
18364SOL     OW57291   9.252   8.787   9.179 -0.7143 -0.1348 -0.2683
18364SOL    HW157292   9.326   8.734   9.210 -0.8130  0.3090  0.7557
18364SOL    HW257293   9.282   8.878   9.188 -1.3838  0.0495  0.1672
18365SOL     OW57294   2.334   2.692   2.439 -0.2590 -0.0366 -0.2537
18365SOL    HW157295   2.332   2.625   2.370 -0.4444 -0.6470  0.3362
18365SOL    HW257296   2.261   2.750   2.417 -0.1474 -0.0658 -0.7269
18366SOL     OW57297   8.538   6.881   5.508  0.0018 -0.3777  0.1946
18366SOL    HW157298   8.453   6.922   5.525 -0.2634 -0.7436 -0.2089
18366SOL    HW257299   8.602   6.939   5.549 -0.2632  1.0413 -1.2568
18367SOL     OW57300   6.340   4.723   7.226 -0.3123 -0.3490  0.1549
18367SOL    HW157301   6.357   4.634   7.194  1.6076  0.2384 -0.5675
18367SOL    HW257302   6.355   4.779   7.150  0.6168  0.7758  1.1313
18368SOL     OW57303   1.242   6.725   3.652  0.0135 -0.2496 -0.2795
18368SOL    HW157304   1.179   6.778   3.604  0.1027  0.2074  0.0913
18368SOL    HW257305   1.212   6.728   3.743 -0.0662 -0.9722 -0.2794
18369SOL     OW57306   3.010   2.720   2.817 -0.1162  0.5639 -0.2471
18369SOL    HW157307   3.105   2.719   2.830 -0.1083 -0.0630 -0.3210
18369SOL    HW257308   2.975   2.763   2.895  0.2673  1.4280 -0.5309
18370SOL     OW57309   0.713   0.274   4.296  0.0351 -0.3782 -0.3299
18370SOL    HW157310   0.725   0.201   4.235 -1.3779  0.5835 -1.8112
18370SOL    HW257311   0.624   0.264   4.329  1.5239 -2.3916  3.7538
18371SOL     OW57312   3.402   2.487   4.084 -0.0136  0.4812 -0.3338
18371SOL    HW157313   3.328   2.523   4.037 -0.6926 -0.3534  0.0649
18371SOL    HW257314   3.445   2.428   4.022 -1.7170 -1.7018  0.4345
18372SOL     OW57315   7.262   4.561   5.154 -0.3157 -0.8034  0.6797
18372SOL    HW157316   7.185   4.615   5.168 -1.1539 -1.4106 -1.1993
18372SOL    HW257317   7.325   4.619   5.111 -0.1221 -0.5881  1.2488
18373SOL     OW57318   6.764   9.239   7.511 -0.0400  0.1567 -0.5076
18373SOL    HW157319   6.772   9.276   7.599  1.9267  0.9894 -0.9915
18373SOL    HW257320   6.726   9.152   7.525  1.0294 -0.0705  1.2485
18374SOL     OW57321   1.425   3.596   8.557  0.2204 -0.3003 -0.2299
18374SOL    HW157322   1.508   3.623   8.519 -1.2491  1.9093 -2.1548
18374SOL    HW257323   1.404   3.665   8.620 -0.1858 -0.8280  0.2241
18375SOL     OW57324   4.535   8.956   3.949  0.0586  0.2603  0.0515
18375SOL    HW157325   4.504   9.005   4.025  0.9647  0.7294  0.1329
18375SOL    HW257326   4.630   8.956   3.957  0.0844 -2.2070  0.4740
18376SOL     OW57327   1.358   2.698   1.062  0.3603  0.8174  0.2276
18376SOL    HW157328   1.299   2.655   1.124 -1.5309  1.4738 -1.0311
18376SOL    HW257329   1.426   2.738   1.117  0.4914 -1.1986  1.6153
18377SOL     OW57330   3.639   3.125   6.544 -0.2511  0.1923  0.5617
18377SOL    HW157331   3.696   3.201   6.535 -0.0265 -0.0524 -0.1113
18377SOL    HW257332   3.665   3.085   6.626 -0.5671  1.0007  1.0719
18378SOL     OW57333   8.695   7.101   1.682  0.0829 -0.0885 -0.0258
18378SOL    HW157334   8.790   7.087   1.686  0.2374  0.0511 -2.2452
18378SOL    HW257335   8.670   7.068   1.596 -2.0059 -0.6807  0.7531
18379SOL     OW57336   3.684   6.478   1.826 -0.7101 -0.0532 -0.5849
18379SOL    HW157337   3.642   6.419   1.889 -0.7167  1.0691  0.4962
18379SOL    HW257338   3.777   6.454   1.830 -0.9937 -1.4664 -1.8077
18380SOL     OW57339   2.838   2.610   5.083 -0.8084  0.6277 -0.1672
18380SOL    HW157340   2.840   2.618   5.178 -2.7185 -0.4428  0.0241
18380SOL    HW257341   2.768   2.669   5.055 -0.4266  0.7496 -0.8864
18381SOL     OW57342   6.079   5.486   1.938 -0.0051  0.0590  0.0658
18381SOL    HW157343   6.154   5.426   1.940 -1.0098 -1.3114 -1.1958
18381SOL    HW257344   6.002   5.428   1.939 -1.0071  1.2688 -1.6731
18382SOL     OW57345   4.954   8.295   7.308 -0.1825 -0.2562  0.7851
18382SOL    HW157346   5.030   8.238   7.311  0.6466  0.7140 -0.5301
18382SOL    HW257347   4.963   8.351   7.386  2.8854  2.6883 -1.3658
18383SOL     OW57348   2.026   0.210   7.179  0.1232 -0.0449  0.6876
18383SOL    HW157349   1.940   0.224   7.140 -0.5646 -0.4379  2.0406
18383SOL    HW257350   2.059   0.298   7.197 -0.3095  0.0808  0.8530
18384SOL     OW57351   7.605   1.729   1.983 -0.0770 -0.1588 -0.4346
18384SOL    HW157352   7.608   1.810   1.931 -1.1986  0.7821  0.9140
18384SOL    HW257353   7.683   1.681   1.955 -0.5711  0.3338 -2.9055
18385SOL     OW57354   6.675   7.090   7.058 -0.0863 -0.6897 -0.3078
18385SOL    HW157355   6.736   7.144   7.008  1.2659 -3.0172 -1.3382
18385SOL    HW257356   6.592   7.099   7.011 -0.1086  1.0638  0.0164
18386SOL     OW57357   0.718   6.990   0.140  0.9288  0.4336 -0.3093
18386SOL    HW157358   0.690   6.899   0.133 -2.1830  1.3189 -0.9310
18386SOL    HW257359   0.813   6.987   0.128  1.2071 -2.8646  1.5709
18387SOL     OW57360   3.640   1.396   3.782  0.1780  0.3189  0.5024
18387SOL    HW157361   3.645   1.355   3.869 -0.2670 -1.0202 -0.0829
18387SOL    HW257362   3.579   1.469   3.794 -0.5557 -0.3776  1.1272
18388SOL     OW57363   7.499   8.121   3.867  0.0545 -0.3371  0.4270
18388SOL    HW157364   7.480   8.116   3.961 -0.8821  0.4964  0.2999
18388SOL    HW257365   7.595   8.123   3.862  0.1294 -0.9190  1.3262
18389SOL     OW57366   0.943   3.693   4.038 -0.1032  0.4176  0.5757
18389SOL    HW157367   0.938   3.630   3.967  0.2132  0.7144  0.2899
18389SOL    HW257368   0.914   3.644   4.115 -0.4930  0.1078  0.2404
18390SOL     OW57369   0.487   9.394   5.808  0.1771  0.6927  0.2946
18390SOL    HW157370   0.539   9.415   5.731  1.9481  1.5794  1.6336
18390SOL    HW257371   0.468   9.300   5.800 -2.5047  1.3492 -2.7296
18391SOL     OW57372   3.527   3.673   0.537 -0.8021  0.3095 -0.0621
18391SOL    HW157373   3.472   3.750   0.548 -1.4998 -0.0079 -1.1302
18391SOL    HW257374   3.508   3.643   0.448  0.0181 -0.6550  0.0713
18392SOL     OW57375   2.722   8.494   7.068  0.3018  0.4341 -0.2185
18392SOL    HW157376   2.710   8.403   7.095 -3.5771  0.2356 -1.9170
18392SOL    HW257377   2.788   8.491   7.000 -0.6031 -1.3783 -1.0737
18393SOL     OW57378   4.578   3.031   0.030  0.8390 -0.0988  0.0661
18393SOL    HW157379   4.540   2.965  -0.027  1.6008 -1.0909  0.6741
18393SOL    HW257380   4.663   3.052  -0.009  0.9562 -0.0935  0.3185
18394SOL     OW57381   6.290   2.734   4.809 -0.3180  0.2501 -0.2144
18394SOL    HW157382   6.338   2.721   4.891 -0.6783  0.2142 -0.0095
18394SOL    HW257383   6.277   2.645   4.776  0.5054  0.2987 -0.7069
18395SOL     OW57384   2.887   5.962   5.185  0.4278  0.5623  0.2966
18395SOL    HW157385   2.859   5.926   5.269  0.3380  1.7689  0.8049
18395SOL    HW257386   2.948   5.898   5.150 -0.1517 -0.3357  0.9063
18396SOL     OW57387   1.000   9.071   3.511  0.2281 -0.4121  0.4831
18396SOL    HW157388   0.981   9.112   3.427  1.2738  0.2891  0.5618
18396SOL    HW257389   0.925   9.015   3.529 -1.1475  1.2649  0.2434
18397SOL     OW57390   6.170   2.764   4.499  0.4343 -0.2238 -0.3945
18397SOL    HW157391   6.199   2.824   4.568  2.9702 -0.6396 -0.9776
18397SOL    HW257392   6.146   2.684   4.544 -1.4238  0.6418  0.2521
18398SOL     OW57393   7.967   6.480   0.967  0.1017  0.3442 -0.5342
18398SOL    HW157394   7.988   6.526   1.048  0.1964 -0.0325 -0.3432
18398SOL    HW257395   8.047   6.433   0.944  0.2963  1.0036 -1.2251
18399SOL     OW57396   3.090   4.047   0.507  0.4268 -0.4353  0.0739
18399SOL    HW157397   3.004   4.056   0.549  0.4758 -2.1785  0.6112
18399SOL    HW257398   3.141   4.120   0.542  0.0494 -1.0385  2.0227
18400SOL     OW57399   3.990   7.324   0.937 -0.1565 -0.2806 -0.1827
18400SOL    HW157400   3.967   7.307   0.846  0.9477 -0.3817 -0.4586
18400SOL    HW257401   3.974   7.241   0.982 -3.2795  0.4717  0.3113
18401SOL     OW57402   5.266   8.563   2.983 -0.0843  0.4560  0.0745
18401SOL    HW157403   5.255   8.541   3.075 -0.6115  1.6033  0.3009
18401SOL    HW257404   5.276   8.658   2.982  0.3579  0.4134 -1.0171
18402SOL     OW57405   7.117   1.005   8.431 -0.3082 -0.5060  0.1244
18402SOL    HW157406   7.038   1.044   8.394 -0.1348  0.5517  0.8156
18402SOL    HW257407   7.185   1.020   8.365 -0.1389  0.8161  0.5687
18403SOL     OW57408   1.804   8.749   4.160 -0.3499  0.0437 -0.0537
18403SOL    HW157409   1.781   8.665   4.122  0.9636 -0.2518 -0.2258
18403SOL    HW257410   1.898   8.758   4.144 -0.5734  1.8287 -0.6138
18404SOL     OW57411   6.541   5.256   1.878  0.5853 -0.6712  0.3602
18404SOL    HW157412   6.614   5.219   1.928 -0.2161 -2.0569  0.5567
18404SOL    HW257413   6.557   5.228   1.788  1.1370  0.4195  0.0916
18405SOL     OW57414   6.020   0.879   5.787  0.3775 -0.5179 -0.2602
18405SOL    HW157415   6.000   0.853   5.878 -0.1799 -1.7116 -0.7025
18405SOL    HW257416   5.955   0.946   5.767  0.0916 -0.7042  0.0198
18406SOL     OW57417   4.721   8.813   6.627 -0.3424 -0.0292 -0.1951
18406SOL    HW157418   4.665   8.844   6.698 -1.8100 -0.8300 -0.9464
18406SOL    HW257419   4.765   8.892   6.594 -1.5080  0.7476  0.0351
18407SOL     OW57420   3.146   0.427   6.046 -0.1284 -0.0222 -0.3696
18407SOL    HW157421   3.162   0.442   6.139  0.2322  0.4642 -0.5054
18407SOL    HW257422   3.231   0.439   6.005 -0.1914 -0.7108 -0.7076
18408SOL     OW57423   4.505   4.478   6.825  0.0864  0.8105  0.1968
18408SOL    HW157424   4.535   4.390   6.802 -0.3615  0.6158  0.3490
18408SOL    HW257425   4.571   4.511   6.885  0.3669  0.6597 -0.0249
18409SOL     OW57426   8.184   3.427   3.071 -0.1157  0.0703 -0.0627
18409SOL    HW157427   8.203   3.436   2.977  0.6242  2.1247  0.2410
18409SOL    HW257428   8.256   3.473   3.114 -1.1695  0.3243  1.4763
18410SOL     OW57429   3.656   6.517   0.606  0.4872 -0.1890  0.7389
18410SOL    HW157430   3.724   6.531   0.540  1.2901  0.0150  1.5909
18410SOL    HW257431   3.665   6.592   0.665 -0.9062  0.1739  0.5097
18411SOL     OW57432   5.486   2.751   7.289  0.3571  0.0421  0.7423
18411SOL    HW157433   5.398   2.762   7.252  0.6857  0.6403  0.1278
18411SOL    HW257434   5.514   2.840   7.310  0.8726 -0.1354  0.8104
18412SOL     OW57435   2.621   8.277   8.429 -0.0831  0.6162  0.1157
18412SOL    HW157436   2.696   8.310   8.477 -0.3767  1.2485  0.1475
18412SOL    HW257437   2.568   8.232   8.495 -0.0907  0.7957  0.2331
18413SOL     OW57438   1.893   8.002   4.711 -0.4839  0.0479  0.0601
18413SOL    HW157439   1.988   7.996   4.725 -0.7068 -0.0093  1.6829
18413SOL    HW257440   1.855   7.940   4.773 -1.6121  0.3928 -0.2642
18414SOL     OW57441   1.689   0.849   1.038  0.4603  0.7320  0.3067
18414SOL    HW157442   1.601   0.812   1.041  0.6332  0.1702 -0.9578
18414SOL    HW257443   1.677   0.939   1.008  0.2780  0.8289  0.6647
18415SOL     OW57444   1.740   0.776   8.561  0.1186  0.5291  0.0845
18415SOL    HW157445   1.777   0.796   8.475 -3.1305 -0.4242 -1.7127
18415SOL    HW257446   1.692   0.855   8.585 -0.0696  0.3346  0.3552
18416SOL     OW57447   6.192   8.156   0.435  0.0767  0.1045 -0.5430
18416SOL    HW157448   6.111   8.105   0.431  0.2656 -0.1267 -1.9962
18416SOL    HW257449   6.203   8.175   0.528 -0.8740 -1.0938 -0.1462
18417SOL     OW57450   8.915   2.364   6.880 -0.4426 -0.4348  0.5320
18417SOL    HW157451   8.880   2.374   6.792 -0.8028  0.8262  0.8091
18417SOL    HW257452   8.910   2.269   6.897 -0.3887 -0.6848 -0.7768
18418SOL     OW57453   5.809   2.803   0.876  0.0934 -0.1118 -0.4777
18418SOL    HW157454   5.891   2.780   0.833 -0.6430  0.1443 -2.0824
18418SOL    HW257455   5.808   2.898   0.878 -0.4980 -0.0953 -1.1694
18419SOL     OW57456   7.267   8.290   2.366  0.1580  0.5024  0.6757
18419SOL    HW157457   7.218   8.256   2.440 -0.7584  1.8259  0.7295
18419SOL    HW257458   7.338   8.341   2.405  0.8468 -0.3917  0.6095
18420SOL     OW57459   7.605   4.285   4.756  0.5423 -0.0950 -0.3813
18420SOL    HW157460   7.658   4.226   4.809 -0.4152 -0.0521  0.6682
18420SOL    HW257461   7.635   4.373   4.781  0.9760 -0.1029 -0.8710
18421SOL     OW57462   9.240   7.298   6.432 -0.3504 -0.0251 -0.4144
18421SOL    HW157463   9.253   7.226   6.494  0.1402  0.0359 -0.4446
18421SOL    HW257464   9.154   7.334   6.455 -0.5527 -0.5504 -0.3293
18422SOL     OW57465   6.843   5.666   3.679 -0.0084 -0.5755  0.4144
18422SOL    HW157466   6.919   5.641   3.626  0.6900  0.4861  0.8718
18422SOL    HW257467   6.827   5.757   3.657 -1.8049 -1.0441 -0.3956
18423SOL     OW57468   8.391   3.111   0.620 -0.1598  0.5139  0.6295
18423SOL    HW157469   8.413   3.145   0.707 -0.8022 -0.0488  1.0219
18423SOL    HW257470   8.357   3.186   0.572 -1.6301  0.4404  1.5037
18424SOL     OW57471   4.250   4.373   1.392  0.1035  0.0270  0.0631
18424SOL    HW157472   4.305   4.442   1.429  0.5603  0.2843 -1.0533
18424SOL    HW257473   4.312   4.312   1.353 -0.1251 -2.2852  2.9831
18425SOL     OW57474   5.452   2.547   5.139 -0.6136 -0.2072 -0.1002
18425SOL    HW157475   5.459   2.514   5.228  0.8944 -0.8159 -0.4205
18425SOL    HW257476   5.430   2.640   5.149  0.1299 -0.1300  0.9141
18426SOL     OW57477   2.790   4.010   5.469  0.5596  0.2355  0.4389
18426SOL    HW157478   2.729   3.947   5.506  0.2062  0.4103  0.1609
18426SOL    HW257479   2.858   3.956   5.428 -0.8714 -0.0450 -1.7302
18427SOL     OW57480   6.004   0.829   2.610 -0.1534  0.2035 -0.0358
18427SOL    HW157481   5.987   0.779   2.690  1.5399  1.0514  0.9029
18427SOL    HW257482   6.018   0.919   2.640 -0.6047  0.7542 -1.4126
18428SOL     OW57483   3.801   0.914   9.138 -0.2911  0.1471 -0.6559
18428SOL    HW157484   3.804   0.818   9.134  0.7732  0.1487 -0.1768
18428SOL    HW257485   3.793   0.942   9.047 -0.5518 -0.3969 -0.8051
18429SOL     OW57486   3.374   5.829   6.473  0.1897  0.2328 -0.4211
18429SOL    HW157487   3.442   5.764   6.491  0.1612  0.8229  2.1470
18429SOL    HW257488   3.294   5.793   6.512 -0.3200  0.8491 -0.8614
18430SOL     OW57489   3.439   4.707   5.401  0.2003 -0.3654  0.0158
18430SOL    HW157490   3.453   4.661   5.318 -1.5675 -2.2449  0.6615
18430SOL    HW257491   3.349   4.741   5.394  0.2304 -0.0755  0.9332
18431SOL     OW57492   5.548   2.638   6.060  0.2136  0.0169 -0.2250
18431SOL    HW157493   5.454   2.626   6.074  0.3840 -0.0718  1.0163
18431SOL    HW257494   5.587   2.620   6.146  1.0582  3.4243  0.2543
18432SOL     OW57495   0.907   2.381   9.310  0.0154  0.0077  0.1795
18432SOL    HW157496   1.000   2.402   9.316 -0.1317  0.9654 -0.6258
18432SOL    HW257497   0.864   2.465   9.293 -0.8878 -0.5638 -0.4848
18433SOL     OW57498   0.775   4.496   1.928 -0.3127 -0.2383  0.2062
18433SOL    HW157499   0.845   4.507   1.864 -1.9223  0.3765 -1.5321
18433SOL    HW257500   0.714   4.435   1.886 -0.9704 -0.5478  1.5636
18434SOL     OW57501   3.399   6.362   9.209 -0.5462  0.3176 -0.3699
18434SOL    HW157502   3.461   6.290   9.193  0.2830  1.0646 -0.6279
18434SOL    HW257503   3.313   6.320   9.211 -0.4204 -0.3383 -3.3645
18435SOL     OW57504   5.684   2.894   0.510 -0.9060 -0.2876  0.2246
18435SOL    HW157505   5.619   2.965   0.512 -0.1859  0.4204 -0.4554
18435SOL    HW257506   5.643   2.826   0.457 -1.7135 -0.5017  1.0950
18436SOL     OW57507   2.854   6.727   6.082 -0.3913 -0.3596 -0.1177
18436SOL    HW157508   2.821   6.742   6.171  0.8165  1.3603  0.0902
18436SOL    HW257509   2.913   6.801   6.066  1.1347 -1.8157 -1.5165
18437SOL     OW57510   9.579   1.763   1.548  0.3460 -0.1497  0.0409
18437SOL    HW157511   9.516   1.696   1.574  0.2624  0.0136  0.2581
18437SOL    HW257512   9.606   1.804   1.630  1.5960 -0.9843  0.0826
18438SOL     OW57513   6.073   0.332   6.442 -0.4030 -0.0388 -0.3637
18438SOL    HW157514   6.102   0.423   6.451 -0.6714 -0.0295  0.5364
18438SOL    HW257515   6.060   0.320   6.348  0.2854  0.6456 -0.5582
18439SOL     OW57516   2.132   5.813   9.238  0.1751  0.2620 -0.2105
18439SOL    HW157517   2.075   5.772   9.303  0.0555  0.2715 -0.3103
18439SOL    HW257518   2.221   5.791   9.267  0.2156  2.0293  1.1496
18440SOL     OW57519   2.124   4.470   9.564 -0.7524 -0.3543 -0.0741
18440SOL    HW157520   2.108   4.423   9.482 -0.9238 -0.7013  0.1562
18440SOL    HW257521   2.038   4.479   9.604 -0.5425 -1.1372  0.5793
18441SOL     OW57522   5.787   4.635   8.600  0.0687  0.2652  0.1757
18441SOL    HW157523   5.837   4.598   8.673  0.6587  1.0704  0.1897
18441SOL    HW257524   5.813   4.727   8.597 -0.4319  0.3901 -0.6476
18442SOL     OW57525   5.659   1.492   2.708 -0.2023  0.5525  0.0213
18442SOL    HW157526   5.576   1.496   2.662 -0.5397 -1.7657  0.2998
18442SOL    HW257527   5.636   1.482   2.800  0.3567 -0.0403  0.1106
18443SOL     OW57528   0.000   3.754   1.148  0.0528  0.7321 -0.6433
18443SOL    HW157529  -0.094   3.768   1.146  0.1863  1.7170 -0.9793
18443SOL    HW257530   0.037   3.843   1.154  0.9269  0.3042  1.1760
18444SOL     OW57531   1.823   4.853   8.411  0.0181  0.4773 -0.0375
18444SOL    HW157532   1.797   4.927   8.466 -0.1041  0.1038  0.4155
18444SOL    HW257533   1.837   4.781   8.473 -0.6613 -0.1029 -0.5503
18445SOL     OW57534   0.478   6.790   1.295 -0.1669  0.5845 -0.7799
18445SOL    HW157535   0.444   6.703   1.316  1.5506 -0.2407 -1.1871
18445SOL    HW257536   0.401   6.846   1.290 -1.2502 -0.7216  0.3563
18446SOL     OW57537   3.508   6.261   4.587  0.1730 -0.3797  0.1410
18446SOL    HW157538   3.522   6.353   4.612  0.3012  0.0622 -1.4426
18446SOL    HW257539   3.413   6.254   4.577  0.3145  0.7650 -3.6245
18447SOL     OW57540   0.255   5.856   1.483 -0.2581  0.4347  0.0447
18447SOL    HW157541   0.240   5.787   1.419 -2.7337 -0.2947  1.2937
18447SOL    HW257542   0.304   5.813   1.554  1.3124  0.9176 -0.6880
18448SOL     OW57543   1.001   0.175   3.372 -0.1148  0.1993  0.1699
18448SOL    HW157544   0.944   0.236   3.418 -0.1443  0.9983 -0.8891
18448SOL    HW257545   1.014   0.214   3.286  0.5815 -0.8619 -0.2315
18449SOL     OW57546   4.595   2.255   1.314  0.1179 -0.2067 -0.0314
18449SOL    HW157547   4.618   2.217   1.399 -1.5570  0.9519  0.9833
18449SOL    HW257548   4.596   2.350   1.329 -3.9488  0.0270 -0.1558
18450SOL     OW57549   8.953   9.376   6.697  0.0796 -0.1978  0.1334
18450SOL    HW157550   8.876   9.378   6.642 -0.0966 -1.3261  0.3038
18450SOL    HW257551   8.978   9.468   6.708 -0.8691  0.1385 -0.4209
18451SOL     OW57552   0.794   3.836   0.940  0.2041 -0.0751 -0.1470
18451SOL    HW157553   0.874   3.885   0.954  0.9116 -1.6099  1.6396
18451SOL    HW257554   0.817   3.772   0.872  1.3028 -1.9780  1.8677
18452SOL     OW57555   4.345   0.234   1.198 -0.2164  0.5533  0.1498
18452SOL    HW157556   4.348   0.142   1.223  3.2357 -0.0921 -1.9462
18452SOL    HW257557   4.409   0.277   1.255  0.9132  0.8377 -1.2481
18453SOL     OW57558   4.471   9.365   6.816  0.6602  0.0123  0.3870
18453SOL    HW157559   4.555   9.334   6.850  0.8389  1.0788  0.9720
18453SOL    HW257560   4.406   9.331   6.878  0.6066 -1.1034 -0.2557
18454SOL     OW57561   4.904   0.102   4.884  0.7096 -0.7440 -0.0414
18454SOL    HW157562   4.963   0.027   4.882  0.4297 -0.9712 -1.3399
18454SOL    HW257563   4.821   0.067   4.850  0.2749 -0.0895  0.3378
18455SOL     OW57564   1.512   8.654   9.434 -0.3831 -0.6476 -0.1936
18455SOL    HW157565   1.510   8.580   9.373  1.3736 -0.4574 -0.5107
18455SOL    HW257566   1.590   8.639   9.487 -0.8907  0.1542  0.8205
18456SOL     OW57567   0.137   5.210   5.255 -0.0548 -0.5485 -0.1730
18456SOL    HW157568   0.212   5.179   5.307 -0.1757 -0.1161  0.2658
18456SOL    HW257569   0.176   5.260   5.184  0.0438  0.6134  0.6776
18457SOL     OW57570   8.888   8.726   8.025 -0.2389  0.4270 -0.2975
18457SOL    HW157571   8.936   8.744   7.944  1.5118  0.0437  0.5890
18457SOL    HW257572   8.856   8.636   8.014  0.5337  0.1494 -0.3246
18458SOL     OW57573   8.053   3.089   3.276 -0.3796 -0.5234 -0.5257
18458SOL    HW157574   8.130   3.049   3.236 -0.8210 -2.3848  0.3606
18458SOL    HW257575   8.006   3.016   3.317 -0.7987  1.0038  1.9776
18459SOL     OW57576   5.415   0.926   3.973 -0.5008 -0.1633 -0.2639
18459SOL    HW157577   5.423   0.844   4.022  0.6835  0.0434 -0.0947
18459SOL    HW257578   5.362   0.902   3.896 -0.7931 -0.9077  0.1563
18460SOL     OW57579   5.062   2.889   0.363  0.1856  0.0823 -0.1032
18460SOL    HW157580   5.079   2.882   0.269 -0.3653  2.9734 -0.5238
18460SOL    HW257581   5.033   2.980   0.375  0.3043 -0.1779  2.8874
18461SOL     OW57582   3.909   9.554   9.477 -0.1458  0.1045 -0.8927
18461SOL    HW157583   3.965   9.503   9.420 -1.0341 -0.9734 -0.8211
18461SOL    HW257584   3.830   9.501   9.489 -0.3738  0.7035  0.5754
18462SOL     OW57585   2.107   6.858   8.354  0.4181 -0.0514 -0.1308
18462SOL    HW157586   2.034   6.796   8.349  0.4187  0.0287 -1.8291
18462SOL    HW257587   2.156   6.843   8.273  0.9904  1.4540 -0.0910
18463SOL     OW57588   7.699   4.672   3.597  0.6435  0.3206  0.4789
18463SOL    HW157589   7.740   4.667   3.510  3.3979  2.2533  1.5069
18463SOL    HW257590   7.638   4.746   3.590  0.1568 -0.1245 -0.0459
18464SOL     OW57591   8.815   1.357   0.459  0.2420  0.2604  0.1432
18464SOL    HW157592   8.897   1.404   0.472  1.1841 -0.9495 -1.1186
18464SOL    HW257593   8.820   1.284   0.520 -0.1534  0.4760  0.4382
18465SOL     OW57594   7.260   3.901   0.912  0.4990 -0.5571  0.4703
18465SOL    HW157595   7.328   3.939   0.968  0.3114  0.6579 -0.1107
18465SOL    HW257596   7.185   3.890   0.970  0.4790  0.1903  0.5944
18466SOL     OW57597   6.152   6.296   8.483 -0.0681  0.6315  0.5966
18466SOL    HW157598   6.192   6.211   8.500  3.4879  2.0640  0.3380
18466SOL    HW257599   6.089   6.308   8.554 -0.0848 -1.8391  1.0801
18467SOL     OW57600   5.317   0.436   4.456 -0.3060 -0.1325  0.1297
18467SOL    HW157601   5.353   0.373   4.519 -0.0595  1.8371  2.0766
18467SOL    HW257602   5.378   0.432   4.382  1.3694 -0.1508  1.4379
18468SOL     OW57603   1.720   8.732   7.433 -0.2696 -0.1322 -0.3390
18468SOL    HW157604   1.670   8.702   7.509 -0.7224  0.1105 -0.5367
18468SOL    HW257605   1.811   8.731   7.463 -0.3971 -0.5050  0.0500
18469SOL     OW57606   7.668   5.505   8.358 -0.3447 -0.2286 -0.1825
18469SOL    HW157607   7.584   5.482   8.399 -0.4368 -3.1207 -1.6613
18469SOL    HW257608   7.729   5.512   8.431 -1.2241 -1.5705  0.7506
18470SOL     OW57609   0.581   5.429   3.173  0.5354  0.2539  0.0963
18470SOL    HW157610   0.599   5.509   3.125  0.0100  0.1830 -0.2243
18470SOL    HW257611   0.619   5.444   3.260 -0.5024  1.2717  0.3880
18471SOL     OW57612   2.095   6.052   7.531  0.0197 -0.2484  0.1722
18471SOL    HW157613   2.150   6.041   7.453 -0.9402  0.1948 -0.5905
18471SOL    HW257614   2.031   5.982   7.525 -1.9327  1.5376 -1.0930
18472SOL     OW57615   3.789   3.379   9.236 -0.0488  0.3342  0.1282
18472SOL    HW157616   3.799   3.332   9.319  0.0573 -1.6274 -0.9345
18472SOL    HW257617   3.875   3.419   9.220 -0.0825  0.7548  0.9629
18473SOL     OW57618   0.799   5.402   1.921  0.1083  0.0332  0.0154
18473SOL    HW157619   0.852   5.342   1.869  0.4903 -0.6528  1.1691
18473SOL    HW257620   0.802   5.367   2.009 -1.5800  0.4600  0.2748
18474SOL     OW57621   6.321   0.577   2.652  0.2190  0.1171  0.4156
18474SOL    HW157622   6.397   0.617   2.610  0.4125 -0.8287 -0.1546
18474SOL    HW257623   6.306   0.630   2.730  0.2794  1.4853 -0.4752
18475SOL     OW57624   5.956   1.867   3.956  0.0412 -0.4981  0.0037
18475SOL    HW157625   5.935   1.784   3.913 -1.7271 -0.2163  0.2281
18475SOL    HW257626   5.992   1.842   4.041  0.5224 -1.0316 -0.3520
18476SOL     OW57627   0.025   9.535   6.824  0.5530 -0.2265  0.1362
18476SOL    HW157628   0.022   9.617   6.775  1.9107 -1.7467 -2.6812
18476SOL    HW257629  -0.031   9.552   6.900 -1.6614  2.3183 -1.8341
18477SOL     OW57630   6.548   6.869   3.803 -0.3464  0.2280 -0.2211
18477SOL    HW157631   6.558   6.935   3.734  1.5648 -0.1134 -0.3392
18477SOL    HW257632   6.616   6.892   3.867 -2.3194  0.7636  1.7755
18478SOL     OW57633   6.193   9.462   7.426  0.6207 -0.7539  0.1439
18478SOL    HW157634   6.226   9.551   7.432 -0.7987 -0.2774  4.3840
18478SOL    HW257635   6.245   9.412   7.490 -1.5958 -1.7530  1.2888
18479SOL     OW57636   1.032   6.611   8.467  0.1865  0.0620  0.1458
18479SOL    HW157637   0.977   6.535   8.448  1.4948 -0.7216 -0.6291
18479SOL    HW257638   1.057   6.645   8.382 -0.7522  1.6683  0.4797
18480SOL     OW57639   6.169   1.106   5.904 -0.2066 -0.4789 -0.8987
18480SOL    HW157640   6.075   1.098   5.923  0.0032 -0.1374  0.3920
18480SOL    HW257641   6.195   1.018   5.876 -0.5307 -1.1189  0.6662
18481SOL     OW57642   5.238   8.660   5.654 -0.0792 -0.0273  0.1729
18481SOL    HW157643   5.295   8.733   5.630  0.0290 -0.3761 -0.6627
18481SOL    HW257644   5.280   8.583   5.617 -0.7638 -0.3703  0.0806
18482SOL     OW57645   0.496   7.107   9.408 -0.1338 -0.0973  0.5266
18482SOL    HW157646   0.563   7.106   9.340 -0.3195  0.2074  0.3407
18482SOL    HW257647   0.420   7.065   9.367 -0.0642 -0.4242  0.7308
18483SOL     OW57648   3.280   8.674   8.942  0.0485 -0.7546 -0.6460
18483SOL    HW157649   3.263   8.580   8.947  0.3455 -0.8955 -1.8427
18483SOL    HW257650   3.356   8.681   8.884  0.5972  0.1801  0.1466
18484SOL     OW57651   7.757   6.083   8.118 -0.0979  0.0672  0.1852
18484SOL    HW157652   7.680   6.038   8.153 -0.9803  0.2325 -1.4772
18484SOL    HW257653   7.726   6.171   8.098  0.0990 -0.3045 -1.8990
18485SOL     OW57654   2.484   0.629   5.217 -0.2417 -0.2950  0.0374
18485SOL    HW157655   2.533   0.646   5.136 -2.3870 -0.8313 -1.4653
18485SOL    HW257656   2.460   0.537   5.211 -2.2467  0.1665  0.1852
18486SOL     OW57657   8.540   5.308   3.119 -0.0790  0.0045 -0.2967
18486SOL    HW157658   8.596   5.343   3.188 -0.0747 -0.3836 -0.1014
18486SOL    HW257659   8.524   5.383   3.061  1.1341 -0.0158 -0.6779
18487SOL     OW57660   4.503   4.916   5.280  0.5758 -0.0195 -0.2594
18487SOL    HW157661   4.470   4.989   5.228 -1.7500 -1.3086 -0.7388
18487SOL    HW257662   4.581   4.887   5.233  2.0773  2.6321  0.4363
18488SOL     OW57663   5.982   4.270   4.272  0.2508  0.1495 -0.6616
18488SOL    HW157664   6.042   4.325   4.223  0.6696  2.0574  1.7813
18488SOL    HW257665   5.933   4.331   4.328 -0.2649 -1.8179  1.1701
18489SOL     OW57666   7.006   5.328   4.652  0.2351  0.2548 -0.0777
18489SOL    HW157667   7.084   5.383   4.664  0.2386  0.2277  0.0189
18489SOL    HW257668   6.956   5.373   4.584  0.1090  0.5139  0.1869
18490SOL     OW57669   4.049   5.992   3.917  0.3269 -0.1341 -0.4720
18490SOL    HW157670   4.117   6.028   3.860  1.1655 -0.9427 -0.0118
18490SOL    HW257671   4.097   5.961   3.994 -0.7354  0.5921  0.5104
18491SOL     OW57672   8.218   0.533   5.734  0.3122  0.0683  0.1429
18491SOL    HW157673   8.142   0.496   5.689 -1.1404  0.6115  2.0240
18491SOL    HW257674   8.212   0.627   5.718  1.1352  0.0320 -0.4457
18492SOL     OW57675   7.309   5.756   8.252  0.3564 -0.3645 -0.2468
18492SOL    HW157676   7.311   5.661   8.241  0.5362 -0.5352  1.1354
18492SOL    HW257677   7.230   5.784   8.206 -0.4770 -1.3632  0.5336
18493SOL     OW57678   3.967   7.408   2.513  0.3225  0.9536 -0.2534
18493SOL    HW157679   3.974   7.325   2.560 -1.3849  1.0899  0.3072
18493SOL    HW257680   3.902   7.392   2.444 -0.4590  1.9597  0.2216
18494SOL     OW57681   2.083   1.616   8.815  0.3939  0.2631  0.0019
18494SOL    HW157682   2.047   1.688   8.763  0.8035  1.1394  0.8823
18494SOL    HW257683   2.012   1.553   8.822  0.2481  0.2365 -1.3848
18495SOL     OW57684   0.039   2.832   3.107 -0.1593  0.8302 -0.1648
18495SOL    HW157685   0.022   2.831   3.201 -3.1963 -0.2094 -0.6271
18495SOL    HW257686   0.039   2.925   3.083  1.5658  1.1576  0.9350
18496SOL     OW57687   6.016   4.034   7.079 -0.4284  0.0733  0.3195
18496SOL    HW157688   5.993   4.121   7.046 -0.5829  0.3217  1.0660
18496SOL    HW257689   6.022   3.979   7.001  1.4346  1.1481 -0.3591
18497SOL     OW57690   4.165   4.989   1.318  0.6925  0.1755  0.7346
18497SOL    HW157691   4.162   5.005   1.412  0.0688 -0.1158  0.7721
18497SOL    HW257692   4.174   4.894   1.310  0.7193  0.1959  0.5042
18498SOL     OW57693   6.173   7.126   1.631 -0.3581  0.6993 -0.1837
18498SOL    HW157694   6.091   7.114   1.583 -0.7666  2.1966  0.0725
18498SOL    HW257695   6.145   7.150   1.720  0.3752 -0.1353  0.2810
18499SOL     OW57696   1.163   4.871   0.386 -0.0969 -0.8398  0.3199
18499SOL    HW157697   1.241   4.896   0.338  1.2606  0.2193  2.8696
18499SOL    HW257698   1.108   4.949   0.387 -0.0211 -0.7867  0.6260
18500SOL     OW57699   3.743   7.055   1.770 -0.3622  0.0603  0.2442
18500SOL    HW157700   3.708   6.977   1.813  0.0279 -0.6022 -0.6245
18500SOL    HW257701   3.668   7.095   1.727 -0.0718 -1.5294 -1.8801
18501SOL     OW57702   4.178   0.967   3.894  0.2744 -0.4939  0.1254
18501SOL    HW157703   4.173   1.062   3.896  0.3551 -0.4876  2.4511
18501SOL    HW257704   4.236   0.947   3.820  0.7859  1.2658  0.0183
18502SOL     OW57705   2.849   9.522   2.743 -0.1179  0.7528 -0.3564
18502SOL    HW157706   2.812   9.435   2.761  0.9694  0.1513 -0.8832
18502SOL    HW257707   2.912   9.536   2.814 -1.5637  1.9343  0.7513
18503SOL     OW57708   2.381   0.604   4.012  0.4628 -0.1891 -0.0705
18503SOL    HW157709   2.361   0.597   3.919  1.1010 -2.8095 -0.0900
18503SOL    HW257710   2.323   0.540   4.054  1.0790  0.0272  1.1769
18504SOL     OW57711   2.204   7.688   9.406  0.3860  0.2475 -0.1508
18504SOL    HW157712   2.259   7.760   9.438  0.1888 -0.5387  2.0920
18504SOL    HW257713   2.129   7.732   9.366  1.1514  1.2838 -0.5157
18505SOL     OW57714   5.738   2.457   2.269 -0.1300 -0.5026 -0.7148
18505SOL    HW157715   5.643   2.458   2.273 -0.2151  1.0384 -2.1981
18505SOL    HW257716   5.760   2.385   2.209 -0.3294 -0.9961 -0.2047
18506SOL     OW57717   4.892   7.179   7.218  0.0031  0.3299 -0.3472
18506SOL    HW157718   4.893   7.171   7.314  0.7080  0.0688 -0.3746
18506SOL    HW257719   4.802   7.159   7.194  0.0383 -0.5238  0.1876
18507SOL     OW57720   7.256   1.039   8.701  0.6707 -0.0618  0.9654
18507SOL    HW157721   7.208   1.083   8.771 -1.1939 -0.4359  0.0009
18507SOL    HW257722   7.215   1.070   8.621 -0.4115 -3.0766  0.2119
18508SOL     OW57723   8.732   7.734   7.891  0.4145  0.6299  0.6506
18508SOL    HW157724   8.644   7.741   7.926  0.5644  2.2480  0.7605
18508SOL    HW257725   8.720   7.723   7.796  0.0746 -1.5492  0.8953
18509SOL     OW57726   1.942   0.647   2.208 -0.0801 -0.1877 -0.1402
18509SOL    HW157727   2.025   0.643   2.160  0.4585 -0.8997  0.8161
18509SOL    HW257728   1.884   0.589   2.160 -0.3739  1.0878 -1.4080
18510SOL     OW57729   4.542   2.231   2.086  0.5159 -0.1184  0.2327
18510SOL    HW157730   4.469   2.291   2.103  2.3055  1.9166  1.2869
18510SOL    HW257731   4.524   2.155   2.141 -0.6761  0.4695  0.6867
18511SOL     OW57732   1.093   6.470   5.102 -0.4448 -0.4324  0.3371
18511SOL    HW157733   1.059   6.380   5.105 -0.3753 -0.5931 -1.9755
18511SOL    HW257734   1.015   6.525   5.100 -0.5124 -0.5337  0.1427
18512SOL     OW57735   2.001   0.010   2.081 -0.6389  0.0887  0.1005
18512SOL    HW157736   2.014  -0.053   2.152 -0.7982  1.8511  1.7840
18512SOL    HW257737   2.089   0.026   2.046 -0.5761 -0.9037 -0.2201
18513SOL     OW57738   3.963   2.430   1.164 -0.2475  0.8132 -0.4933
18513SOL    HW157739   3.952   2.509   1.111 -1.6184  0.7987 -0.2540
18513SOL    HW257740   3.886   2.427   1.220  0.8457  0.4730  1.0645
18514SOL     OW57741   8.559   9.501   4.169  0.0015  0.0395 -0.5236
18514SOL    HW157742   8.520   9.536   4.250 -0.8917 -0.1355 -0.8666
18514SOL    HW257743   8.653   9.497   4.188 -0.4295 -3.4449  1.8620
18515SOL     OW57744   5.496   5.937   8.286 -0.0116  0.2659 -0.5813
18515SOL    HW157745   5.431   5.926   8.355  0.0008  0.2336 -0.5740
18515SOL    HW257746   5.511   6.031   8.281 -0.4528  0.3183 -0.9516
18516SOL     OW57747   4.067   2.622   3.652 -0.6637 -0.3822 -0.2080
18516SOL    HW157748   4.136   2.623   3.586  0.7333  0.6064  1.2040
18516SOL    HW257749   3.985   2.625   3.602  0.3541  0.9731 -1.8808
18517SOL     OW57750   5.006   2.960   3.739  0.1296  0.2482 -0.8440
18517SOL    HW157751   5.083   2.973   3.683 -0.0286  1.2201 -0.8575
18517SOL    HW257752   4.940   3.019   3.702 -0.7861 -0.9201 -1.1300
18518SOL     OW57753   2.539   7.279   3.456 -0.1454  0.0055 -0.7352
18518SOL    HW157754   2.526   7.220   3.530 -0.0332 -0.0978 -0.7973
18518SOL    HW257755   2.526   7.366   3.493  1.5445  0.0681 -0.2043
18519SOL     OW57756   2.143   8.305   6.746 -0.2034  0.4335  0.0936
18519SOL    HW157757   2.235   8.292   6.723  0.1955  0.2887  1.6490
18519SOL    HW257758   2.115   8.220   6.781 -0.7375  0.6745  0.2628
18520SOL     OW57759   1.715   4.125   1.161  0.6125  0.1079 -1.2035
18520SOL    HW157760   1.685   4.061   1.226  0.5249  1.5086  0.1964
18520SOL    HW257761   1.808   4.106   1.150  0.5238 -0.4415 -1.0215
18521SOL     OW57762   3.585   0.491   8.919 -0.5465  0.1675 -0.3842
18521SOL    HW157763   3.657   0.430   8.933 -0.5331 -0.1771 -1.8814
18521SOL    HW257764   3.627   0.571   8.888 -0.5885  0.9026  1.3202
18522SOL     OW57765   2.149   6.656   1.049  0.0656 -0.3918  0.3318
18522SOL    HW157766   2.235   6.623   1.074 -0.4907 -3.6373 -1.4699
18522SOL    HW257767   2.153   6.663   0.953 -1.0023  1.6912  0.3792
18523SOL     OW57768   1.002   2.704   1.174  0.4931  0.7133  0.1077
18523SOL    HW157769   0.960   2.790   1.174  0.9577  0.9680  1.3294
18523SOL    HW257770   0.995   2.674   1.083 -0.9642  1.3934 -0.0432
18524SOL     OW57771   5.949   7.437   0.790  0.1234  0.1205  0.0720
18524SOL    HW157772   5.932   7.527   0.815  0.5677  0.3841 -0.5332
18524SOL    HW257773   5.878   7.415   0.729 -0.2359 -0.0946  0.5593
18525SOL     OW57774   4.722   6.748   9.495 -0.4072 -0.1135  0.2317
18525SOL    HW157775   4.669   6.827   9.487  1.0137  0.7456 -1.5074
18525SOL    HW257776   4.704   6.715   9.583 -2.2025  1.2718  0.4357
18526SOL     OW57777   0.869   4.926   2.514 -0.0837 -0.1729  0.3370
18526SOL    HW157778   0.954   4.898   2.549 -0.0987  0.3924  0.8371
18526SOL    HW257779   0.860   4.878   2.431  1.1748  0.5087 -0.2192
18527SOL     OW57780   5.421   4.728   9.255 -0.4921 -0.1677 -0.7386
18527SOL    HW157781   5.478   4.802   9.276  0.3480 -0.5848 -1.4906
18527SOL    HW257782   5.355   4.765   9.197 -1.7390  0.5796  1.0704
18528SOL     OW57783   0.226   3.896   6.274 -0.4671 -0.1900 -0.3624
18528SOL    HW157784   0.178   3.956   6.333  2.0891  1.3592  0.2910
18528SOL    HW257785   0.173   3.894   6.194 -2.6905 -0.2823  1.0126
18529SOL     OW57786   4.161   4.213   7.150  0.3394 -0.0304  0.3006
18529SOL    HW157787   4.206   4.136   7.183 -0.7437 -0.7725  0.0893
18529SOL    HW257788   4.068   4.189   7.151  0.0308  1.0837 -0.2490
18530SOL     OW57789   3.816   0.078   7.985 -0.2203 -0.1804  0.2138
18530SOL    HW157790   3.803  -0.016   7.978  1.4307 -0.5659  1.5868
18530SOL    HW257791   3.728   0.115   7.985 -0.8585 -1.4461 -2.9422
18531SOL     OW57792   5.953   0.112   3.727  0.0091 -0.0345 -0.2535
18531SOL    HW157793   5.931   0.145   3.640 -2.6201 -1.6322 -0.3059
18531SOL    HW257794   5.902   0.166   3.787  2.2391  1.4401  0.4694
18532SOL     OW57795   6.714   0.743   6.034 -0.2435 -0.1230  0.3580
18532SOL    HW157796   6.708   0.838   6.041  2.9067  0.2121  0.0870
18532SOL    HW257797   6.628   0.715   6.000 -1.3458  2.5458  0.7386
18533SOL     OW57798   0.422   0.923   7.610  0.0075 -0.5030 -0.2882
18533SOL    HW157799   0.413   0.902   7.703 -0.2708 -0.0291 -0.2056
18533SOL    HW257800   0.514   0.948   7.600  0.4409 -2.1026 -0.4626
18534SOL     OW57801   8.035   8.211   3.793  0.3329  0.0830  0.0090
18534SOL    HW157802   7.994   8.157   3.725  0.1355  1.3152 -0.8807
18534SOL    HW257803   8.089   8.273   3.745  1.2512  0.1264  1.0611
18535SOL     OW57804   4.312   8.813   4.798  0.4720 -0.0532 -0.3440
18535SOL    HW157805   4.395   8.824   4.753  0.0607  1.0492 -0.8670
18535SOL    HW257806   4.283   8.902   4.818  0.9609 -0.4553  2.7260
18536SOL     OW57807   0.994   7.775   1.297  0.1562 -0.1739  0.0352
18536SOL    HW157808   0.994   7.702   1.359 -1.4704  0.3495  0.7242
18536SOL    HW257809   0.972   7.852   1.351 -0.4188  0.4402 -1.0415
18537SOL     OW57810   0.316   8.542   2.107  0.1791  0.3740 -0.3510
18537SOL    HW157811   0.258   8.609   2.142 -0.6065 -0.4187 -0.1082
18537SOL    HW257812   0.321   8.562   2.013 -0.7335  0.2774 -0.4316
18538SOL     OW57813   8.973   6.601   2.024  0.6069  0.5054 -0.5262
18538SOL    HW157814   8.938   6.573   1.940 -0.8319  0.1859  0.1522
18538SOL    HW257815   8.898   6.602   2.083  1.4424  1.4558  0.5813
18539SOL     OW57816   2.837   6.841   7.769  0.3667  0.7986 -0.3053
18539SOL    HW157817   2.907   6.801   7.820  0.3686  0.4546 -0.5776
18539SOL    HW257818   2.855   6.935   7.773  1.1672  0.6696 -0.8531
18540SOL     OW57819   8.183   1.766   0.485  0.4059 -0.7061  0.7643
18540SOL    HW157820   8.092   1.758   0.457  0.5141 -0.3755  0.3126
18540SOL    HW257821   8.199   1.860   0.490  0.8904 -0.7589  0.2787
18541SOL     OW57822   4.060   7.248   6.872 -0.0741  0.5759  0.0649
18541SOL    HW157823   4.000   7.318   6.848  0.1195  0.4320 -0.8618
18541SOL    HW257824   4.069   7.195   6.793  1.0466  0.4319  0.2772
18542SOL     OW57825   9.381   0.342   1.543  0.3036  0.4717 -0.2127
18542SOL    HW157826   9.472   0.360   1.566  0.1413  0.7808  0.2024
18542SOL    HW257827   9.385   0.311   1.452  1.0986 -2.0218  0.5906
18543SOL     OW57828   4.032   8.669   5.665  0.6305 -0.5320 -0.2999
18543SOL    HW157829   4.021   8.640   5.756 -1.0755 -1.8421 -0.8812
18543SOL    HW257830   4.082   8.599   5.624 -0.2634 -0.8709 -0.8233
18544SOL     OW57831   7.925   3.124   6.604  0.1978  0.5287  0.5150
18544SOL    HW157832   7.969   3.176   6.671 -0.7891 -0.6410  2.1457
18544SOL    HW257833   7.838   3.107   6.640 -0.2873 -0.3369 -0.9745
18545SOL     OW57834   2.576   6.769   7.699 -0.3928 -0.0715  0.0869
18545SOL    HW157835   2.653   6.807   7.741 -0.5041  1.9144 -1.3788
18545SOL    HW257836   2.508   6.836   7.709 -0.7131  0.0276 -2.2860
18546SOL     OW57837   5.799   1.966   5.996 -0.6529  0.3689  0.8414
18546SOL    HW157838   5.794   2.041   5.937  1.7872  0.6446  0.9138
18546SOL    HW257839   5.737   1.903   5.959 -0.9520  1.4640 -0.6179
18547SOL     OW57840   9.452   5.988   9.295 -0.6299  0.6401  0.6528
18547SOL    HW157841   9.453   6.027   9.207 -1.7269 -1.9416 -0.6139
18547SOL    HW257842   9.535   5.940   9.300 -0.6647  0.6116  0.9551
18548SOL     OW57843   2.377   0.193   4.623 -0.0987 -0.1251 -0.2333
18548SOL    HW157844   2.327   0.155   4.551  1.2585  0.2632 -1.4454
18548SOL    HW257845   2.416   0.117   4.667 -0.0919 -0.3149 -0.5622
18549SOL     OW57846   6.392   3.655   7.843  0.7296 -0.3960  0.2673
18549SOL    HW157847   6.401   3.676   7.936 -0.2901 -0.9533  0.5123
18549SOL    HW257848   6.355   3.733   7.804 -1.4072 -1.0542  0.8529
18550SOL     OW57849   0.967   9.372   1.684  0.0907 -0.4759  0.2700
18550SOL    HW157850   0.943   9.320   1.761 -0.4963 -0.5646  0.0327
18550SOL    HW257851   0.883   9.394   1.644  0.4334 -1.6116 -1.1274
18551SOL     OW57852   3.225   8.604   5.307 -0.0219 -0.2309  0.2757
18551SOL    HW157853   3.228   8.540   5.236 -1.7778 -0.6516  0.5528
18551SOL    HW257854   3.315   8.605   5.342  0.5624 -0.9100 -1.1346
18552SOL     OW57855   8.810   6.811   6.291  0.2200 -0.0770  0.3401
18552SOL    HW157856   8.763   6.728   6.279  0.5075  0.0085 -1.8154
18552SOL    HW257857   8.790   6.862   6.212  0.9080  1.4762  1.1251
18553SOL     OW57858   9.411   3.076   0.472  0.7160  0.8770  0.1204
18553SOL    HW157859   9.469   3.058   0.399  0.3515 -1.3813  0.3104
18553SOL    HW257860   9.444   3.022   0.543 -0.6723  0.7805  0.7214
18554SOL     OW57861   3.801   0.452   7.199  0.6197  0.3002 -0.8654
18554SOL    HW157862   3.801   0.431   7.293  0.7074  1.9034 -0.4611
18554SOL    HW257863   3.712   0.483   7.181  1.1897  2.2158 -0.7026
18555SOL     OW57864   7.073   2.930   0.179  0.5553  0.3775  0.6274
18555SOL    HW157865   7.002   2.975   0.134  0.4852 -0.5923 -0.2764
18555SOL    HW257866   7.151   2.980   0.159  0.8581 -1.0584 -2.2530
18556SOL     OW57867   3.916   5.630   2.420 -0.1309 -0.1717 -0.3828
18556SOL    HW157868   3.947   5.593   2.338 -0.5260 -0.0736 -0.5776
18556SOL    HW257869   3.992   5.674   2.457  0.5411 -1.7351  0.1790
18557SOL     OW57870   8.900   7.454   4.657 -0.1057 -0.4364 -0.1466
18557SOL    HW157871   8.913   7.435   4.750  2.2511  0.4557 -0.2379
18557SOL    HW257872   8.931   7.376   4.612  0.5218 -0.1446 -0.2279
18558SOL     OW57873   5.340   9.037   8.255  0.1741 -0.3911 -0.6761
18558SOL    HW157874   5.430   9.065   8.238  0.0494  0.1490 -0.4712
18558SOL    HW257875   5.326   8.963   8.196  1.2169 -1.3862  0.2700
18559SOL     OW57876   2.162   6.672   4.666  0.1159  0.1500  0.2446
18559SOL    HW157877   2.229   6.610   4.639 -0.9089 -0.8137 -0.2109
18559SOL    HW257878   2.125   6.633   4.746 -0.7534 -0.0176 -0.2220
18560SOL     OW57879   2.900   1.683   0.287 -0.5048  0.3304 -0.0610
18560SOL    HW157880   2.820   1.662   0.334 -1.1110  2.8407  0.2138
18560SOL    HW257881   2.913   1.777   0.304 -0.5739  1.3681 -4.5208
18561SOL     OW57882   7.486   4.479   7.225  0.1831  0.2482  0.2516
18561SOL    HW157883   7.458   4.392   7.199  0.2479  0.3342 -0.1190
18561SOL    HW257884   7.529   4.467   7.309 -0.2605 -0.0027  0.4431
18562SOL     OW57885   9.542   8.111   8.496  0.0179  0.2314 -0.1336
18562SOL    HW157886   9.542   8.069   8.582  1.1325 -1.5207 -0.9291
18562SOL    HW257887   9.602   8.185   8.506  1.0500 -0.6327  0.3184
18563SOL     OW57888   4.804   8.430   7.791  0.0118  0.3017  0.2953
18563SOL    HW157889   4.831   8.442   7.883  1.4412 -0.8462  0.0670
18563SOL    HW257890   4.756   8.347   7.791  0.2652  0.1562 -0.0427
18564SOL     OW57891   9.237   4.031   2.569 -0.0614 -0.0148 -0.0836
18564SOL    HW157892   9.201   3.949   2.604  0.2760 -0.1892 -0.1406
18564SOL    HW257893   9.257   4.083   2.647 -2.1532  0.8452 -0.0804
18565SOL     OW57894   3.249   5.887   1.473  0.0420 -0.0590 -0.4548
18565SOL    HW157895   3.311   5.817   1.453  1.2024  1.0656 -0.8971
18565SOL    HW257896   3.270   5.956   1.411 -1.9359  0.2168 -0.8935
18566SOL     OW57897   1.278   0.190   2.579 -0.3715 -0.1737 -0.9554
18566SOL    HW157898   1.202   0.193   2.638 -0.3192  1.0142 -0.9152
18566SOL    HW257899   1.321   0.275   2.592  0.2612 -0.3399 -1.8965
18567SOL     OW57900   1.972   6.954   6.271 -0.0970 -0.1736 -0.0428
18567SOL    HW157901   1.891   6.986   6.232 -0.0928 -1.0067 -0.7486
18567SOL    HW257902   1.973   6.992   6.359 -0.3854  1.2594 -0.6358
18568SOL     OW57903   3.365   0.099   5.425  0.4656  0.0818 -0.8529
18568SOL    HW157904   3.418   0.019   5.432 -0.2987 -0.3042  1.5234
18568SOL    HW257905   3.398   0.156   5.494 -2.0658 -0.1370  0.6755
18569SOL     OW57906   7.753   9.402   5.641  0.0885 -0.3108 -0.5913
18569SOL    HW157907   7.771   9.467   5.709 -0.5381 -0.6096 -0.1323
18569SOL    HW257908   7.839   9.383   5.603  0.2525  0.9527 -0.8922
18570SOL     OW57909   1.183   0.123   1.684  0.1108  0.3602 -0.4114
18570SOL    HW157910   1.091   0.122   1.659  0.2560  2.2564 -1.1936
18570SOL    HW257911   1.183   0.098   1.777 -1.1321 -0.1362 -0.5294
18571SOL     OW57912   8.095   2.914   6.552  0.2632  0.0140  0.2110
18571SOL    HW157913   8.054   2.997   6.574  0.1315  0.3710 -1.2867
18571SOL    HW257914   8.023   2.860   6.517  0.0136 -1.3371  2.6259
18572SOL     OW57915   8.576   2.233   1.579 -0.3473  0.3241  0.3459
18572SOL    HW157916   8.528   2.307   1.618 -0.0043  0.8514 -0.2143
18572SOL    HW257917   8.644   2.213   1.644 -0.2660  0.6891  0.3789
18573SOL     OW57918   8.505   8.440   0.867  0.0469 -0.0947 -0.1704
18573SOL    HW157919   8.571   8.482   0.923 -0.6658 -0.4329  0.9482
18573SOL    HW257920   8.513   8.347   0.887 -0.1661 -0.2314 -0.7091
18574SOL     OW57921   7.621   5.224   5.090 -0.0496  0.1669  0.1767
18574SOL    HW157922   7.702   5.201   5.047  0.5788  0.6455  1.0682
18574SOL    HW257923   7.574   5.278   5.027  0.4968  0.2089 -0.1942
18575SOL     OW57924   2.161   9.305   7.696 -0.4409 -0.0585  0.2312
18575SOL    HW157925   2.070   9.295   7.724 -1.0725  1.9195 -0.9027
18575SOL    HW257926   2.183   9.396   7.718  1.9659 -0.9985  2.2844
18576SOL     OW57927   2.658   5.189   3.764  0.1084 -0.4426 -0.1815
18576SOL    HW157928   2.667   5.205   3.858 -1.5010  1.7685 -0.3132
18576SOL    HW257929   2.718   5.116   3.745  1.9203  0.3314  2.1826
18577SOL     OW57930   0.045   2.996   3.588 -0.2762  0.2986  0.0112
18577SOL    HW157931   0.027   2.943   3.666 -0.1534  0.6314  0.2703
18577SOL    HW257932  -0.022   3.063   3.589 -0.7954 -0.1999 -0.6467
18578SOL     OW57933   4.726   5.457   4.161 -0.0727 -0.0997 -0.0359
18578SOL    HW157934   4.767   5.428   4.243  0.4413  1.8362  0.4355
18578SOL    HW257935   4.672   5.383   4.134  0.6227 -1.2038  1.4598
18579SOL     OW57936   2.910   2.342   4.637 -0.1960  0.0041 -0.3722
18579SOL    HW157937   2.855   2.396   4.695 -1.6059 -1.1366 -0.5769
18579SOL    HW257938   2.914   2.257   4.682  1.4799  0.0702 -0.3497
18580SOL     OW57939   7.324   6.713   8.158  0.0808 -0.0224  0.0020
18580SOL    HW157940   7.354   6.782   8.217  1.3184 -0.5497  0.0022
18580SOL    HW257941   7.254   6.669   8.206  0.8807 -0.2662  0.9639
18581SOL     OW57942   2.670   6.090   7.180 -0.1598 -0.1568 -0.4212
18581SOL    HW157943   2.645   6.174   7.143  2.0795  1.9667  2.3961
18581SOL    HW257944   2.632   6.025   7.122 -1.8340  2.7848 -2.8539
18582SOL     OW57945   8.405   6.207   5.242  0.0280  0.3967  0.2377
18582SOL    HW157946   8.318   6.218   5.202 -1.2202 -0.9828  2.3699
18582SOL    HW257947   8.453   6.152   5.181 -0.4934  1.3573 -1.0847
18583SOL     OW57948   8.829   4.798   1.784 -0.0206  0.0936 -0.1052
18583SOL    HW157949   8.908   4.758   1.822  0.3611  0.3354 -0.6490
18583SOL    HW257950   8.794   4.730   1.726  0.3727  0.3729 -0.6743
18584SOL     OW57951   3.741   8.955   7.946  0.4012 -0.3519  0.3630
18584SOL    HW157952   3.688   8.922   7.874 -1.3388  4.1757 -0.7688
18584SOL    HW257953   3.678   8.977   8.015  1.3947  0.4996  1.0424
18585SOL     OW57954   3.495   3.000   4.520  0.5476 -0.5568 -0.4242
18585SOL    HW157955   3.510   3.094   4.535 -0.5844 -0.3141 -0.7075
18585SOL    HW257956   3.444   2.997   4.439 -1.3064 -1.2725  0.7043
18586SOL     OW57957   3.493   9.318   4.085  0.1661 -0.2691 -0.3962
18586SOL    HW157958   3.539   9.376   4.024  0.3618  0.2012  0.1831
18586SOL    HW257959   3.420   9.371   4.117  0.2354 -0.4131 -0.0007
18587SOL     OW57960   8.439   0.323   5.479 -0.6362  0.5305 -0.0227
18587SOL    HW157961   8.455   0.409   5.517  0.1944  0.0562  0.7524
18587SOL    HW257962   8.416   0.268   5.554 -0.2881 -0.1241 -0.3873
18588SOL     OW57963   1.680   7.663   0.061  0.4391  0.2944 -0.2994
18588SOL    HW157964   1.748   7.618   0.111 -0.6301 -0.5933  0.4066
18588SOL    HW257965   1.723   7.741   0.026  1.5778  0.2179  0.8635
18589SOL     OW57966   5.483   3.856   5.440  0.3224 -0.2311 -0.0720
18589SOL    HW157967   5.553   3.793   5.421  0.2770 -0.0901 -0.7354
18589SOL    HW257968   5.403   3.808   5.420  0.2361 -0.3082  0.4458
18590SOL     OW57969   3.026   0.379   7.398 -0.6121 -0.3901 -1.1866
18590SOL    HW157970   3.067   0.460   7.366  2.0231 -1.4490 -0.7572
18590SOL    HW257971   3.044   0.315   7.330  1.0244 -1.5735  0.2803
18591SOL     OW57972   0.041   6.389   8.271  0.0442 -0.5602 -0.7600
18591SOL    HW157973  -0.041   6.408   8.226 -0.6580 -2.4250 -0.3592
18591SOL    HW257974   0.017   6.385   8.364  1.0651  1.1441 -0.3773
18592SOL     OW57975   2.930   5.688   9.539  0.3377 -0.1268 -0.5540
18592SOL    HW157976   2.961   5.665   9.626  0.7074  1.6770 -0.1594
18592SOL    HW257977   3.006   5.676   9.482  0.6319  0.4582 -0.2913
18593SOL     OW57978   7.381   8.578   4.811 -0.0525 -0.4986 -0.1013
18593SOL    HW157979   7.404   8.637   4.740  0.5536 -2.3339 -1.5210
18593SOL    HW257980   7.326   8.630   4.869 -0.1109  1.2267 -1.6183
18594SOL     OW57981   4.706   4.123   4.573 -0.1090 -0.0431 -0.0066
18594SOL    HW157982   4.767   4.107   4.501 -0.3893 -1.2179  0.0048
18594SOL    HW257983   4.625   4.151   4.531 -0.4778 -1.3502 -0.2122
18595SOL     OW57984   5.469   6.234   8.359 -0.2903 -0.3322  0.2342
18595SOL    HW157985   5.512   6.285   8.428  0.1722 -0.3388 -0.0493
18595SOL    HW257986   5.527   6.242   8.283 -0.3004 -1.1391  0.1350
18596SOL     OW57987   5.585   5.871   9.363  0.4045  0.1881 -1.0101
18596SOL    HW157988   5.611   5.869   9.271 -0.6338  0.0232 -1.3151
18596SOL    HW257989   5.666   5.854   9.411  0.6249 -1.6359 -1.9581
18597SOL     OW57990   2.595   2.612   6.049  0.3044  0.3871 -0.8642
18597SOL    HW157991   2.523   2.674   6.047 -1.0020 -1.0731 -0.6419
18597SOL    HW257992   2.574   2.553   6.121  1.0330 -0.8769 -1.6557
18598SOL     OW57993   4.573   6.645   9.287 -0.1329  0.0415 -0.0397
18598SOL    HW157994   4.616   6.667   9.370 -0.4709 -0.2025  0.1981
18598SOL    HW257995   4.546   6.730   9.251 -0.5094  0.1027  0.3825
18599SOL     OW57996   1.491   0.299   8.742 -0.3348 -0.2163 -0.1528
18599SOL    HW157997   1.532   0.363   8.685 -0.3706  0.5279  0.6343
18599SOL    HW257998   1.433   0.248   8.685  0.2131  0.0024 -0.9068
18600SOL     OW57999   6.280   2.986   4.654  0.5699 -0.0219 -0.4396
18600SOL    HW158000   6.292   2.914   4.717  0.0160  0.1190 -0.1620
18600SOL    HW258001   6.250   3.059   4.708 -1.3669 -0.3262 -1.0398
18601SOL     OW58002   0.849   6.417   6.430 -0.1121 -0.5208  0.1541
18601SOL    HW158003   0.807   6.463   6.503 -0.0249  0.2840 -0.2931
18601SOL    HW258004   0.779   6.402   6.367 -0.1319 -0.9736  0.2812
18602SOL     OW58005   2.023   7.637   1.916 -0.2890  0.3872  0.2235
18602SOL    HW158006   1.979   7.722   1.911 -0.1284  0.7061  2.9390
18602SOL    HW258007   1.957   7.578   1.952  0.8664  0.4478  2.5965
18603SOL     OW58008   5.054   5.549   5.294 -0.0713 -0.2971  0.0128
18603SOL    HW158009   5.035   5.474   5.350  2.0785 -0.4612  0.6202
18603SOL    HW258010   5.050   5.514   5.205 -1.7536 -0.4513  0.1169
18604SOL     OW58011   9.067   6.901   5.771 -0.2724  0.3716  0.0775
18604SOL    HW158012   8.980   6.867   5.789 -0.1459  0.6270  1.2053
18604SOL    HW258013   9.052   6.976   5.713 -0.7568  0.1596 -0.0790
18605SOL     OW58014   5.704   8.200   0.693 -0.0870 -0.2817  0.1027
18605SOL    HW158015   5.678   8.132   0.630  1.2103 -1.0422  0.3646
18605SOL    HW258016   5.687   8.282   0.647 -3.4537 -0.6527  0.4513
18606SOL     OW58017   1.208   9.540   7.314 -0.0494  0.6173 -0.3026
18606SOL    HW158018   1.258   9.621   7.304  0.2281  0.5709  0.5892
18606SOL    HW258019   1.232   9.487   7.239  0.2265  1.1224 -0.5802
18607SOL     OW58020   9.304   8.664   4.260  0.0231 -0.2136 -0.1013
18607SOL    HW158021   9.263   8.596   4.313 -0.2355 -0.2271 -0.3118
18607SOL    HW258022   9.233   8.697   4.205  0.1458  0.2365  0.0075
18608SOL     OW58023   7.577   8.604   0.405  0.2961  0.2334  0.1977
18608SOL    HW158024   7.561   8.672   0.340 -1.7734 -0.2949  0.0725
18608SOL    HW258025   7.668   8.617   0.433  0.2932  2.3072 -0.6358
18609SOL     OW58026   1.378   5.941   1.208 -0.4229  0.2541 -0.1375
18609SOL    HW158027   1.399   5.878   1.278 -0.4809  1.2081  0.7695
18609SOL    HW258028   1.463   5.962   1.168 -0.2087  0.6557  0.5026
18610SOL     OW58029   9.486   8.876   8.103 -0.3080  0.1904  0.3492
18610SOL    HW158030   9.435   8.909   8.177 -1.1152  1.4524 -0.7163
18610SOL    HW258031   9.479   8.946   8.037  1.9379 -0.0520 -0.2247
18611SOL     OW58032   7.461   9.437   1.168 -0.7270 -0.4236  0.1250
18611SOL    HW158033   7.485   9.524   1.135 -2.2171  0.2993  0.8456
18611SOL    HW258034   7.535   9.411   1.223 -0.4190  0.5579  0.1981
18612SOL     OW58035   6.599   9.556   0.349 -0.2565 -0.2494 -0.7699
18612SOL    HW158036   6.685   9.515   0.361 -0.6074 -1.3462 -1.8438
18612SOL    HW258037   6.571   9.528   0.262 -1.7959 -0.0754 -0.3533
18613SOL     OW58038   3.800   7.842   7.532  0.3850 -0.3096  0.6817
18613SOL    HW158039   3.781   7.936   7.524  0.1268 -0.2626  1.6854
18613SOL    HW258040   3.741   7.812   7.601  0.0970 -1.3259  0.0171
18614SOL     OW58041   8.338   1.308   5.105 -0.2101  0.3110  0.2393
18614SOL    HW158042   8.377   1.395   5.102 -2.4537  1.5575  2.7145
18614SOL    HW258043   8.255   1.321   5.152 -1.2714 -2.9480 -0.4959
18615SOL     OW58044   9.109   8.967   5.700  0.1761  0.7236  0.0964
18615SOL    HW158045   9.029   8.989   5.653 -0.2168 -0.7437  0.0261
18615SOL    HW258046   9.179   9.005   5.647 -0.3751  0.6656 -0.6956
18616SOL     OW58047   2.668   7.691   2.419  0.0601  0.4047  0.6715
18616SOL    HW158048   2.651   7.598   2.404 -0.3370  0.6761 -0.6633
18616SOL    HW258049   2.585   7.725   2.451  0.1494  0.3488  0.9692
18617SOL     OW58050   8.707   5.169   1.673 -0.0682 -0.2413 -0.7453
18617SOL    HW158051   8.696   5.076   1.651  1.3930 -1.1565  1.9445
18617SOL    HW258052   8.678   5.176   1.764  0.2040  1.8728 -0.7721
18618SOL     OW58053   5.118   8.017   1.931 -0.1889  0.4436 -0.2606
18618SOL    HW158054   5.036   8.064   1.915  0.0424  1.1410  0.5688
18618SOL    HW258055   5.161   8.066   2.001 -0.0215 -1.0786  0.7511
18619SOL     OW58056   2.505   4.264   8.190  0.8460 -0.3321 -0.5259
18619SOL    HW158057   2.541   4.201   8.253 -2.6519 -0.1390  1.9572
18619SOL    HW258058   2.476   4.211   8.116  0.9036 -1.2190  0.0727
18620SOL     OW58059   9.123   8.399   5.468 -0.5117  0.4557 -0.6779
18620SOL    HW158060   9.144   8.488   5.497 -0.9051  0.5014 -0.5209
18620SOL    HW258061   9.035   8.406   5.431 -1.0792 -0.1024  0.4958
18621SOL     OW58062   7.922   3.842   7.541  0.6667 -0.0064  0.1008
18621SOL    HW158063   8.008   3.871   7.572 -0.0251  0.8747  1.2903
18621SOL    HW258064   7.860   3.898   7.587 -0.6398 -1.7707  0.5967
18622SOL     OW58065   6.229   0.937   5.608  0.1456  0.1619  0.2574
18622SOL    HW158066   6.191   1.003   5.551 -0.8977 -0.8533 -0.2493
18622SOL    HW258067   6.156   0.905   5.661  0.4472 -1.1920 -0.1038
18623SOL     OW58068   1.874   1.930   7.631  0.0667 -0.5279 -0.2824
18623SOL    HW158069   1.861   1.889   7.717 -1.5410 -3.4609 -1.8070
18623SOL    HW258070   1.948   1.883   7.593  1.2445  1.2475 -0.3209
18624SOL     OW58071   6.436   4.655   2.982 -0.2760  0.1123  0.4828
18624SOL    HW158072   6.470   4.730   2.934  0.7857 -0.7341 -0.1411
18624SOL    HW258073   6.512   4.617   3.025 -0.5537 -1.2820 -0.1824
18625SOL     OW58074   0.997   7.651   2.501 -0.4684 -0.3071  0.1917
18625SOL    HW158075   0.944   7.682   2.428 -2.1323 -0.1324  1.4275
18625SOL    HW258076   1.087   7.673   2.476 -1.2548  2.7397 -0.3692
18626SOL     OW58077   7.437   0.471   3.296  0.5052 -0.0325  0.4079
18626SOL    HW158078   7.428   0.542   3.359 -0.5496 -0.8350  1.2021
18626SOL    HW258079   7.449   0.515   3.212 -4.8160  1.3595  0.0494
18627SOL     OW58080   1.781   8.039   1.821  0.7813  0.3047  0.1744
18627SOL    HW158081   1.783   7.968   1.756  3.6588  1.2428 -0.9196
18627SOL    HW258082   1.814   7.998   1.901 -0.6255 -0.3059  0.4748
18628SOL     OW58083   3.553   4.221   4.805  0.4457 -0.4076  0.2283
18628SOL    HW158084   3.511   4.255   4.726  0.2227  0.3470  0.6652
18628SOL    HW258085   3.611   4.151   4.773 -1.0175 -1.3907 -0.4013
18629SOL     OW58086   8.945   0.674   0.321  0.3796 -0.5856  0.5588
18629SOL    HW158087   8.961   0.751   0.375 -1.1555 -0.8108  1.3951
18629SOL    HW258088   8.940   0.601   0.383  2.1317 -1.4419 -0.2519
18630SOL     OW58089   0.449   3.788   2.579  0.4500 -0.3693 -0.1925
18630SOL    HW158090   0.430   3.698   2.556  2.0049 -0.5006 -1.1167
18630SOL    HW258091   0.406   3.840   2.510 -2.5406 -0.1652  1.6384
18631SOL     OW58092   9.519   3.332   6.913 -0.1847  0.3245  0.0292
18631SOL    HW158093   9.507   3.358   7.004 -0.9837 -0.5809  0.1842
18631SOL    HW258094   9.463   3.393   6.863 -0.7283  0.0088  0.2494
18632SOL     OW58095   8.036   0.970   2.667 -0.2670 -0.1511  0.0323
18632SOL    HW158096   7.982   1.003   2.595 -0.5881  0.9151  0.7463
18632SOL    HW258097   8.125   0.996   2.645  0.0032 -1.8761 -1.1281
18633SOL     OW58098   8.858   3.406   9.186  0.1807 -0.3558 -0.2215
18633SOL    HW158099   8.882   3.442   9.101 -0.4146 -1.0675 -0.7062
18633SOL    HW258100   8.780   3.454   9.212 -0.4630 -1.0959 -0.7481
18634SOL     OW58101   2.688   2.147   2.331  0.3382  0.3934  0.0118
18634SOL    HW158102   2.667   2.099   2.251 -0.5754  0.5885  0.1231
18634SOL    HW258103   2.702   2.237   2.302 -1.6294  0.8103  0.2561
18635SOL     OW58104   1.522   6.548   6.169  0.0004 -0.2566 -0.2833
18635SOL    HW158105   1.491   6.509   6.087  1.1213 -0.7055 -0.5075
18635SOL    HW258106   1.454   6.526   6.233 -0.7072 -0.2096 -1.0112
18636SOL     OW58107   1.426   3.062   4.275  0.1062  0.8930 -0.5581
18636SOL    HW158108   1.427   3.154   4.302  1.0242  0.5045  0.8365
18636SOL    HW258109   1.518   3.040   4.262  0.2062 -0.6352  2.1644
18637SOL     OW58110   1.850   3.097   6.546  0.0941 -0.1294 -0.4939
18637SOL    HW158111   1.831   3.004   6.536  1.0311 -0.2824 -1.0065
18637SOL    HW258112   1.945   3.101   6.561 -0.3082  0.5653  2.4236
18638SOL     OW58113   3.734   4.107   2.766 -0.1350  0.1624  0.1218
18638SOL    HW158114   3.760   4.162   2.692  0.3429 -1.1745 -0.7351
18638SOL    HW258115   3.647   4.076   2.744  0.1613 -0.5423 -0.0555
18639SOL     OW58116   4.124   6.384   3.189  0.3705 -0.3234 -0.2126
18639SOL    HW158117   4.061   6.392   3.261  0.7889  1.1060  0.0312
18639SOL    HW258118   4.210   6.397   3.231  0.6331  0.2921 -0.9204
18640SOL     OW58119   3.284   0.874   7.755 -0.1553 -0.1268  0.2657
18640SOL    HW158120   3.243   0.836   7.832  0.2654  0.0853  0.5980
18640SOL    HW258121   3.212   0.890   7.695 -0.3916 -1.0215  0.2955
18641SOL     OW58122   1.630   0.899   1.813 -0.2342 -0.2533  0.0443
18641SOL    HW158123   1.708   0.879   1.865 -0.7343 -0.1234  0.8689
18641SOL    HW258124   1.558   0.893   1.875 -0.8506 -0.0522 -0.6358
18642SOL     OW58125   1.984   8.488   8.151 -0.1552 -0.3874  0.7363
18642SOL    HW158126   2.075   8.459   8.154  0.2360  0.6947  0.0055
18642SOL    HW258127   1.947   8.443   8.075  0.0962  0.0080  0.3691
18643SOL     OW58128   2.013   1.145   5.198 -0.1015 -0.3896  0.3198
18643SOL    HW158129   1.960   1.066   5.191 -0.9974  0.2812 -0.9585
18643SOL    HW258130   2.074   1.128   5.270  0.0305 -2.4000 -0.2160
18644SOL     OW58131   1.401   2.844   7.148 -0.0948 -0.0062  1.1686
18644SOL    HW158132   1.340   2.790   7.197 -0.9171  0.3608  0.5851
18644SOL    HW258133   1.377   2.830   7.056 -1.3728  2.4775  1.0385
18645SOL     OW58134   2.242   7.204   3.705 -0.0945 -0.5868 -0.7270
18645SOL    HW158135   2.254   7.294   3.673  0.5993 -0.1106  0.7537
18645SOL    HW258136   2.331   7.167   3.706 -0.2889 -1.0605 -0.6714
18646SOL     OW58137   0.152   4.246   8.135 -0.7552  0.7014  0.4465
18646SOL    HW158138   0.145   4.321   8.195 -0.6150  2.5119 -1.6637
18646SOL    HW258139   0.061   4.222   8.117 -0.8551  1.3263  0.0569
18647SOL     OW58140   1.662   0.561   2.344 -0.0572  0.9727 -0.1233
18647SOL    HW158141   1.644   0.654   2.359  0.5432  1.4382 -1.9294
18647SOL    HW258142   1.696   0.529   2.427 -0.4471  2.3154  0.5888
18648SOL     OW58143   8.856   8.988   4.498 -0.2505 -0.8030  0.2245
18648SOL    HW158144   8.855   8.929   4.423 -0.3497 -0.8692  0.2760
18648SOL    HW258145   8.763   8.998   4.521 -0.1596 -1.9167  1.2195
18649SOL     OW58146   6.611   9.054   8.764 -0.1080 -0.5096  0.3463
18649SOL    HW158147   6.705   9.048   8.785  0.6671  0.1432 -2.4965
18649SOL    HW258148   6.604   9.018   8.676 -1.9538  2.3406 -0.8128
18650SOL     OW58149   3.411   4.078   0.266  0.0247  0.1039 -0.4956
18650SOL    HW158150   3.381   4.133   0.193  1.8489  1.1423 -0.5372
18650SOL    HW258151   3.471   4.134   0.314  1.0919 -1.5217  0.1378
18651SOL     OW58152   4.391   6.845   7.461  0.6939 -0.2345  0.2633
18651SOL    HW158153   4.315   6.859   7.406  0.9618 -0.0559 -0.0658
18651SOL    HW258154   4.355   6.830   7.548  0.3340  1.5282  0.4609
18652SOL     OW58155   8.707   0.501   3.573 -0.2768  0.2539  0.2521
18652SOL    HW158156   8.680   0.534   3.659  1.4129 -0.8155  1.2635
18652SOL    HW258157   8.654   0.550   3.511 -0.4549  2.2107  1.8224
18653SOL     OW58158   1.610   2.200   8.674  0.0774 -0.3449  0.5559
18653SOL    HW158159   1.687   2.165   8.719  1.9925  1.9549 -0.6527
18653SOL    HW258160   1.553   2.230   8.745  0.2362 -2.1543  1.4867
18654SOL     OW58161   8.944   4.645   0.098  0.0747  0.2502  0.1868
18654SOL    HW158162   8.892   4.691   0.164 -0.6358 -0.7051  0.3207
18654SOL    HW258163   8.908   4.556   0.098 -1.3180  0.6762 -2.8797
18655SOL     OW58164   6.605   5.934   5.252 -0.0087  0.2153  0.2633
18655SOL    HW158165   6.589   5.983   5.333 -0.7513  0.7498 -0.1897
18655SOL    HW258166   6.549   5.857   5.259 -0.8037  0.7397 -0.1444
18656SOL     OW58167   0.461   5.421   3.926  0.1372  0.2744 -0.2975
18656SOL    HW158168   0.492   5.504   3.890  0.5027  0.4080  0.3121
18656SOL    HW258169   0.531   5.393   3.985 -0.2965 -0.1175  0.0346
18657SOL     OW58170   3.113   0.764   0.608  0.3795  0.6790 -0.1268
18657SOL    HW158171   3.077   0.853   0.600 -1.6180 -0.0161  0.3454
18657SOL    HW258172   3.107   0.728   0.520 -1.1680  0.2387  0.1130
18658SOL     OW58173   7.498   4.189   7.195  0.3734 -0.4820  0.0842
18658SOL    HW158174   7.536   4.172   7.281 -0.7399 -1.2790  0.4459
18658SOL    HW258175   7.437   4.117   7.181 -1.5587  1.1182 -0.1311
18659SOL     OW58176   5.895   2.639   9.309  0.2588 -0.4601  0.2165
18659SOL    HW158177   5.856   2.659   9.395  0.7572 -0.0854  0.3605
18659SOL    HW258178   5.951   2.563   9.326 -2.0518 -2.4388 -0.4419
18660SOL     OW58179   5.769   7.921   4.921 -0.0834 -0.0708  0.0904
18660SOL    HW158180   5.778   7.887   5.010  0.9368  0.6497  0.2794
18660SOL    HW258181   5.676   7.911   4.901 -0.5307  0.6912  1.6399
18661SOL     OW58182   6.977   1.783   6.502  0.1683 -0.1661  0.2125
18661SOL    HW158183   6.947   1.840   6.573  1.0220  1.0834 -0.3785
18661SOL    HW258184   7.067   1.760   6.525 -0.2766 -1.6058  0.6152
18662SOL     OW58185   7.091   4.747   7.923  0.4275 -0.1132  0.2554
18662SOL    HW158186   7.178   4.707   7.921  0.2707 -0.4294 -0.4185
18662SOL    HW258187   7.095   4.818   7.858  0.3098  0.1398  0.5213
18663SOL     OW58188   9.544   6.830   4.238  0.3278 -0.1242  0.4148
18663SOL    HW158189   9.581   6.918   4.237 -0.4623  0.2422 -2.1203
18663SOL    HW258190   9.456   6.841   4.203  0.5046 -2.0117 -0.7365
18664SOL     OW58191   6.753   0.825   8.576 -0.1556 -0.1067 -0.1581
18664SOL    HW158192   6.848   0.834   8.568  0.0583 -0.2999  1.5834
18664SOL    HW258193   6.726   0.901   8.628 -0.9198 -0.1764 -0.4384
18665SOL     OW58194   0.903   0.920   7.324 -0.1300  0.2899  0.0893
18665SOL    HW158195   0.843   0.933   7.250  1.9302  1.1609 -1.5239
18665SOL    HW258196   0.892   0.997   7.379 -0.6236  0.3293 -0.0591
18666SOL     OW58197   6.955   2.712   0.322  0.3945  0.3358  0.5931
18666SOL    HW158198   6.957   2.750   0.234  0.6041 -0.7029  0.1351
18666SOL    HW258199   7.006   2.772   0.375 -2.1376  2.6148  0.6950
18667SOL     OW58200   6.927   9.256   2.936  0.1199  0.4030 -0.2688
18667SOL    HW158201   6.875   9.335   2.922  0.1232  0.1738 -1.7009
18667SOL    HW258202   7.018   9.288   2.937  0.0587  0.5781  0.5250
18668SOL     OW58203   1.366   8.297   2.677 -0.5753 -0.3418  1.0248
18668SOL    HW158204   1.276   8.326   2.693 -0.6846 -0.1462  0.0713
18668SOL    HW258205   1.402   8.363   2.618 -0.1686 -1.0550  0.4754
18669SOL     OW58206   7.402   6.578   6.287 -0.3178 -0.2151 -0.3826
18669SOL    HW158207   7.327   6.614   6.240 -0.8522  1.3718  1.5254
18669SOL    HW258208   7.378   6.488   6.306 -0.4023 -0.6705 -2.3790
18670SOL     OW58209   7.801   7.636   6.954 -0.4769 -0.3976 -0.3859
18670SOL    HW158210   7.886   7.613   6.916 -0.2767 -1.2192  0.5104
18670SOL    HW258211   7.755   7.684   6.885  0.8531  0.3884 -0.7657
18671SOL     OW58212   6.650   9.558   6.147  0.2210  0.0807  0.2406
18671SOL    HW158213   6.631   9.645   6.183 -1.7986 -0.1755 -0.1329
18671SOL    HW258214   6.585   9.500   6.187  0.5441 -0.9751 -0.7128
18672SOL     OW58215   4.922   3.179   9.285 -0.0016 -0.3147  0.0379
18672SOL    HW158216   4.923   3.090   9.251 -1.0991 -0.8077  1.2268
18672SOL    HW258217   4.874   3.173   9.367  1.0558  1.1431  0.8145
18673SOL     OW58218   1.497   8.173   2.915 -0.2424  0.4092  0.0488
18673SOL    HW158219   1.481   8.219   2.833  0.9462 -0.3164 -0.6144
18673SOL    HW258220   1.422   8.197   2.971 -0.1656  2.3402 -0.5890
18674SOL     OW58221   4.421   9.412   4.357  0.2550 -0.4788 -0.0376
18674SOL    HW158222   4.333   9.416   4.320  0.0001 -1.6381  0.4083
18674SOL    HW258223   4.428   9.491   4.410  0.7964  1.4773 -2.8111
18675SOL     OW58224   7.634   2.669   5.482  0.7773  0.0391 -0.1995
18675SOL    HW158225   7.725   2.639   5.477  0.8899  0.0243  1.4258
18675SOL    HW258226   7.634   2.735   5.551 -0.5950 -0.6138  0.4751
18676SOL     OW58227   0.168   3.604   9.276 -0.4732 -0.7228  0.4907
18676SOL    HW158228   0.107   3.553   9.224 -1.9940  1.6047 -0.1193
18676SOL    HW258229   0.255   3.572   9.249 -1.3022 -3.6913  0.9673
18677SOL     OW58230   6.660   8.343   6.529 -0.6314 -0.4238 -0.4383
18677SOL    HW158231   6.741   8.342   6.580 -1.0228 -2.0403  0.1825
18677SOL    HW258232   6.654   8.433   6.496  0.3152  0.2927  1.2539
18678SOL     OW58233   2.234   2.895   4.068 -0.1124  0.6278 -0.3098
18678SOL    HW158234   2.263   2.959   4.133 -2.1890  1.3041  0.0015
18678SOL    HW258235   2.269   2.929   3.985 -0.5928  1.8090 -0.0503
18679SOL     OW58236   0.790   3.344   5.962  0.3918  0.3298 -0.2920
18679SOL    HW158237   0.746   3.265   5.995 -1.7175  1.3248 -0.5555
18679SOL    HW258238   0.772   3.411   6.027  1.8813  0.7160 -0.2376
18680SOL     OW58239   8.736   5.183   0.300 -0.3911  0.6388 -0.2882
18680SOL    HW158240   8.827   5.162   0.279  0.0234 -0.6442  2.3247
18680SOL    HW258241   8.739   5.272   0.336 -0.4678  1.2138 -1.6387
18681SOL     OW58242   7.775   4.899   5.811  0.3398 -0.5209 -0.2746
18681SOL    HW158243   7.774   4.821   5.755  0.8511 -0.5668 -0.2262
18681SOL    HW258244   7.750   4.971   5.753 -0.6168 -0.7936 -0.2039
18682SOL     OW58245   9.515   0.485   2.413 -0.0138  0.1290 -0.2429
18682SOL    HW158246   9.434   0.436   2.397  0.7959 -0.5210 -2.7899
18682SOL    HW258247   9.573   0.422   2.456 -0.1598 -0.0320 -0.2808
18683SOL     OW58248   5.544   5.587   6.939  0.2485 -0.2487  0.0098
18683SOL    HW158249   5.509   5.502   6.911 -0.6654  0.1669 -0.1350
18683SOL    HW258250   5.490   5.612   7.014  1.5079 -0.5001  1.0363
18684SOL     OW58251   7.496   2.705   1.627  0.0564 -0.5233 -0.1124
18684SOL    HW158252   7.566   2.646   1.602  0.0749 -0.5247 -0.0587
18684SOL    HW258253   7.457   2.665   1.704  0.8276  0.1244  0.6385
18685SOL     OW58254   8.986   9.460   2.643  0.3170 -0.1030 -0.1768
18685SOL    HW158255   8.928   9.401   2.595 -0.2768 -0.1094  0.5269
18685SOL    HW258256   8.980   9.543   2.597  2.3719 -0.9522 -2.1348
18686SOL     OW58257   4.215   4.063   3.119 -0.2859 -0.0664  0.5361
18686SOL    HW158258   4.208   3.974   3.154  0.1249  0.3930  1.8649
18686SOL    HW258259   4.308   4.084   3.128 -0.7397  1.3763  2.6333
18687SOL     OW58260   3.597   4.278   8.490  0.0832 -0.0043  0.5303
18687SOL    HW158261   3.637   4.326   8.418 -0.3899 -0.6229 -0.1559
18687SOL    HW258262   3.638   4.192   8.487 -0.8928 -0.4667  0.1575
18688SOL     OW58263   1.277   9.063   3.273 -0.4192 -0.2144 -0.1856
18688SOL    HW158264   1.211   9.083   3.340  0.5537  1.9204  0.2387
18688SOL    HW258265   1.228   9.021   3.203 -2.2998  1.3708  0.0602
18689SOL     OW58266   6.556   0.997   5.549 -0.0783 -0.1592 -0.5937
18689SOL    HW158267   6.590   0.963   5.466  0.4319  0.2736 -0.5646
18689SOL    HW258268   6.462   1.004   5.535  0.0341  0.1564 -1.2314
18690SOL     OW58269   4.943   0.733   6.942 -0.3473  0.2670  0.1266
18690SOL    HW158270   4.900   0.675   6.880  0.5691  0.0747 -0.3412
18690SOL    HW258271   4.984   0.675   7.006 -1.0371  0.4573  0.7635
18691SOL     OW58272   8.500   0.080   9.473 -0.1154 -0.1252  0.3447
18691SOL    HW158273   8.556   0.148   9.437 -1.5828  1.0046  0.1117
18691SOL    HW258274   8.489   0.017   9.402 -0.7653  0.6838 -0.2845
18692SOL     OW58275   4.865   6.061   1.693 -0.4067  0.5371 -0.4970
18692SOL    HW158276   4.940   6.005   1.674 -0.6620 -0.4650  1.2584
18692SOL    HW258277   4.897   6.121   1.761 -0.9129  0.7689 -0.4634
18693SOL     OW58278   3.220   0.459   6.864  0.0171  0.5133 -0.2901
18693SOL    HW158279   3.262   0.372   6.858  1.4104  1.0618  0.9273
18693SOL    HW258280   3.291   0.520   6.845 -0.3630  1.4609  1.2195
18694SOL     OW58281   0.399   8.153   2.677 -0.0968 -0.4024  0.2792
18694SOL    HW158282   0.457   8.164   2.602  0.2689 -0.0471  0.6078
18694SOL    HW258283   0.311   8.150   2.640  0.1587 -1.4802 -0.2735
18695SOL     OW58284   4.248   4.199   5.234 -0.4643 -0.3671  0.1794
18695SOL    HW158285   4.192   4.272   5.259  1.2887  0.7775  0.9330
18695SOL    HW258286   4.323   4.205   5.293  1.1407 -0.9592 -1.6922
18696SOL     OW58287   7.438   8.098   9.559  0.2028  0.1407  0.1808
18696SOL    HW158288   7.451   8.148   9.478 -2.0932 -0.3163 -0.5376
18696SOL    HW258289   7.521   8.107   9.606  1.3252  1.0845 -1.8479
18697SOL     OW58290   8.375   4.175   7.199 -0.1909  0.2030  0.0500
18697SOL    HW158291   8.444   4.180   7.133  0.6372  0.2064  0.8954
18697SOL    HW258292   8.338   4.087   7.190 -1.1763  0.7382 -1.4670
18698SOL     OW58293   4.626   4.358   9.102 -0.4649 -0.3765 -0.1361
18698SOL    HW158294   4.632   4.346   9.008 -0.5513 -0.7440 -0.0972
18698SOL    HW258295   4.717   4.368   9.131 -0.3574 -1.2527 -0.1388
18699SOL     OW58296   6.822   8.864   2.533 -0.5859  0.3463 -0.3066
18699SOL    HW158297   6.831   8.937   2.594 -1.7662 -1.1631  1.8232
18699SOL    HW258298   6.781   8.794   2.585 -1.2539 -1.2051 -2.7310
18700SOL     OW58299   4.387   0.847   0.467  0.7091  0.1372 -0.2653
18700SOL    HW158300   4.379   0.895   0.385  0.1822 -1.1158 -0.9879
18700SOL    HW258301   4.463   0.886   0.510  1.1663  0.6564 -1.4690
18701SOL     OW58302   5.206   3.119   5.820 -0.5353  0.0650  0.1559
18701SOL    HW158303   5.186   3.201   5.776  0.2625 -0.8032 -1.9537
18701SOL    HW258304   5.121   3.082   5.843 -0.8909  2.1536  2.6214
18702SOL     OW58305   4.509   4.076   8.777  0.3569 -0.1204 -0.3518
18702SOL    HW158306   4.425   4.122   8.788  0.2057  0.0122 -1.8048
18702SOL    HW258307   4.575   4.142   8.798  0.1027  0.1896 -0.5058
18703SOL     OW58308   3.440   7.292   0.454  0.0704 -0.3061 -0.4233
18703SOL    HW158309   3.463   7.279   0.361 -1.7308  0.3011 -0.9834
18703SOL    HW258310   3.477   7.215   0.498  0.2927 -0.9969 -1.7586
18704SOL     OW58311   2.488   4.870   2.260 -0.7048  0.4907  0.5350
18704SOL    HW158312   2.442   4.822   2.191  0.0816 -1.1001  1.0794
18704SOL    HW258313   2.498   4.807   2.331  3.3769  0.2825  0.0074
18705SOL     OW58314   2.608   6.729   3.299 -0.4355  0.2614  0.0919
18705SOL    HW158315   2.556   6.714   3.378  0.2430  1.0857  0.7184
18705SOL    HW258316   2.693   6.688   3.318 -0.6994 -0.7140 -0.7568
18706SOL     OW58317   1.916   1.557   0.145  0.2549  0.5530 -0.5105
18706SOL    HW158318   1.866   1.633   0.176 -1.0754 -0.9669  1.3250
18706SOL    HW258319   2.007   1.585   0.149 -0.2234  2.1697 -0.2090
18707SOL     OW58320   3.119   4.784   2.752  0.2857  0.0665  0.4340
18707SOL    HW158321   3.144   4.858   2.696 -1.0401  0.5060  0.3699
18707SOL    HW258322   3.128   4.818   2.841  3.5547 -1.0061  0.6399
18708SOL     OW58323   1.987   6.653   4.285 -0.1286 -0.3793  0.3072
18708SOL    HW158324   2.057   6.615   4.338 -0.6106 -0.8815  0.5953
18708SOL    HW258325   1.907   6.637   4.335 -0.2827  1.7570  0.8559
18709SOL     OW58326   6.368   1.688   4.309 -0.8351 -0.5718 -0.7928
18709SOL    HW158327   6.423   1.766   4.307 -0.7747 -0.4684  1.4688
18709SOL    HW258328   6.429   1.616   4.320 -1.0275 -0.5761  0.4431
18710SOL     OW58329   9.173   5.989   5.521 -0.6122  0.0636  0.4931
18710SOL    HW158330   9.171   6.000   5.426  0.1367 -0.2944  0.4273
18710SOL    HW258331   9.263   6.007   5.546 -0.4573 -1.1971  0.9551
18711SOL     OW58332   6.046   4.014   0.350  0.3566 -0.7151  0.3796
18711SOL    HW158333   6.093   4.089   0.311  0.1389 -0.9280 -0.3130
18711SOL    HW258334   5.968   4.053   0.389  0.5363 -0.5037  0.5315
18712SOL     OW58335   5.368   8.699   2.713 -0.1492  0.9416 -0.2901
18712SOL    HW158336   5.449   8.706   2.763  0.8718  0.0499 -1.7398
18712SOL    HW258337   5.386   8.743   2.630 -0.2247 -1.3606 -1.6362
18713SOL     OW58338   4.918   3.036   2.447  0.3423  0.7525 -0.1488
18713SOL    HW158339   4.986   3.042   2.514 -0.0707 -1.3238  0.5266
18713SOL    HW258340   4.952   3.087   2.374  2.2310  0.4853  0.4902
18714SOL     OW58341   8.378   8.590   3.217 -0.5336 -0.1760  0.4602
18714SOL    HW158342   8.425   8.566   3.137 -0.3223 -0.1344  0.5708
18714SOL    HW258343   8.446   8.621   3.276 -0.7628  0.3889  0.4380
18715SOL     OW58344   2.817   7.369   8.089 -0.1451  0.2308 -0.2607
18715SOL    HW158345   2.812   7.377   8.185 -0.7504  0.4263 -0.3058
18715SOL    HW258346   2.896   7.417   8.065  0.6355 -0.7596  0.2477
18716SOL     OW58347   7.382   3.410   0.402 -0.1423  0.8392 -0.0530
18716SOL    HW158348   7.456   3.387   0.458  0.9931  1.5887 -1.1932
18716SOL    HW258349   7.321   3.454   0.460 -0.5712 -1.3996  1.3130
18717SOL     OW58350   5.834   9.037   2.166  0.4281 -0.6017  0.0440
18717SOL    HW158351   5.835   9.076   2.079 -1.2685 -0.8274 -0.1252
18717SOL    HW258352   5.834   8.942   2.150 -0.7565 -0.6538  0.2171
18718SOL     OW58353   0.983   1.170   1.759 -0.2982 -0.1452 -0.0531
18718SOL    HW158354   0.906   1.214   1.796 -0.9225 -0.6141 -0.7654
18718SOL    HW258355   1.014   1.229   1.690 -0.3724 -0.2269 -0.1569
18719SOL     OW58356   1.239   6.639   9.267  0.1919  0.1304  0.3080
18719SOL    HW158357   1.278   6.674   9.187  0.4228 -0.2169  0.2708
18719SOL    HW258358   1.285   6.557   9.283 -1.9912 -1.4026 -0.9252
18720SOL     OW58359   7.926   7.865   3.194 -0.1620  0.1093 -0.1178
18720SOL    HW158360   7.914   7.949   3.237 -0.3758  0.6333 -1.1587
18720SOL    HW258361   7.842   7.820   3.205 -0.0966  0.0931  0.3115
18721SOL     OW58362   8.475   3.340   3.339  0.7426  0.6199  0.5145
18721SOL    HW158363   8.445   3.283   3.269  1.3985 -1.0113  1.5011
18721SOL    HW258364   8.456   3.428   3.308 -0.7067 -0.1350 -0.8815
18722SOL     OW58365   2.535   0.147   6.033 -0.1302  0.3375  0.0407
18722SOL    HW158366   2.515   0.054   6.035 -1.5547  0.6204 -0.0456
18722SOL    HW258367   2.547   0.171   6.125 -0.4553  0.2083  0.1180
18723SOL     OW58368   4.854   5.435   3.274 -0.0342  0.3652  0.0450
18723SOL    HW158369   4.861   5.455   3.180 -0.1619  1.5893  0.2787
18723SOL    HW258370   4.856   5.521   3.316  0.3993 -0.1949  1.1935
18724SOL     OW58371   7.975   3.546   7.317  0.2620  0.2892 -0.4046
18724SOL    HW158372   7.931   3.538   7.401  1.2929  0.5702  0.1783
18724SOL    HW258373   8.062   3.581   7.338  1.6977 -2.4219 -1.2310
18725SOL     OW58374   5.513   7.566   7.614 -0.1896 -0.1087 -0.3947
18725SOL    HW158375   5.459   7.623   7.561  0.8358  0.5565 -0.7411
18725SOL    HW258376   5.522   7.612   7.698 -1.7427 -1.1196  0.3758
18726SOL     OW58377   6.121   2.954   8.677 -0.5874  0.8962 -0.0301
18726SOL    HW158378   6.041   2.990   8.716 -0.9691  0.8443 -0.7375
18726SOL    HW258379   6.089   2.896   8.608 -0.0374 -1.6637  1.7353
18727SOL     OW58380   8.216   7.078   9.315 -0.0191 -0.2525 -0.1172
18727SOL    HW158381   8.180   7.144   9.374 -0.6700 -1.1231  0.4861
18727SOL    HW258382   8.270   7.128   9.254 -0.7355  0.8681  0.1304
18728SOL     OW58383   8.497   9.005   1.294  0.3078 -0.0611 -0.2163
18728SOL    HW158384   8.402   9.003   1.303  0.3196 -1.3702 -0.0818
18728SOL    HW258385   8.513   8.994   1.200  0.3169 -0.6547 -0.1532
18729SOL     OW58386   7.556   6.899   0.398 -0.3044 -0.2801 -0.7325
18729SOL    HW158387   7.615   6.824   0.390  2.7162  1.8872 -0.3225
18729SOL    HW258388   7.571   6.950   0.318 -1.6360  0.3678 -0.5979
18730SOL     OW58389   1.747   3.387   8.078  0.6747 -0.1533 -0.3626
18730SOL    HW158390   1.720   3.478   8.092  2.0012  0.4750 -1.5313
18730SOL    HW258391   1.688   3.354   8.010  0.0283 -0.2627  0.2444
18731SOL     OW58392   4.667   4.378   8.519 -0.1596 -0.1002  0.0346
18731SOL    HW158393   4.755   4.341   8.508 -0.4693 -1.2248  1.0421
18731SOL    HW258394   4.678   4.472   8.503  0.8684 -0.4449 -1.5938
18732SOL     OW58395   1.476   9.327   8.273 -0.1688 -0.0998 -0.3414
18732SOL    HW158396   1.417   9.344   8.347  0.0533 -2.7779  0.5397
18732SOL    HW258397   1.534   9.403   8.271 -1.1908  0.7809  1.2304
18733SOL     OW58398   3.085   3.675   3.375  0.7502 -0.6686  0.2285
18733SOL    HW158399   2.997   3.645   3.353 -0.0107  0.6162  1.3343
18733SOL    HW258400   3.114   3.615   3.444 -0.8285  1.0410  2.5466
18734SOL     OW58401   2.784   0.409   4.124 -0.0547 -0.4466  0.2434
18734SOL    HW158402   2.793   0.415   4.219  0.5867  0.4945  0.1302
18734SOL    HW258403   2.871   0.386   4.093 -0.2923 -0.8900 -0.1228
18735SOL     OW58404   5.437   8.296   6.797  0.4907 -0.3114 -0.4361
18735SOL    HW158405   5.507   8.331   6.851 -0.7633  1.8422 -0.0294
18735SOL    HW258406   5.363   8.286   6.857  0.4655 -2.8233 -0.7825
18736SOL     OW58407   3.512   7.470   7.498 -0.5204  0.5634 -0.1491
18736SOL    HW158408   3.501   7.483   7.404  0.1717 -0.1825 -0.3499
18736SOL    HW258409   3.423   7.462   7.533 -0.7886  1.2049 -0.6814
18737SOL     OW58410   5.584   0.075   4.979  0.1127  0.0624  0.2012
18737SOL    HW158411   5.556   0.039   5.063 -0.7453  0.1518 -0.0435
18737SOL    HW258412   5.568   0.169   4.987  0.7736  0.1780  0.2220
18738SOL     OW58413   3.136   1.949   4.115 -0.5409  0.3805  0.3277
18738SOL    HW158414   3.141   2.035   4.158 -1.8971  1.8186 -2.1537
18738SOL    HW258415   3.049   1.947   4.076  0.1381 -1.3427 -1.2181
18739SOL     OW58416   8.400   9.423   1.035 -0.1290 -0.2784  0.2824
18739SOL    HW158417   8.364   9.340   1.004 -1.8933  0.4371  0.3027
18739SOL    HW258418   8.324   9.475   1.059  0.9065  1.4893 -0.0383
18740SOL     OW58419   6.747   7.058   4.174 -0.1473  0.3400  0.5010
18740SOL    HW158420   6.829   7.036   4.131 -1.3490 -1.3915 -1.0688
18740SOL    HW258421   6.721   7.142   4.136  0.8798  0.9361  1.0662
18741SOL     OW58422   0.814   8.965   6.088  0.6099 -0.3835  0.2450
18741SOL    HW158423   0.859   8.995   6.008 -0.4471 -0.5520 -0.4352
18741SOL    HW258424   0.885   8.936   6.145  1.4852  0.8954 -0.1294
18742SOL     OW58425   7.483   4.761   3.776  0.2414 -0.0049 -0.4041
18742SOL    HW158426   7.526   4.798   3.852  0.4033 -1.4090  0.2111
18742SOL    HW258427   7.491   4.667   3.787 -2.5593 -0.3424 -0.5057
18743SOL     OW58428   3.937   6.159   2.838  0.2055  0.3758  0.4105
18743SOL    HW158429   3.866   6.152   2.774  0.4964  0.0875  0.1130
18743SOL    HW258430   3.989   6.233   2.808  2.0318 -1.4947 -1.4366
18744SOL     OW58431   9.339   6.671   4.895 -0.1994 -0.4701 -0.1875
18744SOL    HW158432   9.417   6.711   4.857  1.3025 -1.5853  1.5275
18744SOL    HW258433   9.309   6.735   4.960 -0.6044 -0.1342 -0.6979
18745SOL     OW58434   3.942   5.555   4.870  1.0161  0.8692  0.2192
18745SOL    HW158435   3.928   5.461   4.877  0.5131  0.9555  0.4124
18745SOL    HW258436   3.856   5.593   4.885  1.2814  1.3739  0.4825
18746SOL     OW58437   9.542   7.046   6.694  0.1446 -0.0763 -0.8564
18746SOL    HW158438   9.537   7.139   6.716  0.4549 -0.1137 -0.6142
18746SOL    HW258439   9.486   7.003   6.759  1.8415 -0.2872  0.5418
18747SOL     OW58440   2.780   5.577   6.998  0.8577  1.2246 -0.7712
18747SOL    HW158441   2.839   5.512   6.961 -0.4050  0.1341 -0.9318
18747SOL    HW258442   2.692   5.550   6.970  0.1611  2.1842  0.3509
18748SOL     OW58443   7.347   4.247   1.581 -0.3513  0.3188 -0.0837
18748SOL    HW158444   7.395   4.165   1.590  1.5902  1.2146 -1.4404
18748SOL    HW258445   7.377   4.283   1.497 -2.3221  1.6747 -0.2622
18749SOL     OW58446   7.448   1.017   3.126 -0.2372 -0.3764  0.1728
18749SOL    HW158447   7.447   1.020   3.221 -0.1174  0.2825  0.1553
18749SOL    HW258448   7.368   1.062   3.099  0.1616  0.1980 -0.0528
18750SOL     OW58449   5.050   5.810   5.276 -0.1162 -0.0994 -0.3306
18750SOL    HW158450   5.050   5.717   5.253 -0.1804  0.3694 -2.5254
18750SOL    HW258451   4.957   5.833   5.284 -0.1295 -0.1083 -0.4456
18751SOL     OW58452   8.969   6.890   5.300 -0.2840 -0.3188  0.0942
18751SOL    HW158453   9.023   6.920   5.227 -1.7999  1.5828 -0.3295
18751SOL    HW258454   8.883   6.875   5.261 -0.6830 -1.0174  1.1861
18752SOL     OW58455   5.461   2.274   6.236 -0.2891  0.6158  0.1343
18752SOL    HW158456   5.375   2.291   6.274 -1.5215 -0.4060 -2.0526
18752SOL    HW258457   5.515   2.347   6.267 -1.3142  0.1979  3.2572
18753SOL     OW58458   6.539   5.137   9.113 -0.4921 -0.0110  0.3228
18753SOL    HW158459   6.610   5.077   9.091 -0.5746  0.0256 -0.0600
18753SOL    HW258460   6.558   5.166   9.202  0.4895  0.7211 -0.1061
18754SOL     OW58461   1.125   7.617   3.231  0.0362  0.9167  0.3932
18754SOL    HW158462   1.073   7.558   3.284 -1.6446  2.5914  0.7216
18754SOL    HW258463   1.100   7.597   3.141 -1.1896  1.6487  0.5426
18755SOL     OW58464   0.065   6.547   4.206 -0.1718 -0.4568 -0.4273
18755SOL    HW158465   0.059   6.483   4.276 -3.0534 -2.7754 -2.5750
18755SOL    HW258466   0.044   6.631   4.248  0.3932 -1.3731  1.8102
18756SOL     OW58467   6.549   4.348   5.386  0.1209 -0.8465 -0.1210
18756SOL    HW158468   6.463   4.309   5.370  0.4482 -2.0721  0.9273
18756SOL    HW258469   6.608   4.299   5.329  0.2678 -0.5993 -0.1833
18757SOL     OW58470   2.191   8.099   2.950 -0.1420  0.5162  0.3730
18757SOL    HW158471   2.207   8.028   2.888 -3.5439  1.0071 -1.3207
18757SOL    HW258472   2.190   8.178   2.897  2.6658  1.8711  2.0930
18758SOL     OW58473   1.574   0.340   8.318  0.3560  0.1730 -0.3565
18758SOL    HW158474   1.616   0.356   8.403 -0.8888  2.2886 -0.0659
18758SOL    HW258475   1.601   0.413   8.264  0.4650 -0.7246 -1.5467
18759SOL     OW58476   4.780   7.747   3.039  0.0263  0.3700 -0.4752
18759SOL    HW158477   4.720   7.734   2.965  2.0257 -2.6569 -1.7868
18759SOL    HW258478   4.736   7.707   3.114 -0.4303 -0.0716 -0.9717
18760SOL     OW58479   1.063   6.934   2.115  0.5119 -0.3806 -0.0675
18760SOL    HW158480   1.094   6.994   2.047  1.2482 -1.0006 -0.2914
18760SOL    HW258481   1.028   6.859   2.067 -0.2831 -0.2005  0.2139
18761SOL     OW58482   4.844   3.020   8.760  0.2643  0.1400  0.1991
18761SOL    HW158483   4.918   3.036   8.817  0.7470  1.1490 -0.6738
18761SOL    HW258484   4.809   3.107   8.740  0.7984 -0.0624 -1.8942
18762SOL     OW58485   7.317   3.717   1.625 -0.0299  0.0348  0.1433
18762SOL    HW158486   7.371   3.663   1.682 -0.0199 -0.7470 -0.5967
18762SOL    HW258487   7.379   3.772   1.576 -0.0539  0.9778  1.1197
18763SOL     OW58488   7.985   7.649   2.230 -0.4611  0.0381 -0.2099
18763SOL    HW158489   7.922   7.678   2.165 -0.5057 -1.0546 -0.6794
18763SOL    HW258490   7.982   7.554   2.226  1.4943 -0.0568 -0.5329
18764SOL     OW58491   2.085   4.933   3.481  0.1861 -0.6359  0.3257
18764SOL    HW158492   2.030   4.974   3.548  1.4430 -0.9617  1.6129
18764SOL    HW258493   2.169   4.919   3.525  1.2006 -0.4528 -1.4766
18765SOL     OW58494   1.209   4.411   0.634  0.0669 -0.1568  0.4874
18765SOL    HW158495   1.147   4.477   0.667  1.0064  1.3759 -0.6713
18765SOL    HW258496   1.293   4.436   0.673  0.1873 -1.6169  1.2346
18766SOL     OW58497   6.645   1.123   4.769 -0.2998 -0.6884  0.4948
18766SOL    HW158498   6.643   1.127   4.673  1.0257 -0.6145  0.4535
18766SOL    HW258499   6.563   1.080   4.792  0.1845 -2.4776 -0.7936
18767SOL     OW58500   4.807   6.067   3.113  0.3301  0.2728  1.0363
18767SOL    HW158501   4.828   6.023   3.030 -0.1525  1.7080  0.1171
18767SOL    HW258502   4.825   6.159   3.096 -0.6910  0.7105  2.2431
18768SOL     OW58503   6.881   1.642   3.910  0.3166 -0.7742  0.3069
18768SOL    HW158504   6.912   1.607   3.826 -0.4282 -1.4192  0.2872
18768SOL    HW258505   6.918   1.730   3.914 -0.0631 -0.5303 -0.9413
18769SOL     OW58506   3.055   3.063   4.282 -0.2908  0.2164  0.0033
18769SOL    HW158507   3.147   3.039   4.295 -0.5965 -1.5973 -0.8564
18769SOL    HW258508   3.006   2.987   4.312 -1.4013  0.2917 -1.4917
18770SOL     OW58509   7.856   1.806   1.221 -0.6562 -0.6053 -0.0889
18770SOL    HW158510   7.833   1.715   1.240 -1.4033 -0.7419 -1.5426
18770SOL    HW258511   7.835   1.818   1.129 -0.6335  1.0743  0.0875
18771SOL     OW58512   7.831   1.212   8.442  0.2847 -0.1088 -0.5977
18771SOL    HW158513   7.881   1.264   8.504 -1.2289  0.6914  0.0068
18771SOL    HW258514   7.859   1.122   8.457  0.7133  0.1986  0.4986
18772SOL     OW58515   3.993   1.404   7.592  0.3599  0.3274  0.2531
18772SOL    HW158516   3.962   1.466   7.526  1.3855 -1.4080 -2.0045
18772SOL    HW258517   3.938   1.326   7.579  0.6699 -0.1089  1.3864
18773SOL     OW58518   0.596   1.562   1.936 -0.2498 -0.1988  0.7360
18773SOL    HW158519   0.536   1.625   1.897  1.8512  1.5856  0.1455
18773SOL    HW258520   0.595   1.581   2.030  0.9356  1.3309  0.4799
18774SOL     OW58521   3.434   0.043   7.758  0.1783 -0.5707  0.3677
18774SOL    HW158522   3.363  -0.021   7.765  0.6124 -1.3443 -1.5944
18774SOL    HW258523   3.500   0.000   7.703  2.2717  0.0825  2.2514
18775SOL     OW58524   4.373   7.840   4.449 -0.1068 -0.0357 -0.1501
18775SOL    HW158525   4.298   7.881   4.405  1.0643  1.3690 -0.9284
18775SOL    HW258526   4.447   7.897   4.429  1.5973 -2.4104 -1.0572
18776SOL     OW58527   5.448   5.633   3.090  0.1621 -0.3148  0.6678
18776SOL    HW158528   5.376   5.579   3.059  0.1439 -0.9286  1.7538
18776SOL    HW258529   5.408   5.718   3.109  0.0172 -0.1941 -0.1111
18777SOL     OW58530   4.039   5.002   5.552 -0.5960 -0.2747  0.2445
18777SOL    HW158531   4.127   5.007   5.514  0.4114 -0.8721  2.3206
18777SOL    HW258532   4.046   5.052   5.634 -2.1276 -0.5413  0.5619
18778SOL     OW58533   8.565   6.433   5.554 -0.5237 -0.2966  0.1487
18778SOL    HW158534   8.616   6.354   5.538  0.8139  0.4534  0.5018
18778SOL    HW258535   8.522   6.451   5.471  0.1627 -0.7104 -0.3091
18779SOL     OW58536   5.277   6.371   7.407  0.3692 -0.0848 -0.3874
18779SOL    HW158537   5.340   6.325   7.461  1.6607  1.0961 -0.8454
18779SOL    HW258538   5.218   6.302   7.375 -0.0510 -0.9015  1.9291
18780SOL     OW58539   3.119   5.225   3.741 -0.1091  0.6723 -0.1224
18780SOL    HW158540   3.076   5.209   3.826 -1.0017 -0.8876 -0.8281
18780SOL    HW258541   3.189   5.161   3.737 -1.4572 -0.7989 -1.4654
18781SOL     OW58542   7.585   7.928   9.239  0.7169  0.0677 -0.0883
18781SOL    HW158543   7.579   7.879   9.321 -1.8300 -0.7673 -0.6510
18781SOL    HW258544   7.535   8.008   9.255 -1.5895 -1.0232 -1.3213
18782SOL     OW58545   0.204   0.919   1.534  0.1242  0.1965  0.0481
18782SOL    HW158546   0.186   0.890   1.445 -1.7983  0.8857  0.1690
18782SOL    HW258547   0.171   0.849   1.589  0.3226  0.2500  0.2342
18783SOL     OW58548   0.458   4.692   7.032 -0.1807 -0.4674 -0.1321
18783SOL    HW158549   0.552   4.707   7.028 -0.2010 -0.5526 -1.2292
18783SOL    HW258550   0.436   4.698   7.125  0.9768 -0.9224  0.1780
18784SOL     OW58551   9.046   3.359   0.262  0.7209 -0.3177 -0.2532
18784SOL    HW158552   9.051   3.287   0.325  1.2406 -1.3337 -1.4156
18784SOL    HW258553   8.990   3.326   0.191  1.8622 -0.0316 -1.3350
18785SOL     OW58554   9.134   0.607   0.115 -0.0750 -0.0289 -0.7776
18785SOL    HW158555   9.090   0.641   0.193 -0.0728  1.1251 -1.2615
18785SOL    HW258556   9.163   0.519   0.140 -0.6959  0.0532  0.2813
18786SOL     OW58557   2.990   5.111   7.743  0.2840 -0.3842  0.0905
18786SOL    HW158558   2.963   5.110   7.835  0.7393  0.7634  0.2536
18786SOL    HW258559   3.036   5.029   7.730  0.6738 -0.3219  1.0328
18787SOL     OW58560   1.220   4.557   6.091 -0.6822  0.0184 -0.5213
18787SOL    HW158561   1.239   4.463   6.102  0.0671  0.2795  0.6237
18787SOL    HW258562   1.202   4.588   6.180 -0.1452  1.1231 -0.7827
18788SOL     OW58563   5.051   3.944   7.481 -0.1717 -0.0907 -0.4956
18788SOL    HW158564   4.966   3.903   7.500 -0.4612  0.4095 -0.6961
18788SOL    HW258565   5.109   3.870   7.459 -0.8031 -0.3658 -1.2933
18789SOL     OW58566   4.437   6.283   7.565 -0.4486 -0.2654  0.3520
18789SOL    HW158567   4.452   6.203   7.515 -0.5175 -0.2736  0.3440
18789SOL    HW258568   4.342   6.295   7.562 -0.2726  1.2140 -1.8270
18790SOL     OW58569   0.839   4.699   0.510 -0.1525  0.2606  0.9260
18790SOL    HW158570   0.793   4.720   0.429 -2.1031  0.5945  2.0685
18790SOL    HW258571   0.923   4.744   0.502 -0.2180  0.1491 -0.9553
18791SOL     OW58572   6.349   4.988   2.617 -0.2907 -0.2593  0.2905
18791SOL    HW158573   6.442   5.010   2.608 -0.2889 -0.6202 -0.7011
18791SOL    HW258574   6.303   5.060   2.573 -0.5389  0.3590  1.5143
18792SOL     OW58575   2.115   6.734   5.915  0.4166 -0.2108  0.3930
18792SOL    HW158576   2.128   6.821   5.952 -1.4281  1.6807 -2.8928
18792SOL    HW258577   2.203   6.697   5.909  1.6568  2.6428 -0.6440
18793SOL     OW58578   5.316   8.545   5.333 -0.7335  0.4053 -0.1771
18793SOL    HW158579   5.221   8.546   5.348 -1.3173  1.2378 -3.2177
18793SOL    HW258580   5.332   8.461   5.290  0.2185 -0.3505  1.5462
18794SOL     OW58581   3.500   8.299   2.529 -0.7058 -0.2261  0.0814
18794SOL    HW158582   3.557   8.369   2.498 -0.3888 -1.2266 -1.6826
18794SOL    HW258583   3.412   8.335   2.522 -0.5103  0.1698 -0.3381
18795SOL     OW58584   5.827   1.385   3.226  0.2423 -0.2028 -0.2532
18795SOL    HW158585   5.806   1.475   3.252 -0.1719 -0.2827 -0.3051
18795SOL    HW258586   5.915   1.391   3.188  1.0475 -0.1490  1.5043
18796SOL     OW58587   7.272   4.934   4.805  0.0433  0.1573 -0.4420
18796SOL    HW158588   7.256   4.984   4.886  1.8935  2.6114 -1.4614
18796SOL    HW258589   7.204   4.964   4.745  0.1015  0.1479 -0.5121
18797SOL     OW58590   1.225   6.357   5.590 -0.1434  0.1459 -0.1167
18797SOL    HW158591   1.164   6.397   5.528 -0.7641  0.2570  0.5658
18797SOL    HW258592   1.276   6.430   5.624  1.0195 -0.0430 -1.3584
18798SOL     OW58593   0.386   0.928   2.400  0.1039  0.4452  0.4323
18798SOL    HW158594   0.477   0.955   2.384  0.2051 -0.6203 -0.9322
18798SOL    HW258595   0.335   1.008   2.386  0.6748  0.6564 -0.5209
18799SOL     OW58596   5.220   7.141   1.082  0.3660 -0.0306  0.5497
18799SOL    HW158597   5.307   7.143   1.042  0.8879  0.4509  1.6556
18799SOL    HW258598   5.206   7.230   1.114 -1.5933  0.5603 -1.7189
18800SOL     OW58599   2.665   4.961   3.423 -0.0795 -0.7560  0.6271
18800SOL    HW158600   2.596   4.895   3.435  0.5610 -1.2471  1.7254
18800SOL    HW258601   2.618   5.044   3.426 -0.9022 -1.1152 -0.7719
18801SOL     OW58602   9.441   4.205   8.391 -0.6176  0.9181 -0.2075
18801SOL    HW158603   9.464   4.210   8.484 -0.9757 -1.1043  0.0346
18801SOL    HW258604   9.466   4.290   8.355 -0.4788  1.7419  1.7379
18802SOL     OW58605   2.111   7.326   7.395  0.4545 -0.7188 -0.0819
18802SOL    HW158606   2.036   7.378   7.364 -0.9612 -2.1110  0.8668
18802SOL    HW258607   2.178   7.391   7.416 -0.5279  0.5826 -0.8000
18803SOL     OW58608   7.405   4.115   0.584  0.4633  0.1253  0.3005
18803SOL    HW158609   7.316   4.078   0.586  0.0798  1.0331  0.7276
18803SOL    HW258610   7.427   4.116   0.491  0.6125 -1.4287  0.2954
18804SOL     OW58611   5.711   9.427   2.937  0.0432  0.1231 -0.2388
18804SOL    HW158612   5.759   9.440   3.019  0.8964  1.6407 -0.9471
18804SOL    HW258613   5.636   9.374   2.962 -0.2623  1.3903  1.7239
18805SOL     OW58614   4.935   9.104   8.875 -0.0558  0.0743  0.7760
18805SOL    HW158615   4.897   9.019   8.853 -1.6466  0.9825 -0.1205
18805SOL    HW258616   4.945   9.148   8.791 -0.5542  1.3081  1.3448
18806SOL     OW58617   6.713   3.033   7.603  0.1487  0.1632 -0.2172
18806SOL    HW158618   6.750   2.993   7.525  1.5376 -2.2254  1.5178
18806SOL    HW258619   6.618   3.024   7.593  0.2772  0.3170 -1.7700
18807SOL     OW58620   1.131   5.801   1.263 -0.1516  0.1364 -0.5302
18807SOL    HW158621   1.165   5.823   1.350  0.9381 -1.3282 -0.5472
18807SOL    HW258622   1.188   5.850   1.203 -0.4738  0.6150 -0.4517
18808SOL     OW58623   5.340   0.100   1.644  0.0239  0.1914 -0.0245
18808SOL    HW158624   5.392   0.028   1.681  0.1194  0.3032  0.0569
18808SOL    HW258625   5.348   0.087   1.549  1.1220  0.8554 -0.0458
18809SOL     OW58626   1.530   4.416   6.199  0.1776  0.1800 -0.3785
18809SOL    HW158627   1.531   4.418   6.104  2.2717  1.6641 -0.4006
18809SOL    HW258628   1.591   4.347   6.223 -1.5802 -1.3290 -0.0420
18810SOL     OW58629   5.917   0.742   0.170  0.0559 -0.4524 -0.1029
18810SOL    HW158630   5.992   0.760   0.113 -0.3207 -0.0755 -0.4884
18810SOL    HW258631   5.863   0.681   0.119  0.4466 -1.2901  0.4676
18811SOL     OW58632   1.735   8.204   6.133  0.3995  0.7630  0.3570
18811SOL    HW158633   1.767   8.292   6.150 -1.2990  1.0250  2.6064
18811SOL    HW258634   1.792   8.147   6.183 -0.0251  0.8416  0.9419
18812SOL     OW58635   0.116   3.461   9.053 -0.1080 -0.0215 -0.6138
18812SOL    HW158636   0.090   3.372   9.033  0.3777 -0.0334 -1.2102
18812SOL    HW258637   0.182   3.483   8.987 -0.1452  0.7391 -0.4129
18813SOL     OW58638   6.905   8.744   7.149 -0.7572  0.2540  0.1006
18813SOL    HW158639   6.929   8.687   7.222 -1.9036 -0.5732 -0.1330
18813SOL    HW258640   6.967   8.816   7.154  0.0324 -0.4542  1.0842
18814SOL     OW58641   2.078   7.571   8.952  0.5545 -0.4129  0.0108
18814SOL    HW158642   2.132   7.598   8.877  0.4564 -1.2019 -0.3521
18814SOL    HW258643   2.007   7.635   8.955 -0.2802 -1.2147 -1.4983
18815SOL     OW58644   1.878   8.392   0.562  0.8370 -0.3383  0.1297
18815SOL    HW158645   1.914   8.375   0.474 -2.0960 -2.5357 -0.7992
18815SOL    HW258646   1.954   8.415   0.615  2.7635  1.0003 -2.9165
18816SOL     OW58647   7.673   0.575   2.242  0.4144  0.0706  0.3192
18816SOL    HW158648   7.768   0.578   2.239  0.5660 -2.8058 -0.2307
18816SOL    HW258649   7.651   0.482   2.246 -2.4703  0.3444 -3.5217
18817SOL     OW58650   1.343   5.138   2.321 -0.3940 -0.1005  0.2491
18817SOL    HW158651   1.313   5.076   2.387 -1.8373  0.5837  0.2719
18817SOL    HW258652   1.439   5.132   2.324 -0.4712 -1.1376  1.3642
18818SOL     OW58653   9.330   0.263   6.940 -0.2317  0.0066 -0.2792
18818SOL    HW158654   9.375   0.292   7.020  1.0567 -0.1755 -0.9028
18818SOL    HW258655   9.301   0.174   6.960 -0.2567  0.1003  0.1203
18819SOL     OW58656   2.874   3.488   3.405  0.0762  0.0579  0.4096
18819SOL    HW158657   2.949   3.440   3.441 -1.3432  0.1435  3.8662
18819SOL    HW258658   2.822   3.421   3.361  1.3997 -0.2645 -0.7269
18820SOL     OW58659   1.569   6.392   9.007  0.4845 -0.1104 -0.0252
18820SOL    HW158660   1.519   6.317   8.974 -0.7329  1.0038 -0.8363
18820SOL    HW258661   1.531   6.467   8.961  2.9037  0.8161 -0.6219
18821SOL     OW58662   1.001   7.554   6.423  0.2792  0.3260 -0.3973
18821SOL    HW158663   1.075   7.496   6.405 -0.4657 -0.1804 -2.0006
18821SOL    HW258664   1.029   7.640   6.393  0.4557  0.2692 -0.3941
18822SOL     OW58665   8.031   8.386   8.874 -0.2262 -0.6817 -0.5180
18822SOL    HW158666   7.959   8.383   8.811 -0.6459  1.2007 -0.1785
18822SOL    HW258667   8.110   8.392   8.820 -0.5056 -0.2130 -0.8773
18823SOL     OW58668   6.559   8.036   6.950  0.4822 -0.0284 -0.1196
18823SOL    HW158669   6.584   7.945   6.963 -0.8203 -0.4434 -0.3906
18823SOL    HW258670   6.470   8.032   6.914  1.6864  1.2079 -3.6853
18824SOL     OW58671   2.301   3.852   4.977  0.5278  0.0065  0.0637
18824SOL    HW158672   2.281   3.934   5.022  0.5962 -0.6969  1.4463
18824SOL    HW258673   2.396   3.853   4.966  0.4862  0.2855 -0.2990
18825SOL     OW58674   6.742   8.686   9.229  0.6785 -0.1201  0.8345
18825SOL    HW158675   6.723   8.701   9.137  0.3008 -0.8419  0.7903
18825SOL    HW258676   6.665   8.641   9.263  0.2190  1.3464  1.8347
18826SOL     OW58677   9.480   5.042   7.790  0.1295  0.4900 -0.2827
18826SOL    HW158678   9.539   5.085   7.853 -3.3612  0.2255  3.6145
18826SOL    HW258679   9.426   5.113   7.756 -1.8683  0.0621  1.7613
18827SOL     OW58680   3.103   9.543   2.513 -0.3139  0.5537 -0.1079
18827SOL    HW158681   3.067   9.455   2.501  0.3190  0.3894 -0.9116
18827SOL    HW258682   3.141   9.542   2.601  0.5164 -0.2816 -0.4619
18828SOL     OW58683   4.379   5.180   1.287  0.1731  0.1576 -0.5643
18828SOL    HW158684   4.440   5.109   1.268  0.5944  0.3025  0.2163
18828SOL    HW258685   4.296   5.153   1.246  0.3935 -0.6674 -0.4732
18829SOL     OW58686   0.557   1.697   7.767  0.6077 -0.6468 -0.2463
18829SOL    HW158687   0.522   1.631   7.826 -0.1792  0.8105  0.9829
18829SOL    HW258688   0.489   1.706   7.699  0.7564 -1.1306 -0.4675
18830SOL     OW58689   2.366   9.019   6.539  0.5893  0.1222  0.1192
18830SOL    HW158690   2.410   8.975   6.467 -1.0083  0.7716 -1.3231
18830SOL    HW258691   2.418   9.099   6.553  1.1009 -0.1719 -0.0606
18831SOL     OW58692   9.382   9.445   2.287  0.3398 -0.4602 -0.3242
18831SOL    HW158693   9.319   9.488   2.230  0.5023 -1.7014 -1.5078
18831SOL    HW258694   9.460   9.501   2.285  0.9223 -1.2296 -2.6639
18832SOL     OW58695   5.750   0.112   1.331 -0.2475  0.0470  0.4201
18832SOL    HW158696   5.662   0.146   1.351 -0.3435 -1.1042  2.1050
18832SOL    HW258697   5.734   0.025   1.294  0.1616  0.2150 -0.1630
18833SOL     OW58698   2.469   3.817   2.337  0.0216  0.1100  0.6557
18833SOL    HW158699   2.418   3.885   2.381 -1.0321 -0.5587  0.5252
18833SOL    HW258700   2.485   3.751   2.405  1.1933  0.5602  0.8282
18834SOL     OW58701   1.196   9.064   0.607  0.7022  0.9554  0.3348
18834SOL    HW158702   1.290   9.053   0.592  0.4502 -0.5887 -0.2994
18834SOL    HW258703   1.170   8.987   0.658 -0.5078  0.4807 -0.9305
18835SOL     OW58704   2.387   7.240   6.124 -0.1084 -0.0151  0.4823
18835SOL    HW158705   2.456   7.184   6.088  0.7385  0.9728  0.5145
18835SOL    HW258706   2.316   7.234   6.060  1.1932  1.3657 -1.2003
18836SOL     OW58707   5.673   4.381   0.014 -0.2595 -0.0909 -0.2341
18836SOL    HW158708   5.597   4.376   0.072  0.1436 -1.1170  0.2483
18836SOL    HW258709   5.648   4.442  -0.055 -0.7647  1.1639  1.0172
18837SOL     OW58710   2.607   2.967   2.367  0.2313 -0.0595  0.4381
18837SOL    HW158711   2.658   2.957   2.286 -0.0285  0.4378  0.2106
18837SOL    HW258712   2.547   3.039   2.349  0.2547  0.1354  1.1251
18838SOL     OW58713   0.804   0.835   3.984  0.3530  0.0600  0.3010
18838SOL    HW158714   0.809   0.769   3.915  0.2770  0.5655 -0.1934
18838SOL    HW258715   0.892   0.838   4.021  0.5649  0.2581 -0.2172
18839SOL     OW58716   0.506   0.707   2.171 -0.3462  0.3718 -0.2755
18839SOL    HW158717   0.458   0.788   2.153 -1.4217 -0.4396 -1.2210
18839SOL    HW258718   0.478   0.647   2.101  2.2367 -0.0794 -1.0145
18840SOL     OW58719   8.923   0.899   4.432  0.0728  0.3125 -0.6257
18840SOL    HW158720   8.880   0.833   4.378  0.1330 -0.8688  0.7410
18840SOL    HW258721   9.014   0.898   4.403 -0.0187  0.1239 -0.9104
18841SOL     OW58722   1.413   3.494   0.010 -0.8887 -0.1564  0.3187
18841SOL    HW158723   1.471   3.420   0.029 -1.5794 -1.0667 -0.9812
18841SOL    HW258724   1.365   3.508   0.092  0.2140 -0.2422  1.0053
18842SOL     OW58725   4.074   9.213   7.268  0.3759  0.4143  0.3470
18842SOL    HW158726   3.998   9.257   7.229  0.8870  0.7439 -0.3053
18842SOL    HW258727   4.106   9.155   7.199  1.2518  0.9512  0.2815
18843SOL     OW58728   8.766   1.137   2.108  0.0675 -0.0727 -0.0739
18843SOL    HW158729   8.816   1.203   2.061 -0.9963  1.0056  0.2575
18843SOL    HW258730   8.720   1.186   2.176 -0.9783 -1.1087 -0.0066
18844SOL     OW58731   3.793   0.159   1.009 -0.3654 -0.4751  0.5689
18844SOL    HW158732   3.717   0.217   1.012 -1.5481 -1.8560 -0.6641
18844SOL    HW258733   3.820   0.150   1.100 -3.4153 -2.0470  1.4528
18845SOL     OW58734   2.683   5.760   7.651 -0.4107  0.6552  0.0254
18845SOL    HW158735   2.731   5.813   7.588  0.7740  2.6803  2.4591
18845SOL    HW258736   2.703   5.799   7.736 -2.2850 -1.6323  1.6622
18846SOL     OW58737   9.335   3.958   1.017  0.6739 -0.8050 -0.7049
18846SOL    HW158738   9.336   3.957   0.921 -1.3937  0.2382 -0.8027
18846SOL    HW258739   9.254   3.912   1.040  1.5414 -1.7222  0.5863
18847SOL     OW58740   5.152   6.419   3.402  0.3408 -0.3174 -0.2109
18847SOL    HW158741   5.106   6.352   3.351  1.8136 -0.6907 -1.1023
18847SOL    HW258742   5.237   6.427   3.360  0.7147  1.1308  0.7406
18848SOL     OW58743   0.672   4.865   6.552  0.1739  0.1570 -0.2223
18848SOL    HW158744   0.722   4.869   6.471  0.3156  1.8473 -0.0949
18848SOL    HW258745   0.736   4.884   6.621 -0.6887  3.1849 -0.1182
18849SOL     OW58746   4.633   7.251   6.895  0.1997 -0.1536 -0.0265
18849SOL    HW158747   4.642   7.337   6.937  1.7282 -0.5079  0.4254
18849SOL    HW258748   4.641   7.188   6.967 -1.4507 -0.7025 -0.2690
18850SOL     OW58749   0.141   7.799   3.366 -0.2263  0.6078 -0.4106
18850SOL    HW158750   0.228   7.814   3.404 -0.5262  1.4239 -0.0360
18850SOL    HW258751   0.098   7.884   3.368 -1.5922 -0.0481  0.7930
18851SOL     OW58752   4.270   3.117   4.773  0.2080 -0.8543 -0.4688
18851SOL    HW158753   4.213   3.145   4.845  2.0935 -0.9341  1.1285
18851SOL    HW258754   4.307   3.034   4.802  0.9762 -0.9197 -1.5687
18852SOL     OW58755   3.374   3.991   6.035 -0.1743  0.0499  0.7802
18852SOL    HW158756   3.309   3.923   6.052 -0.6542 -0.5191 -2.6814
18852SOL    HW258757   3.452   3.943   6.007  0.0316  0.8497 -0.0629
18853SOL     OW58758   6.096   0.640   5.705 -0.6419  0.4252  0.2437
18853SOL    HW158759   6.117   0.640   5.612  0.1532  2.8792  0.3512
18853SOL    HW258760   6.062   0.727   5.722 -2.0099 -0.3923  2.0329
18854SOL     OW58761   8.049   0.878   1.314  0.1438 -0.1414  0.2857
18854SOL    HW158762   8.008   0.827   1.384  0.8856 -1.8090 -0.4160
18854SOL    HW258763   8.072   0.812   1.248  0.4220  1.2441 -1.0497
18855SOL     OW58764   2.541   3.574   2.054 -0.4268 -0.0990  0.3783
18855SOL    HW158765   2.538   3.632   2.130  0.0361 -1.0455  1.1327
18855SOL    HW258766   2.449   3.561   2.031 -0.5294  1.1931 -0.0168
18856SOL     OW58767   2.813   2.503   4.430 -0.1677 -0.0485  0.3510
18856SOL    HW158768   2.788   2.581   4.480  0.8604 -0.1713  1.0842
18856SOL    HW258769   2.852   2.445   4.495  1.2661 -0.1901 -0.5859
18857SOL     OW58770   8.831   6.098   4.960 -0.4121 -0.3185  0.5201
18857SOL    HW158771   8.823   6.008   4.929  2.8542 -0.3743 -0.5482
18857SOL    HW258772   8.819   6.152   4.882 -2.8189  0.2948  1.2300
18858SOL     OW58773   7.897   7.299   3.150  0.4568  1.1004  0.2637
18858SOL    HW158774   7.836   7.343   3.209  1.3787  1.2506  1.1218
18858SOL    HW258775   7.915   7.215   3.192  1.3826  1.3493  0.3695
18859SOL     OW58776   2.864   4.672   7.136 -0.1365  0.6974 -0.3432
18859SOL    HW158777   2.814   4.621   7.072 -0.4009  1.8559 -1.0717
18859SOL    HW258778   2.803   4.687   7.208  0.9476 -3.0764  1.6601
18860SOL     OW58779   0.728   7.032   7.573 -0.1671  0.8802 -0.1509
18860SOL    HW158780   0.785   7.028   7.495 -2.0672 -1.2205 -1.5549
18860SOL    HW258781   0.646   7.068   7.540 -0.9520  0.1254  0.9202
18861SOL     OW58782   6.378   9.179   8.480  0.2046 -0.0112 -0.0680
18861SOL    HW158783   6.311   9.235   8.441 -0.0025 -0.2253 -0.0171
18861SOL    HW258784   6.437   9.241   8.524 -0.5391  0.1115  0.7839
18862SOL     OW58785   1.300   9.452   1.998 -0.3416 -0.2049 -0.0032
18862SOL    HW158786   1.374   9.505   2.029 -1.1864  1.4436 -0.7101
18862SOL    HW258787   1.306   9.372   2.050  1.7832 -0.0219  0.1411
18863SOL     OW58788   9.302   9.514   4.392  0.3932  0.5431  0.6673
18863SOL    HW158789   9.389   9.491   4.361 -0.8398 -0.3948 -2.5268
18863SOL    HW258790   9.284   9.451   4.462  2.0776  0.4411  1.0282
18864SOL     OW58791   2.357   0.875   5.452  0.5900 -0.4269  0.2466
18864SOL    HW158792   2.439   0.828   5.468  0.8696 -0.1421 -0.2906
18864SOL    HW258793   2.358   0.892   5.358 -0.7614 -1.6408 -0.0113
18865SOL     OW58794   2.558   4.727   6.214 -0.2394  0.0440 -0.0623
18865SOL    HW158795   2.562   4.800   6.275 -1.9372  1.2461 -1.2877
18865SOL    HW258796   2.466   4.699   6.216  0.3839 -2.1840  0.4708
18866SOL     OW58797   4.852   3.695   3.485 -0.0296  0.0251 -0.4678
18866SOL    HW158798   4.818   3.646   3.560 -1.4948  1.9138  0.2024
18866SOL    HW258799   4.815   3.652   3.409  1.4936 -1.9385 -0.1794
18867SOL     OW58800   1.354   8.387   0.778  0.0461 -0.3862 -0.0455
18867SOL    HW158801   1.275   8.416   0.733  1.4337  2.0900 -1.0562
18867SOL    HW258802   1.400   8.334   0.714 -0.3273 -1.0737  0.2389
18868SOL     OW58803   4.556   7.302   7.440  0.1316  0.4754  0.1513
18868SOL    HW158804   4.461   7.311   7.455 -0.0397 -2.9940  2.2858
18868SOL    HW258805   4.565   7.217   7.397  2.2985  0.5409  0.3926
18869SOL     OW58806   3.405   7.843   8.235 -0.6110 -0.1220 -0.4519
18869SOL    HW158807   3.470   7.913   8.225  0.0529 -0.6123  0.2396
18869SOL    HW258808   3.443   7.786   8.302 -1.5560 -0.6656 -0.3685
18870SOL     OW58809   4.327   7.136   3.014  0.2066 -0.0250  0.4280
18870SOL    HW158810   4.299   7.179   2.933  0.0950  2.1507  1.5424
18870SOL    HW258811   4.257   7.155   3.077  0.6063 -1.0910  1.2255
18871SOL     OW58812   1.156   9.090   8.617  0.3188 -0.6122 -0.4776
18871SOL    HW158813   1.107   9.164   8.653  2.3184  0.9903 -0.8573
18871SOL    HW258814   1.102   9.014   8.636 -1.4628  0.8495  0.6313
18872SOL     OW58815   6.764   2.595   6.456 -0.0196  0.2918  0.7851
18872SOL    HW158816   6.670   2.591   6.478 -0.2876  0.5044 -0.2533
18872SOL    HW258817   6.778   2.686   6.431  0.3581  0.1498  0.4766
18873SOL     OW58818   8.791   3.501   0.383 -0.0355 -0.7302  0.0822
18873SOL    HW158819   8.737   3.466   0.312 -0.7735  1.0278 -0.2877
18873SOL    HW258820   8.875   3.520   0.342  0.2310 -1.6528  0.1892
18874SOL     OW58821   5.545   4.565   9.443 -0.3438  0.3682 -0.4145
18874SOL    HW158822   5.458   4.582   9.477 -0.7477 -1.9068 -0.1500
18874SOL    HW258823   5.543   4.598   9.353 -1.8212 -0.4707 -0.7251
18875SOL     OW58824   6.765   3.004   5.876  0.0787 -0.1797 -0.1358
18875SOL    HW158825   6.845   3.000   5.824  0.2533  0.1045  0.1081
18875SOL    HW258826   6.739   3.096   5.875 -1.4866 -0.5725 -2.0623
18876SOL     OW58827   3.120   1.443   8.048 -0.0128  0.4337 -0.2950
18876SOL    HW158828   3.175   1.464   8.123  1.0543 -1.1264 -0.5867
18876SOL    HW258829   3.169   1.475   7.972  0.2490 -0.4460 -0.5122
18877SOL     OW58830   6.203   5.429   3.890  0.0728  0.2154  0.2525
18877SOL    HW158831   6.283   5.480   3.879  0.7704 -0.7409  0.8520
18877SOL    HW258832   6.190   5.424   3.984 -1.9718  2.2997  0.1809
18878SOL     OW58833   0.009   9.199   8.818  0.8186  0.0925 -0.2070
18878SOL    HW158834   0.052   9.228   8.899 -0.4171  0.9328  0.1814
18878SOL    HW258835   0.062   9.124   8.789  2.6765  1.2060  0.0972
18879SOL     OW58836   3.313   0.772   8.654 -0.1285  0.1351 -0.3512
18879SOL    HW158837   3.261   0.799   8.578  0.0745  0.5662 -0.3406
18879SOL    HW258838   3.318   0.677   8.647 -0.2063  0.1618 -0.8194
18880SOL     OW58839   2.527   8.265   6.047 -0.4816  0.2914  0.5510
18880SOL    HW158840   2.439   8.300   6.032  0.0856  1.7087  0.3284
18880SOL    HW258841   2.542   8.205   5.974 -1.0253  0.5166  0.2516
18881SOL     OW58842   0.826   1.847   4.658  0.3493  0.4375 -0.4336
18881SOL    HW158843   0.782   1.766   4.632 -0.1922  0.9050 -1.0362
18881SOL    HW258844   0.828   1.844   4.753 -0.5710  0.1696 -0.4083
18882SOL     OW58845   6.175   3.560   5.265  0.1201  0.2245  0.6212
18882SOL    HW158846   6.145   3.591   5.179  0.4261  1.2810  0.8795
18882SOL    HW258847   6.266   3.534   5.251  0.4117  1.1142  0.7712
18883SOL     OW58848   7.494   5.323   4.580  0.5408 -0.3266 -0.3382
18883SOL    HW158849   7.579   5.350   4.546  0.5669 -0.6937 -0.5825
18883SOL    HW258850   7.431   5.376   4.531  0.6332  0.0468 -0.0562
18884SOL     OW58851   2.738   6.166   8.125  0.3098  0.2365 -0.1884
18884SOL    HW158852   2.762   6.207   8.209 -3.0462  2.0863  0.0501
18884SOL    HW258853   2.770   6.227   8.059  1.9278 -0.6472 -0.2778
18885SOL     OW58854   0.299   2.662   0.869  0.0328 -0.4916 -0.0643
18885SOL    HW158855   0.226   2.601   0.863  0.4762 -1.0396  0.0853
18885SOL    HW258856   0.271   2.738   0.817 -0.5748 -0.7561 -0.1336
18886SOL     OW58857   5.857   0.722   2.415  0.5249 -0.3871  0.6862
18886SOL    HW158858   5.916   0.747   2.486  1.3368 -3.5983  1.2904
18886SOL    HW258859   5.773   0.762   2.438  1.1360 -0.1746  2.7121
18887SOL     OW58860   4.646   6.053   7.127  0.3505  0.3486  0.1759
18887SOL    HW158861   4.580   5.984   7.133  0.0386  0.7216  1.1112
18887SOL    HW258862   4.699   6.029   7.050  0.3720 -1.0250  0.5989
18888SOL     OW58863   1.595   7.715   7.436  0.1232  0.5185  0.3377
18888SOL    HW158864   1.513   7.667   7.450  0.3144 -0.2475 -0.9892
18888SOL    HW258865   1.650   7.690   7.509  0.2039 -1.3179 -0.3012
18889SOL     OW58866   6.125   3.820   6.587  0.4400 -0.2085 -0.0875
18889SOL    HW158867   6.209   3.861   6.568  0.3945 -0.4195 -0.7495
18889SOL    HW258868   6.067   3.852   6.518 -0.6197  1.6951  1.5712
18890SOL     OW58869   1.172   5.662   5.298  0.2133 -0.1911  0.1565
18890SOL    HW158870   1.122   5.649   5.379  1.9217 -0.0093  1.2935
18890SOL    HW258871   1.263   5.655   5.325  0.8195 -1.0593 -1.9525
18891SOL     OW58872   0.649   4.875   2.281  0.8383 -0.0074  0.0282
18891SOL    HW158873   0.635   4.963   2.245  0.1807 -0.6236 -1.3175
18891SOL    HW258874   0.705   4.832   2.216  0.2474 -0.9154  0.1042
18892SOL     OW58875   8.319   3.502   9.240 -0.0104 -0.4326  0.3043
18892SOL    HW158876   8.367   3.423   9.264  0.5546  0.6549  3.1384
18892SOL    HW258877   8.387   3.569   9.232 -0.5864  0.0203 -1.0326
18893SOL     OW58878   6.906   8.307   8.225 -0.3438 -0.2035 -0.2940
18893SOL    HW158879   6.825   8.357   8.233 -0.1717  0.0449 -0.0937
18893SOL    HW258880   6.946   8.313   8.312  0.8938  1.3929 -0.9468
18894SOL     OW58881   5.550   8.655   1.019  0.2821  0.2446  0.8162
18894SOL    HW158882   5.579   8.569   0.987 -1.4110 -0.6723  1.6011
18894SOL    HW258883   5.594   8.718   0.961 -0.7262 -1.2343 -1.7541
18895SOL     OW58884   2.240   5.326   0.522  0.0522  0.3177 -0.6588
18895SOL    HW158885   2.336   5.329   0.530 -0.0379 -0.3178  1.1450
18895SOL    HW258886   2.208   5.371   0.600 -1.0914 -1.6476  0.0857
18896SOL     OW58887   2.591   5.420   6.860 -0.4000 -0.3120 -0.1101
18896SOL    HW158888   2.512   5.369   6.875  0.0679 -0.6317  1.4821
18896SOL    HW258889   2.652   5.359   6.820  0.1338 -1.0494  1.7185
18897SOL     OW58890   2.991   6.107   1.423 -0.0264 -0.5360  0.4600
18897SOL    HW158891   2.921   6.161   1.387  1.0562 -1.1615 -2.9940
18897SOL    HW258892   3.071   6.158   1.406  0.9186 -2.6304 -2.0377
18898SOL     OW58893   0.671   0.097   8.373  0.4731 -0.1141 -0.4275
18898SOL    HW158894   0.636   0.048   8.300 -1.6492 -1.8978  1.6385
18898SOL    HW258895   0.616   0.175   8.379  0.2250 -0.2986 -0.3242
18899SOL     OW58896   5.185   7.976   4.187 -0.2326  0.3327 -0.0223
18899SOL    HW158897   5.219   8.027   4.260 -0.2209  0.0195  0.1916
18899SOL    HW258898   5.252   7.985   4.118 -0.2798  0.6884 -0.0220
18900SOL     OW58899   1.686   6.161   0.932  0.2498 -0.2758  0.0853
18900SOL    HW158900   1.616   6.193   0.989 -0.8859 -0.9069 -0.9363
18900SOL    HW258901   1.714   6.238   0.882 -0.6063 -0.2895 -0.4235
18901SOL     OW58902   3.657   6.890   2.361  0.3091 -0.5103  0.3089
18901SOL    HW158903   3.739   6.860   2.399  0.2187 -1.3023 -0.0965
18901SOL    HW258904   3.606   6.922   2.436  0.8882 -0.2181  0.5901
18902SOL     OW58905   5.642   8.824   0.824  0.1610  0.3176 -0.3690
18902SOL    HW158906   5.565   8.847   0.773 -0.9525  2.5933  2.1400
18902SOL    HW258907   5.683   8.908   0.846  1.7348 -0.6817  0.7788
18903SOL     OW58908   7.840   0.694   5.037  0.1002  0.1318  0.0505
18903SOL    HW158909   7.844   0.705   5.132  1.6184  0.1979  0.0028
18903SOL    HW258910   7.915   0.638   5.016  1.9082  2.8717 -1.4676
18904SOL     OW58911   7.953   7.920   4.863 -0.4037  0.0095 -0.1184
18904SOL    HW158912   7.900   7.983   4.813  1.6027  0.8677 -1.3000
18904SOL    HW258913   7.889   7.861   4.902 -2.2390  1.1479 -1.2291
18905SOL     OW58914   9.399   0.510   0.975 -0.9644 -0.3991 -0.3451
18905SOL    HW158915   9.432   0.566   0.905  0.9463 -2.5452 -1.2868
18905SOL    HW258916   9.353   0.440   0.930 -0.6941 -1.2226  0.6242
18906SOL     OW58917   6.411   8.241   5.542  0.0775  0.8368  0.5234
18906SOL    HW158918   6.387   8.334   5.550 -0.0960  0.7744  0.7257
18906SOL    HW258919   6.507   8.242   5.538  0.0853  1.0092  0.7357
18907SOL     OW58920   8.569   6.043   3.821  0.1273 -0.1689 -0.2533
18907SOL    HW158921   8.490   6.068   3.870 -0.4785 -0.3855 -1.1019
18907SOL    HW258922   8.606   6.126   3.791  0.1129 -0.0806 -0.0325
18908SOL     OW58923   3.056   9.153   4.165 -0.5137 -0.2045 -0.5636
18908SOL    HW158924   3.046   9.072   4.215 -1.7798  0.7170  0.7548
18908SOL    HW258925   3.002   9.140   4.087 -2.0392 -0.0826  0.4153
18909SOL     OW58926   2.460   8.057   0.653 -0.1044 -0.0620  0.3989
18909SOL    HW158927   2.475   7.963   0.661 -0.8780 -0.1371  1.1838
18909SOL    HW258928   2.428   8.069   0.564  0.1196 -0.5224  0.2547
18910SOL     OW58929   0.622   8.682   2.090  0.3232 -0.1752  0.1552
18910SOL    HW158930   0.646   8.591   2.109  2.1634  0.6609  2.1705
18910SOL    HW258931   0.544   8.697   2.143 -0.4010 -0.7434 -0.7153
18911SOL     OW58932   1.130   1.797   1.632 -0.3412 -0.5320 -0.0594
18911SOL    HW158933   1.132   1.808   1.727  1.3749  1.0484 -0.2337
18911SOL    HW258934   1.114   1.884   1.598  0.1028 -0.8954 -1.2350
18912SOL     OW58935   4.959   7.882   6.574  0.3094 -0.1090  0.7146
18912SOL    HW158936   5.040   7.920   6.540 -0.1157  1.2700  1.1712
18912SOL    HW258937   4.891   7.912   6.514 -0.1612  0.6601  1.5967
18913SOL     OW58938   3.193   0.827   4.245 -0.2131  0.2374 -0.1596
18913SOL    HW158939   3.155   0.874   4.320  1.4817 -0.1092  0.9826
18913SOL    HW258940   3.278   0.869   4.231  0.2175 -0.8088 -0.7989
18914SOL     OW58941   4.665   4.087   6.050 -0.2177 -0.0154 -0.2384
18914SOL    HW158942   4.707   4.031   6.114  0.4027 -0.0565 -0.6746
18914SOL    HW258943   4.586   4.119   6.094 -0.3395 -0.8611  0.1728
18915SOL     OW58944   3.546   5.518   3.271 -0.0734 -0.4482 -0.1152
18915SOL    HW158945   3.602   5.562   3.207  1.8011 -0.6186  1.3032
18915SOL    HW258946   3.532   5.430   3.235  0.3785 -0.3103 -0.6325
18916SOL     OW58947   5.025   8.277   4.083  0.0253 -0.0033  0.0287
18916SOL    HW158948   4.960   8.227   4.034  0.7228 -0.6225 -0.2863
18916SOL    HW258949   5.109   8.238   4.058  0.4180 -0.2503  1.5929
18917SOL     OW58950   3.777   0.332   9.014  0.5868  0.0956 -0.0214
18917SOL    HW158951   3.827   0.257   8.982  0.8400  0.5524 -0.7171
18917SOL    HW258952   3.719   0.295   9.081 -0.8510 -1.1606 -1.8291
18918SOL     OW58953   7.405   3.583   8.117  0.0898  0.5899  0.1362
18918SOL    HW158954   7.396   3.494   8.082  1.1310  0.2358  0.7362
18918SOL    HW258955   7.489   3.613   8.083  0.5170  0.7208  1.2848
18919SOL     OW58956   3.619   3.428   0.942 -1.0785 -0.1483  0.4308
18919SOL    HW158957   3.553   3.411   0.874 -0.8443 -0.0458  0.1747
18919SOL    HW258958   3.688   3.365   0.924 -1.2565 -0.4852  0.9073
18920SOL     OW58959   8.398   0.192   5.236 -0.0470  0.6805  0.2471
18920SOL    HW158960   8.429   0.241   5.312  0.1460  1.2376 -0.1815
18920SOL    HW258961   8.447   0.110   5.237 -2.5622 -0.9661  2.7570
18921SOL     OW58962   0.415   5.170   7.635  0.9821 -0.0195 -0.2040
18921SOL    HW158963   0.384   5.119   7.709  0.8171 -1.6477 -1.3615
18921SOL    HW258964   0.379   5.258   7.650  0.3615 -0.4927  1.2496
18922SOL     OW58965   8.457   1.079   4.306  0.5070  0.2213  0.5256
18922SOL    HW158966   8.478   1.083   4.399 -0.6321  1.7894  0.7582
18922SOL    HW258967   8.370   1.119   4.299 -0.3394 -1.7067 -0.9591
18923SOL     OW58968   5.750   2.784   4.223 -0.5484  0.3032  0.5472
18923SOL    HW158969   5.677   2.760   4.166  0.0858  1.3829 -0.7687
18923SOL    HW258970   5.718   2.862   4.270 -0.7718 -0.1048  1.0836
18924SOL     OW58971   3.381   4.572   1.765  0.4010 -0.3499 -0.5049
18924SOL    HW158972   3.373   4.639   1.697 -0.2857 -1.3885 -1.4942
18924SOL    HW258973   3.462   4.594   1.811  1.1007  0.1681 -1.9095
18925SOL     OW58974   5.631   1.961   9.385  0.2334 -0.6208 -0.3391
18925SOL    HW158975   5.581   2.017   9.445  2.6133 -1.4990  2.7282
18925SOL    HW258976   5.655   2.020   9.313 -0.8896  1.1360  0.6362
18926SOL     OW58977   5.645   4.034   6.952 -0.0421 -0.1227 -0.1136
18926SOL    HW158978   5.702   4.110   6.946  2.1415 -1.5640  0.9912
18926SOL    HW258979   5.628   4.010   6.861  0.2543  0.9623 -0.4665
18927SOL     OW58980   3.788   0.465   5.631  0.7255 -0.3484  0.7175
18927SOL    HW158981   3.839   0.415   5.567  1.9055  1.2239  0.3935
18927SOL    HW258982   3.844   0.538   5.656 -1.0650  1.0439  0.9239
18928SOL     OW58983   1.349   0.478   3.148  0.6847 -0.5039  0.4207
18928SOL    HW158984   1.403   0.464   3.226  0.2929 -0.6658  0.6661
18928SOL    HW258985   1.380   0.561   3.111 -0.9687  1.0534  2.3127
18929SOL     OW58986   3.362   0.708   0.680  0.0339 -0.4816  1.2689
18929SOL    HW158987   3.271   0.731   0.657  0.6747  0.7130 -0.2943
18929SOL    HW258988   3.363   0.612   0.683 -0.3086 -0.9018 -3.6336
18930SOL     OW58989   1.544   5.999   1.913 -0.2715  0.1513 -0.6966
18930SOL    HW158990   1.595   5.923   1.939 -1.1820  0.1481  1.2834
18930SOL    HW258991   1.530   6.048   1.994 -2.5142  0.6673 -1.3078
18931SOL     OW58992   5.087   8.380   1.804 -0.1437 -0.6522 -0.2957
18931SOL    HW158993   5.160   8.319   1.788  0.3134 -0.1157 -0.2950
18931SOL    HW258994   5.084   8.434   1.725 -0.4297 -0.5526 -0.2183
18932SOL     OW58995   8.367   9.522   3.049 -0.3124 -0.0051 -0.3248
18932SOL    HW158996   8.331   9.447   3.095  0.4273 -1.1262 -1.5215
18932SOL    HW258997   8.437   9.554   3.106 -0.1995 -0.6289 -0.1044
18933SOL     OW58998   0.549   4.688   2.805 -0.4950  0.2752  0.3581
18933SOL    HW158999   0.479   4.719   2.863 -0.7771  0.3566 -0.0289
18933SOL    HW259000   0.508   4.679   2.720  0.3663  2.0081 -0.2829
18934SOL     OW59001   2.346   3.553   7.750  1.0227 -0.6128 -0.0029
18934SOL    HW159002   2.251   3.552   7.744  1.0617 -1.6873 -0.9807
18934SOL    HW259003   2.365   3.554   7.843  0.0567  0.1775  0.1913
18935SOL     OW59004   8.344   9.120   4.815  0.0370 -0.0285 -0.2773
18935SOL    HW159005   8.408   9.165   4.870  0.4863 -0.1547 -0.6933
18935SOL    HW259006   8.374   9.029   4.812 -1.3515 -0.5963  1.2914
18936SOL     OW59007   8.561   4.406   7.924 -0.5830  0.1056  0.0651
18936SOL    HW159008   8.597   4.437   8.007 -1.4473  0.2872  0.3836
18936SOL    HW259009   8.563   4.482   7.866 -1.4356  0.4068  0.4186
18937SOL     OW59010   8.113   0.810   2.339 -0.2165 -0.0591 -0.3672
18937SOL    HW159011   8.178   0.756   2.383 -0.4402  1.0516  1.4478
18937SOL    HW259012   8.029   0.768   2.358 -0.2038 -0.3473 -0.9368
18938SOL     OW59013   3.000   7.937   2.135 -0.0015  0.6244 -0.4343
18938SOL    HW159014   3.082   7.892   2.115 -1.4147 -1.7757 -1.1849
18938SOL    HW259015   3.013   8.026   2.101  2.2978  0.3459 -0.4494
18939SOL     OW59016   6.241   5.355   4.622  0.1993 -0.6758  0.4517
18939SOL    HW159017   6.284   5.377   4.540  2.7368  0.4174  1.9441
18939SOL    HW259018   6.261   5.263   4.636  0.0867 -0.7648  0.0290
18940SOL     OW59019   3.790   4.062   3.340  0.3317 -0.0242 -0.1259
18940SOL    HW159020   3.719   4.126   3.330  1.8095  1.7394  0.1266
18940SOL    HW259021   3.834   4.061   3.255  0.4157 -0.6025 -0.0792
18941SOL     OW59022   4.962   4.256   6.881 -0.3139  0.0698 -0.3947
18941SOL    HW159023   5.020   4.180   6.883 -1.4125 -0.8631  2.9964
18941SOL    HW259024   4.878   4.221   6.852 -0.8857 -0.1946  1.4025
18942SOL     OW59025   1.228   7.392   4.839  0.4570  0.1275  0.5951
18942SOL    HW159026   1.230   7.372   4.932  0.1882 -2.4351  0.1318
18942SOL    HW259027   1.319   7.406   4.815  0.9649 -2.4145  0.7236
18943SOL     OW59028   0.025   8.478   4.757 -0.0044  0.0166 -0.3650
18943SOL    HW159029   0.035   8.557   4.809  2.1217 -1.6322  1.9523
18943SOL    HW259030  -0.064   8.448   4.776  1.2656 -1.5624  4.1592
18944SOL     OW59031   0.093   7.186   2.970 -0.2604 -0.0873  0.1595
18944SOL    HW159032   0.089   7.187   2.874  1.1325  2.5855  0.0086
18944SOL    HW259033   0.140   7.106   2.992  0.7826  0.0282 -1.5161
18945SOL     OW59034   6.292   0.255   4.242 -0.0853 -0.3446  0.4620
18945SOL    HW159035   6.246   0.328   4.200  0.2589 -0.4132 -0.0455
18945SOL    HW259036   6.320   0.290   4.326 -0.9512 -0.2610  0.7208
18946SOL     OW59037   8.601   0.786   4.309 -0.0310  0.6026  0.7948
18946SOL    HW159038   8.594   0.830   4.394 -0.8697 -0.8149  1.5068
18946SOL    HW259039   8.536   0.830   4.254 -0.4229  0.6693  1.2977
18947SOL     OW59040   1.356   4.535   5.331 -0.7379 -0.2486  0.1969
18947SOL    HW159041   1.437   4.563   5.373 -1.4108 -0.1354  1.4487
18947SOL    HW259042   1.307   4.616   5.320 -1.0340 -0.4269  0.2088
18948SOL     OW59043   0.950   7.245   1.630 -0.2160  0.0723  0.4248
18948SOL    HW159044   1.014   7.302   1.587 -0.7893 -0.8200 -1.7689
18948SOL    HW259045   0.866   7.287   1.612 -0.3789  0.5649  2.1943
18949SOL     OW59046   2.387   5.286   1.127  0.0211 -0.1396  0.6358
18949SOL    HW159047   2.418   5.196   1.119  0.2940 -0.4333  3.6054
18949SOL    HW259048   2.291   5.279   1.125  0.0507 -0.3763 -0.0144
18950SOL     OW59049   4.340   6.446   8.601  0.2319 -0.1598 -0.0145
18950SOL    HW159050   4.350   6.367   8.654  0.6072 -1.2905 -1.6794
18950SOL    HW259051   4.398   6.510   8.641  0.2616 -0.8648  1.1106
18951SOL     OW59052   1.812   9.015   7.609  0.1955 -0.3693 -0.1602
18951SOL    HW159053   1.748   9.024   7.538 -0.4611 -2.9995 -0.0140
18951SOL    HW259054   1.888   9.063   7.578 -2.0165  3.7937  0.0906
18952SOL     OW59055   9.016   6.174   5.835  0.4774  0.2830 -0.0896
18952SOL    HW159056   8.990   6.204   5.922  0.5495  1.3667 -0.4296
18952SOL    HW259057   8.966   6.229   5.775  0.3310 -0.5474 -0.7435
18953SOL     OW59058   5.597   8.151   9.579 -0.2984  0.1756 -0.1683
18953SOL    HW159059   5.645   8.092   9.638  0.1643  0.3404 -0.3746
18953SOL    HW259060   5.663   8.215   9.552 -0.6623  0.4556 -0.3886
18954SOL     OW59061   0.519   7.419   2.724  0.3031 -0.1870  0.6302
18954SOL    HW159062   0.540   7.491   2.666  2.8046  1.0951  2.9190
18954SOL    HW259063   0.493   7.347   2.666  1.5390  1.3330 -1.9314
18955SOL     OW59064   0.623   6.666   7.214 -0.1055  0.0834  0.4396
18955SOL    HW159065   0.644   6.703   7.300 -2.9398  0.2912  1.1218
18955SOL    HW259066   0.528   6.670   7.208  0.0064  0.4744 -2.9372
18956SOL     OW59067   4.832   7.645   0.563 -0.1620  0.0367  0.0936
18956SOL    HW159068   4.764   7.583   0.588  1.9991 -1.8753  1.6384
18956SOL    HW259069   4.823   7.655   0.468 -0.8366 -2.3789 -0.1376
18957SOL     OW59070   9.465   7.020   4.903 -0.2771  0.7869 -0.8269
18957SOL    HW159071   9.515   6.940   4.891  0.7315  0.4851  3.6015
18957SOL    HW259072   9.523   7.090   4.872  1.3871  0.1381  0.6584
18958SOL     OW59073   4.358   1.334   0.510 -0.2509 -0.5963 -0.4244
18958SOL    HW159074   4.381   1.352   0.602  0.5119 -0.2103 -0.6833
18958SOL    HW259075   4.312   1.413   0.481  2.0480  0.5499 -1.2061
18959SOL     OW59076   4.719   9.184   5.295 -0.0174 -0.3967  0.2834
18959SOL    HW159077   4.724   9.258   5.235 -1.4823 -0.2022  0.3764
18959SOL    HW259078   4.763   9.112   5.248 -2.6592 -0.7614 -1.8602
18960SOL     OW59079   4.908   6.042   0.397  0.3827  0.7126  0.0287
18960SOL    HW159080   4.868   6.092   0.325  0.9410  1.6057  0.3256
18960SOL    HW259081   4.896   6.096   0.474 -0.2268 -0.2512  0.6343
18961SOL     OW59082   1.742   8.530   2.288 -0.2587 -0.2140  0.7833
18961SOL    HW159083   1.695   8.581   2.222 -0.2381 -1.0866  0.0650
18961SOL    HW259084   1.768   8.594   2.354  0.4912  0.8340 -0.4862
18962SOL     OW59085   8.309   3.239   3.917 -0.1007  0.5277  0.3643
18962SOL    HW159086   8.399   3.264   3.938  0.9659 -2.1269 -0.5926
18962SOL    HW259087   8.274   3.314   3.869  2.0831  1.1291 -0.4389
18963SOL     OW59088   6.438   5.660   3.857  0.4651  0.5607  0.3544
18963SOL    HW159089   6.372   5.718   3.893 -0.6956 -0.8360  0.5526
18963SOL    HW259090   6.521   5.705   3.874 -0.4840  3.6513 -2.3062
18964SOL     OW59091   8.386   6.023   9.459  0.2306 -0.0951  0.1017
18964SOL    HW159092   8.434   6.087   9.512  0.9373 -2.7023  2.9191
18964SOL    HW259093   8.297   6.023   9.494  0.2147 -0.5647  0.0786
18965SOL     OW59094   5.807   0.433   1.747 -0.0596 -0.0216 -0.2763
18965SOL    HW159095   5.780   0.525   1.759 -1.8767 -0.7114  1.5078
18965SOL    HW259096   5.843   0.407   1.832  0.8061 -0.8655 -0.8857
18966SOL     OW59097   7.319   4.438   7.891  0.3705  0.1802 -0.1876
18966SOL    HW159098   7.355   4.405   7.809  0.9840 -1.3930  0.6515
18966SOL    HW259099   7.263   4.367   7.923 -2.7353  2.1226 -0.9151
18967SOL     OW59100   5.718   7.551   4.133 -0.0523 -0.3819  0.4794
18967SOL    HW159101   5.762   7.509   4.059 -1.2511  1.1533 -1.1767
18967SOL    HW259102   5.789   7.574   4.193  0.9826 -1.3114 -0.3394
18968SOL     OW59103   9.205   7.761   4.882 -0.0667  0.5160 -0.3106
18968SOL    HW159104   9.229   7.669   4.890 -0.4551  0.4327 -0.1128
18968SOL    HW259105   9.130   7.762   4.823 -1.0629  0.5506  0.9349
18969SOL     OW59106   3.890   0.050   5.930 -0.0526 -0.0184  0.0727
18969SOL    HW159107   3.970   0.034   5.979 -0.0768  0.1684  0.1737
18969SOL    HW259108   3.820   0.044   5.995 -0.3571 -2.4821 -0.3905
18970SOL     OW59109   4.751   6.392   5.345 -0.1171 -1.0090 -0.4616
18970SOL    HW159110   4.796   6.475   5.327  0.9647 -1.2708  0.8811
18970SOL    HW259111   4.667   6.419   5.382  0.9407 -0.4521  1.6774
18971SOL     OW59112   3.672   8.703   5.280 -0.2414 -0.0863 -0.3515
18971SOL    HW159113   3.733   8.756   5.331  0.9598 -0.1532 -1.6469
18971SOL    HW259114   3.646   8.759   5.207 -1.7515 -0.0656  0.1637
18972SOL     OW59115   0.068   6.661   2.955 -0.4333 -0.0892 -0.0193
18972SOL    HW159116   0.021   6.721   2.898 -0.5075  0.7420  0.8866
18972SOL    HW259117   0.155   6.700   2.966  0.1076 -1.0262 -0.7598
18973SOL     OW59118   0.570   2.491   5.208  0.3821  0.0018 -0.3905
18973SOL    HW159119   0.515   2.466   5.283 -2.2848 -1.3945 -2.6247
18973SOL    HW259120   0.508   2.525   5.144  2.4385  0.2643 -2.3606
18974SOL     OW59121   3.625   7.495   7.227 -0.2551 -0.1021  0.0988
18974SOL    HW159122   3.564   7.521   7.157 -1.6729 -0.1698  1.2636
18974SOL    HW259123   3.695   7.560   7.222 -0.4789  0.0718 -1.1875
18975SOL     OW59124   8.799   1.056   3.449  0.1702  0.0303 -0.1323
18975SOL    HW159125   8.876   1.112   3.437 -0.2562  0.3470 -1.5052
18975SOL    HW259126   8.830   0.985   3.505  1.4129  0.2572 -0.5022
18976SOL     OW59127   4.674   5.482   0.108 -0.0901  0.4093 -0.2644
18976SOL    HW159128   4.629   5.554   0.152 -1.4924 -1.0412  0.7707
18976SOL    HW259129   4.659   5.498   0.014  1.4423  2.5659 -0.2253
18977SOL     OW59130   0.987   8.589   4.164 -0.4984  0.3976  0.9361
18977SOL    HW159131   1.056   8.619   4.105  0.2694  0.9307  2.0559
18977SOL    HW259132   0.970   8.499   4.138 -0.9338  0.9306 -0.7538
18978SOL     OW59133   4.950   4.839   0.260 -0.1514 -0.4147 -0.6130
18978SOL    HW159134   4.875   4.795   0.220  0.0547 -1.4914  0.1488
18978SOL    HW259135   4.911   4.905   0.318 -0.4804 -0.3529 -0.8962
18979SOL     OW59136   6.083   7.648   2.194  0.0593 -1.0935  0.4294
18979SOL    HW159137   6.003   7.601   2.218 -1.4901  0.4934 -1.3132
18979SOL    HW259138   6.108   7.696   2.273 -0.9973 -1.2226  0.8542
18980SOL     OW59139   3.464   0.020   1.227  0.0306 -0.6819 -0.0252
18980SOL    HW159140   3.483   0.059   1.142 -0.3338 -3.2044 -1.3374
18980SOL    HW259141   3.454   0.095   1.286 -1.7774  1.2542 -2.6104
18981SOL     OW59142   8.061   2.992   2.161  0.3186 -0.0785  0.0421
18981SOL    HW159143   8.095   2.955   2.243  1.2389 -0.8469 -0.6572
18981SOL    HW259144   8.112   3.071   2.147  0.6694 -0.3369 -0.1533
18982SOL     OW59145   8.108   9.355   4.190 -0.5440  0.0541  0.0282
18982SOL    HW159146   8.049   9.418   4.149 -0.6608 -1.3907 -2.2601
18982SOL    HW259147   8.054   9.276   4.202  0.4167 -0.6823 -0.3502
18983SOL     OW59148   3.483   7.432   4.278  0.4860  0.1300  0.1241
18983SOL    HW159149   3.529   7.507   4.239  2.1482 -0.9181 -0.0211
18983SOL    HW259150   3.534   7.356   4.250 -0.5962 -0.9805  1.0858
18984SOL     OW59151   8.515   8.286   8.811 -0.2468 -0.6945 -0.0482
18984SOL    HW159152   8.538   8.194   8.793  1.0278 -0.4579  0.2706
18984SOL    HW259153   8.499   8.289   8.905  1.3016 -0.2988  0.2320
18985SOL     OW59154   4.730   4.669   6.603 -0.0723 -0.8155  0.2592
18985SOL    HW159155   4.757   4.584   6.638  0.7934 -0.8961 -0.5308
18985SOL    HW259156   4.780   4.677   6.521  3.2873  2.3308  2.3304
18986SOL     OW59157   3.429   7.235   3.643 -0.1223 -0.3947  0.5151
18986SOL    HW159158   3.403   7.273   3.559  1.2848 -1.5271 -0.4934
18986SOL    HW259159   3.372   7.159   3.654 -0.1238 -0.4047  0.4386
18987SOL     OW59160   0.796   5.536   0.344 -0.2803 -0.4804 -0.1033
18987SOL    HW159161   0.743   5.598   0.394 -0.7901 -1.4814  0.6235
18987SOL    HW259162   0.886   5.566   0.356 -0.4895 -0.0823  0.5212
18988SOL     OW59163   9.009   1.725   9.165  0.1943 -0.0653  0.6974
18988SOL    HW159164   8.922   1.718   9.204 -0.3795 -1.4557 -0.7169
18988SOL    HW259165   9.022   1.819   9.152 -2.5398  0.1058 -2.0206
18989SOL     OW59166   4.446   1.489   3.041 -0.0625 -0.5529  0.3356
18989SOL    HW159167   4.513   1.477   3.108 -0.5115 -1.2321  0.6676
18989SOL    HW259168   4.495   1.511   2.962  0.4896 -0.0571  0.8064
18990SOL     OW59169   7.717   0.065   7.192  0.1683  0.1129  0.0001
18990SOL    HW159170   7.625   0.077   7.216  0.2096 -1.8355  1.3756
18990SOL    HW259171   7.759   0.034   7.273  1.5848 -1.0081 -1.1164
18991SOL     OW59172   6.186   8.584   3.677  0.5750  0.3490  0.9465
18991SOL    HW159173   6.093   8.560   3.671  1.0622 -2.3118  2.4828
18991SOL    HW259174   6.206   8.621   3.591 -1.2411 -1.6617 -0.4585
18992SOL     OW59175   9.123   2.005   9.297 -1.0011 -0.0283  0.3524
18992SOL    HW159176   9.129   1.979   9.206 -0.3556 -0.1701  0.4325
18992SOL    HW259177   9.125   1.923   9.346 -0.5084  0.0887  0.5321
18993SOL     OW59178   8.333   2.883   2.820  0.3032 -0.2781 -0.2196
18993SOL    HW159179   8.308   2.935   2.897  1.6085 -0.9240  0.6676
18993SOL    HW259180   8.296   2.797   2.837 -0.9996  0.0560 -1.2213
18994SOL     OW59181   7.863   0.811   1.495 -0.7327  0.1920  0.1172
18994SOL    HW159182   7.814   0.731   1.475  0.1482 -1.0483  2.4174
18994SOL    HW259183   7.811   0.855   1.562 -0.8338  1.1944 -0.5973
18995SOL     OW59184   0.687   6.775   8.558 -0.0266 -0.1238  0.1142
18995SOL    HW159185   0.656   6.710   8.621  1.1077 -1.1080 -0.2930
18995SOL    HW259186   0.696   6.726   8.476  0.9222  0.5151 -0.1821
18996SOL     OW59187   1.084   6.485   5.401  0.1257 -0.2785  0.3250
18996SOL    HW159188   1.050   6.575   5.400  0.2360 -0.2373  0.0250
18996SOL    HW259189   1.106   6.468   5.309  0.7227 -0.3768  0.4837
18997SOL     OW59190   9.550   9.123   2.606 -0.5142 -0.4212 -0.7726
18997SOL    HW159191   9.465   9.164   2.588 -0.1306 -0.5220 -3.1581
18997SOL    HW259192   9.607   9.197   2.630 -0.6473  0.0473 -1.8135
18998SOL     OW59193   2.096   6.919   5.070  0.0942  0.1656  0.1810
18998SOL    HW159194   2.077   6.983   5.001 -1.0751  1.0044  1.2266
18998SOL    HW259195   2.015   6.867   5.077  0.3656 -0.2058  0.6226
18999SOL     OW59196   4.968   8.697   5.256  0.3833 -0.1833 -0.0660
18999SOL    HW159197   4.911   8.653   5.319 -2.8791  2.5070 -0.8485
18999SOL    HW259198   4.979   8.634   5.184 -2.0044 -0.7032 -0.0412
19000SOL     OW59199   5.264   4.906   9.079 -0.0645 -0.2246 -0.2309
19000SOL    HW159200   5.288   4.980   9.023  0.1047  0.6634  0.9701
19000SOL    HW259201   5.168   4.906   9.079 -0.0666  0.0882 -0.1242
19001SOL     OW59202   5.637   1.120   6.377 -0.0133  0.1315 -0.2854
19001SOL    HW159203   5.657   1.192   6.436  2.1410 -1.0239  0.5317
19001SOL    HW259204   5.722   1.077   6.363 -1.0107 -1.4796 -1.7396
19002SOL     OW59205   2.409   0.254   8.160  0.7604  0.0085  0.1160
19002SOL    HW159206   2.425   0.328   8.217  0.1628  0.7029 -0.5959
19002SOL    HW259207   2.344   0.201   8.206 -1.5498  1.7906 -0.9015
19003SOL     OW59208   7.866   1.804   0.414  0.1096 -0.1393 -0.2269
19003SOL    HW159209   7.840   1.730   0.469  0.9316 -1.1822 -1.1929
19003SOL    HW259210   7.785   1.830   0.369 -0.7098  1.1014  1.8089
19004SOL     OW59211   1.145   4.228   4.323  0.2661 -0.5852  0.3722
19004SOL    HW159212   1.080   4.159   4.334  1.2228 -1.4348  0.8417
19004SOL    HW259213   1.184   4.239   4.409  0.6329  0.0241  0.1350
19005SOL     OW59214   1.250   7.640   9.347 -0.1065 -0.5213  0.2191
19005SOL    HW159215   1.344   7.620   9.351 -0.1156 -0.4620  0.8578
19005SOL    HW259216   1.236   7.704   9.417  0.0259  2.2501 -2.0894
19006SOL     OW59217   4.377   6.601   6.528 -0.0905 -0.3562 -0.1331
19006SOL    HW159218   4.292   6.558   6.539  0.1839 -0.5735  1.4636
19006SOL    HW259219   4.391   6.647   6.611  1.9418 -1.4223  0.1705
19007SOL     OW59220   4.492   6.626   2.765  0.2781 -0.1419 -0.0376
19007SOL    HW159221   4.580   6.652   2.739  0.3566  1.0676  1.3041
19007SOL    HW259222   4.503   6.540   2.806  1.3098  1.0237  2.3567
19008SOL     OW59223   3.641   7.910   5.369 -0.1049 -0.3147 -0.4790
19008SOL    HW159224   3.614   7.827   5.330  0.6331 -0.2418 -1.1617
19008SOL    HW259225   3.698   7.885   5.442  0.8241 -0.4070 -1.2189
19009SOL     OW59226   6.836   1.333   0.012  0.1600  0.8918  0.0126
19009SOL    HW159227   6.826   1.411   0.066  0.5069 -0.1936  1.7343
19009SOL    HW259228   6.865   1.265   0.073  1.0531 -0.2985 -1.6362
19010SOL     OW59229   7.737   0.869   7.564 -0.0745 -0.3197 -0.1117
19010SOL    HW159230   7.830   0.864   7.545 -0.2548  1.6610 -1.8425
19010SOL    HW259231   7.727   0.946   7.619 -0.7676  0.1007 -0.7917
19011SOL     OW59232   9.355   5.232   6.478  0.1933 -0.3719  0.3675
19011SOL    HW159233   9.329   5.316   6.515 -0.5514  0.5924 -2.1381
19011SOL    HW259234   9.402   5.255   6.397 -1.2745 -2.3368 -1.1442
19012SOL     OW59235   8.324   9.478   1.398  0.0512  0.0300 -0.3715
19012SOL    HW159236   8.377   9.527   1.461 -0.3631  0.0692 -0.0482
19012SOL    HW259237   8.324   9.388   1.431 -0.0911  0.0332 -0.3622
19013SOL     OW59238   4.628   3.640   0.513  0.3731  0.2612 -0.4093
19013SOL    HW159239   4.681   3.595   0.448 -0.2900 -0.8996 -0.1796
19013SOL    HW259240   4.614   3.728   0.477 -0.0993 -0.3963 -1.9154
19014SOL     OW59241   1.452   8.316   8.991  0.3324 -0.7716  0.4592
19014SOL    HW159242   1.539   8.334   9.026  0.2671  2.0104 -0.5673
19014SOL    HW259243   1.394   8.317   9.068  1.0634 -1.9437  1.0556
19015SOL     OW59244   7.221   5.690   8.775  0.9185  0.0345  0.3293
19015SOL    HW159245   7.173   5.739   8.708  0.6881 -0.6022  0.0204
19015SOL    HW259246   7.157   5.675   8.844  0.9842  0.1517  0.4164
19016SOL     OW59247   1.423   8.651   8.615 -0.1603 -0.2032 -0.4201
19016SOL    HW159248   1.339   8.604   8.617 -0.2857  0.0343  0.4799
19016SOL    HW259249   1.401   8.738   8.582 -0.0119 -0.5835 -1.5902
19017SOL     OW59250   6.051   5.984   8.606 -0.2075  1.1370  0.0112
19017SOL    HW159251   6.026   5.944   8.690 -1.8425  0.1098 -0.9149
19017SOL    HW259252   6.147   5.988   8.610 -0.1406 -0.4334  1.2567
19018SOL     OW59253   1.028   3.959   0.910 -0.3290  0.2356 -0.3198
19018SOL    HW159254   1.098   3.953   0.974 -1.1606 -0.2219  0.5673
19018SOL    HW259255   1.011   4.053   0.901 -0.7770  0.2669  0.7780
19019SOL     OW59256   1.245   3.560   0.838 -0.1159 -1.0062 -0.1632
19019SOL    HW159257   1.309   3.499   0.877  0.6608 -1.0403 -1.4408
19019SOL    HW259258   1.233   3.527   0.749 -0.9365 -0.2257 -0.3453
19020SOL     OW59259   1.942   8.281   2.449  0.0705 -0.2794 -0.2364
19020SOL    HW159260   2.020   8.295   2.394 -1.6028 -0.3808 -2.8309
19020SOL    HW259261   1.930   8.364   2.494  1.2538 -0.0110 -0.3763
19021SOL     OW59262   6.565   2.120   4.107  0.1904 -0.5481 -0.7123
19021SOL    HW159263   6.596   2.089   4.022 -1.0000 -0.5911 -1.1498
19021SOL    HW259264   6.641   2.165   4.145  0.8419 -0.8263 -1.6378
19022SOL     OW59265   3.896   1.302   4.783  0.0647  0.3556 -0.1535
19022SOL    HW159266   3.943   1.364   4.728 -0.0103  1.3317  0.8429
19022SOL    HW259267   3.807   1.302   4.750  0.1743  0.4234 -0.4497
19023SOL     OW59268   7.180   3.438   2.289 -0.7177 -0.4836  0.7925
19023SOL    HW159269   7.191   3.525   2.327 -1.4471  0.2464 -0.5639
19023SOL    HW259270   7.229   3.379   2.347  0.5322  0.9439  1.2459
19024SOL     OW59271   3.374   9.453   6.926  0.3595 -0.0277  0.3305
19024SOL    HW159272   3.332   9.367   6.932  0.4574 -0.0113  1.3263
19024SOL    HW259273   3.302   9.516   6.934  0.3259 -0.0045 -0.0987
19025SOL     OW59274   0.026   3.225   8.916  0.1087  0.5955  0.5490
19025SOL    HW159275   0.080   3.145   8.917 -0.1195  0.4190 -0.4364
19025SOL    HW259276  -0.058   3.196   8.952 -0.5562 -0.0642 -1.4190
19026SOL     OW59277   5.463   8.037   0.303  0.4202  0.2102  0.2645
19026SOL    HW159278   5.376   8.052   0.338 -0.0663 -1.6377 -0.0127
19026SOL    HW259279   5.449   8.015   0.211  0.7758 -2.9969  0.8469
19027SOL     OW59280   5.093   8.494   6.519  0.2398 -0.5380  0.8526
19027SOL    HW159281   5.128   8.561   6.461 -0.8715 -1.9176 -1.5580
19027SOL    HW259282   5.149   8.498   6.597  2.6100  0.5590 -0.7955
19028SOL     OW59283   4.515   8.096   6.296  0.0200 -0.0394  0.3920
19028SOL    HW159284   4.421   8.095   6.282  0.1169  1.7784 -0.7912
19028SOL    HW259285   4.544   8.180   6.259  1.9658 -0.1036  1.5886
19029SOL     OW59286   4.729   8.181   1.581 -0.3996 -0.2018 -0.1996
19029SOL    HW159287   4.652   8.177   1.637  0.0523  1.3051  0.5930
19029SOL    HW259288   4.776   8.260   1.610  0.3914  0.0498 -2.0001
19030SOL     OW59289   4.933   6.765   1.922 -0.0211 -0.7302 -0.2405
19030SOL    HW159290   4.901   6.776   1.832 -0.1424 -0.2999 -0.1433
19030SOL    HW259291   4.860   6.725   1.969 -0.9604  1.5042  0.3221
19031SOL     OW59292   0.837   8.710   6.420 -0.0117  0.1950  0.2382
19031SOL    HW159293   0.919   8.677   6.456  0.4583  2.1702  1.1044
19031SOL    HW259294   0.786   8.631   6.401  1.8483 -1.0684  0.1706
19032SOL     OW59295   8.808   2.439   7.397  0.0270  0.1985  0.1346
19032SOL    HW159296   8.834   2.499   7.467 -2.6835  0.6392  0.8688
19032SOL    HW259297   8.832   2.485   7.316 -0.2962  1.4320  0.7112
19033SOL     OW59298   1.311   6.265   3.438 -0.5220  0.0454 -0.0110
19033SOL    HW159299   1.361   6.312   3.372 -0.6491 -0.2397 -0.3137
19033SOL    HW259300   1.377   6.228   3.497 -0.3406 -0.7620 -0.6994
19034SOL     OW59301   2.580   6.410   0.287  0.4346  0.1632 -0.0890
19034SOL    HW159302   2.555   6.408   0.194 -1.6015  0.1715  0.4053
19034SOL    HW259303   2.640   6.337   0.297  0.5088  0.0187 -1.3702
19035SOL     OW59304   7.963   1.792   3.790 -0.9082 -0.2342  0.7011
19035SOL    HW159305   7.947   1.814   3.699 -0.2208 -1.0673  0.3707
19035SOL    HW259306   8.050   1.827   3.809  0.0517 -2.2250  0.2688
19036SOL     OW59307   3.292   6.449   5.907 -0.1229 -0.0645 -0.5397
19036SOL    HW159308   3.318   6.540   5.922  1.1188 -0.4178 -0.4984
19036SOL    HW259309   3.325   6.401   5.982  0.2443 -0.7392 -1.1177
19037SOL     OW59310   8.863   4.211   6.855 -0.4035 -0.2459 -0.2807
19037SOL    HW159311   8.820   4.165   6.783 -0.5541  0.7109 -0.8168
19037SOL    HW259312   8.902   4.288   6.815  0.1092 -0.0574  0.5494
19038SOL     OW59313   5.439   7.621   4.127 -0.0190  0.5069 -0.6025
19038SOL    HW159314   5.426   7.568   4.048 -0.4830 -1.2967  0.6141
19038SOL    HW259315   5.531   7.606   4.151  0.0078  0.7302 -0.5609
19039SOL     OW59316   7.655   1.697   7.466  0.3022  0.2111 -0.1001
19039SOL    HW159317   7.713   1.767   7.495 -1.5817  1.5227  0.6838
19039SOL    HW259318   7.685   1.675   7.378  0.9207  2.0382 -0.3779
19040SOL     OW59319   7.940   4.759   6.450 -0.1063 -0.1629 -0.4987
19040SOL    HW159320   7.993   4.781   6.373 -1.0869 -3.9908 -2.5464
19040SOL    HW259321   7.852   4.788   6.428 -0.4879 -1.7144 -1.1208
19041SOL     OW59322   5.625   6.828   2.827  0.1723 -0.1939  0.1016
19041SOL    HW159323   5.548   6.838   2.884  0.7328  1.8778  0.5668
19041SOL    HW259324   5.667   6.748   2.859 -0.4258  0.0271  1.5502
19042SOL     OW59325   5.412   0.204   3.139 -0.1328 -0.1166 -0.2420
19042SOL    HW159326   5.371   0.211   3.053 -1.9781 -3.6181  0.1810
19042SOL    HW259327   5.341   0.218   3.201  0.8629  0.8222  0.7364
19043SOL     OW59328   7.086   0.201   4.421 -0.1145 -0.0322  0.1295
19043SOL    HW159329   7.099   0.294   4.442  0.2432 -0.0723  0.1022
19043SOL    HW259330   7.123   0.155   4.497 -0.3126 -0.1507  0.1531
19044SOL     OW59331   6.032   6.630   1.438  0.0238  0.2054 -0.4266
19044SOL    HW159332   5.977   6.586   1.503  0.8007  2.0735  1.6101
19044SOL    HW259333   6.119   6.592   1.450 -0.1600 -0.6134 -1.5648
19045SOL     OW59334   9.198   1.325   7.376 -0.2398 -0.4556 -0.0316
19045SOL    HW159335   9.258   1.272   7.429 -0.4595  0.6906  1.4432
19045SOL    HW259336   9.112   1.311   7.417 -0.3275  0.8641  0.2885
19046SOL     OW59337   7.756   2.858   5.657 -0.4724  0.5643 -0.4764
19046SOL    HW159338   7.708   2.926   5.705  0.3367  0.0496  1.1258
19046SOL    HW259339   7.838   2.848   5.706  0.2748 -0.1922 -1.8318
19047SOL     OW59340   6.877   7.508   3.406 -0.5377  0.0464 -0.0666
19047SOL    HW159341   6.828   7.506   3.324 -0.3710  1.2717 -0.2149
19047SOL    HW259342   6.814   7.484   3.473 -0.4979 -1.7470 -0.6065
19048SOL     OW59343   2.839   7.750   1.991 -0.8601 -0.0492  0.1824
19048SOL    HW159344   2.892   7.797   2.056 -1.6571  1.1704 -0.0237
19048SOL    HW259345   2.889   7.756   1.910  0.6152 -2.4095  0.8173
19049SOL     OW59346   5.053   3.097   8.276 -0.1294  0.3053  0.5363
19049SOL    HW159347   4.962   3.083   8.249  0.0130  1.6938 -0.8579
19049SOL    HW259348   5.095   3.011   8.265 -0.9615 -0.0269 -0.1562
19050SOL     OW59349   2.458   8.863   5.997 -0.2345 -0.1890 -0.0979
19050SOL    HW159350   2.365   8.844   6.010  0.1718 -1.9650  0.4593
19050SOL    HW259351   2.498   8.848   6.083  0.6295  0.1601 -0.4310
19051SOL     OW59352   3.290   3.133   1.864  0.6072  0.0122 -0.2232
19051SOL    HW159353   3.301   3.064   1.929  2.3940 -1.3613 -1.8387
19051SOL    HW259354   3.374   3.180   1.865  0.1765  0.7969 -0.6058
19052SOL     OW59355   3.747   5.125   7.138  0.0162  0.3283 -0.4781
19052SOL    HW159356   3.838   5.095   7.135 -0.3870 -0.9233 -0.7860
19052SOL    HW259357   3.696   5.045   7.141 -1.0772  1.0228  0.1618
19053SOL     OW59358   8.237   2.777   0.053 -0.2659 -0.2321 -0.3095
19053SOL    HW159359   8.239   2.683   0.039  0.0809 -0.0443 -1.6217
19053SOL    HW259360   8.321   2.808   0.019 -0.4601  0.5775 -0.0712
19054SOL     OW59361   0.207   4.306   5.350  0.3505  0.2640  0.0231
19054SOL    HW159362   0.284   4.335   5.300 -0.4922  2.8364  0.0582
19054SOL    HW259363   0.135   4.358   5.315 -1.2259 -1.3995  0.6508
19055SOL     OW59364   1.266   2.992   6.435  0.6662  0.1225 -0.3561
19055SOL    HW159365   1.232   2.903   6.436  2.6922 -0.7081  0.1416
19055SOL    HW259366   1.329   2.993   6.362  2.1075  0.5244  0.8330
19056SOL     OW59367   7.573   5.042   2.411 -0.1886 -0.0646  0.2883
19056SOL    HW159368   7.574   5.055   2.506 -1.0518  0.0698  0.2867
19056SOL    HW259369   7.652   4.992   2.392  0.2691  0.3739  1.0111
19057SOL     OW59370   1.353   3.599   3.408 -0.3074  0.1833 -0.0842
19057SOL    HW159371   1.376   3.599   3.501  0.0649 -0.8980 -0.1665
19057SOL    HW259372   1.269   3.645   3.405  1.1840  3.2275  0.3446
19058SOL     OW59373   2.942   2.480   4.041  0.7810  0.1222 -0.0811
19058SOL    HW159374   2.904   2.468   4.128  1.8374 -1.0239  0.2645
19058SOL    HW259375   2.906   2.409   3.989  1.3958 -0.1666 -0.1195
19059SOL     OW59376   8.044   4.212   6.915  0.0883  0.3518  0.2233
19059SOL    HW159377   8.129   4.241   6.948 -0.2095  2.7776 -0.8861
19059SOL    HW259378   8.052   4.217   6.820 -0.0018 -3.6239 -0.1547
19060SOL     OW59379   9.428   6.216   8.009 -0.4087 -0.1175  0.4206
19060SOL    HW159380   9.511   6.171   8.022  0.0551  0.4475 -0.5005
19060SOL    HW259381   9.442   6.304   8.044 -0.1376  0.4290 -0.9739
19061SOL     OW59382   3.181   1.371   3.848 -0.5093 -0.3054  0.0700
19061SOL    HW159383   3.104   1.389   3.794 -0.5924  1.6096  0.7667
19061SOL    HW259384   3.147   1.364   3.937  0.1118  0.5612  0.3860
19062SOL     OW59385   9.380   6.315   0.161  0.0268  0.0803  0.1313
19062SOL    HW159386   9.450   6.354   0.109  0.8314  0.1487  1.2249
19062SOL    HW259387   9.299   6.343   0.118  0.6455  1.0851 -0.4036
19063SOL     OW59388   0.386   7.807   3.049 -0.0909 -0.2032 -0.5717
19063SOL    HW159389   0.453   7.851   3.102 -0.8732  1.5979 -0.9880
19063SOL    HW259390   0.424   7.802   2.962 -0.2820  0.3690 -0.6946
19064SOL     OW59391   4.647   3.949   2.683  0.1080  0.3432  0.0941
19064SOL    HW159392   4.651   3.951   2.587 -1.2702 -1.5098 -0.0586
19064SOL    HW259393   4.704   3.876   2.708  0.0525  0.4847  0.6447
19065SOL     OW59394   9.513   4.319   4.469 -0.4143 -0.3326 -0.5072
19065SOL    HW159395   9.445   4.386   4.468  0.1809  0.3181  0.4252
19065SOL    HW259396   9.465   4.236   4.470 -1.1862  0.1044 -0.1749
19066SOL     OW59397   0.096   1.638   2.501 -0.0427 -0.9824 -0.2646
19066SOL    HW159398   0.073   1.551   2.535 -0.5834 -0.5455  0.4957
19066SOL    HW259399   0.035   1.698   2.544 -0.4416 -0.3539 -1.6411
19067SOL     OW59400   1.162   4.963   8.132  0.4094  0.2493  0.2707
19067SOL    HW159401   1.077   4.922   8.146  0.0536  1.3333  1.5229
19067SOL    HW259402   1.176   5.015   8.211  1.5582  1.2556 -0.5629
19068SOL     OW59403   1.351   5.153   6.679  0.4173 -0.8596  0.2410
19068SOL    HW159404   1.300   5.102   6.616  1.7923 -2.0869  0.0802
19068SOL    HW259405   1.360   5.095   6.755 -1.7246  0.7967  1.9169
19069SOL     OW59406   8.995   4.973   4.294  0.1107 -0.0688 -0.1328
19069SOL    HW159407   8.972   5.066   4.297 -0.7143 -0.2781  0.0784
19069SOL    HW259408   9.045   4.958   4.374 -0.9075 -0.1064  0.5033
19070SOL     OW59409   8.030   6.342   5.887 -0.0485  0.1776  0.2826
19070SOL    HW159410   8.066   6.389   5.812 -0.3192 -1.4958 -0.9600
19070SOL    HW259411   7.941   6.375   5.897 -0.2446 -0.0760 -0.5905
19071SOL     OW59412   1.997   2.613   6.104  0.8714 -0.0924 -0.4643
19071SOL    HW159413   2.023   2.568   6.024  0.9128 -2.2363  0.6666
19071SOL    HW259414   2.073   2.605   6.162 -0.1411 -1.1844  0.7876
19072SOL     OW59415   5.103   3.790   2.385  0.0622  0.0308  0.0342
19072SOL    HW159416   5.190   3.824   2.407 -0.3148  1.1697 -0.1821
19072SOL    HW259417   5.081   3.831   2.301 -1.5104  1.4003  1.0367
19073SOL     OW59418   8.763   4.634   5.118  0.1163 -0.4857  0.7189
19073SOL    HW159419   8.801   4.635   5.206 -1.5363 -0.5044  1.4707
19073SOL    HW259420   8.752   4.541   5.098 -0.7697 -0.4673  1.0822
19074SOL     OW59421   4.225   7.846   1.264  0.2197 -0.3708  0.0537
19074SOL    HW159422   4.145   7.794   1.269  0.8710 -1.3828  0.1867
19074SOL    HW259423   4.292   7.784   1.236  1.3827 -0.0439  1.9139
19075SOL     OW59424   4.219   7.372   9.427  0.8763 -0.2572  0.1609
19075SOL    HW159425   4.287   7.426   9.388  0.2861  0.7972  0.5353
19075SOL    HW259426   4.265   7.296   9.463  1.9815  0.8428  1.1716
19076SOL     OW59427   2.703   0.652   3.994  0.2817 -0.0011  0.2218
19076SOL    HW159428   2.712   0.566   4.035  1.8888  0.2837  0.5682
19076SOL    HW259429   2.771   0.652   3.926 -2.2284 -0.4262 -2.5083
19077SOL     OW59430   9.473   4.921   7.127  0.5409  0.4286  0.5622
19077SOL    HW159431   9.471   5.005   7.080 -1.5602  0.6452  0.9742
19077SOL    HW259432   9.429   4.859   7.069  0.2560  0.0923  1.1274
19078SOL     OW59433   2.230   5.008   9.153  0.6651  0.8277 -0.0651
19078SOL    HW159434   2.215   4.956   9.074 -0.8555  0.0741  0.6833
19078SOL    HW259435   2.323   4.998   9.171  0.7411 -0.1717 -0.9418
19079SOL     OW59436   9.484   3.935   5.844  0.1925 -0.1867  0.8672
19079SOL    HW159437   9.423   3.908   5.774  0.8003  0.9212 -0.1288
19079SOL    HW259438   9.444   3.902   5.924 -2.3656  1.5000  0.4118
19080SOL     OW59439   2.161   7.297   2.097  0.7526  0.6268  0.6630
19080SOL    HW159440   2.079   7.346   2.099 -1.4737 -2.7620  0.4235
19080SOL    HW259441   2.183   7.282   2.189  0.4021  0.5428  0.7353
19081SOL     OW59442   1.740   0.180   0.753  0.0444 -0.2510 -0.2580
19081SOL    HW159443   1.801   0.206   0.821  0.4203 -0.7118 -0.4153
19081SOL    HW259444   1.787   0.195   0.671  0.2856 -1.4235 -0.3562
19082SOL     OW59445   7.812   3.432   5.938  0.9147 -0.3304 -0.1216
19082SOL    HW159446   7.765   3.350   5.954 -0.0495 -0.3896 -2.6940
19082SOL    HW259447   7.826   3.433   5.843  1.4966  2.1684 -0.0832
19083SOL     OW59448   9.058   4.220   3.895 -0.3639 -0.2889 -0.9509
19083SOL    HW159449   9.063   4.145   3.836  1.0961 -0.5118 -0.5793
19083SOL    HW259450   9.138   4.270   3.877  0.0036 -0.2558  0.6643
19084SOL     OW59451   3.152   3.983   0.231 -0.1507  0.4732  0.4112
19084SOL    HW159452   3.229   4.039   0.219  0.4259 -0.2038  0.8927
19084SOL    HW259453   3.126   3.997   0.322 -1.1751  1.3982  0.0023
19085SOL     OW59454   5.250   8.828   4.292 -0.4136 -0.1631 -0.1109
19085SOL    HW159455   5.311   8.901   4.295  3.2640 -2.9275  0.0059
19085SOL    HW259456   5.238   8.803   4.384 -1.8019  0.3152 -0.1358
19086SOL     OW59457   7.997   1.056   5.866 -0.3482 -0.1481  0.0112
19086SOL    HW159458   7.937   1.123   5.897  1.5020  1.2800  0.6439
19086SOL    HW259459   8.046   1.098   5.796  1.5798 -0.4429  1.1225
19087SOL     OW59460   7.672   1.716   5.603  0.3173  0.0090  0.3880
19087SOL    HW159461   7.667   1.647   5.669  0.1161 -0.5952 -0.2502
19087SOL    HW259462   7.634   1.677   5.524 -2.4049  1.7142  0.7328
19088SOL     OW59463   4.909   0.221   7.238  0.2268 -0.2073 -0.4050
19088SOL    HW159464   4.860   0.253   7.162 -1.0817 -1.1255  0.0157
19088SOL    HW259465   4.900   0.126   7.234  2.5507 -0.4772 -0.6520
19089SOL     OW59466   1.758   8.019   4.472  0.3980 -0.8829 -0.7455
19089SOL    HW159467   1.785   8.042   4.561 -0.8745 -0.6358 -0.4078
19089SOL    HW259468   1.714   7.935   4.481  2.4315 -2.1000 -1.5401
19090SOL     OW59469   2.250   4.178   5.904  0.6547 -0.0170  0.3515
19090SOL    HW159470   2.217   4.128   5.829  0.9691  2.0874 -1.2448
19090SOL    HW259471   2.304   4.247   5.867  1.8114  0.4026  2.6008
19091SOL     OW59472   1.590   4.074   5.474 -0.5084  0.3448 -0.2083
19091SOL    HW159473   1.620   4.158   5.440  1.9396 -0.6039 -0.6696
19091SOL    HW259474   1.533   4.039   5.406  1.8305 -0.1354 -2.0912
19092SOL     OW59475   3.479   5.571   5.607 -0.3715  0.1505  0.1789
19092SOL    HW159476   3.437   5.576   5.522 -0.6417  3.1647  0.3813
19092SOL    HW259477   3.553   5.631   5.602  0.1992 -0.3459  1.7664
19093SOL     OW59478   0.444   6.663   9.226 -0.4975 -0.3583  0.0641
19093SOL    HW159479   0.492   6.613   9.160  0.3247  0.3665  0.0895
19093SOL    HW259480   0.473   6.626   9.309  0.5805  0.5224  0.1094
19094SOL     OW59481   9.012   7.547   8.584 -0.1428  0.3686 -0.8293
19094SOL    HW159482   9.051   7.597   8.513  0.9491  0.0392 -0.4834
19094SOL    HW259483   9.086   7.503   8.626 -0.9179 -0.4720 -0.2970
19095SOL     OW59484   7.971   8.930   8.453  0.3951  0.1931  0.0851
19095SOL    HW159485   8.022   8.855   8.485  0.4605  0.6721  1.1403
19095SOL    HW259486   7.903   8.891   8.398  0.0507 -0.6958  1.1259
19096SOL     OW59487   3.511   4.579   5.160  0.4923  0.0419 -0.1977
19096SOL    HW159488   3.522   4.506   5.100 -0.1134 -0.1259 -0.1085
19096SOL    HW259489   3.582   4.639   5.138  0.6347 -0.2972 -0.6722
19097SOL     OW59490   5.353   8.537   0.797  0.0642  0.1656 -0.2923
19097SOL    HW159491   5.362   8.478   0.871 -0.2621  3.0797  2.3082
19097SOL    HW259492   5.259   8.540   0.779 -0.0902  0.9853  0.5973
19098SOL     OW59493   7.656   7.893   4.718 -0.7622 -0.7149  0.0999
19098SOL    HW159494   7.676   7.821   4.778 -0.9331 -0.6305  0.2601
19098SOL    HW259495   7.565   7.916   4.737 -0.1040  0.9646  1.5837
19099SOL     OW59496   6.241   1.822   0.492  0.0339 -0.2382  0.5086
19099SOL    HW159497   6.151   1.801   0.516 -1.2211  2.0459 -1.6623
19099SOL    HW259498   6.277   1.864   0.570 -1.3879  0.3535  0.8828
19100SOL     OW59499   8.864   8.014   3.175  0.1075  0.3503  0.3131
19100SOL    HW159500   8.839   7.981   3.262 -0.3129 -0.2547 -0.0287
19100SOL    HW259501   8.791   8.070   3.149  0.7433  1.4496  0.8190
19101SOL     OW59502   6.778   4.307   2.147 -0.2800 -0.9202 -0.1657
19101SOL    HW159503   6.719   4.289   2.219 -0.8596 -1.6736 -0.8126
19101SOL    HW259504   6.726   4.361   2.087  0.4779  0.4436  0.3677
19102SOL     OW59505   9.418   8.870   7.437  0.1800 -0.1519 -0.1589
19102SOL    HW159506   9.464   8.930   7.377 -1.0673 -0.4184 -1.4425
19102SOL    HW259507   9.356   8.823   7.380  0.0814 -1.5840  1.0824
19103SOL     OW59508   6.439   6.418   2.425 -0.1275  0.1830  0.0495
19103SOL    HW159509   6.445   6.479   2.352  1.1511  0.0601  0.0211
19103SOL    HW259510   6.452   6.332   2.386  2.4991  0.2411  0.5842
19104SOL     OW59511   3.840   0.102   0.320 -0.2963 -0.4290  0.6054
19104SOL    HW159512   3.813   0.013   0.296 -0.7671  0.3713 -2.2199
19104SOL    HW259513   3.936   0.099   0.318 -0.3092 -0.6869 -0.4779
19105SOL     OW59514   7.698   4.700   0.992 -0.0585  0.2697  0.1272
19105SOL    HW159515   7.640   4.710   0.916 -0.6843  0.5124  0.6296
19105SOL    HW259516   7.705   4.789   1.028  0.8961  0.3006 -0.1221
19106SOL     OW59517   6.036   2.586   1.813  0.0541  0.0724 -0.2438
19106SOL    HW159518   6.004   2.675   1.827 -1.2009 -0.0378 -2.0992
19106SOL    HW259519   6.130   2.592   1.827 -0.1067  1.5242  0.3735
19107SOL     OW59520   3.092   4.184   8.269  0.0374  0.2890 -0.0563
19107SOL    HW159521   3.094   4.094   8.302  0.3579  0.2209 -0.2452
19107SOL    HW259522   3.185   4.209   8.265 -0.1048  1.1299  1.3222
19108SOL     OW59523   3.894   4.444   6.147 -0.3529  0.0957 -0.0779
19108SOL    HW159524   3.811   4.396   6.155 -0.4403 -0.0976 -1.7884
19108SOL    HW259525   3.873   4.519   6.092  0.1462  1.3038  1.2962
19109SOL     OW59526   8.452   6.231   0.819 -0.1799 -0.1235 -0.4508
19109SOL    HW159527   8.514   6.180   0.766 -0.3677 -1.3395  0.4470
19109SOL    HW259528   8.447   6.183   0.901  1.5284  2.6461  1.4658
19110SOL     OW59529   8.756   6.399   8.931  0.7733 -0.8805 -0.0642
19110SOL    HW159530   8.671   6.361   8.954 -0.0591 -0.3904 -2.0945
19110SOL    HW259531   8.815   6.369   9.001 -1.2452 -0.3637  2.0098
19111SOL     OW59532   6.320   6.816   6.759  0.1144 -0.1442 -0.0985
19111SOL    HW159533   6.250   6.798   6.696 -0.7016 -0.1467  0.7804
19111SOL    HW259534   6.311   6.748   6.825  0.7223  0.0708  0.2123
19112SOL     OW59535   5.108   7.674   6.657  0.1344 -0.0568 -0.4325
19112SOL    HW159536   5.053   7.751   6.644  0.8870  0.3467 -1.3037
19112SOL    HW259537   5.162   7.695   6.733 -0.1734 -0.0296 -0.2193
19113SOL     OW59538   9.564   0.611   7.536  0.4548  0.0853 -0.5703
19113SOL    HW159539   9.566   0.568   7.622 -2.9529  0.2007 -0.2764
19113SOL    HW259540   9.603   0.697   7.551 -1.2599  0.6174  1.2931
19114SOL     OW59541   8.077   0.614   4.523  0.4009  0.3604  0.3654
19114SOL    HW159542   8.079   0.681   4.592  4.6696  1.0344 -0.1976
19114SOL    HW259543   8.023   0.653   4.454  0.3587  1.9145  1.2231
19115SOL     OW59544   6.205   7.381   0.433 -0.1697  0.0485  0.5595
19115SOL    HW159545   6.114   7.404   0.412 -0.3426  0.9656  2.1271
19115SOL    HW259546   6.203   7.361   0.527  1.4971  1.5711  0.9709
19116SOL     OW59547   6.105   3.459   7.918  0.3099 -0.3311 -0.0266
19116SOL    HW159548   6.092   3.543   7.875 -0.9310 -0.6135 -0.2321
19116SOL    HW259549   6.140   3.481   8.004 -0.8876  0.4598  0.2840
19117SOL     OW59550   9.258   9.101   5.405  0.6303 -0.5691  0.3305
19117SOL    HW159551   9.208   9.027   5.370 -0.3925  0.9059 -1.5131
19117SOL    HW259552   9.292   9.069   5.489 -0.2540 -2.9062 -0.1133
19118SOL     OW59553   6.182   6.115   3.737 -0.1004  0.1848 -0.6584
19118SOL    HW159554   6.155   6.198   3.775 -0.2285 -1.4073  3.2063
19118SOL    HW259555   6.269   6.099   3.775 -0.6090 -1.9680 -0.2824
19119SOL     OW59556   5.533   2.917   3.304 -0.6955 -0.6894  0.8884
19119SOL    HW159557   5.587   2.848   3.342  0.2396 -0.5150 -0.0817
19119SOL    HW259558   5.528   2.895   3.211 -1.8176 -0.3799  0.8670
19120SOL     OW59559   1.055   8.814   9.302 -0.1210  0.1302  0.2455
19120SOL    HW159560   1.117   8.869   9.351  0.6468 -0.9212  0.4847
19120SOL    HW259561   1.101   8.731   9.291 -1.5364 -0.7059  0.5001
19121SOL     OW59562   1.012   5.252   9.478 -0.5707  0.3558 -0.4005
19121SOL    HW159563   1.082   5.316   9.493  1.6286 -1.9286 -0.1487
19121SOL    HW259564   0.968   5.243   9.562 -0.2818  0.8458 -0.1952
19122SOL     OW59565   1.894   7.870   2.047  0.2611 -0.0922  0.3885
19122SOL    HW159566   1.911   7.836   2.135 -1.7222  0.6932  1.1171
19122SOL    HW259567   1.979   7.900   2.016  1.2528 -1.6347  1.4720
19123SOL     OW59568   7.293   7.284   5.815  0.4382  0.7918  0.0205
19123SOL    HW159569   7.285   7.355   5.751 -0.3818  0.1929 -0.5695
19123SOL    HW259570   7.360   7.226   5.777 -1.2645 -0.4793 -1.2638
19124SOL     OW59571   7.028   4.635   4.174 -0.6933  0.0651  0.5002
19124SOL    HW159572   7.095   4.599   4.232  0.7347  2.7782  0.7017
19124SOL    HW259573   7.044   4.592   4.090  0.2134 -0.5767  0.9807
19125SOL     OW59574   1.966   6.333   0.551 -0.1694  0.6190 -0.2978
19125SOL    HW159575   1.900   6.321   0.482 -0.5912  0.7519  0.0754
19125SOL    HW259576   2.041   6.372   0.506 -0.7948  1.6095 -0.5189
19126SOL     OW59577   4.461   8.119   1.979 -0.8877  0.7335 -0.5273
19126SOL    HW159578   4.544   8.166   1.967  0.2550 -0.4441  1.9298
19126SOL    HW259579   4.394   8.184   1.960  0.6047  2.1618 -1.1718
19127SOL     OW59580   2.355   1.268   7.175  0.0379  0.1341  0.1280
19127SOL    HW159581   2.264   1.275   7.202 -0.2546  0.3885 -0.8659
19127SOL    HW259582   2.389   1.358   7.180  0.4268 -0.0522  1.0940
19128SOL     OW59583   2.849   9.123   3.292 -0.3256 -0.5036 -0.4868
19128SOL    HW159584   2.874   9.105   3.201 -1.3178 -0.5048 -0.7724
19128SOL    HW259585   2.829   9.217   3.293 -0.2376 -0.4856 -0.2455
19129SOL     OW59586   5.146   1.467   6.241 -0.6077 -0.2750 -0.6592
19129SOL    HW159587   5.226   1.501   6.201  0.0798 -2.1806 -0.9742
19129SOL    HW259588   5.084   1.459   6.169 -1.3281  1.7050 -0.3329
19130SOL     OW59589   1.752   0.314   1.346 -0.4847 -0.1158 -0.1164
19130SOL    HW159590   1.755   0.247   1.414  1.7931 -0.8146 -0.8067
19130SOL    HW259591   1.775   0.395   1.391 -1.0505 -0.1914  0.3127
19131SOL     OW59592   4.864   2.537   5.300 -0.2237 -0.0041  0.1591
19131SOL    HW159593   4.822   2.622   5.311 -2.3708 -1.1731  1.5346
19131SOL    HW259594   4.817   2.496   5.227 -1.0590 -1.0520  1.2589
19132SOL     OW59595   0.698   8.546   8.257 -0.3660 -0.3601 -0.2021
19132SOL    HW159596   0.673   8.465   8.302 -0.8323 -0.9761 -1.5293
19132SOL    HW259597   0.618   8.599   8.256 -0.6194 -0.7344 -1.0765
19133SOL     OW59598   9.233   6.963   5.056 -0.4116  0.2314  0.1968
19133SOL    HW159599   9.305   6.990   5.000 -1.5279  1.8227 -0.5707
19133SOL    HW259600   9.267   6.971   5.145  1.2190 -1.8212 -0.1695
19134SOL     OW59601   1.144   2.330   6.493  0.3031 -0.1566  0.5145
19134SOL    HW159602   1.141   2.260   6.558 -1.6194  1.1314  1.9336
19134SOL    HW259603   1.164   2.286   6.411  4.5594 -1.6998  2.0846
19135SOL     OW59604   1.345   4.123   3.275  0.2690  0.0852 -0.0722
19135SOL    HW159605   1.415   4.179   3.241  0.4377 -1.0076 -1.6338
19135SOL    HW259606   1.283   4.184   3.315  1.0143  1.2724 -0.6688
19136SOL     OW59607   6.606   7.848   8.569  0.2114  0.1083 -0.4004
19136SOL    HW159608   6.591   7.798   8.650 -0.1595  0.9183  0.0411
19136SOL    HW259609   6.524   7.837   8.520  0.6503 -0.8703 -0.9530
19137SOL     OW59610   0.797   0.577   8.411 -0.3857 -0.2757 -0.6367
19137SOL    HW159611   0.813   0.487   8.382 -0.2606 -0.0965 -1.1188
19137SOL    HW259612   0.726   0.609   8.355 -0.8367 -0.2659 -0.0769
19138SOL     OW59613   0.379   5.567   7.095 -0.6840  0.6449 -0.0434
19138SOL    HW159614   0.410   5.596   7.009 -2.1138  2.0010 -0.1347
19138SOL    HW259615   0.450   5.512   7.128 -0.7550 -1.2761 -2.7674
19139SOL     OW59616   5.264   0.452   0.496  0.2826 -1.0822 -0.8364
19139SOL    HW159617   5.265   0.393   0.421 -2.6942 -1.4398 -0.7116
19139SOL    HW259618   5.236   0.398   0.569  1.9240 -0.4553  0.3300
19140SOL     OW59619   9.529   3.784   8.720  0.0450 -0.4954  0.2734
19140SOL    HW159620   9.509   3.697   8.685  1.0916 -1.0632  1.0134
19140SOL    HW259621   9.563   3.833   8.645  1.3999 -1.4037  0.2509
19141SOL     OW59622   1.766   0.420   5.395 -0.2982  0.0721 -0.0368
19141SOL    HW159623   1.722   0.482   5.453 -1.0963  0.3085 -0.8575
19141SOL    HW259624   1.722   0.336   5.411  0.8367 -0.3432  1.1340
19142SOL     OW59625   4.215   2.613   3.941  0.2072  0.5104 -0.5622
19142SOL    HW159626   4.222   2.543   4.005  0.1034  1.4962  0.5504
19142SOL    HW259627   4.205   2.568   3.857 -0.3697 -0.7880  0.1853
19143SOL     OW59628   2.080   8.712   9.003  0.1272  0.4432  0.4832
19143SOL    HW159629   2.045   8.760   8.927 -0.9495 -0.5453  0.3156
19143SOL    HW259630   2.174   8.706   8.987 -0.2142 -0.7009 -1.3653
19144SOL     OW59631   5.040   7.761   4.387  0.5291 -0.6421  0.0006
19144SOL    HW159632   5.032   7.667   4.369  1.8925 -0.5277 -1.4854
19144SOL    HW259633   4.986   7.803   4.320  1.3425 -0.3436 -0.4853
19145SOL     OW59634   4.843   0.723   9.216 -0.2022  0.2946  0.0453
19145SOL    HW159635   4.790   0.786   9.166 -1.5292  0.9847  2.1951
19145SOL    HW259636   4.856   0.650   9.156 -1.0456  1.4032 -1.5694
19146SOL     OW59637   6.251   0.602   2.222  0.0996 -0.1703  0.0739
19146SOL    HW159638   6.327   0.557   2.260 -0.1688  0.2643  1.1661
19146SOL    HW259639   6.237   0.677   2.280 -0.6732  0.2038 -0.5843
19147SOL     OW59640   6.998   7.919   4.625  0.5493  0.4365 -0.2735
19147SOL    HW159641   6.975   7.913   4.532  0.1331  1.0590 -0.2154
19147SOL    HW259642   6.976   8.009   4.649  1.1858  0.4434  0.2892
19148SOL     OW59643   9.331   8.893   4.930 -0.3030 -0.4196  0.0207
19148SOL    HW159644   9.369   8.916   4.846 -0.2271 -0.4905  0.0344
19148SOL    HW259645   9.301   8.976   4.967  0.1020 -0.3208  0.1374
19149SOL     OW59646   0.346   1.518   2.165  0.1755 -0.6283 -0.0346
19149SOL    HW159647   0.258   1.539   2.198  0.0954 -0.9321 -0.0491
19149SOL    HW259648   0.385   1.464   2.234 -0.5115 -2.4643 -1.0125
19150SOL     OW59649   4.160   1.550   0.477 -0.0773  0.1880  0.1612
19150SOL    HW159650   4.238   1.602   0.458  0.2168  0.3485  1.6826
19150SOL    HW259651   4.088   1.613   0.479 -0.0121  0.2595  0.2105
19151SOL     OW59652   2.995   1.317   6.339 -1.0366  0.5228 -0.0872
19151SOL    HW159653   3.057   1.290   6.407  0.7154  1.9832 -1.0187
19151SOL    HW259654   2.998   1.412   6.340 -1.2115  0.5850 -1.9588
19152SOL     OW59655   0.505   3.636   5.916  0.0918 -0.3152  0.4509
19152SOL    HW159656   0.571   3.621   5.984  0.8979  1.2431  0.0638
19152SOL    HW259657   0.553   3.630   5.834  0.1775  2.5054  0.2133
19153SOL     OW59658   8.737   1.424   8.658  0.1873  0.4618  0.5130
19153SOL    HW159659   8.731   1.394   8.568  1.2072  1.3497  0.1287
19153SOL    HW259660   8.713   1.347   8.710 -0.0252 -0.1800 -0.4990
19154SOL     OW59661   2.270   5.023   6.554 -0.4186 -0.3854  0.1315
19154SOL    HW159662   2.178   5.006   6.531 -0.8954  1.0376  0.9023
19154SOL    HW259663   2.282   5.117   6.540  0.1631 -0.0453  2.5129
19155SOL     OW59664   5.748   3.681   6.026 -0.1416  0.0599 -0.0714
19155SOL    HW159665   5.778   3.599   6.064 -1.8823  0.3565  2.2149
19155SOL    HW259666   5.768   3.747   6.093  0.5915  1.4025 -1.5620
19156SOL     OW59667   6.706   4.431   2.745  0.7385  0.1344 -0.5164
19156SOL    HW159668   6.682   4.355   2.692  0.3892 -0.4878  0.4989
19156SOL    HW259669   6.782   4.468   2.701  0.4246 -0.3281 -1.4765
19157SOL     OW59670   7.969   0.810   8.722 -0.1394  0.9424 -0.1894
19157SOL    HW159671   8.056   0.843   8.744  0.1729  0.0111  0.0125
19157SOL    HW259672   7.915   0.834   8.797  0.6611 -1.2148  1.1878
19158SOL     OW59673   2.421   8.198   6.317  0.0267  0.1209  0.4031
19158SOL    HW159674   2.510   8.175   6.293 -1.1055 -1.5254 -2.8067
19158SOL    HW259675   2.383   8.234   6.237 -2.4687 -0.1773  1.3644
19159SOL     OW59676   6.983   4.681   6.628 -0.1820  0.3434 -0.1000
19159SOL    HW159677   6.924   4.755   6.646 -0.6289  0.1741 -0.8483
19159SOL    HW259678   6.935   4.626   6.566  0.3658 -0.3063  0.0385
19160SOL     OW59679   7.934   6.572   3.083 -0.2728 -0.5270  0.3271
19160SOL    HW159680   7.976   6.542   3.163  1.9824  0.3470 -0.4611
19160SOL    HW259681   7.840   6.564   3.101  0.1786 -1.5180  2.5710
19161SOL     OW59682   9.312   6.050   4.950  0.0470  0.1608  0.8408
19161SOL    HW159683   9.395   6.019   4.987 -0.7990 -1.7851  1.2099
19161SOL    HW259684   9.245   6.009   5.004 -1.2512 -1.9697 -2.1112
19162SOL     OW59685   5.657   0.112   5.275 -0.4294 -0.2013  0.1289
19162SOL    HW159686   5.722   0.053   5.312 -0.5933 -0.3046  0.2554
19162SOL    HW259687   5.575   0.088   5.319 -0.8825 -1.1614 -1.1703
19163SOL     OW59688   5.259   4.662   8.322 -0.2932  0.1816 -0.1898
19163SOL    HW159689   5.314   4.584   8.312  0.3773  0.4478  1.2103
19163SOL    HW259690   5.272   4.689   8.413 -0.5928  1.8775 -0.6154
19164SOL     OW59691   4.079   6.194   6.781 -0.5700 -0.8273  0.1842
19164SOL    HW159692   4.031   6.199   6.698 -0.6777 -0.0715  0.2835
19164SOL    HW259693   4.050   6.271   6.830  0.6434 -0.4259  0.3084
19165SOL     OW59694   4.152   5.611   5.816  0.0347  0.0740  0.0824
19165SOL    HW159695   4.173   5.518   5.829 -1.9628 -0.1430  2.3218
19165SOL    HW259696   4.057   5.613   5.811 -0.0608  2.1510  1.6912
19166SOL     OW59697   5.421   8.931   3.270 -0.1973 -0.4553  0.3535
19166SOL    HW159698   5.365   9.006   3.291  0.7119  0.1868  0.4926
19166SOL    HW259699   5.489   8.966   3.214  0.0636 -1.2457  0.1594
19167SOL     OW59700   5.550   2.761   2.564  0.0866 -0.1771 -0.4110
19167SOL    HW159701   5.519   2.806   2.486  0.4047  0.1633 -0.3415
19167SOL    HW259702   5.602   2.826   2.611 -0.6093 -0.1845  0.3996
19168SOL     OW59703   9.231   8.275   9.150 -1.2309 -0.4468  0.1615
19168SOL    HW159704   9.208   8.315   9.066 -1.2848 -0.9684 -0.0756
19168SOL    HW259705   9.152   8.284   9.203 -0.9354  0.6363  0.4589
19169SOL     OW59706   0.719   5.553   1.689 -0.3012  0.2693 -0.1820
19169SOL    HW159707   0.808   5.565   1.655 -0.3823 -2.0106 -1.3551
19169SOL    HW259708   0.729   5.494   1.763 -0.7483  0.8774  0.3756
19170SOL     OW59709   7.310   7.016   4.152  0.3150 -0.6749  0.0065
19170SOL    HW159710   7.331   7.045   4.063 -3.4419 -2.4531 -1.7042
19170SOL    HW259711   7.273   6.928   4.140 -1.4420 -0.5161  3.2051
19171SOL     OW59712   4.431   2.500   8.536  0.0620  0.1566  0.2218
19171SOL    HW159713   4.508   2.453   8.505  1.0467  0.8609  1.4982
19171SOL    HW259714   4.357   2.445   8.509  1.0576 -1.0615 -0.1221
19172SOL     OW59715   7.663   7.418   7.098 -0.5264 -0.0649 -0.3397
19172SOL    HW159716   7.699   7.491   7.047 -0.6396  0.5107  0.3879
19172SOL    HW259717   7.615   7.459   7.169 -1.5867 -0.8492 -0.5817
19173SOL     OW59718   5.252   4.682   7.419  0.4437 -0.1021 -0.2543
19173SOL    HW159719   5.159   4.677   7.440  0.0789 -0.6563 -1.8537
19173SOL    HW259720   5.294   4.621   7.479 -0.3080 -0.3043  0.0714
19174SOL     OW59721   8.879   6.875   2.933  0.1638 -0.0524  0.8630
19174SOL    HW159722   8.911   6.965   2.936  0.0483 -0.0291  1.4922
19174SOL    HW259723   8.881   6.845   3.024  0.8749 -0.9322  0.5793
19175SOL     OW59724   5.623   7.912   4.265  0.2348 -0.1053  0.0956
19175SOL    HW159725   5.571   7.833   4.279  1.2623 -1.0413 -1.0905
19175SOL    HW259726   5.699   7.901   4.323  0.4017 -0.0200 -0.1057
19176SOL     OW59727   5.774   7.168   0.872 -0.1514 -0.4676  0.1333
19176SOL    HW159728   5.739   7.099   0.816 -0.2067 -0.3057 -0.0303
19176SOL    HW259729   5.859   7.135   0.899  0.5634  0.1329 -1.3073
19177SOL     OW59730   4.234   3.962   4.319 -0.5993 -0.8494  0.3051
19177SOL    HW159731   4.201   3.940   4.407 -0.5828  0.6404  0.7166
19177SOL    HW259732   4.197   4.048   4.301 -0.5821 -1.1216 -1.1665
19178SOL     OW59733   8.312   7.525   4.234  0.0498 -0.8543  0.0948
19178SOL    HW159734   8.277   7.569   4.157  1.5734 -0.5465 -0.4544
19178SOL    HW259735   8.288   7.582   4.307 -0.9041 -0.8586 -0.1984
19179SOL     OW59736   0.084   6.299   6.511 -0.0783  0.0385 -0.1014
19179SOL    HW159737   0.017   6.257   6.565  0.3597 -0.4391  0.0775
19179SOL    HW259738   0.066   6.269   6.422 -0.2507  0.1049 -0.0887
19180SOL     OW59739   5.760   6.601   2.932  0.6374 -0.6249 -0.1973
19180SOL    HW159740   5.789   6.590   3.023 -0.2845 -1.1321  0.0434
19180SOL    HW259741   5.765   6.514   2.894 -1.9156 -1.0482  0.2778
19181SOL     OW59742   4.265   0.124   9.004 -0.2373  0.3480  0.9536
19181SOL    HW159743   4.307   0.210   9.004  0.7167 -0.0760 -0.8966
19181SOL    HW259744   4.304   0.079   9.078  2.1495  0.2079 -0.3086
19182SOL     OW59745   5.375   3.205   2.513  0.3035 -0.2303  0.4181
19182SOL    HW159746   5.425   3.182   2.591  0.5774 -0.5367  0.1513
19182SOL    HW259747   5.313   3.134   2.502  0.2793 -0.1981  0.3412
19183SOL     OW59748   9.240   3.273   5.974  0.5122  0.7845 -0.4113
19183SOL    HW159749   9.218   3.264   5.881  2.4146 -1.2998 -0.7425
19183SOL    HW259750   9.155   3.267   6.019 -0.2385 -0.4825 -1.9017
19184SOL     OW59751   2.850   5.665   1.744  0.1425  0.3657  0.1399
19184SOL    HW159752   2.912   5.735   1.723 -0.0661  0.0034 -1.8725
19184SOL    HW259753   2.854   5.658   1.840  2.4368  1.0172  0.1573
19185SOL     OW59754   8.030   0.112   8.607  0.1162  0.7305 -0.3596
19185SOL    HW159755   8.022   0.037   8.666 -0.3474  1.6545  0.7939
19185SOL    HW259756   8.063   0.183   8.662  1.8329  1.0488 -1.7181
19186SOL     OW59757   6.171   1.408   0.907  0.0963 -0.2123  0.0490
19186SOL    HW159758   6.242   1.351   0.936  0.6450  0.1265 -0.5800
19186SOL    HW259759   6.216   1.484   0.869 -0.5781 -0.3531 -1.0863
19187SOL     OW59760   1.326   7.088   0.034  0.5471  0.2622 -0.2690
19187SOL    HW159761   1.363   7.065  -0.052  2.2333  0.2601  0.4303
19187SOL    HW259762   1.285   7.008   0.064  1.2809 -0.1806 -0.4219
19188SOL     OW59763   0.233   8.825   0.511 -0.2918 -0.7228 -0.1173
19188SOL    HW159764   0.173   8.769   0.461  0.2055 -1.8442  0.5030
19188SOL    HW259765   0.284   8.764   0.564 -0.0297  0.3655  0.9180
19189SOL     OW59766   8.626   1.575   2.267 -0.3172  0.4000 -1.0032
19189SOL    HW159767   8.571   1.629   2.211  0.6844  2.7693  0.1371
19189SOL    HW259768   8.715   1.604   2.249  0.0438  1.3029  1.7372
19190SOL     OW59769   0.112   8.358   8.564  0.7061 -0.0951 -0.6297
19190SOL    HW159770   0.127   8.300   8.639  0.8946 -0.7363 -1.1567
19190SOL    HW259771   0.123   8.446   8.600 -0.8168 -0.3102  0.4586
19191SOL     OW59772   0.002   6.425   0.009 -0.1976  0.2021  0.7615
19191SOL    HW159773   0.037   6.348  -0.036 -1.0453 -0.1791  0.7276
19191SOL    HW259774   0.022   6.498  -0.048 -1.2546 -0.2753 -0.2531
19192SOL     OW59775   4.762   1.111   4.850 -0.7320  0.3278 -0.7469
19192SOL    HW159776   4.733   1.149   4.934  0.1776 -2.4224  0.9305
19192SOL    HW259777   4.680   1.089   4.805 -1.2318  1.3349 -0.3752
19193SOL     OW59778   7.710   6.646   1.184 -0.6688  0.3499  0.2670
19193SOL    HW159779   7.669   6.730   1.205  0.6710  0.5911  2.2655
19193SOL    HW259780   7.804   6.663   1.193 -0.3401 -1.2138  0.0740
19194SOL     OW59781   3.125   2.572   5.011 -0.3330  0.3745 -0.2915
19194SOL    HW159782   3.146   2.664   5.030 -1.4556  0.3421  1.2415
19194SOL    HW259783   3.030   2.569   5.009 -0.3225 -0.9161  0.4659
19195SOL     OW59784   1.435   3.415   8.889 -0.5263  0.0665  0.3849
19195SOL    HW159785   1.429   3.462   8.806 -0.8445  0.9401  0.8912
19195SOL    HW259786   1.527   3.422   8.913 -0.5245  0.2176  0.3359
19196SOL     OW59787   2.119   1.899   7.848 -0.2410 -0.1344  0.7653
19196SOL    HW159788   2.075   1.973   7.892 -0.0249  0.0066  0.7476
19196SOL    HW259789   2.191   1.940   7.800 -1.0810 -0.1608 -0.5638
19197SOL     OW59790   3.824   6.318   3.984  0.4276 -0.1923 -0.3345
19197SOL    HW159791   3.849   6.331   3.893  1.6497  0.0868  0.0182
19197SOL    HW259792   3.882   6.376   4.033  0.7637 -1.3689  0.7172
19198SOL     OW59793   6.024   4.131   3.118  0.5301 -0.3191  0.1670
19198SOL    HW159794   5.981   4.084   3.190  1.0144  0.0173  0.6768
19198SOL    HW259795   5.955   4.139   3.052  0.2348 -1.1228  0.3541
19199SOL     OW59796   8.481   3.936   6.043  0.2924  0.0132 -0.0601
19199SOL    HW159797   8.430   3.905   5.968  0.1927 -1.4262  0.5616
19199SOL    HW259798   8.447   4.023   6.061 -1.1160 -0.4327 -0.4269
19200SOL     OW59799   1.311   1.594   2.887  0.5964  1.0220 -0.5259
19200SOL    HW159800   1.270   1.596   2.973  0.1205  1.4445 -0.7553
19200SOL    HW259801   1.376   1.524   2.892 -0.0592  0.4313 -0.1121
19201SOL     OW59802   3.617   6.265   7.109  0.0156 -0.2308 -0.0880
19201SOL    HW159803   3.598   6.346   7.156 -0.9005 -0.1745 -0.5345
19201SOL    HW259804   3.642   6.202   7.177 -1.6931 -0.2721  0.5500
19202SOL     OW59805   5.046   1.065   0.304 -0.6692 -0.2708  0.4487
19202SOL    HW159806   5.071   1.042   0.215 -0.8405  0.2017  0.2773
19202SOL    HW259807   4.987   1.140   0.294 -0.0521  0.2948  1.0086
19203SOL     OW59808   8.078   8.486   0.487  0.3975  0.2850 -0.3814
19203SOL    HW159809   8.167   8.451   0.493  0.5401 -0.2422 -3.8171
19203SOL    HW259810   8.085   8.561   0.429 -1.2969  0.7929  0.0174
19204SOL     OW59811   1.924   5.220   3.066 -0.0472 -0.3004 -0.1458
19204SOL    HW159812   1.989   5.241   3.133 -0.0107 -2.0364  0.4323
19204SOL    HW259813   1.843   5.260   3.097  0.2797  0.0748  0.2277
19205SOL     OW59814   9.339   8.188   6.966  0.0547 -0.0412 -0.5128
19205SOL    HW159815   9.428   8.221   6.979 -0.6521  1.5533  0.5226
19205SOL    HW259816   9.282   8.256   7.001 -1.6731 -0.0895 -2.9876
19206SOL     OW59817   6.860   1.346   0.713  0.1615 -0.4634 -0.1189
19206SOL    HW159818   6.788   1.391   0.757 -1.0820 -1.4712 -1.0658
19206SOL    HW259819   6.936   1.402   0.729 -0.4890 -0.1487  2.2078
19207SOL     OW59820   0.806   6.265   7.774 -0.2107 -0.8292 -0.0508
19207SOL    HW159821   0.746   6.316   7.720  1.1955  1.1930  0.1671
19207SOL    HW259822   0.833   6.192   7.719 -0.0978  0.2587 -1.4877
19208SOL     OW59823   9.112   3.053   3.465  0.7280  0.7634 -0.0774
19208SOL    HW159824   9.117   3.123   3.400  3.0630  1.2692  0.5649
19208SOL    HW259825   9.160   3.086   3.541  1.0214 -1.1366  0.6254
19209SOL     OW59826   0.368   0.859   3.574 -0.1283 -0.2425 -0.0025
19209SOL    HW159827   0.357   0.861   3.479  0.1695  1.9758 -0.0292
19209SOL    HW259828   0.325   0.778   3.601 -1.0991 -0.4228 -1.9243
19210SOL     OW59829   8.846   5.389   1.540 -0.5711  0.0419  0.0499
19210SOL    HW159830   8.876   5.449   1.609  1.1213 -1.1239  0.3835
19210SOL    HW259831   8.813   5.313   1.587 -0.7950 -0.1477 -0.4114
19211SOL     OW59832   0.495   0.739   1.230 -0.1155  0.1431  0.3041
19211SOL    HW159833   0.439   0.715   1.304 -0.8487 -0.1677 -0.3256
19211SOL    HW259834   0.559   0.669   1.224 -0.4082 -0.1270  0.3042
19212SOL     OW59835   5.368   4.862   5.523  0.0010 -0.2162 -0.6433
19212SOL    HW159836   5.442   4.910   5.561 -0.1857  0.3272 -0.9702
19212SOL    HW259837   5.319   4.831   5.599 -0.4543  0.9923 -0.4301
19213SOL     OW59838   0.959   3.732   7.843  0.1090  0.2612  0.3236
19213SOL    HW159839   0.897   3.772   7.904 -1.2590 -0.8809 -0.2319
19213SOL    HW259840   1.029   3.796   7.834 -0.8963  1.5356  1.1471
19214SOL     OW59841   8.618   8.615   6.230  0.0730  0.3747  0.3329
19214SOL    HW159842   8.617   8.704   6.263 -0.0677  0.3998  0.2611
19214SOL    HW259843   8.707   8.602   6.196 -0.2295  0.8813 -0.7077
19215SOL     OW59844   7.267   8.477   2.639  0.5780 -0.1372 -0.3034
19215SOL    HW159845   7.198   8.535   2.672  1.5686  0.7629  0.2541
19215SOL    HW259846   7.227   8.390   2.638  0.2205 -0.1069  2.5681
19216SOL     OW59847   9.077   1.449   9.141  0.3772  0.4227  0.6353
19216SOL    HW159848   9.054   1.425   9.051  1.5964  1.2183  0.0788
19216SOL    HW259849   9.041   1.537   9.152 -0.6604 -0.0691  1.3017
19217SOL     OW59850   6.347   1.751   3.104  0.4830 -0.0938  0.0840
19217SOL    HW159851   6.307   1.677   3.151  0.3377 -0.3107 -0.3746
19217SOL    HW259852   6.397   1.797   3.171  1.0845 -0.9699  0.2509
19218SOL     OW59853   2.288   3.097   6.515 -0.1651  0.1117  0.8754
19218SOL    HW159854   2.323   3.058   6.435  0.6999 -0.2702  1.4300
19218SOL    HW259855   2.245   3.177   6.485  0.6105  0.2538  0.0800
19219SOL     OW59856   0.884   0.934   4.700  0.1419  0.0954  0.1895
19219SOL    HW159857   0.922   1.019   4.675 -0.2533  0.2736  0.1830
19219SOL    HW259858   0.849   0.900   4.618 -1.3485  0.7763  0.5203
19220SOL     OW59859   2.737   5.963   7.456 -0.1817  0.2230  0.2068
19220SOL    HW159860   2.809   6.004   7.406 -1.4114  0.8342 -1.1402
19220SOL    HW259861   2.681   6.036   7.481  0.1448 -0.1325  2.1571
19221SOL     OW59862   9.137   8.556   1.435 -0.5827  0.1717 -0.1206
19221SOL    HW159863   9.060   8.522   1.390 -1.2071 -1.7691  2.2299
19221SOL    HW259864   9.103   8.625   1.492 -0.4494 -0.1105  0.3019
19222SOL     OW59865   0.831   0.637   3.078  0.2113 -0.0711  0.4473
19222SOL    HW159866   0.797   0.719   3.043 -0.0043 -0.8104 -1.1921
19222SOL    HW259867   0.863   0.659   3.166 -3.4157  0.9285  1.6921
19223SOL     OW59868   8.070   9.249   2.141 -0.5900  0.2723 -0.3987
19223SOL    HW159869   8.105   9.334   2.170  1.4194 -1.0080  1.2339
19223SOL    HW259870   8.031   9.211   2.220 -2.8420  0.2287 -1.4429
19224SOL     OW59871   7.711   3.928   7.043 -0.1441 -0.0599  0.6068
19224SOL    HW159872   7.619   3.920   7.067 -0.6118 -3.8036 -1.7216
19224SOL    HW259873   7.758   3.885   7.115 -0.3797  0.1427  0.8831
19225SOL     OW59874   0.740   7.776   9.327  0.0044  0.0139  0.0837
19225SOL    HW159875   0.782   7.711   9.272  1.5245  0.6752  0.4142
19225SOL    HW259876   0.664   7.731   9.364 -0.1132 -0.9252 -1.2610
19226SOL     OW59877   0.697   8.205   8.168  0.1713  0.3646 -0.6271
19226SOL    HW159878   0.647   8.239   8.243 -0.2138  0.6503 -1.0072
19226SOL    HW259879   0.645   8.130   8.137  1.0319 -0.6128  0.2283
19227SOL     OW59880   4.557   1.429   3.510  0.0554 -0.6197 -0.2448
19227SOL    HW159881   4.628   1.455   3.452 -1.0425  1.3441 -0.7881
19227SOL    HW259882   4.553   1.334   3.501  2.2851 -0.7427 -0.5371
19228SOL     OW59883   4.593   0.529   3.366 -0.2390 -0.6339 -0.8493
19228SOL    HW159884   4.543   0.610   3.364 -0.6290 -0.8807 -1.7764
19228SOL    HW259885   4.538   0.466   3.320 -0.3019 -1.6517  0.5642
19229SOL     OW59886   5.315   8.460   4.823  0.2582 -0.6417 -0.1739
19229SOL    HW159887   5.261   8.424   4.753  0.8576 -0.8045 -0.5527
19229SOL    HW259888   5.324   8.388   4.885 -0.7480 -0.3293  0.3718
19230SOL     OW59889   0.275   6.523   5.080 -0.2281 -0.0625  0.2256
19230SOL    HW159890   0.257   6.613   5.108 -0.7621 -0.0638 -0.1163
19230SOL    HW259891   0.260   6.470   5.158  1.4524  0.2829  0.8317
19231SOL     OW59892   1.698   8.241   6.460  0.3530  0.0713  0.2479
19231SOL    HW159893   1.766   8.175   6.458  1.8015  1.4464  1.7273
19231SOL    HW259894   1.652   8.227   6.542 -0.4963 -0.1838 -0.2536
19232SOL     OW59895   8.720   5.921   1.164  0.3029  0.0562 -0.3543
19232SOL    HW159896   8.655   5.850   1.166 -2.0218  2.0661 -0.4617
19232SOL    HW259897   8.731   5.942   1.072  2.1269 -1.0563 -0.4449
19233SOL     OW59898   5.699   3.941   2.901  0.2466  0.2735  0.5452
19233SOL    HW159899   5.714   3.926   2.994 -1.6339  0.5497  0.9376
19233SOL    HW259900   5.636   3.874   2.875  0.6536  0.2714 -0.5170
19234SOL     OW59901   7.699   4.352   9.504 -0.4297  0.2128  0.2650
19234SOL    HW159902   7.789   4.382   9.516 -0.5595 -0.2866  3.6435
19234SOL    HW259903   7.646   4.430   9.517 -0.5161  0.2048 -0.0458
19235SOL     OW59904   2.147   8.876   1.460 -0.4977  0.0689 -0.2799
19235SOL    HW159905   2.060   8.910   1.442 -0.8640 -0.6721  0.0629
19235SOL    HW259906   2.132   8.788   1.496  0.3297  0.3640  0.8450
19236SOL     OW59907   0.559   8.413   2.148 -0.5378 -0.0615  0.2218
19236SOL    HW159908   0.541   8.333   2.099  0.6071  0.9110 -1.9294
19236SOL    HW259909   0.477   8.462   2.145 -0.9050 -0.6570  0.5431
19237SOL     OW59910   3.926   6.464   1.573  0.1220 -0.3017 -0.1247
19237SOL    HW159911   3.951   6.483   1.663 -1.1124 -1.3099  0.4640
19237SOL    HW259912   4.001   6.417   1.536  1.4313  1.7994 -0.2699
19238SOL     OW59913   6.998   6.459   2.013  0.3950  0.0128  0.2274
19238SOL    HW159914   7.004   6.394   1.942  0.3059  1.9832 -1.6785
19238SOL    HW259915   6.908   6.452   2.044 -0.5513  1.2043 -2.0328
19239SOL     OW59916   1.804   1.810   7.893  0.9120 -0.5849  0.3512
19239SOL    HW159917   1.757   1.889   7.917 -0.0827 -1.3166  0.8746
19239SOL    HW259918   1.888   1.817   7.938  0.5081 -0.2166  1.0502
19240SOL     OW59919   1.123   8.365   2.728  0.2486 -0.0136 -0.7520
19240SOL    HW159920   1.088   8.444   2.769  2.1919  2.0431 -2.7655
19240SOL    HW259921   1.053   8.335   2.670 -0.5446  0.1325  0.1038
19241SOL     OW59922   3.520   2.074   8.236  0.0598  0.0725 -0.1383
19241SOL    HW159923   3.560   2.043   8.155 -0.7214 -0.1336 -0.4566
19241SOL    HW259924   3.541   2.007   8.301  1.1526  0.5085 -0.0297
19242SOL     OW59925   8.098   8.705   4.495  0.1161  0.0004  0.0428
19242SOL    HW159926   8.106   8.783   4.550  2.0481  0.1236 -0.3536
19242SOL    HW259927   8.004   8.693   4.483 -0.2315  2.7208 -0.5122
19243SOL     OW59928   7.877   0.050   4.177 -0.2188 -0.3773 -0.0778
19243SOL    HW159929   7.833   0.099   4.246 -0.0987  0.2465 -0.4409
19243SOL    HW259930   7.816   0.052   4.104 -0.4825 -1.3090  0.1035
19244SOL     OW59931   9.482   2.030   5.435 -0.3743 -0.0783  0.1001
19244SOL    HW159932   9.566   2.018   5.391  0.2959  1.7541  0.7717
19244SOL    HW259933   9.505   2.069   5.520 -1.8195 -0.7780  0.8528
19245SOL     OW59934   5.351   8.828   3.859  0.2114  0.9823  0.1619
19245SOL    HW159935   5.314   8.774   3.789  1.5849  1.6920 -1.1711
19245SOL    HW259936   5.330   8.918   3.833  0.4976  1.2439  0.8199
19246SOL     OW59937   1.640   7.244   1.113 -0.3006  0.3921  0.1451
19246SOL    HW159938   1.579   7.310   1.146 -0.0142  0.0799  1.3535
19246SOL    HW259939   1.722   7.262   1.159  0.4463  0.6055 -1.2295
19247SOL     OW59940   1.586   7.768   5.402  0.2244 -0.2892  0.1172
19247SOL    HW159941   1.521   7.700   5.380 -0.3756  0.5677 -0.8310
19247SOL    HW259942   1.602   7.813   5.320  0.5057  0.8187  0.7656
19248SOL     OW59943   8.118   8.809   0.038 -0.3685 -0.0624 -0.3128
19248SOL    HW159944   8.089   8.737  -0.018  1.2849 -1.7450  0.8917
19248SOL    HW259945   8.037   8.844   0.074 -1.2865 -0.6156 -1.7334
19249SOL     OW59946   2.462   2.782   6.465 -0.5758 -0.4238 -0.1221
19249SOL    HW159947   2.526   2.719   6.431  0.3099 -0.1289  0.9393
19249SOL    HW259948   2.504   2.867   6.453  1.0899 -0.3986  4.0825
19250SOL     OW59949   8.730   8.346   7.858  0.4283  0.0671  0.5285
19250SOL    HW159950   8.745   8.439   7.874 -0.3656  0.2287  0.3470
19250SOL    HW259951   8.730   8.306   7.945  2.3211 -0.0207  0.5318
19251SOL     OW59952   6.353   6.943   1.832  0.0422 -0.0996 -0.5436
19251SOL    HW159953   6.425   6.958   1.893  1.4042  0.5526 -2.2245
19251SOL    HW259954   6.384   6.980   1.750 -1.6866 -1.0207 -1.6584
19252SOL     OW59955   1.979   9.426   8.827  0.1980 -0.2009 -0.2360
19252SOL    HW159956   1.908   9.434   8.891 -0.2787  0.5634 -0.8489
19252SOL    HW259957   2.024   9.511   8.829  0.5804 -0.3918 -0.4614
19253SOL     OW59958   9.095   6.687   3.149  0.3376  0.3122 -0.0071
19253SOL    HW159959   9.151   6.745   3.202  0.9121 -0.6262  0.4317
19253SOL    HW259960   9.010   6.692   3.192  0.2457  1.2308 -0.2778
19254SOL     OW59961   6.580   4.646   5.734 -0.6480  0.5581 -0.5933
19254SOL    HW159962   6.575   4.731   5.691  1.0129  1.8113  1.5512
19254SOL    HW259963   6.649   4.599   5.688 -0.4110  1.0164 -0.7001
19255SOL     OW59964   6.642   7.965   2.358 -0.1836 -0.6338 -0.8997
19255SOL    HW159965   6.569   8.024   2.339  0.1552 -0.4200 -1.5606
19255SOL    HW259966   6.716   8.003   2.312  0.3127 -0.9419 -0.3645
19256SOL     OW59967   1.863   7.360   7.108  0.2169  0.4254  0.5235
19256SOL    HW159968   1.851   7.453   7.088  0.0442  0.2352 -0.2987
19256SOL    HW259969   1.856   7.354   7.204  0.0172  1.2242  0.5600
19257SOL     OW59970   5.336   7.168   8.313 -0.2216  0.9620  0.5285
19257SOL    HW159971   5.370   7.200   8.397  1.3493  3.4476 -0.9259
19257SOL    HW259972   5.295   7.084   8.334  2.8115 -0.0349  3.2766
19258SOL     OW59973   3.383   1.644   5.833 -0.6659 -0.1508  0.3836
19258SOL    HW159974   3.287   1.646   5.836 -0.6690  0.2437  0.1754
19258SOL    HW259975   3.406   1.719   5.778 -0.2407 -0.3020  0.3540
19259SOL     OW59976   5.063   9.197   0.178  0.0131 -0.2810 -0.0042
19259SOL    HW159977   5.015   9.170   0.100 -0.8222 -0.0202  0.3974
19259SOL    HW259978   4.999   9.187   0.249  0.8508 -0.8241  0.7002
19260SOL     OW59979   6.495   2.550   6.449 -0.0748  0.0366 -0.1639
19260SOL    HW159980   6.467   2.470   6.404  1.8072 -0.4290 -0.6208
19260SOL    HW259981   6.415   2.601   6.459 -1.2835 -1.7804 -0.0968
19261SOL     OW59982   5.763   3.449   5.023  0.3954 -0.0781  0.4792
19261SOL    HW159983   5.709   3.431   5.099 -2.2841 -0.0761 -1.2811
19261SOL    HW259984   5.831   3.382   5.025 -0.5006 -1.0047  2.0474
19262SOL     OW59985   3.877   1.968   6.115 -0.1643  0.2729  0.4422
19262SOL    HW159986   3.831   1.918   6.183 -1.0757 -0.6903 -0.8321
19262SOL    HW259987   3.829   2.051   6.111  0.0540  0.4379  1.1424
19263SOL     OW59988   3.475   5.646   4.569  0.3640 -0.1086 -0.0368
19263SOL    HW159989   3.526   5.607   4.497  0.6989 -0.4788  0.3875
19263SOL    HW259990   3.413   5.704   4.526  2.6491  2.1885 -0.4941
19264SOL     OW59991   7.311   8.246   9.165 -0.3749  0.5946 -0.4102
19264SOL    HW159992   7.288   8.337   9.148  0.5350  0.9911  0.3917
19264SOL    HW259993   7.228   8.204   9.189 -0.4798  1.7544  1.4475
19265SOL     OW59994   1.457   6.869   3.439  0.1395  0.6171 -0.3337
19265SOL    HW159995   1.434   6.777   3.435  0.7542  0.3874  1.1491
19265SOL    HW259996   1.373   6.915   3.431 -0.2458 -0.0761 -0.2970
19266SOL     OW59997   2.542   8.209   1.179  0.3091 -0.4554  0.1380
19266SOL    HW159998   2.604   8.252   1.238  1.9427  0.0145 -1.7976
19266SOL    HW259999   2.597   8.154   1.124 -0.9931 -0.0681 -1.6202
19267SOL     OW60000   8.270   2.901   8.586  0.1874  0.3037 -0.0349
19267SOL    HW160001   8.365   2.906   8.589  0.1670  1.5565 -0.7346
19267SOL    HW260002   8.246   2.948   8.506 -0.9003 -2.1031 -1.2471
19268SOL     OW60003   4.518   4.965   8.895 -0.1472  0.7237  0.2527
19268SOL    HW160004   4.512   4.919   8.979 -1.8168 -0.7904 -0.6205
19268SOL    HW260005   4.453   5.035   8.901 -1.3267 -0.2827 -0.2416
19269SOL     OW60006   0.752   5.293   3.581  0.1528 -0.3866  0.5305
19269SOL    HW160007   0.656   5.295   3.584  0.0571 -0.7542 -1.1255
19269SOL    HW260008   0.772   5.234   3.508  1.5738  1.8728 -1.0498
19270SOL     OW60009   6.605   9.157   2.578 -0.1453  0.3370  0.0885
19270SOL    HW160010   6.603   9.129   2.670  0.1759  0.0082 -0.0020
19270SOL    HW260011   6.574   9.247   2.580  0.7478  0.6497  0.6494
19271SOL     OW60012   4.846   8.742   4.453  0.5810 -0.1176 -0.4528
19271SOL    HW160013   4.846   8.646   4.461  2.0652 -0.2397 -1.3604
19271SOL    HW260014   4.793   8.759   4.375  1.6430 -0.3529 -1.2537
19272SOL     OW60015   0.199   1.974   1.704  0.3322  0.7775 -0.5898
19272SOL    HW160016   0.109   1.942   1.709  0.3174  0.4933 -2.1562
19272SOL    HW260017   0.204   2.042   1.771 -1.0124  0.7082 -0.3939
19273SOL     OW60018   7.937   3.960   6.885  0.2300 -0.0184 -0.3208
19273SOL    HW160019   7.958   4.052   6.895  2.3221 -0.4854  0.0234
19273SOL    HW260020   7.845   3.953   6.913  0.3804  1.7601  0.7598
19274SOL     OW60021   6.780   3.959   4.326 -0.6979  0.0769  0.7555
19274SOL    HW160022   6.845   3.965   4.397  0.7137 -0.8054 -0.3982
19274SOL    HW260023   6.780   3.867   4.301 -0.4665  0.5117 -0.9939
19275SOL     OW60024   6.593   3.896   8.853  0.2204 -0.5552 -0.1717
19275SOL    HW160025   6.541   3.831   8.804  0.3921 -0.3116 -0.6853
19275SOL    HW260026   6.549   3.979   8.837  0.6449 -0.3786 -0.4384
19276SOL     OW60027   7.001   9.432   9.478 -0.1683  0.4182  0.4815
19276SOL    HW160028   7.062   9.360   9.496  0.8888  1.2981  0.5494
19276SOL    HW260029   6.927   9.417   9.536  0.4987 -0.0540  1.2220
19277SOL     OW60030   6.838   4.260   6.018  0.4119 -0.1555  0.8132
19277SOL    HW160031   6.757   4.299   5.985  1.8046  1.5436 -0.8718
19277SOL    HW260032   6.840   4.172   5.981  0.5423  0.7105 -1.3994
19278SOL     OW60033   8.759   2.548   2.276 -0.0038  0.7853 -0.0965
19278SOL    HW160034   8.771   2.453   2.276 -1.6247  0.5417  0.7340
19278SOL    HW260035   8.840   2.582   2.313  0.2729 -0.3521  0.4102
19279SOL     OW60036   8.002   5.078   5.091 -0.1259 -0.3300  0.0678
19279SOL    HW160037   7.943   5.112   5.023 -2.1881 -0.1137  1.8710
19279SOL    HW260038   8.075   5.141   5.092 -0.4099  0.0680 -1.4064
19280SOL     OW60039   2.102   7.107   5.317 -0.0072  0.3532 -0.5382
19280SOL    HW160040   2.168   7.042   5.292  0.3769  0.9533 -1.1126
19280SOL    HW260041   2.118   7.123   5.410 -0.3571 -0.6463 -0.2846
19281SOL     OW60042   7.619   6.133   3.971 -0.5556  0.1374 -0.6481
19281SOL    HW160043   7.654   6.138   3.882 -1.4590  0.5905 -0.9915
19281SOL    HW260044   7.661   6.056   4.010  0.7020  0.5821 -1.0813
19282SOL     OW60045   9.361   3.597   9.509  0.5472  0.0868  0.1829
19282SOL    HW160046   9.447   3.588   9.550  0.4979  0.5213  0.3871
19282SOL    HW260047   9.333   3.686   9.530 -0.7462 -0.6161  1.6319
19283SOL     OW60048   6.974   8.681   1.453 -0.4873  0.3737 -0.2785
19283SOL    HW160049   6.924   8.759   1.477 -0.5298  0.5767 -0.9966
19283SOL    HW260050   6.976   8.628   1.532 -1.9379  0.3164 -0.2530
19284SOL     OW60051   5.424   1.562   2.615 -0.0930 -0.3933  0.3190
19284SOL    HW160052   5.406   1.626   2.684  0.6053 -0.4605  0.5729
19284SOL    HW260053   5.339   1.547   2.573  0.0644  2.3850 -1.2331
19285SOL     OW60054   5.934   6.362   6.557  0.0336 -0.0506 -0.2037
19285SOL    HW160055   5.984   6.327   6.631  0.0065 -1.2262 -0.7250
19285SOL    HW260056   5.998   6.407   6.503  0.1975  0.0891  0.1043
19286SOL     OW60057   9.552   1.877   8.330 -0.9870  0.0931 -0.1638
19286SOL    HW160058   9.548   1.905   8.239  0.9922  1.3557  0.0633
19286SOL    HW260059   9.543   1.781   8.327  0.0391  0.0215 -1.7820
19287SOL     OW60060   1.659   3.266   2.816 -0.2575  0.6782 -0.2690
19287SOL    HW160061   1.666   3.353   2.856  0.6930  0.5268 -0.0833
19287SOL    HW260062   1.736   3.219   2.848 -0.2681  0.0733 -1.1074
19288SOL     OW60063   3.373   1.850   8.933 -0.1080  0.4613 -0.7260
19288SOL    HW160064   3.371   1.811   8.845  0.1113  1.2634 -1.0900
19288SOL    HW260065   3.282   1.876   8.950 -1.0431 -3.1460  0.8996
19289SOL     OW60066   3.705   3.472   3.494  0.5837  0.1251 -0.6738
19289SOL    HW160067   3.653   3.458   3.415  0.0279 -1.1027 -0.1141
19289SOL    HW260068   3.649   3.523   3.552  0.5582  0.0568 -0.6381
19290SOL     OW60069   4.038   6.932   3.923 -0.0558  0.4089  0.1354
19290SOL    HW160070   3.964   6.873   3.910 -0.0120  0.0411  1.4200
19290SOL    HW260071   4.110   6.891   3.874 -0.3126 -0.0331  0.1226
19291SOL     OW60072   6.655   0.310   4.728  0.6098  0.6595  0.5962
19291SOL    HW160073   6.722   0.296   4.661  1.7255 -0.1129  1.8105
19291SOL    HW260074   6.683   0.254   4.801 -1.3001  0.4181  1.1996
19292SOL     OW60075   8.067   6.451   4.089  0.1154 -0.9312  0.3816
19292SOL    HW160076   8.048   6.381   4.028 -3.2059 -0.1291  0.2793
19292SOL    HW260077   8.044   6.415   4.175  1.0594 -0.8280  0.6869
19293SOL     OW60078   5.194   7.836   7.539 -0.2021  0.0247  0.0216
19293SOL    HW160079   5.138   7.785   7.599  0.0600  0.3164  0.5202
19293SOL    HW260080   5.218   7.774   7.471 -0.3369 -0.3726  0.3298
19294SOL     OW60081   0.024   4.561   6.392  0.2584  0.3970  0.0294
19294SOL    HW160082   0.030   4.581   6.485  0.8096  1.7246 -0.2779
19294SOL    HW260083   0.108   4.586   6.355  0.4180 -1.0414 -0.6852
19295SOL     OW60084   1.053   7.439   1.276  0.5120 -0.4472 -0.7747
19295SOL    HW160085   1.098   7.365   1.234  1.1225 -0.4423 -0.1532
19295SOL    HW260086   0.978   7.457   1.219  0.8011 -1.0338 -1.3585
19296SOL     OW60087   0.080   6.161   6.272 -0.2928  0.0776  0.2474
19296SOL    HW160088   0.174   6.164   6.254 -0.1251  0.4946  1.1445
19296SOL    HW260089   0.039   6.156   6.185  0.5314  0.5752 -0.1812
19297SOL     OW60090   2.591   7.976   7.750  0.5939 -0.0535 -0.3410
19297SOL    HW160091   2.680   7.966   7.715  0.6825  0.4966 -0.2735
19297SOL    HW260092   2.542   7.903   7.711  0.8934  0.0681 -0.9581
19298SOL     OW60093   0.468   7.140   1.263 -0.4542 -0.0366 -0.6134
19298SOL    HW160094   0.535   7.103   1.320 -0.7823  1.3704  0.7427
19298SOL    HW260095   0.418   7.064   1.234 -0.3661 -0.8166  1.1185
19299SOL     OW60096   5.833   4.391   9.340  0.2821 -0.1036  0.2298
19299SOL    HW160097   5.820   4.297   9.325  1.0542 -0.0023 -1.2813
19299SOL    HW260098   5.780   4.411   9.417 -0.4184 -1.6456  0.1774
19300SOL     OW60099   3.596   3.425   2.610  0.0226  1.0583  0.3527
19300SOL    HW160100   3.684   3.437   2.646  0.4355  2.0411 -0.9433
19300SOL    HW260101   3.541   3.414   2.688  1.2616  0.4507  1.1914
19301SOL     OW60102   5.018   0.884   5.588 -0.5842  0.2399 -0.1171
19301SOL    HW160103   4.978   0.961   5.630  1.0945  1.0730  0.0345
19301SOL    HW260104   5.062   0.838   5.659 -1.9660 -1.1541 -0.1285
19302SOL     OW60105   7.130   0.244   6.457 -0.3077  0.3622 -0.1828
19302SOL    HW160106   7.040   0.209   6.460 -0.3401  0.3918 -0.7454
19302SOL    HW260107   7.184   0.170   6.430  0.0171  0.0237  1.2935
19303SOL     OW60108   4.171   8.042   8.809 -1.0274 -0.1749  0.4704
19303SOL    HW160109   4.232   7.977   8.843  0.2354  0.2528 -0.8886
19303SOL    HW260110   4.112   7.994   8.752  0.1625 -0.1075 -0.8614
19304SOL     OW60111   6.082   4.648   7.256  0.4980 -1.1445 -0.0579
19304SOL    HW160112   6.071   4.594   7.178 -0.2362 -1.9780  0.5888
19304SOL    HW260113   6.170   4.684   7.249  1.0237 -2.4613 -0.5155
19305SOL     OW60114   0.941   2.539   0.899  0.0432 -0.5145  0.5711
19305SOL    HW160115   0.940   2.628   0.865  0.7948 -1.2942 -1.6885
19305SOL    HW260116   1.021   2.500   0.863 -1.0667 -2.5739  0.1535
19306SOL     OW60117   0.313   2.819   8.509  0.6103  0.8359  0.2462
19306SOL    HW160118   0.358   2.870   8.576 -1.0424  0.7510  1.4861
19306SOL    HW260119   0.383   2.787   8.452  1.9010  2.4651  0.8266
19307SOL     OW60120   2.570   0.206   7.912 -0.4383  0.5627  0.1705
19307SOL    HW160121   2.500   0.207   7.978 -0.3986  0.3412  0.2162
19307SOL    HW260122   2.586   0.298   7.894 -0.2169  0.6361  0.7206
19308SOL     OW60123   1.762   6.805   1.262  0.5912 -0.5726  0.2885
19308SOL    HW160124   1.816   6.728   1.245  0.7002 -0.0519 -1.9506
19308SOL    HW260125   1.681   6.789   1.215  0.2578  0.2808  0.5509
19309SOL     OW60126   1.404   3.282   2.197  0.3967 -0.3712  1.0526
19309SOL    HW160127   1.377   3.321   2.281  1.2006  1.2621  0.5812
19309SOL    HW260128   1.323   3.278   2.146 -0.1801 -1.7382  2.0070
19310SOL     OW60129   1.725   6.924   4.371 -0.4069 -0.1495  0.2865
19310SOL    HW160130   1.642   6.965   4.393  0.8663  2.8087  0.0971
19310SOL    HW260131   1.782   6.943   4.446  0.6889 -0.1709 -0.5163
19311SOL     OW60132   7.361   8.324   6.088 -0.0034  0.1434 -0.2646
19311SOL    HW160133   7.321   8.259   6.031 -0.6528 -2.0299  2.4414
19311SOL    HW260134   7.450   8.292   6.103 -0.1333  0.1479  0.6072
19312SOL     OW60135   5.965   2.645   5.042  0.1375  0.1638  0.1977
19312SOL    HW160136   5.892   2.626   4.983  0.1895  0.7291 -0.0510
19312SOL    HW260137   5.963   2.740   5.054  1.2638  0.2720 -0.3895
19313SOL     OW60138   4.251   2.041   6.249 -0.0371 -0.0735  0.1365
19313SOL    HW160139   4.184   2.109   6.257  0.4711  0.4278  0.1467
19313SOL    HW260140   4.327   2.086   6.213  0.0984 -0.7726 -0.4707
19314SOL     OW60141   1.763   8.472   4.744  0.5774 -0.4982 -0.5671
19314SOL    HW160142   1.715   8.536   4.797 -0.7430 -1.0341 -1.0831
19314SOL    HW260143   1.706   8.395   4.742  1.2820 -1.0163 -1.5291
19315SOL     OW60144   1.697   1.151   8.455 -0.3426  0.7054 -0.3111
19315SOL    HW160145   1.720   1.210   8.383  0.1456  1.2912  0.3094
19315SOL    HW260146   1.720   1.064   8.423 -0.3553  0.9306 -0.9517
19316SOL     OW60147   8.799   8.966   6.160 -0.2819 -0.1878 -0.2039
19316SOL    HW160148   8.812   8.871   6.166  2.0538  0.1517  1.1130
19316SOL    HW260149   8.746   8.987   6.237  3.2979  0.0765  2.4494
19317SOL     OW60150   2.106   4.737   6.816 -1.1188  0.1518 -0.0667
19317SOL    HW160151   2.070   4.664   6.767 -1.0477 -0.1949  0.3844
19317SOL    HW260152   2.188   4.758   6.772 -0.3663 -1.0558  0.6877
19318SOL     OW60153   7.233   7.942   7.075 -0.0028 -0.1317  0.8255
19318SOL    HW160154   7.259   7.850   7.082  1.5679  0.2002 -0.2538
19318SOL    HW260155   7.186   7.948   6.992  0.4257  0.1449  0.5983
19319SOL     OW60156   1.452   8.795   1.542  0.0807  0.0695  0.8408
19319SOL    HW160157   1.429   8.730   1.475 -0.0296  1.1277 -0.1859
19319SOL    HW260158   1.367   8.820   1.580  0.1258 -0.3992  1.2552
19320SOL     OW60159   3.175   5.239   6.724  0.1575 -0.7531 -0.2457
19320SOL    HW160160   3.212   5.190   6.797 -0.4032 -3.5746 -1.7065
19320SOL    HW260161   3.161   5.173   6.655 -2.2633  1.1622 -1.7769
19321SOL     OW60162   8.506   3.126   6.009 -0.9248  0.1378  0.1008
19321SOL    HW160163   8.538   3.158   6.093  1.4918 -0.0346 -0.6717
19321SOL    HW260164   8.431   3.071   6.031 -0.2972  0.0243  2.1576
19322SOL     OW60165   1.448   6.567   7.326 -0.0254  0.4226  0.4456
19322SOL    HW160166   1.450   6.558   7.422 -1.4501  2.5606  0.7466
19322SOL    HW260167   1.528   6.523   7.296  1.1614  0.8640  2.7230
19323SOL     OW60168   6.939   6.029   1.083  0.4406 -0.0419 -0.0205
19323SOL    HW160169   6.869   5.994   1.029  0.5168 -0.6523  0.2662
19323SOL    HW260170   6.944   6.121   1.059  1.6204 -0.6087 -2.3512
19324SOL     OW60171   7.180   9.244   1.943  1.1049  0.3137  0.0085
19324SOL    HW160172   7.182   9.157   1.903 -0.7451 -0.1915  0.9077
19324SOL    HW260173   7.260   9.248   1.994  1.1089 -0.9828  0.1520
19325SOL     OW60174   8.051   4.636   5.288 -0.3444  0.3505  0.3254
19325SOL    HW160175   8.123   4.592   5.333 -0.2794 -1.1320 -1.1320
19325SOL    HW260176   8.074   4.729   5.292  0.9198  0.0333  1.1272
19326SOL     OW60177   7.171   2.787   6.274 -0.5684  0.2482 -0.4751
19326SOL    HW160178   7.160   2.708   6.328  0.5700  0.1013 -0.4410
19326SOL    HW260179   7.081   2.815   6.255 -1.0102  0.0851  1.1690
19327SOL     OW60180   3.541   0.780   2.365  0.6168 -0.3920 -0.4102
19327SOL    HW160181   3.561   0.832   2.442  3.0567 -1.8925  0.0739
19327SOL    HW260182   3.480   0.713   2.396 -1.0915  1.0072 -0.6280
19328SOL     OW60183   8.598   1.851   4.228 -0.1518  0.0581  0.3237
19328SOL    HW160184   8.572   1.800   4.151 -0.4157 -0.2886  0.6356
19328SOL    HW260185   8.557   1.936   4.215 -0.5271 -0.1287  0.2721
19329SOL     OW60186   1.797   1.439   6.516 -0.9031  0.1247 -1.0096
19329SOL    HW160187   1.875   1.413   6.467 -0.1342 -0.1220  0.2883
19329SOL    HW260188   1.795   1.534   6.508 -0.3083  0.1604 -0.8506
19330SOL     OW60189   8.113   5.197   2.257 -0.1817 -0.1613 -0.2055
19330SOL    HW160190   8.121   5.135   2.330 -1.1868  0.1470  0.1764
19330SOL    HW260191   8.026   5.181   2.221 -0.0049  0.2466 -0.8312
19331SOL     OW60192   4.877   3.855   6.558 -0.2604 -0.1176  0.0664
19331SOL    HW160193   4.925   3.820   6.633 -0.5903 -0.8172 -0.0365
19331SOL    HW260194   4.939   3.851   6.485 -0.9396 -2.6657 -0.4813
19332SOL     OW60195   5.209   6.752   1.467  0.7097 -0.8766  0.1884
19332SOL    HW160196   5.219   6.835   1.421 -2.4518 -0.0626  0.7453
19332SOL    HW260197   5.169   6.693   1.403  0.5349 -1.1475  0.5402
19333SOL     OW60198   7.065   6.448   6.641 -0.2902 -0.1844  0.3650
19333SOL    HW160199   6.991   6.499   6.610 -0.7567 -1.1730 -0.2045
19333SOL    HW260200   7.106   6.503   6.708 -1.8810  0.1336  1.1267
19334SOL     OW60201   2.252   2.744   1.551  0.1778 -0.0691 -0.4225
19334SOL    HW160202   2.284   2.669   1.602 -1.6063  1.1734  2.7487
19334SOL    HW260203   2.315   2.814   1.570 -0.6650  0.4857  0.3953
19335SOL     OW60204   8.761   2.660   0.692  0.4417  0.2260 -0.4414
19335SOL    HW160205   8.831   2.648   0.756  1.1381  0.9692 -1.0412
19335SOL    HW260206   8.730   2.749   0.706 -1.3055 -0.4940  0.6829
19336SOL     OW60207   2.021   0.665   4.108  0.4190  0.2273  0.0444
19336SOL    HW160208   2.013   0.730   4.039  2.0126 -1.0719 -1.4562
19336SOL    HW260209   1.934   0.662   4.148 -0.4044  1.4226 -1.5295
19337SOL     OW60210   2.765   6.111   5.868  0.2706  0.0061 -0.1334
19337SOL    HW160211   2.682   6.085   5.828  0.7514 -1.9084  0.0406
19337SOL    HW260212   2.743   6.189   5.919 -1.2735 -0.0872 -0.6013
19338SOL     OW60213   6.331   0.971   1.871 -0.0329 -0.0857 -0.2139
19338SOL    HW160214   6.377   0.959   1.955 -1.1546 -0.0771  0.4201
19338SOL    HW260215   6.376   1.045   1.830 -1.2207  1.8136  1.6866
19339SOL     OW60216   7.995   0.909   6.550 -0.1499  0.0384 -0.6272
19339SOL    HW160217   8.047   0.948   6.620 -0.8113  0.2143 -0.2195
19339SOL    HW260218   8.058   0.863   6.495  0.4220  0.2071 -0.1183
19340SOL     OW60219   4.999   4.599   4.643 -0.1732 -0.0728 -0.1555
19340SOL    HW160220   5.077   4.631   4.598 -0.2734  0.7502  0.2369
19340SOL    HW260221   5.015   4.505   4.654  0.5754  0.0101 -0.4488
19341SOL     OW60222   8.924   9.074   4.024  0.8820 -0.1578 -0.3581
19341SOL    HW160223   8.981   9.102   4.095  1.3110 -1.4499 -0.1683
19341SOL    HW260224   8.857   9.143   4.019  0.5003 -0.2964  1.6856
19342SOL     OW60225   8.430   1.735   4.035 -0.1146 -0.1325 -0.0115
19342SOL    HW160226   8.394   1.821   4.053  1.5325  1.2116 -2.4916
19342SOL    HW260227   8.391   1.710   3.951  0.8447 -0.9347 -0.2330
19343SOL     OW60228   7.305   1.059   0.888  0.1289 -0.3393 -0.0019
19343SOL    HW160229   7.352   1.116   0.827  0.2544  0.2262  0.6124
19343SOL    HW260230   7.370   1.037   0.955 -0.2466 -0.2204  0.4087
19344SOL     OW60231   4.619   5.256   1.391  0.1197 -0.3265  0.7143
19344SOL    HW160232   4.530   5.239   1.360 -0.1088 -0.6885  1.5427
19344SOL    HW260233   4.654   5.320   1.329  0.4130 -2.4979 -1.5261
19345SOL     OW60234   6.085   0.912   1.814 -0.1023 -0.1031  0.3150
19345SOL    HW160235   6.102   0.904   1.720  0.3952 -1.2896  0.4964
19345SOL    HW260236   6.166   0.949   1.849  0.1193 -0.6937  0.4283
19346SOL     OW60237   0.180   4.490   2.677 -0.4241  0.1938 -0.4015
19346SOL    HW160238   0.274   4.482   2.665 -0.5479 -0.5537 -0.9262
19346SOL    HW260239   0.169   4.519   2.768  0.3072  0.2883 -0.3440
19347SOL     OW60240   4.666   0.435   5.443 -0.1341 -0.8201  0.0238
19347SOL    HW160241   4.650   0.355   5.394 -0.3062 -0.1393 -1.0829
19347SOL    HW260242   4.582   0.455   5.485 -0.9409  0.2170 -1.9388
19348SOL     OW60243   8.198   0.559   0.018 -0.3387 -0.0041 -0.1777
19348SOL    HW160244   8.227   0.642   0.056  0.7797 -0.7890  0.7611
19348SOL    HW260245   8.125   0.583  -0.040 -0.6040  1.5141  0.7269
19349SOL     OW60246   6.176   3.844   1.275  1.1345  0.5047  0.5981
19349SOL    HW160247   6.259   3.891   1.285  1.7778 -0.1431 -1.2117
19349SOL    HW260248   6.200   3.751   1.281  0.7052  0.2809 -0.7820
19350SOL     OW60249   0.729   1.837   9.119  0.2500  0.2508 -0.3953
19350SOL    HW160250   0.778   1.851   9.200 -0.8276  0.8204  0.1846
19350SOL    HW260251   0.756   1.909   9.062 -0.2404  0.8393  0.0953
19351SOL     OW60252   8.785   0.773   5.087  0.0538 -0.1827 -0.2548
19351SOL    HW160253   8.753   0.689   5.053 -2.7331  1.4098 -2.0474
19351SOL    HW260254   8.868   0.787   5.041  1.0540 -2.2840  0.7589
19352SOL     OW60255   7.738   7.144   1.747 -0.3572  0.1999 -0.7436
19352SOL    HW160256   7.703   7.143   1.836  3.1992  0.6238  0.8277
19352SOL    HW260257   7.728   7.235   1.718  2.8661  1.4003  1.3499
19353SOL     OW60258   6.061   1.466   5.272 -0.1129  0.3913 -0.6370
19353SOL    HW160259   5.966   1.460   5.287  0.1029 -0.5978  0.5243
19353SOL    HW260260   6.096   1.493   5.357  0.7347 -0.2900 -0.7609
19354SOL     OW60261   8.048   2.091   4.530 -0.2523  0.3889 -0.2127
19354SOL    HW160262   8.076   2.100   4.621  1.3695  0.1852 -0.6564
19354SOL    HW260263   8.110   2.145   4.481 -1.2611  0.6978 -1.1784
19355SOL     OW60264   9.230   8.319   8.671  0.4193 -0.1629  0.4761
19355SOL    HW160265   9.295   8.251   8.692  0.3058 -0.6514 -0.6412
19355SOL    HW260266   9.148   8.285   8.705  0.2428 -0.9268 -0.6217
19356SOL     OW60267   7.745   0.683   8.203  0.3898 -0.1046  0.3228
19356SOL    HW160268   7.807   0.754   8.220 -0.1335  0.3071  0.5427
19356SOL    HW260269   7.751   0.628   8.281 -1.4267  1.3555  1.5824
19357SOL     OW60270   1.240   6.881   2.503  0.0293 -0.2066  0.2961
19357SOL    HW160271   1.183   6.825   2.450  0.5611  0.0289 -0.5367
19357SOL    HW260272   1.297   6.924   2.440  1.4976 -0.8423  1.1391
19358SOL     OW60273   5.720   7.725   8.560 -0.6155 -0.1230 -0.1412
19358SOL    HW160274   5.637   7.682   8.581 -0.8736 -0.4179 -1.6044
19358SOL    HW260275   5.717   7.736   8.465 -0.3067  2.6397  0.0914
19359SOL     OW60276   0.362   3.171   8.482  0.5831 -0.2598 -0.4839
19359SOL    HW160277   0.435   3.114   8.505 -0.5684 -2.2012 -1.4012
19359SOL    HW260278   0.303   3.167   8.557  0.1612 -0.8973 -0.8385
19360SOL     OW60279   7.458   8.267   1.345 -0.1591  0.3329 -0.6233
19360SOL    HW160280   7.505   8.210   1.406 -0.5101  0.7416  0.0423
19360SOL    HW260281   7.524   8.292   1.280  0.3563  0.3105 -0.1168
19361SOL     OW60282   8.576   6.239   9.059  0.5023  0.0240  0.1717
19361SOL    HW160283   8.501   6.277   9.013  0.8516  0.7352  0.1691
19361SOL    HW260284   8.544   6.156   9.093 -0.0533 -0.0515 -0.5111
19362SOL     OW60285   5.792   9.069   5.526 -0.0578  0.5575 -0.0067
19362SOL    HW160286   5.758   9.056   5.615 -1.8242 -0.5276 -0.7909
19362SOL    HW260287   5.880   9.031   5.528 -1.3497 -2.7117  0.4216
19363SOL     OW60288   7.086   4.563   7.323  0.4402 -0.1114 -0.1059
19363SOL    HW160289   7.165   4.591   7.277  0.5116 -0.9120 -0.4729
19363SOL    HW260290   7.016   4.575   7.260  0.2112  0.8246  0.2961
19364SOL     OW60291   3.797   1.674   6.167 -0.7215 -0.9613  0.0408
19364SOL    HW160292   3.739   1.722   6.109  0.8329 -1.2664 -1.8666
19364SOL    HW260293   3.817   1.593   6.120  0.3484 -1.3809  1.1527
19365SOL     OW60294   5.791   3.192   9.055 -0.1641  0.3375  0.0963
19365SOL    HW160295   5.715   3.135   9.058  1.2028 -1.5899 -0.1194
19365SOL    HW260296   5.820   3.200   9.146  0.2408 -0.1866  0.0200
19366SOL     OW60297   8.616   1.316   4.084  0.0441  0.3090 -0.8599
19366SOL    HW160298   8.550   1.362   4.135  0.5605 -0.3473  0.4604
19366SOL    HW260299   8.696   1.367   4.096  0.5180 -0.6513  0.2562
19367SOL     OW60300   1.508   6.720   0.307  0.5077  0.3184  0.3862
19367SOL    HW160301   1.556   6.662   0.367  2.3174 -0.6534 -1.8460
19367SOL    HW260302   1.568   6.793   0.291 -0.1889  0.8591  0.1647
19368SOL     OW60303   2.035   2.182   7.583 -0.2307 -0.6524  0.3531
19368SOL    HW160304   2.019   2.088   7.592  1.8439 -1.0047  0.9307
19368SOL    HW260305   1.963   2.223   7.631 -0.6071 -1.9839  0.9724
19369SOL     OW60306   6.230   8.690   1.385  0.6059 -0.7873  0.0454
19369SOL    HW160307   6.292   8.692   1.457  1.4885  0.2707 -0.7080
19369SOL    HW260308   6.173   8.765   1.400  0.5257 -0.8135 -0.1261
19370SOL     OW60309   0.639   9.167   4.500 -0.0197 -0.8794 -0.2216
19370SOL    HW160310   0.732   9.171   4.478  0.0893 -2.3333 -0.1287
19370SOL    HW260311   0.601   9.110   4.432 -0.3851 -2.2481  1.0779
19371SOL     OW60312   7.691   1.055   2.721 -0.1049 -0.5858 -0.4860
19371SOL    HW160313   7.701   0.960   2.718  1.7410 -0.5768  1.7870
19371SOL    HW260314   7.640   1.071   2.801  0.0979  0.3221 -0.5237
19372SOL     OW60315   7.658   6.139   5.738 -0.3775  0.4663  0.1104
19372SOL    HW160316   7.607   6.103   5.665 -1.5834  1.8449  0.2199
19372SOL    HW260317   7.629   6.089   5.814 -1.9733  1.5045  0.2468
19373SOL     OW60318   2.376   1.168   0.320  0.2953  0.4331  0.3254
19373SOL    HW160319   2.356   1.114   0.243 -0.9130  0.0314  0.9018
19373SOL    HW260320   2.309   1.145   0.384  0.0180  2.2952  0.7630
19374SOL     OW60321   5.889   7.836   7.419 -0.3970  0.1368  0.0390
19374SOL    HW160322   5.820   7.824   7.485  0.5879  1.4488  1.3643
19374SOL    HW260323   5.956   7.773   7.442 -0.5157 -0.1516 -0.3865
19375SOL     OW60324   7.103   0.450   6.142 -0.2604 -0.2460 -0.1436
19375SOL    HW160325   7.076   0.493   6.223  0.0048 -1.0910  0.4127
19375SOL    HW260326   7.046   0.373   6.136 -0.3907 -0.0929 -0.8463
19376SOL     OW60327   5.939   5.774   6.546  0.0403 -0.2979 -0.5181
19376SOL    HW160328   5.912   5.697   6.597 -0.0182  0.2968  0.3636
19376SOL    HW260329   6.024   5.749   6.508 -0.0457 -0.8497 -0.3562
19377SOL     OW60330   9.539   8.820   1.086  0.3185  0.5220  0.0349
19377SOL    HW160331   9.524   8.898   1.033  0.3732  0.2151 -0.4315
19377SOL    HW260332   9.453   8.799   1.123 -0.4215 -1.0295 -2.3574
19378SOL     OW60333   7.107   7.064   6.694  0.2562 -0.2685 -0.2149
19378SOL    HW160334   7.016   7.037   6.687  0.2064 -0.0346 -0.4875
19378SOL    HW260335   7.131   7.093   6.606 -0.0416  1.6496  0.2931
19379SOL     OW60336   9.298   3.452   6.784  0.1273 -0.1823  0.3653
19379SOL    HW160337   9.249   3.399   6.721 -0.7540  0.1154  0.7904
19379SOL    HW260338   9.272   3.418   6.869  0.5002  0.1244  0.6032
19380SOL     OW60339   5.156   3.065   5.255  0.5863  0.3051 -0.3488
19380SOL    HW160340   5.131   2.981   5.293 -1.6842 -0.0269 -2.3507
19380SOL    HW260341   5.197   3.112   5.328 -0.8271 -1.3707  1.6707
19381SOL     OW60342   5.423   1.707   2.920  0.0314  0.3024 -0.2314
19381SOL    HW160343   5.424   1.778   2.857  1.1089  0.0726 -0.4900
19381SOL    HW260344   5.439   1.749   3.005  0.9309  0.3539 -0.4167
19382SOL     OW60345   9.247   7.198   3.248 -0.2480 -0.5697  0.1775
19382SOL    HW160346   9.218   7.287   3.225  0.2863 -0.1010  1.2517
19382SOL    HW260347   9.328   7.185   3.198 -0.5245 -0.6083 -0.2700
19383SOL     OW60348   1.122   5.219   3.740 -0.3112  0.7616 -0.1906
19383SOL    HW160349   1.090   5.211   3.650 -0.8270 -0.5386  0.0908
19383SOL    HW260350   1.132   5.129   3.771 -1.5677  1.1486  1.5381
19384SOL     OW60351   3.630   5.123   2.267  0.2317 -0.4074  0.8123
19384SOL    HW160352   3.711   5.169   2.290  0.3023 -0.1242  0.0283
19384SOL    HW260353   3.580   5.121   2.348  1.6385 -1.8845  1.7201
19385SOL     OW60354   5.528   2.297   5.749  0.4390 -0.1705 -0.3779
19385SOL    HW160355   5.525   2.250   5.832 -1.0609  0.8560  0.2025
19385SOL    HW260356   5.587   2.371   5.765  1.6344 -0.9900 -0.8396
19386SOL     OW60357   6.442   8.918   3.345  0.3111  0.7582  0.0516
19386SOL    HW160358   6.449   8.915   3.440  0.3280  0.1690  0.0355
19386SOL    HW260359   6.480   9.003   3.320  2.4682 -0.0499  0.3874
19387SOL     OW60360   9.080   0.711   2.236  0.1075  0.0374  0.1688
19387SOL    HW160361   9.149   0.763   2.278  0.9779  0.3047 -1.5123
19387SOL    HW260362   9.031   0.775   2.183 -2.6284  0.2148  2.6515
19388SOL     OW60363   4.009   6.561   8.251 -0.2260 -0.2556 -0.3716
19388SOL    HW160364   4.039   6.480   8.211 -2.1731  0.1029 -2.8509
19388SOL    HW260365   4.084   6.620   8.245  0.3341 -1.0155 -1.1392
19389SOL     OW60366   1.124   1.919   7.964  0.1660  0.0706  0.1411
19389SOL    HW160367   1.040   1.879   7.944 -0.0544  0.4427  0.3232
19389SOL    HW260368   1.153   1.878   8.045 -0.8862  1.5182  1.2978
19390SOL     OW60369   7.712   7.037   6.792  0.0174  0.4082  0.7362
19390SOL    HW160370   7.647   7.033   6.722  2.6425  1.7615 -2.0194
19390SOL    HW260371   7.727   7.131   6.806  2.4028  0.1643  0.1764
19391SOL     OW60372   4.581   4.978   2.563  0.1581 -0.4112 -0.6248
19391SOL    HW160373   4.578   4.974   2.467 -1.9140  1.4862 -0.7052
19391SOL    HW260374   4.551   4.892   2.591 -1.1281 -0.3580 -1.7304
19392SOL     OW60375   8.336   4.718   0.204 -0.5894 -0.3805  0.1561
19392SOL    HW160376   8.272   4.648   0.215  0.1945 -1.0211  0.7809
19392SOL    HW260377   8.390   4.689   0.130 -0.5441 -0.2078  0.1196
19393SOL     OW60378   3.864   3.302   6.130  0.2446 -0.3820 -0.3247
19393SOL    HW160379   3.771   3.304   6.108  0.0138 -1.4355  0.4948
19393SOL    HW260380   3.906   3.259   6.055  0.0889  0.1722 -0.7325
19394SOL     OW60381   9.206   1.492   4.858  0.1831  0.5163  0.0560
19394SOL    HW160382   9.291   1.497   4.902  0.4841  0.3864 -0.5067
19394SOL    HW260383   9.144   1.530   4.921  0.7225  1.0285  0.2836
19395SOL     OW60384   2.311   9.099   5.291 -0.0332 -0.0009 -0.3723
19395SOL    HW160385   2.324   9.078   5.198 -1.2566 -0.1217 -0.5304
19395SOL    HW260386   2.285   9.016   5.331  1.9514 -0.3050  0.4125
19396SOL     OW60387   5.389   7.094   5.605  0.2995  0.0445  0.0860
19396SOL    HW160388   5.396   7.088   5.700 -1.8296 -1.1974  0.2312
19396SOL    HW260389   5.477   7.117   5.576  0.7351  1.6884  2.4150
19397SOL     OW60390   1.835   6.389   6.684  0.3025  0.3148 -0.4276
19397SOL    HW160391   1.775   6.331   6.636  0.5536 -0.1415 -0.2011
19397SOL    HW260392   1.805   6.477   6.663  0.8835  0.1633 -2.0950
19398SOL     OW60393   2.343   4.792   6.679 -0.1638 -0.1278  0.8134
19398SOL    HW160394   2.433   4.766   6.661 -0.5555 -1.1432  0.2587
19398SOL    HW260395   2.335   4.879   6.639  0.2142 -0.5586 -0.2466
19399SOL     OW60396   3.309   0.184   2.124  0.6834 -0.1855 -0.6190
19399SOL    HW160397   3.398   0.191   2.091  0.6329  1.6030 -0.4726
19399SOL    HW260398   3.259   0.246   2.071 -0.2882 -0.5126 -0.1104
19400SOL     OW60399   0.028   8.611   3.692 -0.2691  0.1140 -0.2261
19400SOL    HW160400   0.030   8.689   3.749  0.8281  0.5595 -0.8521
19400SOL    HW260401  -0.047   8.627   3.634  0.6962  1.3486 -1.1924
19401SOL     OW60402   8.759   1.491   9.130  0.0863 -0.0953  0.1486
19401SOL    HW160403   8.765   1.540   9.048 -0.6931 -1.1724 -0.5795
19401SOL    HW260404   8.670   1.509   9.162  0.5547  0.7065  1.0101
19402SOL     OW60405   3.114   8.051   9.441 -0.1202 -0.2258  0.1553
19402SOL    HW160406   3.074   7.973   9.479  2.3311 -1.1684  1.0352
19402SOL    HW260407   3.204   8.051   9.475  1.5145  0.2880 -3.6411
19403SOL     OW60408   6.494   9.342   4.680 -0.1771  0.2395  0.1138
19403SOL    HW160409   6.538   9.422   4.651 -0.5796  0.1061 -0.9211
19403SOL    HW260410   6.476   9.294   4.599  1.7670 -1.8335  0.8207
19404SOL     OW60411   6.862   7.274   5.869 -0.3414  0.0443  0.3185
19404SOL    HW160412   6.798   7.205   5.887  0.3193 -0.5744  0.3361
19404SOL    HW260413   6.815   7.356   5.886 -0.8995 -0.4201  1.0809
19405SOL     OW60414   0.141   5.943   9.338  0.1349  0.1029 -0.0463
19405SOL    HW160415   0.192   5.966   9.260  1.2887  0.6379  0.8331
19405SOL    HW260416   0.180   5.861   9.369 -2.0364 -1.5855 -1.4782
19406SOL     OW60417   1.584   3.319   5.328  0.0996  0.5648  0.4907
19406SOL    HW160418   1.580   3.236   5.376  1.4242  1.1870  1.7759
19406SOL    HW260419   1.503   3.322   5.278  0.0348 -1.5000  0.4054
19407SOL     OW60420   1.972   3.353   0.529 -0.0233 -0.3996 -0.6321
19407SOL    HW160421   1.918   3.401   0.591 -0.2438 -0.3028 -0.8963
19407SOL    HW260422   2.050   3.328   0.579 -0.1507 -0.2319 -0.3480
19408SOL     OW60423   9.495   6.778   9.447  0.6507 -0.7270 -0.3929
19408SOL    HW160424   9.434   6.713   9.482 -0.7551  0.5213 -0.4438
19408SOL    HW260425   9.445   6.826   9.382  1.7922  0.1411 -0.6623
19409SOL     OW60426   5.928   8.010   8.410 -0.3352 -0.0926 -0.4366
19409SOL    HW160427   5.879   8.039   8.333 -0.4354 -2.0449 -1.1557
19409SOL    HW260428   5.996   8.076   8.422 -1.1385  0.9398 -1.3700
19410SOL     OW60429   7.648   7.051   0.667 -0.5358  0.3989 -0.2110
19410SOL    HW160430   7.713   7.054   0.597  1.0465 -1.7249  1.0361
19410SOL    HW260431   7.699   7.041   0.747 -2.3680 -0.7035  0.8947
19411SOL     OW60432   0.608   2.340   2.447  0.5533  0.1025 -0.1165
19411SOL    HW160433   0.528   2.293   2.469  0.8566 -0.4478 -0.1748
19411SOL    HW260434   0.626   2.394   2.524 -0.0474  0.4826 -0.2328
19412SOL     OW60435   6.709   6.694   8.105  0.2107 -0.8935 -0.2603
19412SOL    HW160436   6.678   6.755   8.038 -1.3677 -0.1925  1.0542
19412SOL    HW260437   6.637   6.632   8.116 -0.4314  0.1699  2.1440
19413SOL     OW60438   2.931   5.189   8.358  0.9400  0.5221  0.0886
19413SOL    HW160439   2.956   5.208   8.448  1.1839  1.5757 -0.1889
19413SOL    HW260440   3.006   5.141   8.322  1.7807  1.9521 -0.1566
19414SOL     OW60441   7.754   0.377   7.081  0.1442 -0.0406  0.2363
19414SOL    HW160442   7.690   0.440   7.048  1.3009  2.1623  1.8448
19414SOL    HW260443   7.705   0.322   7.142 -0.2217  2.0715  1.9971
19415SOL     OW60444   2.102   4.395   8.497 -0.3044  0.8643 -0.3602
19415SOL    HW160445   2.029   4.364   8.443 -0.5150  2.2269 -0.8969
19415SOL    HW260446   2.079   4.369   8.586  0.0652 -1.4513 -0.8873
19416SOL     OW60447   7.933   2.732   2.386 -0.5943  0.4622  0.1942
19416SOL    HW160448   7.858   2.770   2.431 -0.9930  1.4180 -1.2111
19416SOL    HW260449   7.926   2.763   2.295  0.8675 -0.3513 -0.2445
19417SOL     OW60450   8.660   1.284   4.363 -0.2025  0.2827  0.3805
19417SOL    HW160451   8.611   1.208   4.330 -1.9804  1.9573 -1.0972
19417SOL    HW260452   8.606   1.318   4.434  0.4029  0.3702  0.8008
19418SOL     OW60453   0.787   1.966   3.754  0.2965  0.0948  0.2033
19418SOL    HW160454   0.709   1.968   3.698 -0.7122  0.0508  1.5334
19418SOL    HW260455   0.839   1.893   3.720 -0.4615 -0.1601 -0.4610
19419SOL     OW60456   2.064   5.870   3.850 -0.1203 -0.7487  0.2444
19419SOL    HW160457   1.998   5.915   3.903 -0.0646 -1.3070  0.8026
19419SOL    HW260458   2.019   5.846   3.769 -0.4460 -0.6399  0.3933
19420SOL     OW60459   2.926   7.211   1.227  0.2596 -0.4945  0.1950
19420SOL    HW160460   2.848   7.213   1.173  0.4605  0.1589 -0.0716
19420SOL    HW260461   2.893   7.200   1.316 -0.1762  0.4529  0.1592
19421SOL     OW60462   9.550   6.390   4.416  0.0832 -0.3364  0.2792
19421SOL    HW160463   9.454   6.387   4.412  0.1135 -1.5915  0.2615
19421SOL    HW260464   9.573   6.337   4.492  0.7749 -0.1127  0.2303
19422SOL     OW60465   7.201   4.230   8.071 -0.0105 -0.0216  0.3582
19422SOL    HW160466   7.274   4.179   8.105  0.2547 -0.0874 -0.3045
19422SOL    HW260467   7.149   4.252   8.149 -0.0186 -1.1152  0.6823
19423SOL     OW60468   2.885   3.430   6.276  0.1331  0.3110  0.6823
19423SOL    HW160469   2.843   3.349   6.248  0.8316 -0.3132  1.3966
19423SOL    HW260470   2.895   3.421   6.370  0.6756  1.0118  0.7039
19424SOL     OW60471   5.543   3.990   2.074  0.4749 -0.2617  0.1257
19424SOL    HW160472   5.465   3.940   2.051  0.7306 -0.6302  0.0495
19424SOL    HW260473   5.510   4.073   2.107  0.0666 -0.2199 -0.3819
19425SOL     OW60474   4.859   3.204   7.795 -0.2194 -0.5344 -0.0798
19425SOL    HW160475   4.919   3.132   7.813 -0.2648 -0.5640 -0.0487
19425SOL    HW260476   4.856   3.255   7.876 -1.8055 -1.6536  0.6225
19426SOL     OW60477   6.039   1.696   8.256 -0.1960  0.5885 -0.2649
19426SOL    HW160478   5.983   1.620   8.240  0.4091  0.2197 -0.6659
19426SOL    HW260479   6.048   1.737   8.170  0.7732  0.2111 -0.3487
19427SOL     OW60480   5.967   8.541   9.063  0.4993 -0.7326  0.3558
19427SOL    HW160481   5.873   8.547   9.044  1.0657 -1.0972 -3.1931
19427SOL    HW260482   5.996   8.462   9.018  2.7529  0.0778  0.2687
19428SOL     OW60483   2.227   5.189   5.458  0.7429  0.1685  0.3615
19428SOL    HW160484   2.250   5.225   5.372 -0.6780  0.5854  0.1310
19428SOL    HW260485   2.266   5.251   5.521 -1.1870  1.9082 -0.0285
19429SOL     OW60486   5.970   3.963   0.933  0.1749  0.6507 -0.1308
19429SOL    HW160487   5.964   4.055   0.908 -0.1001  0.7702  0.3757
19429SOL    HW260488   6.063   3.949   0.950  0.1750  0.9118  0.0881
19430SOL     OW60489   7.789   5.046   7.117 -0.3136  0.0513  0.2891
19430SOL    HW160490   7.838   4.968   7.140  1.6810  0.7820 -1.2268
19430SOL    HW260491   7.779   5.094   7.200  3.6566  0.9921  0.4058
19431SOL     OW60492   8.227   7.612   0.586 -0.1950 -0.6797 -0.2671
19431SOL    HW160493   8.192   7.524   0.570  1.5909 -1.5896  0.5394
19431SOL    HW260494   8.280   7.603   0.665 -0.0929  1.1801 -0.0740
19432SOL     OW60495   4.372   1.519   9.164  0.5721 -0.2228  0.2773
19432SOL    HW160496   4.317   1.573   9.221  0.0912  0.0506 -0.4384
19432SOL    HW260497   4.390   1.574   9.088  2.0810 -0.1998  0.6144
19433SOL     OW60498   6.498   1.708   0.372  0.0103 -0.3717  0.5889
19433SOL    HW160499   6.461   1.712   0.284  0.6636  0.4054  0.3442
19433SOL    HW260500   6.435   1.757   0.426  1.8730  3.3303 -0.2821
19434SOL     OW60501   1.922   3.716   9.356 -0.1012  0.1374 -0.8343
19434SOL    HW160502   1.929   3.797   9.305  1.0533 -0.1292 -1.1274
19434SOL    HW260503   1.870   3.657   9.300 -0.1222  0.3492 -1.0404
19435SOL     OW60504   8.440   0.890   0.167  0.3605 -0.0130 -0.4602
19435SOL    HW160505   8.468   0.840   0.090  0.1200 -0.2288 -0.4098
19435SOL    HW260506   8.521   0.922   0.206  0.4431  1.0658 -1.4397
19436SOL     OW60507   3.127   9.271   2.380  0.2644  0.1824 -0.4925
19436SOL    HW160508   3.214   9.295   2.348  0.5191  0.9413  0.7195
19436SOL    HW260509   3.141   9.242   2.470 -0.8594  1.2793  0.0621
19437SOL     OW60510   5.217   1.688   0.442 -0.0289  0.0503  0.3239
19437SOL    HW160511   5.159   1.670   0.368 -0.0809 -0.6051  0.5230
19437SOL    HW260512   5.220   1.606   0.492 -2.7282  1.3923  2.9980
19438SOL     OW60513   9.571   1.278   0.669  0.5326  0.8747 -0.0205
19438SOL    HW160514   9.566   1.184   0.653 -0.7639  1.2004 -1.8219
19438SOL    HW260515   9.532   1.290   0.755 -2.0591  0.0138 -0.9859
19439SOL     OW60516   9.094   3.303   2.769 -1.1705 -0.2950  0.3123
19439SOL    HW160517   9.093   3.263   2.856  1.1116 -1.7414 -0.2412
19439SOL    HW260518   9.160   3.372   2.776 -0.7572 -0.6197 -0.3401
19440SOL     OW60519   4.165   4.330   2.492  0.5840 -0.3271 -0.3823
19440SOL    HW160520   4.203   4.255   2.538  1.2555 -0.9140 -1.8147
19440SOL    HW260521   4.093   4.292   2.441 -0.8112  0.4780  0.9070
19441SOL     OW60522   7.815   1.632   8.633 -0.0849 -0.1026  0.2690
19441SOL    HW160523   7.889   1.611   8.691 -0.1954  3.6615  2.0488
19441SOL    HW260524   7.739   1.594   8.677  0.0946  1.0315  1.6443
19442SOL     OW60525   2.520   6.139   8.346 -0.4272 -0.0161  0.4033
19442SOL    HW160526   2.486   6.228   8.358  1.2495  0.4688  1.9093
19442SOL    HW260527   2.585   6.147   8.277  0.7822  0.2473  1.5511
19443SOL     OW60528   7.830   2.339   7.672  0.2726  0.2637 -0.2867
19443SOL    HW160529   7.786   2.362   7.754 -1.3431 -0.7055 -0.8501
19443SOL    HW260530   7.828   2.244   7.670  1.5651  0.2257 -0.8084
19444SOL     OW60531   1.438   1.857   6.878  0.6164 -0.0354  0.4340
19444SOL    HW160532   1.478   1.901   6.954 -0.5174 -0.2417  1.1838
19444SOL    HW260533   1.477   1.770   6.878  1.2990  0.2671  0.2274
19445SOL     OW60534   0.313   1.787   0.496 -0.1091  0.0498  0.0896
19445SOL    HW160535   0.324   1.736   0.577  0.5965 -0.5850 -0.3887
19445SOL    HW260536   0.225   1.823   0.502  0.1549  0.5513  1.4463
19446SOL     OW60537   6.062   8.693   2.997 -0.0853  0.5794 -0.2279
19446SOL    HW160538   5.979   8.737   2.975  0.2850  0.6997 -1.4761
19446SOL    HW260539   6.122   8.720   2.927  0.3266 -1.4191 -0.6947
19447SOL     OW60540   8.626   8.113   7.014  0.1410  0.3811 -0.3209
19447SOL    HW160541   8.556   8.164   6.973  0.5453  0.7816 -0.5322
19447SOL    HW260542   8.637   8.037   6.958 -0.1968  0.2588 -0.2257
19448SOL     OW60543   6.847   6.323   2.681  0.2534  0.2646 -0.3105
19448SOL    HW160544   6.868   6.284   2.765  0.8721  0.1450 -0.5132
19448SOL    HW260545   6.929   6.319   2.631  0.1094  1.0488 -0.6346
19449SOL     OW60546   5.300   0.367   5.298  0.1685  0.5290 -0.1143
19449SOL    HW160547   5.221   0.347   5.247  1.6895 -3.0587 -1.3656
19449SOL    HW260548   5.320   0.458   5.276 -2.1059  0.6894 -1.8842
19450SOL     OW60549   2.018   2.901   1.520 -0.4171 -0.1223  0.1455
19450SOL    HW160550   2.018   2.938   1.431 -1.5437 -2.0090 -0.7092
19450SOL    HW260551   2.104   2.860   1.528 -0.5531 -0.5321 -0.3699
19451SOL     OW60552   6.866   8.614   0.008 -0.5224  0.4580  0.6591
19451SOL    HW160553   6.810   8.629   0.084 -1.5481 -0.0334  0.0161
19451SOL    HW260554   6.883   8.520   0.009  1.7612  0.7986  1.8206
19452SOL     OW60555   3.292   5.121   4.252 -0.0660  0.0674 -0.4306
19452SOL    HW160556   3.350   5.054   4.216 -0.3301  0.3944 -1.4916
19452SOL    HW260557   3.335   5.204   4.232 -0.2297  0.2646  0.0017
19453SOL     OW60558   7.991   7.605   4.449  0.1706 -0.7048  0.5513
19453SOL    HW160559   7.903   7.601   4.487  0.1077  0.2185  0.5243
19453SOL    HW260560   7.975   7.616   4.355  0.3175 -3.3723  0.1121
19454SOL     OW60561   1.717   6.053   6.842  0.4618 -0.2679  0.5188
19454SOL    HW160562   1.753   6.052   6.931  0.4474 -0.2613  0.5244
19454SOL    HW260563   1.681   5.966   6.829  0.0108 -0.1116  0.7035
19455SOL     OW60564   1.359   5.423   2.531  0.0777  0.1328  0.7599
19455SOL    HW160565   1.412   5.400   2.455 -0.8035 -0.5826  0.3310
19455SOL    HW260566   1.388   5.510   2.556  1.3133 -0.1703  0.4370
19456SOL     OW60567   1.245   3.982   8.341  0.2443 -0.0974 -0.4144
19456SOL    HW160568   1.172   3.935   8.381 -0.3506 -0.7196 -2.1159
19456SOL    HW260569   1.265   4.052   8.402 -1.3790 -0.2703  0.3803
19457SOL     OW60570   7.456   7.670   5.385 -0.1022 -0.1503 -0.2307
19457SOL    HW160571   7.407   7.715   5.454 -0.1510 -2.7591  1.6001
19457SOL    HW260572   7.541   7.651   5.424  1.1790  1.2681 -2.1584
19458SOL     OW60573   4.718   7.027   4.933 -0.3708 -0.2452 -0.3848
19458SOL    HW160574   4.725   7.090   4.861 -0.1456  0.0994 -0.0636
19458SOL    HW260575   4.763   6.949   4.901  0.3237  0.1393 -0.3650
19459SOL     OW60576   8.059   0.851   7.024  0.4206  0.1837 -0.0793
19459SOL    HW160577   7.973   0.822   7.055  1.1334 -0.3816  1.4641
19459SOL    HW260578   8.083   0.788   6.956 -0.3073  0.2477 -0.3993
19460SOL     OW60579   0.718   3.840   8.395  0.0438  0.2081  0.1561
19460SOL    HW160580   0.775   3.816   8.322 -1.7795 -1.1944 -0.8857
19460SOL    HW260581   0.724   3.765   8.455 -0.0830  0.4263  0.4412
19461SOL     OW60582   8.925   2.287   2.152  0.0454 -0.4941  0.0026
19461SOL    HW160583   8.912   2.358   2.088  1.1241  0.3099  0.6391
19461SOL    HW260584   8.921   2.207   2.100 -2.2849 -0.0781 -0.5795
19462SOL     OW60585   5.441   9.392   6.696  0.4039 -0.4115  0.6701
19462SOL    HW160586   5.524   9.408   6.652 -0.2625 -1.1945 -0.9477
19462SOL    HW260587   5.402   9.479   6.707  1.4365 -0.0355  1.5026
19463SOL     OW60588   4.903   4.881   8.160  0.7380 -0.2174  0.1582
19463SOL    HW160589   4.854   4.860   8.081 -0.3441  1.0995  0.4486
19463SOL    HW260590   4.953   4.959   8.136  0.0974  0.4255  0.8735
19464SOL     OW60591   0.026   2.494   3.687 -0.6090  0.0965 -0.3609
19464SOL    HW160592  -0.050   2.438   3.672  0.4941 -1.2414 -1.2167
19464SOL    HW260593   0.050   2.526   3.600  0.9764 -1.1366 -0.4281
19465SOL     OW60594   7.378   3.082   2.801 -0.2439  0.0289 -0.0027
19465SOL    HW160595   7.465   3.105   2.835 -0.5640  0.4310  0.5665
19465SOL    HW260596   7.376   2.987   2.805  0.8156 -0.1049 -1.6698
19466SOL     OW60597   0.812   2.095   3.116  0.1544 -0.0647 -0.5320
19466SOL    HW160598   0.729   2.143   3.104 -0.2144 -0.4590  0.3640
19466SOL    HW260599   0.787   2.003   3.108  0.0917 -0.3133  1.8063
19467SOL     OW60600   0.635   4.991   1.383  0.1492 -0.1173  0.1488
19467SOL    HW160601   0.605   4.902   1.401 -1.8310  0.2976 -0.8734
19467SOL    HW260602   0.701   4.980   1.314  1.0605 -0.8943  1.1112
19468SOL     OW60603   4.504   6.326   1.775  0.2222  0.0667 -0.1583
19468SOL    HW160604   4.532   6.345   1.865 -2.0086  0.5947  0.4967
19468SOL    HW260605   4.516   6.231   1.766 -2.6689 -0.6361  1.9903
19469SOL     OW60606   2.821   7.032   1.937 -0.0350  0.2535  0.1134
19469SOL    HW160607   2.883   7.024   2.010 -0.8302 -1.6296  0.6270
19469SOL    HW260608   2.857   6.977   1.868 -0.5679  0.0209  0.0159
19470SOL     OW60609   5.132   6.766   5.292  0.7355  0.5124  0.5771
19470SOL    HW160610   5.178   6.691   5.255  1.7036  1.1171  0.5116
19470SOL    HW260611   5.101   6.736   5.377  2.7373  0.5718  1.3884
19471SOL     OW60612   2.006   9.314   6.123  0.1109 -0.2908 -0.6677
19471SOL    HW160613   2.048   9.236   6.088 -0.1536 -0.7072 -0.0798
19471SOL    HW260614   2.079   9.373   6.145  0.4224 -1.0551  0.4642
19472SOL     OW60615   2.217   0.795   1.785  0.4870 -0.4658 -0.1186
19472SOL    HW160616   2.165   0.856   1.734 -1.2731 -1.3416  0.5393
19472SOL    HW260617   2.284   0.763   1.725 -0.1890  0.1551 -1.2203
19473SOL     OW60618   1.892   7.007   2.710  0.0493  0.7130 -0.1065
19473SOL    HW160619   1.854   7.053   2.784 -0.2568 -0.3187  0.3983
19473SOL    HW260620   1.818   6.966   2.666  0.5040 -1.0600  0.7060
19474SOL     OW60621   1.524   9.131   6.247  0.6001  0.6295  0.1649
19474SOL    HW160622   1.578   9.198   6.289 -0.7106  1.2650  0.9127
19474SOL    HW260623   1.449   9.121   6.306 -0.1796 -0.1035 -0.9134
19475SOL     OW60624   0.701   7.252   4.648 -0.1139 -0.0174 -0.4697
19475SOL    HW160625   0.671   7.334   4.687  1.1531 -0.0986  0.7197
19475SOL    HW260626   0.784   7.273   4.607 -0.1890 -0.5218 -0.8968
19476SOL     OW60627   4.076   2.929   9.007 -0.1802 -0.5020 -0.2778
19476SOL    HW160628   3.995   2.979   9.013  0.6494  1.0279 -1.1436
19476SOL    HW260629   4.117   2.959   8.926  0.6239 -2.2365 -0.5672
19477SOL     OW60630   2.087   4.804   2.822 -0.2247  0.1085 -0.2035
19477SOL    HW160631   2.175   4.839   2.837 -0.1199  0.3051 -1.2161
19477SOL    HW260632   2.086   4.721   2.871  0.2214  0.5213  0.5224
19478SOL     OW60633   6.152   3.198   7.860  0.5030 -0.0811  0.6809
19478SOL    HW160634   6.116   3.284   7.882  0.5119 -0.0357  0.5185
19478SOL    HW260635   6.157   3.152   7.944 -1.2947 -0.6219  0.5299
19479SOL     OW60636   4.986   6.807   3.184  0.3391  0.0285  0.2661
19479SOL    HW160637   4.923   6.759   3.131  0.4194 -0.4836  0.6296
19479SOL    HW260638   4.983   6.896   3.150 -0.5325 -0.0042  0.2398
19480SOL     OW60639   2.243   5.566   4.408 -0.1747  0.1514  0.2584
19480SOL    HW160640   2.251   5.602   4.497  1.2631 -2.1754  1.1747
19480SOL    HW260641   2.298   5.488   4.409 -0.4559 -0.1931 -2.5951
19481SOL     OW60642   2.797   9.378   3.300 -0.4704 -0.1797 -0.2049
19481SOL    HW160643   2.738   9.411   3.232  2.1979  1.2102 -2.0400
19481SOL    HW260644   2.836   9.456   3.338  0.5462 -1.0484  0.5973
19482SOL     OW60645   8.979   6.604   5.364 -0.0080  0.4680 -0.0175
19482SOL    HW160646   8.916   6.613   5.434  0.2492 -0.0527  0.2912
19482SOL    HW260647   8.980   6.689   5.320 -0.3102  0.7311  0.4865
19483SOL     OW60648   8.651   1.651   3.258  0.1628 -0.3727 -0.1534
19483SOL    HW160649   8.715   1.586   3.285  0.5440  0.0743  0.0338
19483SOL    HW260650   8.568   1.621   3.296  0.3269 -0.7724 -0.1144
19484SOL     OW60651   0.702   9.241   4.856 -0.2296 -0.2224 -0.1897
19484SOL    HW160652   0.610   9.255   4.833 -0.5083 -2.5466 -0.7203
19484SOL    HW260653   0.702   9.161   4.909  1.5591 -0.7559 -0.9128
19485SOL     OW60654   1.966   6.999   1.327 -0.3719 -0.7067  0.8582
19485SOL    HW160655   2.018   6.972   1.252  0.9200  0.7518  1.1620
19485SOL    HW260656   1.884   6.952   1.319  0.0228 -1.1187 -1.0647
19486SOL     OW60657   3.772   4.912   1.717  0.0320  0.0683 -0.2203
19486SOL    HW160658   3.834   4.874   1.656  0.3682  0.0062  0.1571
19486SOL    HW260659   3.716   4.969   1.664 -1.2116 -1.7961 -1.0123
19487SOL     OW60660   8.365   7.548   8.460 -0.3543 -0.1759  0.0985
19487SOL    HW160661   8.459   7.562   8.449 -0.1090  0.4608  2.4915
19487SOL    HW260662   8.351   7.458   8.432  0.3360  0.6431 -3.3598
19488SOL     OW60663   9.002   1.653   5.021 -0.0164  0.9181 -0.3330
19488SOL    HW160664   8.908   1.643   5.038  0.0243 -1.4515 -1.1475
19488SOL    HW260665   9.006   1.713   4.947 -0.9687  0.2921 -0.9150
19489SOL     OW60666   0.177   7.184   7.860  0.0174 -0.1435  0.3033
19489SOL    HW160667   0.228   7.173   7.940  0.4039  1.0120  0.2309
19489SOL    HW260668   0.173   7.279   7.846 -0.9889 -0.2751 -0.4430
19490SOL     OW60669   8.988   7.049   1.706  0.2832 -0.3743 -0.0182
19490SOL    HW160670   9.073   7.067   1.747  0.2741 -0.6601  0.1277
19490SOL    HW260671   9.002   7.068   1.613  0.3217  0.2173  0.1021
19491SOL     OW60672   1.080   0.121   7.855  0.1863 -0.1223 -0.5652
19491SOL    HW160673   1.173   0.117   7.835  0.1133  1.5768 -1.3843
19491SOL    HW260674   1.038   0.137   7.770 -0.7222  0.6032  0.0104
19492SOL     OW60675   9.432   2.217   3.757 -0.1862  0.2952 -0.4363
19492SOL    HW160676   9.430   2.128   3.794  0.3039  0.4399 -0.0540
19492SOL    HW260677   9.474   2.270   3.824 -3.6978  1.5994  0.9744
19493SOL     OW60678   3.277   4.753   4.527 -0.6370 -0.3116  0.1574
19493SOL    HW160679   3.272   4.660   4.545  0.9770 -0.6637 -0.9848
19493SOL    HW260680   3.252   4.795   4.610  1.6955 -1.7984  1.7350
19494SOL     OW60681   9.188   8.808   0.102  0.6347  0.1983  0.3841
19494SOL    HW160682   9.145   8.888   0.134  2.8158  1.2523  0.9259
19494SOL    HW260683   9.116   8.749   0.081 -1.0485  1.6322  1.7065
19495SOL     OW60684   1.247   4.185   1.988  0.3584  0.0211 -0.0600
19495SOL    HW160685   1.312   4.255   1.977  0.9185 -0.3956  0.4737
19495SOL    HW260686   1.163   4.227   1.971  0.6622  0.8904  0.4949
19496SOL     OW60687   3.904   7.047   9.567  0.2664  0.5043 -0.2577
19496SOL    HW160688   3.859   7.036   9.484  1.4740  1.2760 -1.0384
19496SOL    HW260689   3.986   6.998   9.558 -0.2984 -0.8086  1.1127
19497SOL     OW60690   2.171   7.382   1.591 -0.3634 -0.2485  0.4180
19497SOL    HW160691   2.234   7.450   1.566 -0.9689 -0.1342 -0.9084
19497SOL    HW260692   2.193   7.360   1.681  1.1670  0.2351  0.1832
19498SOL     OW60693   6.891   2.850   0.810 -0.0453 -0.0890  0.2095
19498SOL    HW160694   6.954   2.817   0.747  0.4205 -0.9745  1.0985
19498SOL    HW260695   6.943   2.899   0.873 -0.6585  1.9032 -0.7594
19499SOL     OW60696   4.145   3.578   3.224 -0.0946 -0.2826  0.1030
19499SOL    HW160697   4.108   3.572   3.136 -1.7322 -1.1989  0.8096
19499SOL    HW260698   4.221   3.520   3.222  0.1389  0.0399 -0.8162
19500SOL     OW60699   5.640   4.527   1.124 -0.0159  0.2762 -0.0791
19500SOL    HW160700   5.731   4.497   1.125 -0.0556  0.0343  1.9132
19500SOL    HW260701   5.590   4.452   1.154 -1.0057  0.1355 -1.9999
19501SOL     OW60702   8.739   8.456   8.681  0.1557 -0.5131 -0.8043
19501SOL    HW160703   8.709   8.366   8.667  0.2734 -0.6535 -0.1753
19501SOL    HW260704   8.668   8.511   8.650 -0.7074 -0.8396  0.5260
19502SOL     OW60705   0.620   5.482   6.488 -0.5157  0.1543 -0.2010
19502SOL    HW160706   0.658   5.550   6.433  0.9792 -0.6128 -0.1892
19502SOL    HW260707   0.685   5.468   6.557  0.3895 -2.8660 -1.4901
19503SOL     OW60708   9.478   2.542   2.045 -0.7937 -0.2101  0.4416
19503SOL    HW160709   9.532   2.617   2.068  0.7362 -1.4737  1.1501
19503SOL    HW260710   9.415   2.577   1.982  0.8194  1.3337 -0.4066
19504SOL     OW60711   4.784   8.435   1.724 -0.0003 -0.1565 -0.0735
19504SOL    HW160712   4.863   8.485   1.747 -0.3988  0.5021 -0.1134
19504SOL    HW260713   4.739   8.489   1.660 -1.3042  0.2581  1.1356
19505SOL     OW60714   6.020   4.724   0.726  0.2371  0.1920 -0.1409
19505SOL    HW160715   6.081   4.707   0.654 -0.4795  2.5412 -1.3851
19505SOL    HW260716   6.042   4.812   0.757 -1.1669  0.2494  0.8047
19506SOL     OW60717   2.754   4.320   0.844  0.6385 -0.5019  0.0463
19506SOL    HW160718   2.764   4.412   0.820  2.2442 -0.7187 -0.2522
19506SOL    HW260719   2.808   4.311   0.923  2.1768 -1.6028 -1.0814
19507SOL     OW60720   7.359   7.926   8.232  0.0449  0.2801  0.0399
19507SOL    HW160721   7.285   7.960   8.180  0.2669 -0.0807 -0.5183
19507SOL    HW260722   7.432   7.983   8.208 -0.0552  0.6723  0.6357
19508SOL     OW60723   2.919   0.983   2.951  0.3605 -0.2644  0.0180
19508SOL    HW160724   2.933   0.900   2.905 -0.4873  0.3709 -1.4426
19508SOL    HW260725   2.885   1.042   2.884 -3.0282  0.1065  1.8602
19509SOL     OW60726   2.719   2.998   3.048  0.3392 -0.6243  0.2358
19509SOL    HW160727   2.773   2.931   3.090  0.7949 -0.6661 -0.4043
19509SOL    HW260728   2.632   2.959   3.043  0.1642 -0.4364  1.5584
19510SOL     OW60729   7.250   2.958   3.906  0.4510 -0.2325 -0.4578
19510SOL    HW160730   7.260   3.041   3.860  1.1907  0.4509  0.8785
19510SOL    HW260731   7.200   2.980   3.985  0.3752 -1.1099 -0.2477
19511SOL     OW60732   1.847   0.575   3.694  0.1201  0.3069 -0.0638
19511SOL    HW160733   1.773   0.613   3.742 -0.1371 -0.3676  0.0921
19511SOL    HW260734   1.885   0.513   3.756  0.1493 -0.1428 -0.5321
19512SOL     OW60735   5.556   4.309   7.683  0.2421  0.1536  0.2131
19512SOL    HW160736   5.590   4.390   7.645  0.9231  0.6812  1.8711
19512SOL    HW260737   5.464   4.307   7.657  0.4651  0.9063 -0.7177
19513SOL     OW60738   2.370   6.704   5.830 -0.3341  0.2030 -0.0927
19513SOL    HW160739   2.417   6.653   5.763 -0.7908  0.9333 -0.9925
19513SOL    HW260740   2.437   6.724   5.895  0.8476  1.7793 -1.6650
19514SOL     OW60741   7.688   9.525   1.837  0.0636  0.9430  0.0407
19514SOL    HW160742   7.637   9.537   1.757 -1.2874 -4.6152 -0.3722
19514SOL    HW260743   7.622   9.519   1.906  0.7857  0.6049  0.7141
19515SOL     OW60744   1.653   6.505   4.180 -0.1011  0.3224  0.5820
19515SOL    HW160745   1.646   6.568   4.108  0.7934  0.0308  0.2151
19515SOL    HW260746   1.693   6.554   4.251 -1.1800  0.6670  0.9629
19516SOL     OW60747   3.910   4.337   1.639  0.0191  0.4532 -0.0827
19516SOL    HW160748   3.912   4.430   1.658  0.0403  0.3633  0.3646
19516SOL    HW260749   3.937   4.330   1.547  1.7503  0.7472  0.3746
19517SOL     OW60750   8.544   1.611   8.765  0.0585  0.5792 -0.0934
19517SOL    HW160751   8.461   1.619   8.718  0.1861  0.4031 -0.3503
19517SOL    HW260752   8.601   1.563   8.705 -0.5703 -1.9881  1.2347
19518SOL     OW60753   7.915   5.296   6.192  0.0426 -0.0601 -0.4268
19518SOL    HW160754   7.965   5.363   6.146 -0.0876 -0.8405 -1.7387
19518SOL    HW260755   7.836   5.341   6.221  0.2211  0.4964 -0.7893
19519SOL     OW60756   3.287   3.465   3.932  0.5837 -0.3082  0.1364
19519SOL    HW160757   3.381   3.454   3.920  1.2769  2.1845  2.4031
19519SOL    HW260758   3.278   3.515   4.013 -2.8356 -2.7191  1.5219
19520SOL     OW60759   3.219   5.053   7.473 -0.3683  0.1544 -0.3602
19520SOL    HW160760   3.285   5.102   7.522  1.4130 -0.9462 -1.5338
19520SOL    HW260761   3.176   4.998   7.539  0.9682 -0.2338  0.2236
19521SOL     OW60762   5.763   8.607   1.311 -0.1227  0.2430 -0.0191
19521SOL    HW160763   5.766   8.621   1.405 -1.1299 -1.2255  0.2682
19521SOL    HW260764   5.729   8.689   1.275  2.1631  1.5640  0.6420
19522SOL     OW60765   0.756   4.233   7.088 -0.7190  0.1882  0.1927
19522SOL    HW160766   0.674   4.212   7.132 -1.5563  0.9446 -0.9508
19522SOL    HW260767   0.729   4.275   7.006  0.7367 -1.6020 -1.3077
19523SOL     OW60768   1.266   7.895   1.040  0.2300 -0.1463  0.0693
19523SOL    HW160769   1.326   7.957   1.081 -0.5216  0.8149 -0.2367
19523SOL    HW260770   1.207   7.868   1.110 -0.4512  0.7556 -0.1305
19524SOL     OW60771   5.443   0.929   2.638  0.4147  0.3104 -0.2548
19524SOL    HW160772   5.521   0.960   2.683  0.7716  0.1580 -0.7493
19524SOL    HW260773   5.394   0.882   2.705  1.1923 -0.3720 -0.1355
19525SOL     OW60774   0.828   1.750   1.496 -0.6437 -0.1972  0.5326
19525SOL    HW160775   0.765   1.789   1.557 -1.4418 -0.5587 -0.0357
19525SOL    HW260776   0.819   1.655   1.510  1.7560 -0.2617  2.3826
19526SOL     OW60777   2.140   6.578   2.550 -0.2842  0.3276  0.2932
19526SOL    HW160778   2.111   6.667   2.534  0.2320  0.2149 -1.4570
19526SOL    HW260779   2.229   6.574   2.514  0.0602 -0.6496  1.1769
19527SOL     OW60780   7.626   0.594   0.056  0.3442 -0.4714  0.0240
19527SOL    HW160781   7.666   0.678   0.034  2.3948 -1.3721  0.1255
19527SOL    HW260782   7.669   0.531  -0.001 -0.4180 -1.6120  0.6756
19528SOL     OW60783   2.926   8.892   9.029  0.1240 -0.3357 -0.3144
19528SOL    HW160784   2.847   8.866   8.981  1.1981 -2.0504 -1.2749
19528SOL    HW260785   2.991   8.906   8.960  1.0508 -0.3954  0.5347
19529SOL     OW60786   1.968   1.516   6.772  0.2941 -0.5116 -0.7012
19529SOL    HW160787   2.035   1.450   6.787 -0.2196 -0.8292  0.2929
19529SOL    HW260788   1.906   1.474   6.712 -0.4103 -1.2317  0.4872
19530SOL     OW60789   4.168   8.369   3.367 -0.0969 -0.4082  0.2860
19530SOL    HW160790   4.112   8.426   3.420  1.9669  2.7832 -0.6825
19530SOL    HW260791   4.146   8.391   3.276  3.9175  2.6725 -0.2258
19531SOL     OW60792   7.834   8.884   2.463 -0.2874 -0.2655 -0.2522
19531SOL    HW160793   7.768   8.904   2.529 -1.6464 -1.2840 -1.2345
19531SOL    HW260794   7.881   8.808   2.498  0.2859  0.3761  0.3875
19532SOL     OW60795   9.236   6.209   0.526  0.1197 -0.1328 -0.0718
19532SOL    HW160796   9.166   6.186   0.588  0.9050 -3.1238 -0.1587
19532SOL    HW260797   9.199   6.189   0.440  0.8524 -1.2323 -0.1497
19533SOL     OW60798   9.423   4.434   0.735 -0.2802 -0.0992  0.7471
19533SOL    HW160799   9.518   4.436   0.744 -0.3405  0.9412  1.2914
19533SOL    HW260800   9.395   4.524   0.752 -1.4935 -0.6880  2.0449
19534SOL     OW60801   0.717   7.460   9.446 -0.6815  0.1053 -0.1532
19534SOL    HW160802   0.746   7.476   9.356  0.4335  0.9533  0.3323
19534SOL    HW260803   0.796   7.433   9.492 -1.0421  0.5954  0.7809
19535SOL     OW60804   0.154   2.470   5.179 -0.0384 -0.2932 -0.1175
19535SOL    HW160805   0.243   2.506   5.187  0.5346 -1.9324  1.7567
19535SOL    HW260806   0.153   2.428   5.094  0.5525  0.8051 -0.6944
19536SOL     OW60807   2.629   3.101   1.337 -0.5493 -0.0541 -0.0115
19536SOL    HW160808   2.596   3.191   1.325  1.6808  0.4934 -3.1064
19536SOL    HW260809   2.577   3.048   1.277 -0.8384 -0.6144  0.7102
19537SOL     OW60810   3.395   2.777   5.220  0.1004 -0.2517 -0.1208
19537SOL    HW160811   3.484   2.809   5.204  0.7580 -2.2429 -0.6903
19537SOL    HW260812   3.370   2.818   5.303  1.1850  1.0273 -0.3814
19538SOL     OW60813   4.134   6.682   7.585  0.1143 -0.3910 -0.2386
19538SOL    HW160814   4.143   6.630   7.505 -2.9777 -0.9475 -0.3226
19538SOL    HW260815   4.040   6.683   7.603  0.5730  0.9630  2.5977
19539SOL     OW60816   9.504   7.614   2.325  0.5409 -0.2872  0.4050
19539SOL    HW160817   9.543   7.637   2.240 -1.2400  1.5996  0.0067
19539SOL    HW260818   9.558   7.658   2.390 -0.1842  1.3991 -0.0671
19540SOL     OW60819   0.383   1.737   1.848 -0.1462  0.0459 -0.1494
19540SOL    HW160820   0.300   1.744   1.895 -0.3207 -0.2222 -0.4111
19540SOL    HW260821   0.412   1.828   1.838  1.5758  0.0321  3.3488
19541SOL     OW60822   5.555   0.567   3.614 -0.3321 -0.1886 -0.3362
19541SOL    HW160823   5.535   0.529   3.699  2.5781 -2.1085 -0.3357
19541SOL    HW260824   5.507   0.513   3.551 -0.9069 -0.0401 -0.0294
19542SOL     OW60825   3.655   4.320   4.489  0.3218  0.4786  0.0634
19542SOL    HW160826   3.586   4.275   4.440  1.8176 -0.7072 -1.0162
19542SOL    HW260827   3.696   4.251   4.542  1.1976  1.0203  0.1001
19543SOL     OW60828   0.066   8.742   3.929  0.7171  0.2645 -0.0731
19543SOL    HW160829   0.062   8.666   3.987 -0.4443  0.6360  0.3544
19543SOL    HW260830   0.098   8.813   3.986  0.2674  0.4598 -0.0586
19544SOL     OW60831   4.562   0.704   7.944 -0.4819 -0.8006 -0.3833
19544SOL    HW160832   4.601   0.768   8.003 -0.2173  0.5205 -1.9204
19544SOL    HW260833   4.576   0.620   7.987 -0.6419  0.1245  1.5915
19545SOL     OW60834   4.161   6.918   3.336  0.2269 -0.1006  0.8060
19545SOL    HW160835   4.233   6.959   3.384  1.2863  0.1187 -0.8765
19545SOL    HW260836   4.141   6.979   3.266  0.1625 -1.3293 -0.2787
19546SOL     OW60837   7.978   5.324   4.715  0.9387 -0.2435 -0.8967
19546SOL    HW160838   7.999   5.270   4.640  0.2783 -1.0140 -0.5422
19546SOL    HW260839   8.003   5.413   4.689 -1.9473  0.0698 -3.2080
19547SOL     OW60840   6.517   7.716   4.998 -0.0906 -0.3316 -0.0414
19547SOL    HW160841   6.574   7.699   5.073  1.5986  0.6925 -1.0311
19547SOL    HW260842   6.467   7.794   5.022 -2.2445 -2.0278  1.4079
19548SOL     OW60843   1.829   1.364   7.075  0.1108 -0.0483 -0.2029
19548SOL    HW160844   1.826   1.318   6.991  1.7140 -0.7423  0.0700
19548SOL    HW260845   1.824   1.457   7.052  0.9420 -0.2112 -1.1125
19549SOL     OW60846   3.505   4.403   8.765  0.4155 -0.0663 -0.0236
19549SOL    HW160847   3.536   4.360   8.685 -0.6267  0.6172 -0.8076
19549SOL    HW260848   3.504   4.333   8.830 -0.8244 -1.1614 -1.1629
19550SOL     OW60849   2.919   3.928   3.429  0.3914  0.2258  0.0163
19550SOL    HW160850   2.956   3.946   3.342  2.5330  0.2560  0.8704
19550SOL    HW260851   2.929   3.833   3.440  0.8486  0.3241  0.5096
19551SOL     OW60852   1.424   8.359   3.611  0.2552 -0.0152 -0.1616
19551SOL    HW160853   1.491   8.359   3.680  0.3708  1.3649 -0.2446
19551SOL    HW260854   1.438   8.440   3.563  0.7576 -1.3670 -2.4393
19552SOL     OW60855   3.208   2.456   5.586 -0.1851 -0.0539  0.2228
19552SOL    HW160856   3.136   2.511   5.554 -0.1462 -0.1979 -0.1072
19552SOL    HW260857   3.287   2.501   5.558 -0.1445 -1.2682 -1.7564
19553SOL     OW60858   9.260   0.977   7.355 -0.5982  0.4057  0.2570
19553SOL    HW160859   9.277   0.884   7.368  1.2679  0.5860 -0.4546
19553SOL    HW260860   9.297   1.019   7.433  0.6806  0.6812 -0.4624
19554SOL     OW60861   4.050   4.239   1.286 -0.0615 -0.5492  0.2232
19554SOL    HW160862   4.100   4.308   1.330  0.4939 -0.9329  0.2014
19554SOL    HW260863   4.027   4.276   1.201  1.0939 -0.7438 -0.1896
19555SOL     OW60864   3.929   5.253   5.668  0.3776 -0.0833 -0.4160
19555SOL    HW160865   3.925   5.243   5.573  0.4443 -1.8578 -0.2650
19555SOL    HW260866   3.901   5.168   5.702 -2.0324  1.2179  1.1959
19556SOL     OW60867   8.735   2.146   3.970  0.1366 -0.2479  0.5900
19556SOL    HW160868   8.789   2.164   4.047  0.7967 -0.6392  0.2259
19556SOL    HW260869   8.646   2.137   4.004  0.1119  1.4770  1.0748
19557SOL     OW60870   9.233   7.258   5.617 -0.0248  0.2063 -0.6494
19557SOL    HW160871   9.171   7.243   5.688 -0.3464 -1.8876 -1.3284
19557SOL    HW260872   9.186   7.312   5.554 -1.1488 -1.2150 -1.0787
19558SOL     OW60873   3.075   5.732   8.977 -0.3324  0.1994  0.4601
19558SOL    HW160874   3.039   5.784   8.905 -0.5805 -0.3122  0.2098
19558SOL    HW260875   3.076   5.791   9.052  1.8357  1.4051 -0.4226
19559SOL     OW60876   8.511   5.073   0.810  0.3461  0.1108  0.0796
19559SOL    HW160877   8.426   5.101   0.777  1.6802  1.8720 -2.1504
19559SOL    HW260878   8.559   5.043   0.733  1.9018 -0.4722  1.2114
19560SOL     OW60879   2.003   3.130   8.962 -0.5825  0.1775 -0.0371
19560SOL    HW160880   1.990   3.040   8.991 -1.9568  0.7271  1.1868
19560SOL    HW260881   2.090   3.154   8.994 -0.2882 -0.6355 -0.2027
19561SOL     OW60882   4.781   1.101   4.157 -0.6059 -0.7280  0.3883
19561SOL    HW160883   4.719   1.141   4.219  0.8683 -1.4130  2.4249
19561SOL    HW260884   4.851   1.166   4.148 -0.5847 -0.8323 -0.1841
19562SOL     OW60885   3.877   6.417   6.674  0.3706  0.2832 -0.0909
19562SOL    HW160886   3.896   6.400   6.766  0.1877  0.0296 -0.0991
19562SOL    HW260887   3.802   6.476   6.676  1.5235  1.8193 -0.0454
19563SOL     OW60888   1.841   6.159   3.728 -0.3315 -0.7278  0.3229
19563SOL    HW160889   1.936   6.173   3.725 -0.3844 -0.0249  1.2504
19563SOL    HW260890   1.805   6.247   3.743 -1.0669 -1.1234  0.9277
19564SOL     OW60891   3.204   6.569   7.624 -0.7689 -0.3660  0.0760
19564SOL    HW160892   3.235   6.509   7.692 -0.5745  0.1474  0.4449
19564SOL    HW260893   3.248   6.540   7.545  0.7517  0.3962  0.6045
19565SOL     OW60894   9.531   1.244   9.364  0.3741 -0.0348 -0.1309
19565SOL    HW160895   9.488   1.294   9.294 -0.2864 -0.7083 -0.2090
19565SOL    HW260896   9.624   1.249   9.342  0.0780 -1.4484 -1.8912
19566SOL     OW60897   0.674   3.925   5.009 -0.3707  0.0948 -0.3147
19566SOL    HW160898   0.602   3.968   5.056 -0.5562  0.1671 -0.6572
19566SOL    HW260899   0.646   3.834   5.000  0.1253 -0.1591  0.6131
19567SOL     OW60900   3.532   6.235   8.062  0.7310 -0.2333  0.2825
19567SOL    HW160901   3.556   6.168   8.126  1.2875  1.1310  1.5342
19567SOL    HW260902   3.616   6.267   8.028  0.4903  0.3366  0.2195
19568SOL     OW60903   8.497   1.744   1.181 -0.3711 -0.5308  0.7072
19568SOL    HW160904   8.486   1.654   1.150  0.3679 -0.9175  1.5132
19568SOL    HW260905   8.475   1.740   1.275 -0.7237  0.2158  0.6647
19569SOL     OW60906   2.292   8.899   2.045 -0.1405 -0.0921  0.3511
19569SOL    HW160907   2.386   8.912   2.049 -0.2554  0.6508  0.8849
19569SOL    HW260908   2.281   8.803   2.045  0.5612 -0.2447  2.6127
19570SOL     OW60909   0.657   4.373   0.185 -0.1937  0.4776 -0.0787
19570SOL    HW160910   0.666   4.364   0.280 -1.4699 -0.1395  0.0039
19570SOL    HW260911   0.563   4.380   0.171 -0.0107  0.6836 -1.3051
19571SOL     OW60912   8.465   0.133   3.453 -0.0226  0.4926 -0.4180
19571SOL    HW160913   8.456   0.228   3.448  0.4591  0.5165 -1.0827
19571SOL    HW260914   8.542   0.118   3.508  0.1371  0.5021 -0.6373
19572SOL     OW60915   9.547   2.206   5.700  0.2687  0.3817 -0.1214
19572SOL    HW160916   9.629   2.204   5.749 -0.3163  0.1975  0.8758
19572SOL    HW260917   9.490   2.145   5.746  0.3254 -1.3711 -2.2327
19573SOL     OW60918   9.369   0.931   4.708 -0.0816 -0.1452  0.4267
19573SOL    HW160919   9.313   0.997   4.666 -1.3778 -1.7285 -0.4592
19573SOL    HW260920   9.427   0.902   4.638  2.8072  2.3007  1.6026
19574SOL     OW60921   5.938   5.987   6.344  0.6543  0.2152 -0.1870
19574SOL    HW160922   5.948   5.908   6.397 -1.5770 -0.4331 -0.6151
19574SOL    HW260923   5.852   6.021   6.367  1.1411  1.9735 -0.7618
19575SOL     OW60924   8.503   1.988   1.830  0.3403 -0.1706  0.1012
19575SOL    HW160925   8.433   2.032   1.782  1.4425  0.5321 -0.9361
19575SOL    HW260926   8.460   1.918   1.879 -0.8726 -0.6940 -1.6629
19576SOL     OW60927   8.367   6.541   3.216 -0.0441  0.2298  0.5829
19576SOL    HW160928   8.307   6.550   3.142  0.6785 -0.1577 -0.0560
19576SOL    HW260929   8.389   6.448   3.218 -0.0027  0.2509  1.2432
19577SOL     OW60930   4.601   0.365   1.304  0.1327  0.1958 -0.3669
19577SOL    HW160931   4.621   0.273   1.321  0.0175  0.3797  0.8737
19577SOL    HW260932   4.611   0.375   1.210 -0.4343 -1.2205 -0.5956
19578SOL     OW60933   7.671   6.788   4.513 -0.0506  0.5207 -0.3941
19578SOL    HW160934   7.764   6.807   4.506 -0.1655  2.1101  1.3950
19578SOL    HW260935   7.662   6.698   4.482  2.1045  0.2681 -0.4167
19579SOL     OW60936   1.722   9.004   1.190 -0.3529 -0.0384 -0.7386
19579SOL    HW160937   1.760   9.092   1.189  0.8996 -0.5605 -0.7610
19579SOL    HW260938   1.638   9.015   1.235  0.7986  0.7687  1.3627
19580SOL     OW60939   1.347   4.149   8.525 -0.6988  0.3771  0.0118
19580SOL    HW160940   1.439   4.167   8.545 -0.7799  1.4833 -0.5536
19580SOL    HW260941   1.304   4.144   8.610 -0.4284  1.6215  0.2345
19581SOL     OW60942   8.836   3.333   4.387 -0.1084 -0.2616  0.1302
19581SOL    HW160943   8.814   3.345   4.294 -1.2649  0.4856  0.4744
19581SOL    HW260944   8.890   3.255   4.389  0.4066  0.0226 -1.2455
19582SOL     OW60945   8.701   3.324   5.795 -0.0315  0.0721 -0.3254
19582SOL    HW160946   8.636   3.281   5.738  0.2753 -1.7330  0.6011
19582SOL    HW260947   8.659   3.331   5.880  0.2405  0.8692 -0.2454
19583SOL     OW60948   6.511   8.137   4.214 -0.2942 -0.2620  0.4964
19583SOL    HW160949   6.573   8.066   4.233  1.4444  1.2663  0.8401
19583SOL    HW260950   6.539   8.208   4.270 -2.4199  0.5112  0.6470
19584SOL     OW60951   2.796   0.047   5.163  0.2460  0.1070  0.0495
19584SOL    HW160952   2.814  -0.015   5.234 -0.1736  1.8305  1.7412
19584SOL    HW260953   2.881   0.087   5.145  0.1237  0.5916  0.5161
19585SOL     OW60954   6.763   6.307   1.362  0.1485 -0.1784  0.1520
19585SOL    HW160955   6.703   6.356   1.305  0.9936  0.9940  0.2253
19585SOL    HW260956   6.742   6.215   1.345  0.9476  0.0800 -2.7457
19586SOL     OW60957   1.699   7.962   7.469 -0.0841 -0.0111  0.1878
19586SOL    HW160958   1.660   7.876   7.459  0.5968 -0.1705 -1.4985
19586SOL    HW260959   1.694   8.001   7.382 -0.7747  1.8474  0.9997
19587SOL     OW60960   1.975   1.100   1.425 -0.3848 -0.5771 -0.3216
19587SOL    HW160961   1.984   1.030   1.490 -3.1898 -1.9897 -1.2836
19587SOL    HW260962   1.956   1.054   1.343 -1.0247  1.2532 -1.2625
19588SOL     OW60963   1.091   0.707   5.585 -0.1654  0.1631  0.4430
19588SOL    HW160964   1.007   0.753   5.594 -1.0637 -0.8578 -1.8618
19588SOL    HW260965   1.076   0.622   5.625  0.2674  0.4898  1.3206
19589SOL     OW60966   0.497   4.089   0.320  0.1244 -0.3345  0.0605
19589SOL    HW160967   0.509   4.025   0.390 -1.0470 -0.7408 -0.0847
19589SOL    HW260968   0.417   4.135   0.344 -0.3871 -0.5994 -1.0884
19590SOL     OW60969   7.401   8.913   8.281 -0.0049 -0.2091 -0.1329
19590SOL    HW160970   7.312   8.928   8.249 -0.0950 -0.3060  0.0727
19590SOL    HW260971   7.405   8.959   8.365  0.5155  0.8120 -0.6999
19591SOL     OW60972   0.485   6.098   7.819 -0.0993 -0.4805  0.5004
19591SOL    HW160973   0.553   6.037   7.847  0.7709  0.2927  0.1312
19591SOL    HW260974   0.429   6.108   7.895  0.5798 -0.6200  1.0300
19592SOL     OW60975   7.458   5.348   0.338  0.4293 -0.1078  0.5089
19592SOL    HW160976   7.502   5.336   0.254  0.3060  1.7830  0.1261
19592SOL    HW260977   7.441   5.259   0.369  3.6631 -0.9216  0.2443
19593SOL     OW60978   5.057   9.081   2.457 -0.2395 -0.2081 -0.2419
19593SOL    HW160979   5.036   9.047   2.544  0.4737  1.8385  0.7848
19593SOL    HW260980   5.135   9.033   2.431  1.6323  1.5066  1.8263
19594SOL     OW60981   6.777   3.242   2.729 -0.4783  0.8900  0.0599
19594SOL    HW160982   6.734   3.296   2.794 -0.7498  0.1835  0.4835
19594SOL    HW260983   6.855   3.291   2.704  0.7063  0.3202  2.3719
19595SOL     OW60984   0.112   9.023   6.713  0.3061 -0.0354  0.0329
19595SOL    HW160985   0.116   9.035   6.618 -1.9841 -0.0508 -0.1216
19595SOL    HW260986   0.072   9.104   6.745 -1.3186 -1.0458  0.6638
19596SOL     OW60987   7.334   6.413   1.743 -0.0501  0.8038  0.1320
19596SOL    HW160988   7.303   6.470   1.813 -0.1352 -0.0809  0.8351
19596SOL    HW260989   7.255   6.372   1.708  0.0529  0.7576 -0.0478
19597SOL     OW60990   3.518   1.576   4.191  0.8139  0.0269  0.8596
19597SOL    HW160991   3.471   1.618   4.263 -0.0641  0.0732  0.2691
19597SOL    HW260992   3.501   1.632   4.115  0.3817 -0.9067  0.2613
19598SOL     OW60993   9.113   7.257   0.472  0.5146 -0.0638 -0.4339
19598SOL    HW160994   9.048   7.212   0.419  0.0605 -0.0760  0.1247
19598SOL    HW260995   9.062   7.315   0.529  0.9930 -0.0532 -0.0092
19599SOL     OW60996   0.813   3.497   1.518  0.3811  0.5950 -0.2940
19599SOL    HW160997   0.880   3.463   1.458 -0.4079  0.9264 -1.4039
19599SOL    HW260998   0.748   3.427   1.523  0.0952  0.8534 -0.3945
19600SOL     OW60999   1.700   8.968   9.089  0.2797 -0.1562 -0.7488
19600SOL    HW161000   1.778   9.019   9.066  0.1178  0.8868  0.8456
19600SOL    HW261001   1.636   9.034   9.114 -0.1542 -1.1097  0.7539
19601SOL     OW61002   2.847   9.145   8.751  0.2043  0.3782 -0.0454
19601SOL    HW161003   2.933   9.146   8.708  0.0080  1.8903 -0.4671
19601SOL    HW261004   2.795   9.208   8.701 -1.5344 -1.3188 -0.5063
19602SOL     OW61005   8.125   8.690   0.294  0.0579  0.0115 -0.7085
19602SOL    HW161006   8.038   8.652   0.284 -0.1238  0.4064 -0.6051
19602SOL    HW261007   8.151   8.713   0.205 -0.0762  0.1886 -0.7026
19603SOL     OW61008   7.439   7.613   5.952  0.1611 -0.4010 -0.4938
19603SOL    HW161009   7.435   7.620   6.047 -1.0031  1.2789 -0.6165
19603SOL    HW261010   7.489   7.533   5.936  0.4099 -0.7088  1.5139
19604SOL     OW61011   1.860   6.722   2.827  0.0700 -0.6020  0.3438
19604SOL    HW161012   1.918   6.774   2.772 -0.5406  1.2570  1.3923
19604SOL    HW261013   1.877   6.631   2.800  3.3464 -0.1755  0.4644
19605SOL     OW61014   2.547   4.550   5.265 -0.2377 -0.5478 -0.2980
19605SOL    HW161015   2.598   4.494   5.324  1.0245  1.1821  0.3260
19605SOL    HW261016   2.459   4.511   5.267 -0.2984 -0.5294  2.8547
19606SOL     OW61017   0.966   4.370   0.366 -0.5382  0.0969 -0.2375
19606SOL    HW161018   0.881   4.413   0.373  0.0871  1.1972  0.7925
19606SOL    HW261019   0.971   4.313   0.443  0.5946  1.7841  0.9872
19607SOL     OW61020   8.476   5.993   6.045  0.3907  0.9560  0.4111
19607SOL    HW161021   8.531   6.071   6.032  0.1698  1.1850  0.8234
19607SOL    HW261022   8.538   5.920   6.042  0.6351  1.1657  0.2558
19608SOL     OW61023   8.723   0.135   6.705 -0.5933 -0.2438 -0.2596
19608SOL    HW161024   8.719   0.193   6.630 -0.0012 -1.0763 -0.9529
19608SOL    HW261025   8.813   0.143   6.737 -1.1974  1.1415  1.2234
19609SOL     OW61026   8.090   7.670   2.651  0.0408  0.4015 -0.1275
19609SOL    HW161027   8.134   7.720   2.719  0.3771 -0.5470  0.3641
19609SOL    HW261028   7.999   7.664   2.681  0.1294  0.2102  0.0994
19610SOL     OW61029   0.748   5.266   4.605 -0.5010 -0.2749 -0.9858
19610SOL    HW161030   0.811   5.329   4.569 -0.2207 -1.8427 -3.4940
19610SOL    HW261031   0.787   5.181   4.585 -1.5506 -1.2774  1.0307
19611SOL     OW61032   4.527   8.998   0.893 -0.1206  0.5292 -0.4404
19611SOL    HW161033   4.473   8.995   0.815 -1.4661 -0.6860  0.4747
19611SOL    HW261034   4.585   8.922   0.885  0.2311  0.8117 -0.5867
19612SOL     OW61035   1.914   1.795   7.091 -0.8028  0.3412  0.0037
19612SOL    HW161036   1.982   1.860   7.109 -2.5011  2.2684 -0.1917
19612SOL    HW261037   1.833   1.838   7.117 -2.2730 -0.7193 -2.5150
19613SOL     OW61038   6.433   0.995   4.456 -0.3399  0.1613  0.0379
19613SOL    HW161039   6.501   1.062   4.462  3.1538 -2.7780 -2.0624
19613SOL    HW261040   6.454   0.933   4.526 -2.6241  0.4740  1.0701
19614SOL     OW61041   0.951   5.227   8.221  0.2457 -0.2677  0.5450
19614SOL    HW161042   0.936   5.250   8.130  1.2346 -1.1657  0.1362
19614SOL    HW261043   1.043   5.201   8.225  0.4706  0.6065  1.9824
19615SOL     OW61044   6.915   8.308   1.492  0.1434  0.2522 -0.2524
19615SOL    HW161045   6.978   8.331   1.423 -0.7058 -0.2005 -1.2057
19615SOL    HW261046   6.963   8.247   1.548  0.2349 -0.9762 -1.6066
19616SOL     OW61047   2.586   5.966   7.854  0.0633  0.0701  0.0173
19616SOL    HW161048   2.672   5.940   7.888 -0.0642  0.8327  0.9536
19616SOL    HW261049   2.585   6.062   7.861 -1.4989 -0.0178  1.6066
19617SOL     OW61050   5.663   0.961   6.116 -0.1960  0.3958 -0.4043
19617SOL    HW161051   5.591   0.945   6.176 -0.6998  0.7492 -0.9057
19617SOL    HW261052   5.634   1.034   6.062 -0.2548 -0.6636 -1.8636
19618SOL     OW61053   1.782   6.407   6.963  0.2169 -0.0083 -0.0819
19618SOL    HW161054   1.696   6.371   6.984 -0.7291  2.8577  1.4300
19618SOL    HW261055   1.790   6.397   6.868 -2.2377  0.5737 -0.4162
19619SOL     OW61056   0.424   0.658   7.008 -0.3757 -0.6301 -0.3736
19619SOL    HW161057   0.477   0.737   6.993  1.7543 -1.6383  1.3729
19619SOL    HW261058   0.355   0.663   6.941  0.9428  1.5974 -1.7024
19620SOL     OW61059   7.110   2.297   2.032 -0.1508  0.0580 -0.2351
19620SOL    HW161060   7.103   2.392   2.046 -0.2793  0.3093 -1.8581
19620SOL    HW261061   7.190   2.273   2.078 -1.1617  0.5568  1.9542
19621SOL     OW61062   6.287   6.076   9.384 -0.3267 -0.1583 -0.3185
19621SOL    HW161063   6.208   6.023   9.369 -0.1635 -0.3055 -0.6840
19621SOL    HW261064   6.353   6.013   9.411 -0.5755  0.0891  0.9204
19622SOL     OW61065   9.480   2.361   5.475  1.0742  0.0025 -0.3265
19622SOL    HW161066   9.501   2.325   5.562 -1.6983  0.4282  0.6367
19622SOL    HW261067   9.398   2.317   5.450  0.7331  1.3797 -1.7867
19623SOL     OW61068   6.006   6.871   1.313 -0.2709 -0.3987  0.2800
19623SOL    HW161069   6.007   6.781   1.346  0.0363 -0.0216  1.3454
19623SOL    HW261070   5.967   6.865   1.226  2.2078 -1.9737 -0.8464
19624SOL     OW61071   5.823   4.820   6.326  0.1449 -0.9875 -0.1834
19624SOL    HW161072   5.817   4.735   6.369 -0.8309 -1.1769 -0.6778
19624SOL    HW261073   5.917   4.841   6.328  0.1997 -1.1988  1.6059
19625SOL     OW61074   6.968   3.153   3.172  0.7198  0.2889 -0.1681
19625SOL    HW161075   6.890   3.206   3.189 -0.3745 -0.6186 -1.9743
19625SOL    HW261076   6.965   3.137   3.078  2.3998 -0.8796 -0.0619
19626SOL     OW61077   4.224   4.437   0.547 -0.3869 -0.0994  0.4848
19626SOL    HW161078   4.258   4.523   0.570 -1.3379  0.2672  0.5634
19626SOL    HW261079   4.172   4.452   0.467 -2.0302 -0.2420  1.4804
19627SOL     OW61080   5.136   6.274   0.897 -0.5179  0.6557 -0.8006
19627SOL    HW161081   5.201   6.309   0.957  0.1720 -0.0114 -1.1417
19627SOL    HW261082   5.176   6.281   0.810 -0.3161 -1.0128 -0.8742
19628SOL     OW61083   6.427   0.674   8.731 -0.1330 -0.3572 -0.1321
19628SOL    HW161084   6.427   0.740   8.800  0.6681  2.0926 -2.2887
19628SOL    HW261085   6.378   0.715   8.659  0.1671 -2.2421 -1.4737
19629SOL     OW61086   6.013   0.330   6.178  0.3071 -0.8770 -0.3969
19629SOL    HW161087   5.988   0.386   6.105 -0.5770  0.3967  0.8301
19629SOL    HW261088   5.968   0.247   6.161 -2.0459  0.2246 -0.0385
19630SOL     OW61089   0.939   1.370   5.439 -0.1220  0.0542 -0.4573
19630SOL    HW161090   0.945   1.443   5.377  1.5196 -0.9001 -1.4932
19630SOL    HW261091   0.960   1.409   5.524  1.8442  0.6375 -1.1526
19631SOL     OW61092   1.567   6.351   4.386  0.1009 -0.5338  0.0334
19631SOL    HW161093   1.586   6.412   4.315 -0.6531 -1.9221 -1.4243
19631SOL    HW261094   1.631   6.280   4.375  0.0444 -0.7204  0.8136
19632SOL     OW61095   5.905   3.915   1.228 -0.3660  0.2507 -0.1607
19632SOL    HW161096   5.899   3.929   1.134 -0.4703  0.5496 -0.1088
19632SOL    HW261097   5.989   3.869   1.240 -1.3071 -1.7163 -0.6156
19633SOL     OW61098   6.866   4.286   1.454  0.2587 -0.2997  0.3553
19633SOL    HW161099   6.810   4.231   1.400  1.1848 -0.3440 -0.5827
19633SOL    HW261100   6.954   4.253   1.438  0.4868 -1.0435  2.7421
19634SOL     OW61101   6.326   6.259   4.346  0.2987 -0.2345  0.4083
19634SOL    HW161102   6.379   6.304   4.411  0.3348  0.1237  0.1318
19634SOL    HW261103   6.276   6.195   4.397 -0.3919  0.6955  0.9312
19635SOL     OW61104   4.699   4.167   4.100 -0.4521 -0.1598 -0.3934
19635SOL    HW161105   4.752   4.175   4.021  0.2143 -1.6252 -0.1212
19635SOL    HW261106   4.608   4.173   4.069 -0.1808  0.1056 -1.1506
19636SOL     OW61107   7.179   5.081   5.043  0.3190  0.1029 -0.1361
19636SOL    HW161108   7.169   5.175   5.028  1.4687  0.2488 -0.0485
19636SOL    HW261109   7.243   5.074   5.114  0.9257 -0.7538 -0.7415
19637SOL     OW61110   0.815   1.989   8.863 -0.4312  0.4056  0.3080
19637SOL    HW161111   0.748   1.974   8.797  0.8628 -2.0652 -0.6136
19637SOL    HW261112   0.881   2.043   8.819  0.0141 -0.5016 -0.1665
19638SOL     OW61113   4.533   2.878   2.719 -0.2312 -0.1864 -0.5451
19638SOL    HW161114   4.578   2.867   2.636  1.5167 -0.2449  0.3764
19638SOL    HW261115   4.585   2.828   2.782 -1.6740 -0.3816  0.5467
19639SOL     OW61116   8.832   5.615   4.910 -0.1630  0.4884  0.2302
19639SOL    HW161117   8.897   5.544   4.916  0.1483  0.6889 -0.6506
19639SOL    HW261118   8.783   5.609   4.993 -0.2925 -0.8973  0.0881
19640SOL     OW61119   5.576   5.152   7.831 -0.1735 -0.0381  0.1309
19640SOL    HW161120   5.555   5.079   7.889  0.2330  0.9559  1.5819
19640SOL    HW261121   5.543   5.229   7.876 -0.3189  0.7350 -1.2270
19641SOL     OW61122   9.324   7.316   5.176 -0.2408  0.0348  0.2690
19641SOL    HW161123   9.329   7.265   5.095  1.3529 -0.0382  0.3719
19641SOL    HW261124   9.236   7.353   5.176 -0.4504 -0.3878 -1.2353
19642SOL     OW61125   2.440   6.006   7.602  0.5967  0.6207 -0.2349
19642SOL    HW161126   2.477   6.083   7.558  0.5427  0.5915 -0.3315
19642SOL    HW261127   2.511   5.974   7.658  0.8659  0.3110 -0.7437
19643SOL     OW61128   5.417   5.905   3.124  0.1090 -0.2308  0.2375
19643SOL    HW161129   5.446   5.908   3.033  0.7865 -0.0568  0.4533
19643SOL    HW261130   5.340   5.962   3.126 -0.0501 -0.4204 -0.2726
19644SOL     OW61131   1.802   2.215   8.977  0.3354  0.3019  0.4851
19644SOL    HW161132   1.850   2.276   8.920 -0.2510 -0.9203 -1.3982
19644SOL    HW261133   1.737   2.270   9.020 -0.4536  1.0057 -1.4828
19645SOL     OW61134   4.058   7.587   6.474 -0.0390  0.5976 -0.4836
19645SOL    HW161135   4.060   7.659   6.538  1.1912  1.0748 -1.0386
19645SOL    HW261136   4.141   7.542   6.486 -0.9179 -0.9713  0.0666
19646SOL     OW61137   7.284   4.510   0.760 -0.1920 -0.0832  0.4582
19646SOL    HW161138   7.304   4.416   0.762  0.8586  0.1329  0.5691
19646SOL    HW261139   7.226   4.524   0.835 -0.7758 -0.7324  0.1339
19647SOL     OW61140   2.787   0.760   2.566  0.6809  0.3787  0.4956
19647SOL    HW161141   2.820   0.731   2.652 -0.2322 -1.6973  0.2137
19647SOL    HW261142   2.803   0.685   2.508 -0.1292  1.1647 -0.7785
19648SOL     OW61143   4.489   5.306   8.424  0.1055 -0.5750 -0.4109
19648SOL    HW161144   4.490   5.357   8.343  0.4086 -0.1875 -0.1695
19648SOL    HW261145   4.452   5.366   8.489 -0.4180 -0.9833 -0.3262
19649SOL     OW61146   0.003   5.984   8.059 -0.2524  0.1077  0.0697
19649SOL    HW161147  -0.040   5.953   8.138  0.3115 -1.7727 -0.2966
19649SOL    HW261148   0.090   5.944   8.062  0.2419  1.0776 -0.8500
19650SOL     OW61149   4.507   6.335   3.637 -0.0825 -0.4237  0.6646
19650SOL    HW161150   4.563   6.259   3.653  0.1254 -0.2506  0.7595
19650SOL    HW261151   4.419   6.299   3.631  0.2405 -0.9734 -1.5493
19651SOL     OW61152   7.439   3.527   6.519  0.3766 -0.1385  0.5461
19651SOL    HW161153   7.414   3.435   6.524 -0.2175 -0.0026  0.1694
19651SOL    HW261154   7.356   3.574   6.511  0.6043  0.5073  1.6685
19652SOL     OW61155   3.082   2.211   4.027 -0.0897 -0.1318  0.0691
19652SOL    HW161156   3.024   2.135   4.021  0.0690 -0.2663  0.2354
19652SOL    HW261157   3.121   2.219   3.940  1.6633 -1.6460  0.6390
19653SOL     OW61158   8.870   0.037   0.475  0.1956 -0.3899 -0.4796
19653SOL    HW161159   8.831   0.120   0.502 -1.8858 -1.3398 -0.3861
19653SOL    HW261160   8.799  -0.009   0.430  1.7317 -1.5202 -1.8856
19654SOL     OW61161   0.395   7.223   3.111 -0.6721  0.6358 -0.6559
19654SOL    HW161162   0.430   7.247   3.197  1.4553  1.8680 -1.7946
19654SOL    HW261163   0.357   7.304   3.077  0.8416  0.8660 -1.9071
19655SOL     OW61164   2.572   2.741   2.550  0.0009  0.3271  0.4058
19655SOL    HW161165   2.620   2.789   2.483 -0.0213  1.2483  1.0297
19655SOL    HW261166   2.480   2.754   2.528  0.0097 -0.5923 -0.2103
19656SOL     OW61167   7.073   4.849   1.387  0.1861  0.7829 -0.0157
19656SOL    HW161168   7.099   4.940   1.399  0.2702  0.7564  0.0103
19656SOL    HW261169   6.983   4.853   1.356  0.3206  0.8925 -0.4062
19657SOL     OW61170   3.215   6.243   2.820 -0.1320 -0.0897 -0.1021
19657SOL    HW161171   3.256   6.309   2.877  1.0767 -1.3741  0.5617
19657SOL    HW261172   3.280   6.226   2.753  0.1279 -1.5725  0.5025
19658SOL     OW61173   0.374   7.897   6.052 -0.2043  0.2760 -0.0355
19658SOL    HW161174   0.453   7.870   6.004 -1.1082 -0.4242 -1.1838
19658SOL    HW261175   0.338   7.815   6.086 -1.1654  0.4141 -0.6921
19659SOL     OW61176   4.229   5.662   1.237  0.4692  0.4594  0.2668
19659SOL    HW161177   4.252   5.694   1.149  0.8840 -1.8372 -0.5428
19659SOL    HW261178   4.313   5.640   1.277  0.1375 -1.8048 -0.1672
19660SOL     OW61179   9.407   8.295   1.689  0.2916 -0.2073 -0.1111
19660SOL    HW161180   9.464   8.366   1.717  0.5381  0.2564 -1.7102
19660SOL    HW261181   9.323   8.338   1.670  0.8667 -0.0400 -2.5313
19661SOL     OW61182   0.083   3.106   6.857 -0.1286  0.1472  0.1526
19661SOL    HW161183   0.163   3.156   6.874 -1.3182  1.2396  3.4162
19661SOL    HW261184   0.013   3.171   6.861 -1.3147 -0.8969 -1.9081
19662SOL     OW61185   7.810   5.282   0.682 -0.4059 -0.1418 -0.3973
19662SOL    HW161186   7.856   5.205   0.647  0.8401  0.6896 -0.6270
19662SOL    HW261187   7.754   5.246   0.751  2.6323 -0.9245  1.8831
19663SOL     OW61188   7.515   0.484   5.500 -0.2081 -0.8410 -0.3553
19663SOL    HW161189   7.471   0.429   5.565 -0.5400  1.7222  1.7999
19663SOL    HW261190   7.444   0.523   5.449 -0.0235 -1.7226 -1.3061
19664SOL     OW61191   0.561   9.525   8.174  0.3073  0.4918 -0.6229
19664SOL    HW161192   0.555   9.430   8.164  1.8985  0.4103 -1.0558
19664SOL    HW261193   0.588   9.556   8.087 -0.6191  1.4023 -0.6103
19665SOL     OW61194   1.124   0.466   0.591  0.1565  0.0295 -0.2818
19665SOL    HW161195   1.089   0.452   0.679  2.3697 -0.1243  0.6286
19665SOL    HW261196   1.190   0.534   0.601  1.0910 -0.6213 -1.6242
19666SOL     OW61197   3.432   0.966   4.179  0.0581  0.2966 -0.7547
19666SOL    HW161198   3.447   0.990   4.087 -1.9156  1.8969 -0.7243
19666SOL    HW261199   3.455   1.045   4.228  4.0865 -1.4224  0.5837
19667SOL     OW61200   2.268   1.252   7.613  0.2363 -0.1384  0.0032
19667SOL    HW161201   2.248   1.345   7.617 -0.1942 -0.1438 -1.4742
19667SOL    HW261202   2.184   1.210   7.597  0.7848 -0.5067 -2.2807
19668SOL     OW61203   6.180   7.071   8.287  0.0540 -0.5713 -0.6637
19668SOL    HW161204   6.198   7.165   8.295 -2.5563 -0.1307  1.0982
19668SOL    HW261205   6.267   7.031   8.290  1.1887  1.7121 -0.2840
19669SOL     OW61206   4.389   5.258   5.703  0.2308 -0.0189  0.1281
19669SOL    HW161207   4.399   5.175   5.656  1.3641  0.5984 -0.7736
19669SOL    HW261208   4.305   5.250   5.748 -0.0080 -1.3733 -0.5044
19670SOL     OW61209   2.931   3.930   2.163  0.8961  0.1901  0.6094
19670SOL    HW161210   2.875   4.000   2.129  1.4698  0.6499  0.5764
19670SOL    HW261211   2.924   3.859   2.099  0.6254  0.3827  0.4269
19671SOL     OW61212   8.147   7.410   2.533 -0.1581  0.2290 -0.7621
19671SOL    HW161213   8.129   7.503   2.541  2.3989  0.8365 -1.1164
19671SOL    HW261214   8.094   7.369   2.602  0.5083  2.2334  1.0535
19672SOL     OW61215   9.200   8.005   8.360 -0.2796 -0.0229  0.7120
19672SOL    HW161216   9.248   8.028   8.440  0.3948 -1.0316  0.6164
19672SOL    HW261217   9.222   8.073   8.298 -1.4385  1.2216  1.6111
19673SOL     OW61218   8.932   6.957   3.622  0.6546  0.4053 -0.1211
19673SOL    HW161219   8.965   7.041   3.654 -1.0553  0.9487  0.3599
19673SOL    HW261220   8.911   6.908   3.702 -3.6953  1.7886 -0.1435
19674SOL     OW61221   7.902   7.244   7.196 -0.1170  0.0903  0.4792
19674SOL    HW161222   7.899   7.296   7.276 -0.2297 -1.7250  1.7005
19674SOL    HW261223   7.819   7.263   7.152 -0.0927  1.0268  0.8179
19675SOL     OW61224   5.108   8.829   2.366 -0.4495  0.1974  0.6879
19675SOL    HW161225   5.078   8.865   2.282  2.2713  0.7825 -0.1211
19675SOL    HW261226   5.053   8.751   2.379 -0.4075 -0.4159 -2.0921
19676SOL     OW61227   7.186   5.140   1.280  0.1993  0.1760 -0.5328
19676SOL    HW161228   7.125   5.160   1.210 -0.3240 -0.5069 -0.2782
19676SOL    HW261229   7.131   5.128   1.357  0.5346 -1.4050 -0.4994
19677SOL     OW61230   2.218   6.964   6.009  0.3331 -0.2575 -0.2564
19677SOL    HW161231   2.212   6.971   6.104 -1.4349 -0.0576 -0.3532
19677SOL    HW261232   2.163   7.035   5.976 -0.3977 -1.3286 -1.4180
19678SOL     OW61233   1.673   1.844   2.648  0.5959  0.2860  0.8033
19678SOL    HW161234   1.590   1.813   2.686 -0.0758  1.4229  0.3112
19678SOL    HW261235   1.659   1.937   2.632  1.4253  0.1837 -0.7305
19679SOL     OW61236   4.421   6.318   6.994  0.8516  0.0070  0.9331
19679SOL    HW161237   4.402   6.294   7.085  1.8193 -1.2923  0.8240
19679SOL    HW261238   4.496   6.378   7.000  0.1409  0.8946  1.0528
19680SOL     OW61239   5.848   3.443   6.107  0.2085  0.1312  0.2906
19680SOL    HW161240   5.940   3.422   6.095 -0.1907 -1.5143 -0.2233
19680SOL    HW261241   5.810   3.364   6.145 -1.7051 -0.8157 -3.0866
19681SOL     OW61242   2.784   3.846   8.189 -0.0931  0.3252  0.8223
19681SOL    HW161243   2.713   3.886   8.239  0.2883  0.5953  1.1547
19681SOL    HW261244   2.749   3.760   8.162 -0.9499  0.9010  0.0204
19682SOL     OW61245   5.726   7.864   7.627  0.3159  0.2350 -0.4252
19682SOL    HW161246   5.724   7.813   7.708  1.7631  2.2258  0.9551
19682SOL    HW261247   5.644   7.913   7.628  0.0436 -0.2167 -0.4900
19683SOL     OW61248   3.181   9.246   6.758  0.4305 -0.6640  0.0772
19683SOL    HW161249   3.180   9.311   6.688  1.6481 -0.7664 -0.0595
19683SOL    HW261250   3.093   9.247   6.794  0.7943  2.1141  1.0704
19684SOL     OW61251   6.637   5.411   1.577 -0.0633 -0.0025  0.4374
19684SOL    HW161252   6.702   5.411   1.506  1.5081  1.9044  1.7456
19684SOL    HW261253   6.558   5.448   1.538  0.4563  0.0934 -0.5526
19685SOL     OW61254   2.872   3.627   6.551 -0.1554  0.0203 -0.0513
19685SOL    HW161255   2.896   3.672   6.632  0.5139  0.7957 -0.6638
19685SOL    HW261256   2.938   3.655   6.488  0.1505 -1.6570 -0.5217
19686SOL     OW61257   6.269   2.653   6.068 -0.1107 -0.0110  0.0056
19686SOL    HW161258   6.210   2.594   6.115  0.8504 -0.4016  0.7717
19686SOL    HW261259   6.334   2.596   6.028  0.7339  0.5024  0.6153
19687SOL     OW61260   2.077   6.803   1.564 -0.7117 -0.2517  0.4942
19687SOL    HW161261   2.006   6.859   1.533 -0.4742 -0.0659  0.2834
19687SOL    HW261262   2.114   6.850   1.638 -1.1629 -0.6118  0.9611
19688SOL     OW61263   3.218   5.883   1.114 -0.7368  0.1374 -0.4517
19688SOL    HW161264   3.151   5.922   1.057 -1.0168  1.2488  0.6076
19688SOL    HW261265   3.245   5.955   1.171 -0.0276 -0.8078  0.4171
19689SOL     OW61266   4.267   7.217   1.406 -0.2594  0.0202 -0.1181
19689SOL    HW161267   4.250   7.258   1.321  0.5315 -2.0011 -1.3112
19689SOL    HW261268   4.361   7.230   1.420 -0.0223 -1.2182 -0.4587
19690SOL     OW61269   0.000   4.971   0.077 -0.2152  0.3541  0.3186
19690SOL    HW161270   0.070   5.033   0.055  0.5919  0.5386  3.0447
19690SOL    HW261271  -0.063   5.022   0.128 -0.9749 -0.4465  0.2107
19691SOL     OW61272   4.677   6.339   5.016 -0.7635 -0.4502 -0.1894
19691SOL    HW161273   4.656   6.347   5.109  0.6839 -0.3307  0.1499
19691SOL    HW261274   4.758   6.389   5.006 -0.7232 -0.7537 -1.4485
19692SOL     OW61275   7.276   0.976   3.902  0.0543  0.3868  0.0108
19692SOL    HW161276   7.358   0.963   3.949  0.5740 -0.3025 -1.0497
19692SOL    HW261277   7.208   0.954   3.965  0.7423 -0.9144  0.3245
19693SOL     OW61278   8.257   8.145   7.895  0.0323  0.0426 -0.0444
19693SOL    HW161279   8.306   8.075   7.937  0.2604  0.7088  0.8284
19693SOL    HW261280   8.320   8.188   7.838  0.3341  0.5549  0.6630
19694SOL     OW61281   6.406   7.008   8.031  0.5432  0.1770  0.2234
19694SOL    HW161282   6.441   7.086   7.988 -3.0467  1.7687 -0.1268
19694SOL    HW261283   6.358   6.962   7.963  1.1170 -1.4600  0.8604
19695SOL     OW61284   2.752   8.544   5.327  0.2009 -0.0534  0.3242
19695SOL    HW161285   2.743   8.568   5.235  0.6932 -0.3869  0.1911
19695SOL    HW261286   2.791   8.457   5.326  0.8016  0.2043  0.8577
19696SOL     OW61287   6.989   7.642   0.823 -0.4772 -0.4274 -0.5057
19696SOL    HW161288   7.018   7.683   0.741 -0.0655  1.1717  0.3976
19696SOL    HW261289   6.911   7.693   0.848 -0.9001 -1.2349 -0.1529
19697SOL     OW61290   0.160   1.074   2.899  0.0245 -0.2716  0.1884
19697SOL    HW161291   0.245   1.118   2.906  0.0957 -0.1466 -1.1388
19697SOL    HW261292   0.154   1.050   2.806  0.1917 -3.4431  0.8877
19698SOL     OW61293   2.891   0.184   2.111 -0.0915 -0.1939  0.6802
19698SOL    HW161294   2.899   0.179   2.206 -1.6077  0.4841  0.8828
19698SOL    HW261295   2.962   0.130   2.077  1.3381  0.6717  2.1734
19699SOL     OW61296   4.300   0.559   4.969  0.0464 -0.1802  0.2624
19699SOL    HW161297   4.206   0.574   4.981  0.1962  0.3344  0.8362
19699SOL    HW261298   4.333   0.543   5.057  0.7593  1.2645  0.2802
19700SOL     OW61299   7.779   3.083   0.568 -0.4767  0.4441 -0.8756
19700SOL    HW161300   7.712   3.121   0.625 -0.2846 -0.2978 -0.1247
19700SOL    HW261301   7.856   3.139   0.581 -0.0713 -0.3775  0.5318
19701SOL     OW61302   1.730   1.784   0.158 -0.8856  0.4806  0.4815
19701SOL    HW161303   1.647   1.737   0.152  0.3088 -1.9090  1.4421
19701SOL    HW261304   1.745   1.796   0.252  0.1322  0.3638  0.3434
19702SOL     OW61305   8.170   3.193   5.438 -0.9359 -0.6216  0.3175
19702SOL    HW161306   8.095   3.232   5.393 -0.5211 -0.6834 -0.4387
19702SOL    HW261307   8.221   3.153   5.369  0.3874  0.3820  0.6721
19703SOL     OW61308   8.880   5.163   5.532  0.0503 -0.3774 -0.3854
19703SOL    HW161309   8.898   5.256   5.516 -1.1389 -0.0925 -0.1347
19703SOL    HW261310   8.960   5.119   5.503  0.4593  0.6788 -0.9544
19704SOL     OW61311   8.506   1.237   8.483  0.2591  1.0284  0.7449
19704SOL    HW161312   8.546   1.301   8.423 -0.2158  0.6647  0.0280
19704SOL    HW261313   8.528   1.152   8.446 -0.6340  0.8123  0.6866
19705SOL     OW61314   9.022   7.618   3.361  0.2324  0.3279 -0.7109
19705SOL    HW161315   9.045   7.704   3.327 -3.1183  1.0227 -1.5391
19705SOL    HW261316   8.946   7.591   3.310 -1.4409 -1.2321  2.3312
19706SOL     OW61317   0.077   2.166   2.195  0.1309 -0.1535  0.6134
19706SOL    HW161318   0.099   2.238   2.135  0.9913 -0.8843  0.0224
19706SOL    HW261319   0.083   2.204   2.282  0.0398  0.6272  0.2853
19707SOL     OW61320   8.301   1.924   5.350  0.4357 -0.1556 -1.0674
19707SOL    HW161321   8.286   2.006   5.303 -0.9570 -0.3984 -1.0752
19707SOL    HW261322   8.291   1.946   5.443  0.7463 -0.1795 -1.0266
19708SOL     OW61323   8.087   3.003   1.404 -0.5378 -0.2089 -0.0466
19708SOL    HW161324   8.055   3.023   1.492 -0.4556 -1.9001  0.4032
19708SOL    HW261325   8.017   3.030   1.346 -0.2984  1.6174  0.4528
19709SOL     OW61326   3.843   7.163   6.195  0.2612 -0.8858 -0.3281
19709SOL    HW161327   3.806   7.199   6.115 -0.7146 -0.2152  0.3968
19709SOL    HW261328   3.901   7.093   6.166  0.3449 -0.2947 -1.6418
19710SOL     OW61329   6.092   6.927   7.624  0.4880  0.1966  0.2242
19710SOL    HW161330   6.152   6.957   7.556 -1.1638  0.1364 -1.3297
19710SOL    HW261331   6.065   6.840   7.595 -0.8161  0.4741  0.5472
19711SOL     OW61332   4.357   3.329   7.734 -0.2255  0.3730  0.2767
19711SOL    HW161333   4.440   3.375   7.726  0.3503 -0.1901  2.3227
19711SOL    HW261334   4.290   3.397   7.720  0.6004  1.3782  1.0414
19712SOL     OW61335   9.213   7.751   8.918 -0.0268  0.5183 -0.9751
19712SOL    HW161336   9.224   7.706   8.835 -0.6724 -0.2190 -0.6707
19712SOL    HW261337   9.234   7.843   8.899  0.3388  0.2643 -1.8201
19713SOL     OW61338   3.898   0.233   7.584  0.3408  0.4801 -0.3475
19713SOL    HW161339   3.981   0.272   7.555  0.6852  0.1173  0.1275
19713SOL    HW261340   3.881   0.274   7.669 -0.4955  1.2998 -0.8888
19714SOL     OW61341   4.325   2.966   8.159  0.3429  0.4795  0.1338
19714SOL    HW161342   4.312   2.875   8.133  0.4023  0.5209 -0.0418
19714SOL    HW261343   4.417   2.984   8.139  0.2968  0.6182  0.0455
19715SOL     OW61344   8.535   7.532   0.192 -0.0616  0.0690 -0.2729
19715SOL    HW161345   8.466   7.534   0.259 -0.7957 -0.3443 -0.9941
19715SOL    HW261346   8.511   7.458   0.136 -0.3811  1.4050 -1.9440
19716SOL     OW61347   4.707   5.496   8.244 -0.2541 -0.2581  0.1053
19716SOL    HW161348   4.677   5.585   8.262 -0.1234 -0.2291  0.1789
19716SOL    HW261349   4.635   5.456   8.195 -0.0195  0.1133 -0.5461
19717SOL     OW61350   5.555   2.863   8.965  0.2817  0.6515  0.6795
19717SOL    HW161351   5.634   2.873   8.911 -0.6991 -1.5899 -1.3652
19717SOL    HW261352   5.579   2.800   9.032  0.3480  0.2232  0.2595
19718SOL     OW61353   1.102   6.207   4.121 -0.4681  0.1523  0.4852
19718SOL    HW161354   1.078   6.115   4.113  0.8453 -0.1238 -0.5747
19718SOL    HW261355   1.070   6.247   4.040  0.5805  0.2319  0.0939
19719SOL     OW61356   8.676   1.499   4.945  0.0647 -0.3125  0.2711
19719SOL    HW161357   8.753   1.482   4.891  0.8242  2.2696  0.4448
19719SOL    HW261358   8.711   1.536   5.026 -1.3349  0.4134  0.5748
19720SOL     OW61359   3.246   2.654   3.683 -0.4405 -0.1592 -0.3230
19720SOL    HW161360   3.218   2.602   3.757  0.4748 -0.5283 -0.2205
19720SOL    HW261361   3.167   2.668   3.631 -0.7494 -1.4013 -0.1972
19721SOL     OW61362   5.363   0.446   7.458  0.0483 -0.3118  0.2621
19721SOL    HW161363   5.395   0.404   7.378  0.8303 -0.3864  0.5986
19721SOL    HW261364   5.351   0.538   7.435 -1.9230 -0.7230 -0.5581
19722SOL     OW61365   2.984   5.855   5.791  0.2461 -0.0538 -0.0718
19722SOL    HW161366   3.033   5.834   5.711  1.1508  0.3353  0.3634
19722SOL    HW261367   2.973   5.950   5.787 -1.3255 -0.2325 -0.6282
19723SOL     OW61368   0.773   8.448   0.890 -0.1506  0.1875 -0.1283
19723SOL    HW161369   0.760   8.372   0.833  1.7551 -1.1630  1.1066
19723SOL    HW261370   0.861   8.478   0.870  0.2411  0.1914  1.4847
19724SOL     OW61371   8.436   7.373   7.656  0.0265  0.0966  0.2138
19724SOL    HW161372   8.487   7.293   7.670 -1.1589 -0.8542 -0.6685
19724SOL    HW261373   8.352   7.356   7.699  0.2752  1.4851  1.3207
19725SOL     OW61374   1.774   1.198   2.368 -0.2302  0.5421  0.4276
19725SOL    HW161375   1.688   1.164   2.391  0.2377 -0.3268  0.9248
19725SOL    HW261376   1.835   1.149   2.423  0.5589  1.4057  0.3525
19726SOL     OW61377   6.109   1.848   5.038  0.0365  0.2125  0.0795
19726SOL    HW161378   6.177   1.808   4.983 -0.2225 -0.3829  0.1840
19726SOL    HW261379   6.064   1.908   4.979 -0.1162 -0.2783 -0.3127
19727SOL     OW61380   4.337   2.709   2.114 -0.0371  0.0352 -0.2489
19727SOL    HW161381   4.362   2.727   2.205 -0.6140 -0.2312 -0.0294
19727SOL    HW261382   4.416   2.676   2.073  0.0510 -0.5236  0.3512
19728SOL     OW61383   0.921   0.092   6.551 -0.7444 -0.0614  0.5016
19728SOL    HW161384   0.891   0.026   6.488  0.6570 -0.0828 -0.1837
19728SOL    HW261385   0.847   0.152   6.559 -1.6836 -1.1626  0.3812
19729SOL     OW61386   0.554   0.086   5.439 -0.3539 -0.4749 -0.2002
19729SOL    HW161387   0.486   0.065   5.375  0.3995  1.0562 -1.5729
19729SOL    HW261388   0.539   0.178   5.460 -0.0742 -0.7317  1.2328
19730SOL     OW61389   0.779   7.265   7.729 -0.5242  0.1247  0.1631
19730SOL    HW161390   0.851   7.299   7.676  0.8665 -0.5265  1.5597
19730SOL    HW261391   0.762   7.178   7.694 -0.0960 -0.0220  0.3169
19731SOL     OW61392   5.465   2.884   2.342  0.9944  0.6614  0.7432
19731SOL    HW161393   5.552   2.920   2.323  0.3120  1.8620 -0.2573
19731SOL    HW261394   5.407   2.959   2.340 -0.1165 -0.1588  1.1660
19732SOL     OW61395   2.916   2.516   3.274 -0.0502 -0.1314  0.4338
19732SOL    HW161396   3.006   2.534   3.301 -0.1132 -1.3035  1.4699
19732SOL    HW261397   2.923   2.444   3.212 -0.3194 -0.5937  0.9349
19733SOL     OW61398   2.543   3.127   4.018  0.0249  0.3417 -0.1512
19733SOL    HW161399   2.453   3.160   4.020  0.0959  0.5437  1.8021
19733SOL    HW261400   2.595   3.199   4.055  0.2264 -1.5925  3.9521
19734SOL     OW61401   9.189   6.360   7.752 -0.1429  0.1780 -0.4393
19734SOL    HW161402   9.208   6.298   7.823 -0.5106  1.0909  0.4840
19734SOL    HW261403   9.136   6.310   7.690 -1.1485 -0.2106  0.6948
19735SOL     OW61404   0.242   4.731   0.075  0.2434 -0.1646  0.3015
19735SOL    HW161405   0.258   4.719  -0.019 -1.7195  1.8054 -0.3723
19735SOL    HW261406   0.182   4.661   0.099  0.3785 -0.3961 -0.0279
19736SOL     OW61407   1.197   6.201   1.582 -0.2412 -0.4178  0.0429
19736SOL    HW161408   1.187   6.203   1.677 -1.9171 -1.5697 -0.0776
19736SOL    HW261409   1.187   6.293   1.555 -1.5480 -0.3130  0.8291
19737SOL     OW61410   9.132   2.955   4.740 -0.3377 -0.2981  0.2274
19737SOL    HW161411   9.129   2.860   4.726  1.2174 -0.2582 -0.5403
19737SOL    HW261412   9.224   2.978   4.729 -0.6157  1.2418  0.9079
19738SOL     OW61413   0.337   4.234   1.061 -0.0704  0.4028 -0.0529
19738SOL    HW161414   0.405   4.173   1.089 -0.9638 -0.4168  0.4063
19738SOL    HW261415   0.382   4.296   1.003  1.3752  0.8303  1.4595
19739SOL     OW61416   2.179   0.542   5.354  0.3802  0.5449  0.1774
19739SOL    HW161417   2.151   0.484   5.283 -0.8096  1.4940 -0.1614
19739SOL    HW261418   2.268   0.567   5.331  0.1723  0.4725 -0.7432
19740SOL     OW61419   3.759   5.661   7.687 -0.0023  0.1318 -0.0788
19740SOL    HW161420   3.841   5.615   7.706 -0.3755 -0.5782 -0.1473
19740SOL    HW261421   3.730   5.626   7.603  0.5798  1.7637 -1.0051
19741SOL     OW61422   2.114   0.880   5.885 -0.2906  0.3327 -0.1688
19741SOL    HW161423   2.131   0.972   5.908 -0.0564  0.5715 -1.2750
19741SOL    HW261424   2.126   0.876   5.791  1.3136 -1.1971  0.0668
19742SOL     OW61425   6.170   1.265   5.088 -0.5119 -0.1414  0.0492
19742SOL    HW161426   6.138   1.314   5.163 -0.3474 -0.2448  0.1891
19742SOL    HW261427   6.097   1.263   5.026 -0.5278  0.2466  0.0579
19743SOL     OW61428   2.687   4.084   8.705  0.5859  0.4798 -0.7109
19743SOL    HW161429   2.781   4.102   8.695  0.8906 -0.7205 -0.1493
19743SOL    HW261430   2.676   4.068   8.798 -0.1000  0.1869 -0.8408
19744SOL     OW61431   1.020   5.942   5.239  0.4848  0.6552 -0.1842
19744SOL    HW161432   1.107   5.952   5.277 -0.0303 -0.7919  1.5350
19744SOL    HW261433   1.035   5.917   5.148  1.9382 -1.3875  0.5473
19745SOL     OW61434   4.512   6.892   0.006 -0.3926 -0.0653  0.5353
19745SOL    HW161435   4.553   6.946   0.073  0.1871  1.8648 -1.2648
19745SOL    HW261436   4.439   6.849   0.051  0.4040  0.5667  2.5487
19746SOL     OW61437   4.830   3.758   5.213 -0.1227  0.0674  0.6833
19746SOL    HW161438   4.779   3.735   5.290  0.8157 -1.0239  1.0210
19746SOL    HW261439   4.901   3.813   5.246  0.0590 -0.0806  0.5496
19747SOL     OW61440   5.857   1.365   0.345 -0.0468 -0.1825 -0.1683
19747SOL    HW161441   5.943   1.350   0.305 -0.6072 -1.4189 -0.9577
19747SOL    HW261442   5.804   1.404   0.276  0.1038  1.4748  0.5880
19748SOL     OW61443   6.565   9.042   3.842 -0.2086 -0.5230  0.0430
19748SOL    HW161444   6.506   8.990   3.895  1.6067 -1.1697  1.5625
19748SOL    HW261445   6.570   9.126   3.888 -1.6692  0.3775 -1.3563
19749SOL     OW61446   8.517   0.508   4.406  0.8954 -0.0230 -0.5206
19749SOL    HW161447   8.602   0.492   4.447  0.5282  0.7189  0.5597
19749SOL    HW261448   8.531   0.586   4.351  1.2453 -0.6928 -1.4007
19750SOL     OW61449   7.890   5.798   5.725 -0.1287  0.6582 -0.0535
19750SOL    HW161450   7.810   5.790   5.778 -0.1074  1.5791  0.1321
19750SOL    HW261451   7.859   5.806   5.635 -0.1772 -0.5538 -0.1639
19751SOL     OW61452   7.731   3.828   2.669  0.2921 -0.5714  0.0651
19751SOL    HW161453   7.776   3.760   2.718  1.0376 -0.0313  0.1563
19751SOL    HW261454   7.801   3.887   2.640 -0.3006 -0.0183 -0.2773
19752SOL     OW61455   0.941   4.050   9.328  0.4996  0.2216  0.4192
19752SOL    HW161456   1.012   4.028   9.388  1.2911  0.5034 -0.4007
19752SOL    HW261457   0.973   4.024   9.242  0.3972  2.0889 -0.2289
19753SOL     OW61458   4.267   2.929   2.403 -0.3632  0.6202  0.0910
19753SOL    HW161459   4.227   2.927   2.490 -0.8515  0.1786 -0.1404
19753SOL    HW261460   4.194   2.922   2.342 -0.2669  3.1098 -0.4358
19754SOL     OW61461   8.316   3.813   0.558 -0.4607 -0.2926  0.1902
19754SOL    HW161462   8.365   3.823   0.639  1.3529  0.4544 -0.9232
19754SOL    HW261463   8.251   3.884   0.559  0.0062  0.1348  0.6762
19755SOL     OW61464   7.279   4.760   9.279 -0.3873 -0.0284 -0.1929
19755SOL    HW161465   7.345   4.824   9.254 -0.0082 -0.6021 -0.6604
19755SOL    HW261466   7.281   4.760   9.375  0.5652 -0.3233 -0.2088
19756SOL     OW61467   5.262   1.090   8.984  0.2965 -0.2457 -0.1771
19756SOL    HW161468   5.195   1.062   8.921 -0.5509  0.6943  0.2811
19756SOL    HW261469   5.323   1.143   8.933 -0.9386  1.3704 -0.0621
19757SOL     OW61470   2.834   2.370   5.718  0.0340  0.0635  0.4310
19757SOL    HW161471   2.919   2.386   5.678  0.1251 -0.4287  0.4145
19757SOL    HW261472   2.832   2.426   5.795  0.0452  0.6741 -0.0119
19758SOL     OW61473   3.820   7.128   3.001 -0.3765 -0.5865  0.2742
19758SOL    HW161474   3.745   7.126   2.942  0.6257 -0.9330 -1.0231
19758SOL    HW261475   3.888   7.080   2.955  1.5812  2.1105  0.1128
19759SOL     OW61476   2.898   9.389   4.448 -0.5971 -0.5853 -0.1434
19759SOL    HW161477   2.852   9.347   4.375  0.3892  0.8189 -1.6589
19759SOL    HW261478   2.885   9.483   4.433  1.9786 -0.1648 -0.1540
19760SOL     OW61479   9.565   1.474   4.539 -0.2773 -0.4257 -0.0067
19760SOL    HW161480   9.554   1.523   4.458  1.1154  0.5840  0.3775
19760SOL    HW261481   9.552   1.538   4.609 -0.1896 -0.9878  0.5436
19761SOL     OW61482   1.184   8.208   3.635  0.3532 -0.5278 -0.5857
19761SOL    HW161483   1.156   8.259   3.711  0.7758 -0.3113 -0.5712
19761SOL    HW261484   1.262   8.254   3.603  0.0631 -0.4958 -1.2712
19762SOL     OW61485   9.073   9.570   0.079  0.1494  0.7157  0.3663
19762SOL    HW161486   9.005   9.514   0.115  0.3483  0.5032  0.4143
19762SOL    HW261487   9.026   9.635   0.026 -0.0307 -0.0239 -0.4013
19763SOL     OW61488   4.152   1.731   3.461 -0.2453 -0.3996 -0.3404
19763SOL    HW161489   4.222   1.666   3.465 -0.7793 -0.9250  0.8940
19763SOL    HW261490   4.197   1.815   3.467  0.3213 -0.7084 -0.2098
19764SOL     OW61491   6.819   7.325   2.240  0.0844 -0.3440 -0.0249
19764SOL    HW161492   6.843   7.392   2.304 -0.7628  0.2178 -0.2812
19764SOL    HW261493   6.725   7.314   2.250 -0.7141  2.0396 -3.2558
19765SOL     OW61494   1.475   5.215   1.264 -0.4718 -0.2061 -0.1028
19765SOL    HW161495   1.552   5.162   1.286  1.2060  2.3545  0.7145
19765SOL    HW261496   1.424   5.217   1.345  0.1862  0.4659  0.3211
19766SOL     OW61497   0.107   2.881   7.685 -0.6251  0.2899 -0.0301
19766SOL    HW161498   0.098   2.886   7.780 -0.0324 -0.0320  0.0452
19766SOL    HW261499   0.152   2.961   7.660 -1.8746  0.9634 -0.1864
19767SOL     OW61500   5.975   7.420   4.871 -0.3914 -0.3348 -0.2310
19767SOL    HW161501   5.903   7.471   4.835 -1.0241  0.0677  1.5427
19767SOL    HW261502   5.942   7.330   4.874 -0.3955 -0.3424 -0.4717
19768SOL     OW61503   4.615   7.238   0.054 -0.1380 -0.1240 -0.0255
19768SOL    HW161504   4.536   7.291   0.048  0.0598 -0.0217 -3.1446
19768SOL    HW261505   4.637   7.216  -0.037  2.1268 -2.0924  0.8755
19769SOL     OW61506   7.482   1.090   2.383  0.2616 -0.0311  0.4722
19769SOL    HW161507   7.477   1.070   2.289  0.7835  1.4686  0.0961
19769SOL    HW261508   7.505   1.007   2.424 -0.9997 -0.9439 -0.6059
19770SOL     OW61509   5.632   0.723   6.534  0.2912  0.3709 -0.1544
19770SOL    HW161510   5.665   0.633   6.526  1.1975  0.6606  0.1494
19770SOL    HW261511   5.610   0.749   6.445  0.8149  0.1258 -0.3607
19771SOL     OW61512   3.067   7.833   1.785  0.0692 -0.4848 -0.4738
19771SOL    HW161513   3.001   7.902   1.778 -0.2627 -0.9580 -2.9315
19771SOL    HW261514   3.149   7.876   1.760 -0.0098 -0.7745 -1.2646
19772SOL     OW61515   3.317   5.358   1.197 -0.6821 -0.5842 -0.1751
19772SOL    HW161516   3.337   5.427   1.134  0.6874 -1.0599 -0.3010
19772SOL    HW261517   3.286   5.404   1.275 -1.8550  0.0378 -0.9933
19773SOL     OW61518   9.220   5.459   0.841  0.2043  0.5214  0.5707
19773SOL    HW161519   9.240   5.369   0.867  0.7853  0.5260  0.1735
19773SOL    HW261520   9.206   5.505   0.923  0.7856  0.2646  0.8241
19774SOL     OW61521   2.608   4.585   2.235 -0.4952  0.0651  0.0042
19774SOL    HW161522   2.522   4.556   2.206 -0.1664 -0.9972  0.0318
19774SOL    HW261523   2.600   4.595   2.330 -0.3536 -0.9500  0.1359
19775SOL     OW61524   4.041   6.441   3.716  0.3122 -0.1916 -0.4340
19775SOL    HW161525   4.033   6.533   3.689 -0.1320 -0.5838 -1.6704
19775SOL    HW261526   3.952   6.409   3.720  0.5726 -1.3726 -2.9193
19776SOL     OW61527   8.482   0.528   9.380  0.2241 -0.4016 -0.2526
19776SOL    HW161528   8.494   0.463   9.449 -1.5771 -1.1045 -0.5303
19776SOL    HW261529   8.492   0.612   9.424  0.6909 -0.8513  0.5122
19777SOL     OW61530   6.406   1.642   4.604  0.5803 -0.1787 -0.2512
19777SOL    HW161531   6.357   1.562   4.619  1.4114 -0.4872  0.9585
19777SOL    HW261532   6.478   1.639   4.667  2.0362  0.3577 -1.8154
19778SOL     OW61533   3.193   2.145   8.763  0.6576  0.0727 -0.4695
19778SOL    HW161534   3.180   2.132   8.669 -0.7595  1.8473 -0.5640
19778SOL    HW261535   3.240   2.228   8.769  0.2452  0.2502  0.4112
19779SOL     OW61536   8.541   7.899   4.740 -0.3144 -0.2747  0.0749
19779SOL    HW161537   8.487   7.820   4.742 -1.0570  0.2447  1.2302
19779SOL    HW261538   8.528   7.939   4.825 -0.1651  1.2538 -0.6014
19780SOL     OW61539   8.996   7.363   5.191 -0.4756 -0.0854 -0.3542
19780SOL    HW161540   8.949   7.291   5.233  1.0000  0.2772  2.1237
19780SOL    HW261541   8.940   7.440   5.207  1.1280  0.5036  3.3497
19781SOL     OW61542   7.210   4.756   1.131  0.0491 -0.1196 -0.5967
19781SOL    HW161543   7.270   4.829   1.146  1.6881 -1.6372  0.6406
19781SOL    HW261544   7.144   4.766   1.200  0.1006  0.3620 -0.6135
19782SOL     OW61545   8.484   1.775   0.286 -1.2982  0.4212  0.1132
19782SOL    HW161546   8.416   1.716   0.320 -1.7242  1.9254  2.0649
19782SOL    HW261547   8.565   1.723   0.290 -1.9478 -0.6501 -0.0901
19783SOL     OW61548   0.077   4.721   8.782 -0.5791 -0.5001  0.0535
19783SOL    HW161549   0.041   4.634   8.804 -0.2588 -0.3278  1.3436
19783SOL    HW261550   0.014   4.758   8.721 -0.3166 -1.9564 -1.1575
19784SOL     OW61551   8.116   7.461   3.254  0.1614  0.0658  0.1622
19784SOL    HW161552   8.090   7.387   3.198 -2.0580  0.9873 -0.1102
19784SOL    HW261553   8.139   7.530   3.192 -0.3460  0.4476  0.3999
19785SOL     OW61554   5.547   9.182   7.581 -0.6353 -0.4220  0.2582
19785SOL    HW161555   5.532   9.261   7.530  1.0012 -0.1538  0.1126
19785SOL    HW261556   5.542   9.110   7.518 -1.7319 -0.4026  0.3179
19786SOL     OW61557   6.392   5.471   7.069  0.3227  0.6025 -0.0663
19786SOL    HW161558   6.440   5.507   7.144 -0.1140 -1.5546  1.3240
19786SOL    HW261559   6.301   5.498   7.083  0.3022  0.5051 -0.0104
19787SOL     OW61560   3.343   7.456   8.415 -0.7035  0.7726  0.1165
19787SOL    HW161561   3.338   7.522   8.484 -0.0827  0.2014  0.7129
19787SOL    HW261562   3.417   7.482   8.361  0.3882 -0.1451  1.1213
19788SOL     OW61563   4.866   6.954   2.852  0.4566  0.2800 -0.5443
19788SOL    HW161564   4.789   6.974   2.799 -1.8189 -2.4807  1.3273
19788SOL    HW261565   4.836   6.968   2.942  3.0588  1.5882  0.1904
19789SOL     OW61566   2.642   7.104   1.369  0.4102  0.1005 -0.4997
19789SOL    HW161567   2.563   7.079   1.417  0.1188 -0.5160 -1.2824
19789SOL    HW261568   2.612   7.168   1.305  0.5056 -0.3023 -0.9493
19790SOL     OW61569   8.733   1.557   5.545 -0.1394 -0.1463  0.1244
19790SOL    HW161570   8.644   1.560   5.510 -0.3520 -2.2682  0.3814
19790SOL    HW261571   8.789   1.541   5.469  0.2146  2.2029 -0.2042
19791SOL     OW61572   1.699   9.500   1.671  0.5769  0.8688  0.1608
19791SOL    HW161573   1.609   9.512   1.641  0.6308 -0.3853 -0.5697
19791SOL    HW261574   1.690   9.442   1.747  0.6810  1.7680  0.8792
19792SOL     OW61575   8.839   8.848   4.179  0.1147  0.6523 -0.1944
19792SOL    HW161576   8.863   8.917   4.118  2.0124  0.0842 -0.1387
19792SOL    HW261577   8.918   8.794   4.188 -0.8300 -0.6273  0.9604
19793SOL     OW61578   4.758   7.822   0.967 -0.4273 -0.6637 -0.3420
19793SOL    HW161579   4.737   7.831   0.874 -1.0173 -0.5372 -0.1989
19793SOL    HW261580   4.845   7.861   0.976 -0.3654 -0.6825 -0.8394
19794SOL     OW61581   8.811   3.769   3.698 -0.1489  0.0402  0.1374
19794SOL    HW161582   8.777   3.847   3.741  0.9297  0.8900 -0.5042
19794SOL    HW261583   8.897   3.756   3.737 -0.4985 -1.1156  0.5640
19795SOL     OW61584   5.335   4.588   7.134 -0.3574  0.0594 -0.1965
19795SOL    HW161585   5.398   4.633   7.079  1.4021  0.1859  1.8144
19795SOL    HW261586   5.317   4.648   7.205 -0.9446 -0.9034  0.4974
19796SOL     OW61587   8.260   0.383   4.120 -0.2932 -0.0451  0.5668
19796SOL    HW161588   8.247   0.341   4.205  0.8467 -3.2281 -0.7013
19796SOL    HW261589   8.182   0.360   4.070  0.7513 -1.4874 -0.4390
19797SOL     OW61590   8.033   4.717   5.668 -0.1125  0.0856  0.1224
19797SOL    HW161591   7.991   4.791   5.712 -0.5601  0.1715 -0.4312
19797SOL    HW261592   8.103   4.756   5.615  0.4313 -0.0186  0.7556
19798SOL     OW61593   8.192   1.711   1.250 -0.1511  0.0843  0.2101
19798SOL    HW161594   8.215   1.802   1.271 -1.3733  0.6814 -0.9361
19798SOL    HW261595   8.103   1.715   1.217 -0.1948 -1.5395  0.0338
19799SOL     OW61596   6.412   9.533   2.984  0.1325 -0.8247 -0.5465
19799SOL    HW161597   6.484   9.470   2.989  1.5403  0.3284 -3.8469
19799SOL    HW261598   6.368   9.513   2.902 -0.0783  1.7521 -1.1217
19800SOL     OW61599   0.647   9.260   0.035  0.5651  0.2008  0.2461
19800SOL    HW161600   0.600   9.289   0.113  0.7522  1.4818 -0.0863
19800SOL    HW261601   0.607   9.310  -0.037  0.5763 -0.7577 -0.4482
19801SOL     OW61602   6.450   5.378   2.341 -0.2780  0.5578 -0.4308
19801SOL    HW161603   6.484   5.300   2.296 -0.3576  0.8034 -0.9196
19801SOL    HW261604   6.496   5.451   2.300 -1.4440  0.9042 -1.1567
19802SOL     OW61605   8.470   8.784   6.857 -0.3003 -0.3050  0.7014
19802SOL    HW161606   8.389   8.835   6.850  0.4714  1.0688  1.2620
19802SOL    HW261607   8.445   8.695   6.834 -1.4452  0.5513 -1.7007
19803SOL     OW61608   1.730   9.578   2.095  0.1441 -0.0150  0.1892
19803SOL    HW161609   1.825   9.566   2.096  0.0392 -0.9423  1.3022
19803SOL    HW261610   1.716   9.665   2.130  0.5676 -0.0606  0.4798
19804SOL     OW61611   5.094   0.401   5.160  0.1363 -0.3481  0.4498
19804SOL    HW161612   5.118   0.381   5.069  2.3625 -0.2456  0.9743
19804SOL    HW261613   5.013   0.452   5.152 -0.4369 -1.4313 -1.3887
19805SOL     OW61614   4.805   1.285   3.789 -0.4607  0.6403  0.9337
19805SOL    HW161615   4.836   1.212   3.735  1.5044  2.1045 -0.0014
19805SOL    HW261616   4.837   1.264   3.877  0.5008  0.5913  0.5815
19806SOL     OW61617   3.930   6.437   1.155 -0.0404  0.6052  0.6717
19806SOL    HW161618   3.884   6.477   1.229  2.5152  1.8210  1.6908
19806SOL    HW261619   4.020   6.466   1.164  0.7380 -0.7563 -1.8989
19807SOL     OW61620   2.221   4.280   2.729  0.0768 -0.1237  0.6186
19807SOL    HW161621   2.132   4.281   2.764 -0.2626  0.1350 -0.2253
19807SOL    HW261622   2.262   4.359   2.764  0.3722 -0.8309  1.9576
19808SOL     OW61623   1.604   5.507   5.571  0.4608  0.0772 -0.0924
19808SOL    HW161624   1.644   5.438   5.517 -1.3780 -0.3778 -0.9628
19808SOL    HW261625   1.562   5.460   5.643  0.2960  0.4105  0.0293
19809SOL     OW61626   5.748   3.148   5.775  0.1336  0.0460 -0.1645
19809SOL    HW161627   5.774   3.228   5.729  0.9242 -1.1482 -1.9367
19809SOL    HW261628   5.678   3.111   5.722  0.4024 -0.8905  0.1061
19810SOL     OW61629   2.594   4.395   9.484  0.0191 -0.1492  0.7305
19810SOL    HW161630   2.607   4.464   9.419 -0.5234 -0.5652  0.1727
19810SOL    HW261631   2.528   4.337   9.445 -0.1890 -0.4931  1.5839
19811SOL     OW61632   7.678   0.457   2.872  0.1684 -0.0475 -0.2416
19811SOL    HW161633   7.628   0.470   2.791  0.3949 -2.6664 -0.8975
19811SOL    HW261634   7.612   0.457   2.941 -0.4030 -0.5142 -0.7666
19812SOL     OW61635   8.595   6.363   7.243  0.3453  0.1443 -0.1245
19812SOL    HW161636   8.532   6.378   7.172  0.5307 -1.2553 -0.6236
19812SOL    HW261637   8.681   6.372   7.202  0.4800 -2.3756 -0.5636
19813SOL     OW61638   3.009   0.305   4.037 -0.1968  0.1887 -0.3802
19813SOL    HW161639   3.018   0.212   4.060 -1.3555 -0.0225 -0.7241
19813SOL    HW261640   3.049   0.311   3.950 -0.6664 -0.1204 -0.6224
19814SOL     OW61641   8.550   7.437   3.372  0.1410  0.0487  0.1019
19814SOL    HW161642   8.548   7.436   3.468 -2.5199 -0.2311  0.1295
19814SOL    HW261643   8.527   7.348   3.347 -1.7187  0.6902 -0.6984
19815SOL     OW61644   7.864   8.335   5.766  0.0142  0.2572  0.2200
19815SOL    HW161645   7.790   8.379   5.810 -0.5467  0.0466 -0.4906
19815SOL    HW261646   7.940   8.358   5.819 -0.7405 -0.5664  1.7129
19816SOL     OW61647   4.085   1.005   8.926 -0.2016 -0.5031 -0.0686
19816SOL    HW161648   4.129   1.071   8.979 -1.6082 -0.1806  0.7150
19816SOL    HW261649   4.111   0.922   8.965  0.7885 -0.3979 -0.4626
19817SOL     OW61650   9.232   0.274   7.396 -0.1657 -0.0199 -0.4200
19817SOL    HW161651   9.261   0.269   7.487  1.4932 -1.5337 -0.9672
19817SOL    HW261652   9.141   0.301   7.401 -0.2074 -0.3994  1.7133
19818SOL     OW61653   8.356   4.947   1.644  0.2455 -0.1796  0.0758
19818SOL    HW161654   8.315   5.027   1.678 -0.2142 -1.1568  1.9658
19818SOL    HW261655   8.293   4.914   1.579  0.0645  0.5714 -0.1391
19819SOL     OW61656   3.627   1.751   3.428  0.0808 -0.2753 -0.2527
19819SOL    HW161657   3.708   1.704   3.450 -1.7029 -3.8493 -0.5641
19819SOL    HW261658   3.560   1.710   3.483 -1.6639  2.3763 -0.1881
19820SOL     OW61659   5.362   3.543   1.610 -0.0850  0.0955 -0.0511
19820SOL    HW161660   5.302   3.583   1.547 -0.3834 -0.8714 -0.4047
19820SOL    HW261661   5.389   3.614   1.667  0.1257  0.9921 -1.2225
19821SOL     OW61662   6.470   7.477   0.641  0.0950  0.0362  0.0373
19821SOL    HW161663   6.477   7.539   0.569  2.0323  1.2536  1.1835
19821SOL    HW261664   6.557   7.477   0.682 -0.4662 -1.8361  1.3855
19822SOL     OW61665   0.566   1.530   8.166 -0.0848 -0.1770  0.2366
19822SOL    HW161666   0.590   1.439   8.182  0.5802 -0.2303 -0.8991
19822SOL    HW261667   0.527   1.529   8.078 -0.2566  0.6018  0.2948
19823SOL     OW61668   8.027   5.670   4.338  0.0570 -0.1645 -1.3617
19823SOL    HW161669   8.083   5.742   4.309  1.2639 -0.9921 -1.1855
19823SOL    HW261670   8.059   5.594   4.289 -0.4998 -0.7891 -0.7827
19824SOL     OW61671   0.615   1.360   0.497  0.1366  0.0894 -0.4457
19824SOL    HW161672   0.641   1.396   0.582  0.1181  0.5640 -0.6358
19824SOL    HW261673   0.551   1.292   0.518  1.9093 -1.4823  0.0652
19825SOL     OW61674   5.914   7.922   1.642  0.0876 -0.1259  0.7473
19825SOL    HW161675   5.842   7.886   1.591  0.9679 -0.1958 -0.4829
19825SOL    HW261676   5.905   8.017   1.634  0.7078 -0.1383 -0.2728
19826SOL     OW61677   4.851   3.892   0.762  0.0372  0.2991  0.1309
19826SOL    HW161678   4.788   3.941   0.710 -0.9705  1.6713  2.5008
19826SOL    HW261679   4.808   3.809   0.781 -0.8232  0.9445  1.1278
19827SOL     OW61680   7.781   0.133   8.432 -0.2729 -0.2992 -0.4260
19827SOL    HW161681   7.856   0.127   8.491  0.1229 -0.9690 -0.9796
19827SOL    HW261682   7.727   0.057   8.454  0.5340 -1.3109 -1.7816
19828SOL     OW61683   4.292   2.305   8.388  0.4670  0.0266  0.6816
19828SOL    HW161684   4.225   2.312   8.320 -0.0171 -0.8251  1.0515
19828SOL    HW261685   4.338   2.223   8.368  0.6520  0.0290  1.0864
19829SOL     OW61686   2.161   5.579   0.000 -0.7266  0.5460 -0.3797
19829SOL    HW161687   2.249   5.616   0.004 -1.1532  1.9261 -2.3742
19829SOL    HW261688   2.122   5.602   0.084  0.1000  1.8600 -0.3314
19830SOL     OW61689   2.927   2.070   0.522 -0.0567  0.1230  0.0049
19830SOL    HW161690   3.001   2.122   0.554 -1.0781  1.6993 -0.0683
19830SOL    HW261691   2.960   2.027   0.443  1.9193 -2.3083  1.9940
19831SOL     OW61692   7.018   5.907   8.262  0.4601  0.4009 -0.2828
19831SOL    HW161693   7.028   5.904   8.167  1.7884  0.6791 -0.1753
19831SOL    HW261694   6.994   5.818   8.286 -0.1582  0.3917 -0.8991
19832SOL     OW61695   0.785   5.310   9.255 -0.4333  0.4949  0.7064
19832SOL    HW161696   0.880   5.315   9.263 -0.5188  1.1783  1.4038
19832SOL    HW261697   0.762   5.228   9.300 -0.1840  0.3887  0.6413
19833SOL     OW61698   1.030   4.310   1.873  0.1026  0.1790 -0.0488
19833SOL    HW161699   0.974   4.327   1.949 -2.3359 -0.4995 -1.5783
19833SOL    HW261700   1.019   4.386   1.817  3.3910  1.5865  0.9546
19834SOL     OW61701   0.846   6.535   1.496 -0.3020  0.1580  0.5830
19834SOL    HW161702   0.820   6.582   1.416  1.9541 -0.8493 -0.8685
19834SOL    HW261703   0.826   6.443   1.477  1.0967 -0.2060  0.7611
19835SOL     OW61704   4.554   6.962   5.654 -0.1726 -0.1739 -0.2735
19835SOL    HW161705   4.580   6.987   5.566 -1.4091  0.7350 -0.4081
19835SOL    HW261706   4.484   7.023   5.677 -0.6268 -1.0941  0.9144
19836SOL     OW61707   2.471   0.826   3.332  0.0022 -0.0510 -0.3973
19836SOL    HW161708   2.492   0.747   3.382  0.2640 -0.3352 -0.9482
19836SOL    HW261709   2.516   0.813   3.248  0.2971  0.8192 -0.3769
19837SOL     OW61710   7.174   4.673   2.124 -0.3235 -0.3715 -0.7135
19837SOL    HW161711   7.194   4.592   2.077  1.0786 -1.7411  2.0067
19837SOL    HW261712   7.250   4.687   2.181 -2.8825 -0.2518  2.9302
19838SOL     OW61713   2.909   9.104   8.293  0.3061 -0.2278 -0.5329
19838SOL    HW161714   2.906   9.058   8.377 -2.5372  0.2852 -0.2606
19838SOL    HW261715   2.949   9.189   8.315  0.8034 -0.5946  0.0235
19839SOL     OW61716   4.885   1.520   6.100  0.2118  0.0954  0.2877
19839SOL    HW161717   4.918   1.548   6.186  0.2688  1.7099 -0.2461
19839SOL    HW261718   4.868   1.601   6.053 -2.4344 -0.7034 -0.2921
19840SOL     OW61719   3.615   1.963   0.554  0.0397 -1.3408 -0.1587
19840SOL    HW161720   3.601   1.999   0.467  1.1114 -0.0427  0.1649
19840SOL    HW261721   3.537   1.911   0.572 -0.1285 -1.7474 -1.9337
19841SOL     OW61722   8.858   4.527   1.702  0.2533  0.6787 -0.1012
19841SOL    HW161723   8.806   4.466   1.754  1.3945  0.1648  0.4790
19841SOL    HW261724   8.937   4.542   1.754  0.0746  2.5571 -0.3044
19842SOL     OW61725   5.091   2.957   4.857  0.4396  0.3493  0.0013
19842SOL    HW161726   5.151   3.024   4.890 -0.3474  0.0269  2.2754
19842SOL    HW261727   5.146   2.881   4.839  0.7589  0.0578  2.0499
19843SOL     OW61728   0.283   4.480   8.367 -0.2257 -0.6170  0.0220
19843SOL    HW161729   0.239   4.431   8.436  0.2060 -0.2155  0.5947
19843SOL    HW261730   0.375   4.453   8.374  0.0819  0.5427  0.5892
19844SOL     OW61731   2.933   3.324   5.245  0.1534  0.3336  0.2017
19844SOL    HW161732   2.870   3.315   5.316 -0.7663  0.3956 -0.5723
19844SOL    HW261733   2.887   3.377   5.179  0.6517 -0.4459 -0.8008
19845SOL     OW61734   0.418   9.220   7.762  0.1865  0.6111 -0.1695
19845SOL    HW161735   0.443   9.154   7.826  0.9285  0.9226 -0.1306
19845SOL    HW261736   0.484   9.213   7.693  0.9337  2.0457  0.3492
19846SOL     OW61737   8.508   4.582   2.231  0.5797 -0.6241  0.4084
19846SOL    HW161738   8.419   4.613   2.251 -0.3443 -1.6177 -1.7601
19846SOL    HW261739   8.532   4.629   2.151  2.4768  0.3692  1.4901
19847SOL     OW61740   7.553   9.526   4.431  0.1482 -0.0982 -0.1434
19847SOL    HW161741   7.492   9.489   4.367 -0.1094 -0.5269  0.3409
19847SOL    HW261742   7.501   9.535   4.511  0.0309  1.9013 -0.4004
19848SOL     OW61743   1.796   9.211   2.446 -0.1291  0.0529 -0.5086
19848SOL    HW161744   1.855   9.163   2.388  1.0573  1.0197 -0.1334
19848SOL    HW261745   1.789   9.156   2.524  1.0579  0.3726 -0.1632
19849SOL     OW61746   7.269   8.813   1.668  0.4037 -0.3812  0.4947
19849SOL    HW161747   7.240   8.809   1.759  0.2316  0.5053  0.4960
19849SOL    HW261748   7.269   8.907   1.648 -0.5519 -0.6163 -0.7327
19850SOL     OW61749   2.621   1.044   9.263  0.2251 -0.1313  1.1285
19850SOL    HW161750   2.683   1.082   9.202  1.7658 -0.1839  2.5807
19850SOL    HW261751   2.635   1.092   9.345 -0.9710 -0.8105  1.7659
19851SOL     OW61752   8.982   0.663   3.276 -0.2717 -0.0800  0.0366
19851SOL    HW161753   9.011   0.749   3.307 -2.9512  0.2570  1.9995
19851SOL    HW261754   8.906   0.682   3.221 -0.5795 -1.1608  0.0664
19852SOL     OW61755   4.353   7.551   4.073 -0.1032  0.4446  0.1756
19852SOL    HW161756   4.332   7.465   4.109  3.1272 -0.5708 -0.0458
19852SOL    HW261757   4.392   7.532   3.988 -1.5896  2.3733 -1.0276
19853SOL     OW61758   5.270   4.582   1.629 -0.2495  0.5592  0.0170
19853SOL    HW161759   5.301   4.492   1.631  0.1651  0.7067  0.4819
19853SOL    HW261760   5.269   4.609   1.720 -1.2156  0.7498 -0.0352
19854SOL     OW61761   4.523   0.246   0.444  0.5140 -0.3181 -0.2594
19854SOL    HW161762   4.431   0.267   0.431  0.3709 -0.7967 -0.0116
19854SOL    HW261763   4.526   0.197   0.526  1.2102  1.2738  0.7154
19855SOL     OW61764   0.545   8.211   4.277  0.6782 -0.3002  0.5750
19855SOL    HW161765   0.631   8.174   4.254  0.3322 -0.5315 -0.3855
19855SOL    HW261766   0.534   8.188   4.370  1.2996 -0.9689  0.4956
19856SOL     OW61767   4.698   3.239   1.760  0.2150 -0.0028 -0.4122
19856SOL    HW161768   4.605   3.227   1.741  0.2102 -1.5747  0.4453
19856SOL    HW261769   4.700   3.269   1.851  0.5776 -2.7704  0.6055
19857SOL     OW61770   8.905   5.197   4.762  0.3242  0.2554 -0.1834
19857SOL    HW161771   8.815   5.189   4.795  0.2705  1.6573  0.0707
19857SOL    HW261772   8.928   5.108   4.734 -0.7937 -0.3235  0.6288
19858SOL     OW61773   8.237   7.176   3.069 -0.4819 -0.2281  0.1907
19858SOL    HW161774   8.271   7.158   3.156  1.8608 -0.8301 -0.7723
19858SOL    HW261775   8.179   7.102   3.050 -1.9223  0.4750  1.6113
19859SOL     OW61776   9.294   4.822   3.808  0.1398  0.6624 -0.2354
19859SOL    HW161777   9.235   4.746   3.808  0.7123  0.1957 -1.4732
19859SOL    HW261778   9.352   4.807   3.882  0.6207 -0.4375 -0.8019
19860SOL     OW61779   8.210   2.651   5.782  0.4855 -0.0601 -0.1146
19860SOL    HW161780   8.253   2.736   5.792 -2.0950  1.1613  1.5394
19860SOL    HW261781   8.228   2.605   5.864 -2.1521  0.9538  1.1411
19861SOL     OW61782   8.876   6.475   8.544  0.3306  0.1056  0.2550
19861SOL    HW161783   8.851   6.384   8.562  0.7764  0.2702  1.8714
19861SOL    HW261784   8.850   6.522   8.623  1.5635  1.1031  0.0829
19862SOL     OW61785   5.958   7.530   5.243 -0.0309  0.3404  0.0402
19862SOL    HW161786   5.967   7.451   5.188  1.4806 -0.2629  1.0802
19862SOL    HW261787   6.045   7.569   5.242  0.1574  0.1157  2.2610
19863SOL     OW61788   5.354   2.089   1.982  0.6087 -0.6240 -0.2508
19863SOL    HW161789   5.411   2.015   1.961 -0.2428 -1.9315  1.7657
19863SOL    HW261790   5.392   2.163   1.934  2.5552 -1.9581 -0.8812
19864SOL     OW61791   6.401   7.441   5.269  0.2390  0.0133  0.2298
19864SOL    HW161792   6.489   7.460   5.235 -0.4769 -0.4287 -2.0494
19864SOL    HW261793   6.395   7.345   5.265  0.6103 -0.1956  3.0724
19865SOL     OW61794   2.787   5.404   1.378  0.3608  0.1545 -0.2587
19865SOL    HW161795   2.745   5.474   1.329 -0.6358 -0.0788  0.2461
19865SOL    HW261796   2.716   5.346   1.404  0.9810 -0.2318  0.6428
19866SOL     OW61797   2.533   4.146   0.924  0.3550 -0.2995 -0.2425
19866SOL    HW161798   2.583   4.223   0.897 -0.1287  0.4499  0.9179
19866SOL    HW261799   2.488   4.117   0.845  0.9686  0.2806 -0.8126
19867SOL     OW61800   5.164   5.891   1.184  0.1625 -0.1924 -0.1264
19867SOL    HW161801   5.125   5.804   1.192 -0.5149  0.1217  0.1173
19867SOL    HW261802   5.248   5.876   1.141  0.4660 -1.0592  0.7493
19868SOL     OW61803   2.969   2.930   9.450 -0.0037 -0.1582  0.3198
19868SOL    HW161804   2.989   2.872   9.524 -0.1542 -0.4399  0.1380
19868SOL    HW261805   2.879   2.958   9.465 -1.1247 -2.5731 -1.3065
19869SOL     OW61806   4.276   1.950   3.386  0.6407  0.2136  0.1339
19869SOL    HW161807   4.312   1.952   3.297 -0.8334 -0.7600 -0.5332
19869SOL    HW261808   4.259   2.042   3.407  0.9610  0.4525 -0.6025
19870SOL     OW61809   9.060   1.445   6.573 -0.2363 -0.1967  0.0560
19870SOL    HW161810   9.021   1.406   6.494 -1.3467  1.5190 -0.2851
19870SOL    HW261811   9.129   1.502   6.539  1.0963 -1.4641  0.5282
19871SOL     OW61812   3.787   9.070   4.289 -0.3155  0.2402  0.6409
19871SOL    HW161813   3.704   9.092   4.332  0.5475  1.4860  1.7471
19871SOL    HW261814   3.853   9.117   4.340  1.1264 -1.0928  0.0514
19872SOL     OW61815   2.824   8.144   0.675  0.3869 -0.0498  0.4334
19872SOL    HW161816   2.809   8.068   0.731 -0.2080  0.8609  1.5624
19872SOL    HW261817   2.912   8.131   0.640  0.1380 -1.4452  0.2748
19873SOL     OW61818   2.919   6.683   6.726  0.2599 -0.5108  0.1179
19873SOL    HW161819   2.833   6.647   6.704 -1.3244  1.2576  2.8149
19873SOL    HW261820   2.929   6.665   6.820  3.2843 -1.3943 -0.2681
19874SOL     OW61821   5.941   5.719   2.060 -0.4640  0.5311 -0.8857
19874SOL    HW161822   5.986   5.670   1.992  1.5890 -0.6115  1.1455
19874SOL    HW261823   5.921   5.654   2.128 -0.2582  1.9970  0.6516
19875SOL     OW61824   2.709   2.376   6.442 -0.3734  0.3192  0.2284
19875SOL    HW161825   2.655   2.364   6.520  0.7678  0.7383  1.1228
19875SOL    HW261826   2.745   2.464   6.451 -0.4318  0.4833 -0.9262
19876SOL     OW61827   6.525   8.672   5.759 -0.2423  0.4871 -0.2843
19876SOL    HW161828   6.449   8.658   5.704 -0.1069  0.2577 -0.4160
19876SOL    HW261829   6.569   8.586   5.762  0.2088  0.7054 -0.5068
19877SOL     OW61830   0.909   6.933   2.621 -0.6365  0.4105  0.0609
19877SOL    HW161831   0.962   6.965   2.548 -0.9680 -1.9274 -1.2834
19877SOL    HW261832   0.852   7.007   2.642  1.1355  1.9826 -0.3704
19878SOL     OW61833   5.726   5.445   5.554 -0.3786 -0.3070 -0.1951
19878SOL    HW161834   5.775   5.398   5.623  1.4244  0.0761 -1.1391
19878SOL    HW261835   5.748   5.537   5.568 -2.6851  0.1709  0.7077
19879SOL     OW61836   4.184   1.761   7.149  0.1189  0.4033 -0.4335
19879SOL    HW161837   4.171   1.693   7.215  1.7516  1.8006  1.4263
19879SOL    HW261838   4.237   1.719   7.081 -0.6387 -0.7381 -0.3390
19880SOL     OW61839   7.071   7.030   8.699 -0.5628  0.0326 -0.0801
19880SOL    HW161840   7.004   7.098   8.703  0.6038  1.3728 -1.9750
19880SOL    HW261841   7.153   7.077   8.683  0.5074 -1.7195 -0.0069
19881SOL     OW61842   6.859   8.109   0.151  0.2703  0.2740 -0.0301
19881SOL    HW161843   6.926   8.044   0.127 -0.2655 -0.3421  0.1092
19881SOL    HW261844   6.777   8.059   0.153 -0.1173  0.9126  0.2981
19882SOL     OW61845   4.441   4.558   3.535  0.2273  0.1277  0.2710
19882SOL    HW161846   4.521   4.564   3.588  0.6018  0.7055 -0.3379
19882SOL    HW261847   4.403   4.646   3.541 -0.7975 -0.3530  1.1959
19883SOL     OW61848   4.552   2.842   7.748  0.2779  0.0969  0.3626
19883SOL    HW161849   4.528   2.930   7.776 -2.1036 -0.7535  1.3125
19883SOL    HW261850   4.546   2.844   7.653  0.7875  1.0722  0.3377
19884SOL     OW61851   6.400   4.789   6.106  0.3152  0.7102 -0.3091
19884SOL    HW161852   6.354   4.725   6.161 -1.4438  2.2589  0.1494
19884SOL    HW261853   6.492   4.782   6.131 -0.0063 -0.7898  0.5634
19885SOL     OW61854   8.858   1.071   7.643 -0.0702  0.5481  0.2227
19885SOL    HW161855   8.812   0.999   7.600 -0.8051  1.0158  0.2176
19885SOL    HW261856   8.929   1.028   7.692  0.5458 -0.0201 -1.1303
19886SOL     OW61857   0.459   1.552   8.864 -0.0515 -0.2075  0.4047
19886SOL    HW161858   0.414   1.534   8.946  0.7178  0.9912  1.1211
19886SOL    HW261859   0.513   1.629   8.882 -0.1449  0.3128 -1.3310
19887SOL     OW61860   8.197   1.270   4.214 -0.2594  0.4216 -0.4106
19887SOL    HW161861   8.130   1.329   4.180 -0.1454  0.0279 -1.3443
19887SOL    HW261862   8.262   1.265   4.144  0.6804  0.6692  0.4154
19888SOL     OW61863   4.172   3.451   3.627  0.3165  0.7519  0.0629
19888SOL    HW161864   4.110   3.455   3.554  0.1267 -0.6196  0.1326
19888SOL    HW261865   4.141   3.379   3.681  0.6429  1.5399  1.3431
19889SOL     OW61866   3.074   3.320   9.016 -0.1958 -0.3237  0.2185
19889SOL    HW161867   3.005   3.342   8.953 -0.9066 -2.3451  0.2252
19889SOL    HW261868   3.155   3.321   8.964 -0.4775  0.1489 -0.2252
19890SOL     OW61869   5.071   1.273   5.638  0.7300 -0.0285  0.4406
19890SOL    HW161870   5.010   1.333   5.682  1.9337  1.6889 -0.1202
19890SOL    HW261871   5.074   1.196   5.695 -2.0590 -0.2706  0.3872
19891SOL     OW61872   1.328   9.062   6.428  0.4773  0.1413 -0.0033
19891SOL    HW161873   1.272   9.129   6.466  1.4836  1.5117 -0.8332
19891SOL    HW261874   1.370   9.020   6.504  0.4400  1.0106  0.5151
19892SOL     OW61875   6.579   3.122   9.014 -0.3449  0.1616  0.1111
19892SOL    HW161876   6.491   3.092   9.037 -0.0670 -0.7057  0.0741
19892SOL    HW261877   6.580   3.120   8.918 -0.7517  1.5792  0.0539
19893SOL     OW61878   0.528   8.284   6.686 -0.8225  0.2857 -0.1058
19893SOL    HW161879   0.486   8.354   6.736 -0.2243 -0.0096  0.8324
19893SOL    HW261880   0.548   8.217   6.750 -0.3726 -0.2654 -0.8073
19894SOL     OW61881   0.668   2.611   0.033 -0.6579  0.3367 -0.1442
19894SOL    HW161882   0.742   2.647   0.082 -0.8252  0.0961  0.2945
19894SOL    HW261883   0.591   2.636   0.084 -0.8318  0.0395 -0.2588
19895SOL     OW61884   7.364   8.207   5.689 -0.5577  0.5815  0.2510
19895SOL    HW161885   7.325   8.279   5.738 -1.3476  0.0767  0.3676
19895SOL    HW261886   7.440   8.247   5.646  0.2851  1.0021  2.0131
19896SOL     OW61887   6.087   4.124   1.862  0.2418 -0.2990  0.8297
19896SOL    HW161888   6.054   4.212   1.845  0.3613 -0.4204 -0.0528
19896SOL    HW261889   6.040   4.095   1.940 -0.3441  0.2525  0.6825
19897SOL     OW61890   8.097   6.295   5.203 -0.0393 -0.2418 -0.2397
19897SOL    HW161891   8.111   6.386   5.176 -3.0930 -0.2876 -2.4689
19897SOL    HW261892   8.076   6.301   5.296 -1.2893  1.5124 -0.5824
19898SOL     OW61893   3.761   4.083   8.405  0.4299 -0.1468 -0.2313
19898SOL    HW161894   3.818   4.060   8.332  2.1383 -1.1938  1.3443
19898SOL    HW261895   3.734   3.999   8.443  0.1935  0.3677  0.7984
19899SOL     OW61896   5.595   8.132   1.537 -0.0867 -0.3385 -0.5095
19899SOL    HW161897   5.582   8.089   1.622  0.0933 -2.2320 -1.3851
19899SOL    HW261898   5.547   8.214   1.544  0.5254 -0.1170  1.6723
19900SOL     OW61899   0.252   0.974   1.920  0.1681  0.2447 -0.2533
19900SOL    HW161900   0.171   1.023   1.928 -0.1984  0.1350 -2.5397
19900SOL    HW261901   0.299   1.016   1.848  1.5623 -0.4607  0.2064
19901SOL     OW61902   3.776   0.704   8.909 -0.3479  0.4028 -0.3396
19901SOL    HW161903   3.861   0.704   8.864 -0.2777  2.3936 -0.3334
19901SOL    HW261904   3.723   0.766   8.858 -0.3408  2.5638  2.0818
19902SOL     OW61905   6.730   8.730   4.679 -0.0529 -0.3513  0.0740
19902SOL    HW161906   6.666   8.779   4.730 -0.2542  0.3727 -0.8353
19902SOL    HW261907   6.810   8.784   4.682  0.1593 -0.6772  0.2587
19903SOL     OW61908   2.548   7.613   1.043  0.1231 -0.1009 -0.3482
19903SOL    HW161909   2.541   7.691   0.987  2.4620  0.4211 -0.0081
19903SOL    HW261910   2.481   7.553   1.009 -1.0697  1.6601 -1.2464
19904SOL     OW61911   6.362   2.224   4.259 -0.8395 -0.2388 -0.1992
19904SOL    HW161912   6.367   2.195   4.350 -0.5535  2.4068  0.7093
19904SOL    HW261913   6.437   2.182   4.216 -1.5968 -2.3714  0.4816
19905SOL     OW61914   6.007   2.995   3.623  0.4043  1.0855 -0.3388
19905SOL    HW161915   6.069   2.923   3.613  1.1256  1.2276  2.3621
19905SOL    HW261916   6.061   3.074   3.616  0.2942  1.2474  0.5720
19906SOL     OW61917   8.076   4.936   3.399  0.4978  0.2237 -0.2524
19906SOL    HW161918   8.118   4.993   3.463  0.3147  2.0483 -1.6719
19906SOL    HW261919   8.012   4.886   3.450  0.5857  1.3558  1.0461
19907SOL     OW61920   3.695   8.590   8.652  0.0029 -0.2308 -0.1993
19907SOL    HW161921   3.772   8.601   8.596  0.4538  0.0360  0.4513
19907SOL    HW261922   3.719   8.519   8.712 -0.6680 -0.8554 -0.6662
19908SOL     OW61923   6.545   5.281   6.541  0.7150  0.2535  0.2211
19908SOL    HW161924   6.530   5.228   6.619 -1.3374  1.4983  0.7424
19908SOL    HW261925   6.573   5.218   6.475 -2.9593 -1.8471  0.3700
19909SOL     OW61926   5.999   6.378   6.032 -0.3302  0.1289 -0.0454
19909SOL    HW161927   6.024   6.294   6.071  1.0169  0.8705  0.7711
19909SOL    HW261928   6.040   6.378   5.945 -0.2034 -0.0098  0.0140
19910SOL     OW61929   0.689   8.612   7.825 -0.1299 -0.4663 -0.2923
19910SOL    HW161930   0.623   8.629   7.758 -0.8049 -1.4638  0.0955
19910SOL    HW261931   0.710   8.698   7.860 -0.7876 -0.0767 -0.8288
19911SOL     OW61932   6.884   8.391   6.179  0.0604  0.1569  0.4934
19911SOL    HW161933   6.848   8.459   6.235  1.3832  2.1896 -1.0127
19911SOL    HW261934   6.968   8.369   6.220  0.6098  0.9933 -0.1554
19912SOL     OW61935   5.969   6.838   2.909 -0.3520  0.1759  0.2885
19912SOL    HW161936   6.045   6.817   2.965  0.2840 -2.1781 -1.2916
19912SOL    HW261937   5.911   6.762   2.918 -1.7347  1.1826  0.1414
19913SOL     OW61938   2.698   5.801   3.546 -0.0231 -0.4493  0.4639
19913SOL    HW161939   2.614   5.776   3.586 -1.6115  1.4918 -1.4307
19913SOL    HW261940   2.700   5.896   3.552  3.3134 -0.5077  2.6665
19914SOL     OW61941   1.746   8.334   7.498 -0.2049  0.3175  0.1801
19914SOL    HW161942   1.767   8.259   7.554  2.1549  0.5563 -0.3150
19914SOL    HW261943   1.795   8.407   7.536 -1.4973  1.3596 -0.0740
19915SOL     OW61944   5.955   5.655   7.289 -0.3175 -0.0374  0.6578
19915SOL    HW161945   5.976   5.679   7.380  1.4707 -1.3674  0.6516
19915SOL    HW261946   5.864   5.680   7.279 -0.5830  0.1265  2.8411
19916SOL     OW61947   3.111   8.841   0.067  0.1867  0.1141 -0.3069
19916SOL    HW161948   3.035   8.803   0.112  0.0411 -1.1476 -1.5495
19916SOL    HW261949   3.088   8.933   0.055 -1.5671 -0.4197 -1.4276
19917SOL     OW61950   2.862   6.181   3.250  0.2022 -0.2775  0.1364
19917SOL    HW161951   2.887   6.174   3.342 -0.8218 -0.4839  0.4141
19917SOL    HW261952   2.844   6.090   3.224 -0.5130 -0.1123  0.0367
19918SOL     OW61953   3.662   5.694   0.619 -0.1114 -0.2933  0.5521
19918SOL    HW161954   3.640   5.698   0.712 -1.2716 -1.8812  0.3958
19918SOL    HW261955   3.628   5.776   0.583  0.0718  0.2019  1.4723
19919SOL     OW61956   5.559   6.330   4.840  0.3444  0.0811  0.1786
19919SOL    HW161957   5.559   6.406   4.782  0.9393  1.6776  2.1453
19919SOL    HW261958   5.652   6.314   4.858  0.1745 -0.2392  0.8092
19920SOL     OW61959   5.250   6.692   6.715  0.5613 -0.0415 -0.0203
19920SOL    HW161960   5.199   6.773   6.714  0.9124  0.2009  0.7328
19920SOL    HW261961   5.337   6.719   6.688  1.6105  0.5480  3.3810
19921SOL     OW61962   6.451   2.227   5.023  0.0718 -0.0935  0.7243
19921SOL    HW161963   6.466   2.311   4.981 -0.1912 -0.5409 -0.3105
19921SOL    HW261964   6.513   2.167   4.981 -0.3945 -0.6145  0.7591
19922SOL     OW61965   7.538   4.398   4.050  0.3271 -0.4740 -0.5048
19922SOL    HW161966   7.491   4.326   4.009 -2.2887  1.3604 -0.9670
19922SOL    HW261967   7.572   4.449   3.976  1.1273 -0.5475 -0.2043
19923SOL     OW61968   6.543   5.973   0.148  0.0025  0.3679  0.3772
19923SOL    HW161969   6.545   6.068   0.143  0.5544  0.5423  2.7957
19923SOL    HW261970   6.557   5.944   0.058  1.4915  2.5556 -0.1728
19924SOL     OW61971   3.480   7.622   1.166  0.2368 -0.0489  0.7116
19924SOL    HW161972   3.451   7.532   1.151 -0.8545  0.2265  1.0458
19924SOL    HW261973   3.543   7.616   1.237  0.9081 -0.6557  0.0802
19925SOL     OW61974   6.541   2.741   3.634 -0.7686 -0.5836  0.6113
19925SOL    HW161975   6.462   2.695   3.663 -0.8788 -0.1559  0.9940
19925SOL    HW261976   6.600   2.671   3.606 -1.7621 -0.8520 -0.9107
19926SOL     OW61977   7.267   9.230   1.381 -0.0769 -0.0081  0.2071
19926SOL    HW161978   7.337   9.295   1.371  0.7125 -0.7858  0.5968
19926SOL    HW261979   7.192   9.281   1.413  0.0197  0.9804 -1.0388
19927SOL     OW61980   7.390   0.900   5.032  0.2151  0.0639  0.1226
19927SOL    HW161981   7.350   0.969   4.979  1.4787 -0.0106 -0.9915
19927SOL    HW261982   7.451   0.857   4.972  1.1593 -0.5033  1.4530
19928SOL     OW61983   6.175   9.066   1.659 -0.3277 -0.1207  0.2561
19928SOL    HW161984   6.124   9.005   1.712 -1.5398 -0.3940 -1.1462
19928SOL    HW261985   6.135   9.151   1.674 -0.4640 -0.1451  0.0329
19929SOL     OW61986   0.732   3.077   1.402  0.3415  0.4967  0.6579
19929SOL    HW161987   0.758   3.014   1.469  2.4647  1.0756  0.4652
19929SOL    HW261988   0.645   3.107   1.430 -0.0195 -1.2956  1.6128
19930SOL     OW61989   2.990   8.942   7.352  0.5392 -0.6669  0.3110
19930SOL    HW161990   3.016   8.953   7.443  1.2411 -0.0072  0.0407
19930SOL    HW261991   2.900   8.909   7.357  0.3823 -0.1408  1.2362
19931SOL     OW61992   9.256   5.513   8.254  0.0505  0.0296  0.3712
19931SOL    HW161993   9.352   5.507   8.261  0.0520 -0.6769 -0.1303
19931SOL    HW261994   9.229   5.555   8.336  0.7629 -0.0432  0.6545
19932SOL     OW61995   9.053   5.241   6.027 -0.2327 -0.1963 -0.1544
19932SOL    HW161996   8.971   5.196   6.049 -0.4898 -0.3785 -1.4214
19932SOL    HW261997   9.113   5.171   6.002 -0.0057  0.0112 -0.1959
19933SOL     OW61998   7.844   5.503   8.869 -0.5161  0.1873  0.0845
19933SOL    HW161999   7.890   5.472   8.946  0.4198 -0.4991 -0.7303
19933SOL    HW262000   7.892   5.582   8.843  0.1548 -0.4516 -0.6834
19934SOL     OW62001   0.405   7.682   0.105  0.5677 -0.4829  0.4343
19934SOL    HW162002   0.324   7.731   0.121  1.3631  0.9256  0.3361
19934SOL    HW262003   0.388   7.595   0.141 -1.8523 -1.0289 -1.7630
19935SOL     OW62004   1.935   7.835   6.151  0.2339 -0.0776  0.0190
19935SOL    HW162005   1.877   7.822   6.225  0.4036 -2.3650 -0.1753
19935SOL    HW262006   2.016   7.789   6.175  2.4649  3.7385  0.6808
19936SOL     OW62007   6.482   2.362   0.720 -0.0655 -0.4475 -0.0893
19936SOL    HW162008   6.463   2.333   0.810  0.0471 -0.2961 -0.0176
19936SOL    HW262009   6.500   2.280   0.673  1.8826 -0.3884  0.4984
19937SOL     OW62010   2.647   8.114   5.522 -0.3887 -0.1409 -0.1190
19937SOL    HW162011   2.720   8.052   5.519  0.4646  0.8887 -1.1295
19937SOL    HW262012   2.600   8.091   5.603  0.2397 -1.7093 -0.1694
19938SOL     OW62013   8.779   9.398   4.879  0.0813 -0.2290  0.3054
19938SOL    HW162014   8.700   9.443   4.910 -0.5294 -0.8832 -0.2477
19938SOL    HW262015   8.793   9.327   4.942  1.3633  1.0303  1.4881
19939SOL     OW62016   0.552   7.373   2.287  0.1964  0.4967 -0.2659
19939SOL    HW162017   0.533   7.328   2.369  0.6974  0.7052 -0.0284
19939SOL    HW262018   0.645   7.358   2.273 -0.0704 -0.2877 -1.2637
19940SOL     OW62019   8.384   0.340   1.062  0.0635  0.2663  0.2070
19940SOL    HW162020   8.298   0.305   1.087  0.1922 -0.0959  0.1302
19940SOL    HW262021   8.429   0.353   1.145  0.9815 -2.1492  0.1578
19941SOL     OW62022   6.893   3.834   5.484 -0.2313  0.0261  0.6332
19941SOL    HW162023   6.803   3.866   5.484 -0.5615 -0.8414  1.2883
19941SOL    HW262024   6.896   3.769   5.413  0.1289  0.6945  0.0280
19942SOL     OW62025   8.046   2.293   2.261 -0.3520 -0.2866  0.2455
19942SOL    HW162026   8.121   2.254   2.216 -1.1821 -0.5271 -0.9486
19942SOL    HW262027   8.056   2.265   2.352  0.2099 -1.5265 -0.1868
19943SOL     OW62028   0.608   6.422   1.299  0.5750  0.2068  0.2980
19943SOL    HW162029   0.599   6.333   1.333  0.6312  0.2712  0.4789
19943SOL    HW262030   0.542   6.472   1.346 -1.0184 -0.1874 -1.3704
19944SOL     OW62031   8.950   2.399   3.059  0.4052 -0.2794 -0.3206
19944SOL    HW162032   8.863   2.365   3.082  0.7331 -1.4181 -0.6961
19944SOL    HW262033   8.960   2.376   2.967  0.5751  1.0402 -0.6574
19945SOL     OW62034   3.647   1.346   4.408  0.4524  0.3728  0.4575
19945SOL    HW162035   3.650   1.435   4.375  2.8411  0.5815  1.0720
19945SOL    HW262036   3.714   1.299   4.358  0.9803 -0.4259  1.8556
19946SOL     OW62037   6.111   5.820   7.835 -0.4159  0.0735  0.2717
19946SOL    HW162038   6.206   5.823   7.830 -0.3928  0.8092  1.0357
19946SOL    HW262039   6.092   5.732   7.869 -0.1504 -1.0273 -2.1855
19947SOL     OW62040   6.490   8.418   3.188 -0.2191 -0.8208  0.0241
19947SOL    HW162041   6.403   8.434   3.153  0.4722  1.5025 -0.8455
19947SOL    HW262042   6.529   8.354   3.128 -0.9624 -1.1203 -0.1546
19948SOL     OW62043   2.152   3.637   4.912 -0.1732  0.4866 -0.1223
19948SOL    HW162044   2.219   3.705   4.923  0.8078 -0.7498  1.8919
19948SOL    HW262045   2.070   3.686   4.904  0.8371  2.0108 -2.0859
19949SOL     OW62046   4.443   1.918   3.849 -0.1796 -0.0394 -0.0983
19949SOL    HW162047   4.465   1.941   3.940 -0.0330 -1.2408  0.1817
19949SOL    HW262048   4.360   1.963   3.832 -0.7254 -0.6200  0.9682
19950SOL     OW62049   1.291   7.648   2.409  0.2943 -0.1753  0.4216
19950SOL    HW162050   1.323   7.723   2.358 -1.3639  1.8558  2.2121
19950SOL    HW262051   1.356   7.638   2.478 -0.7662  1.3805  1.7152
19951SOL     OW62052   0.368   7.316   5.190 -0.3170  0.0126 -0.4564
19951SOL    HW162053   0.274   7.296   5.185 -0.6363  0.8828  1.3251
19951SOL    HW262054   0.388   7.311   5.284  0.9795  1.7001 -0.5981
19952SOL     OW62055   1.035   5.615   5.057  0.1530  0.0894  0.1479
19952SOL    HW162056   1.100   5.565   5.008 -0.1613  0.9691 -1.2119
19952SOL    HW262057   1.074   5.626   5.143  0.7234 -1.4861  0.1365
19953SOL     OW62058   6.395   9.338   1.658  0.1665  0.0012 -0.1287
19953SOL    HW162059   6.476   9.333   1.606  0.0212 -0.2920 -0.3309
19953SOL    HW262060   6.385   9.251   1.695  0.8011  0.4748  1.2215
19954SOL     OW62061   4.817   2.805   4.495 -0.3013 -0.1082  0.1031
19954SOL    HW162062   4.892   2.859   4.516  0.3834 -1.6390  1.8172
19954SOL    HW262063   4.779   2.781   4.580 -0.3065 -2.6174 -0.5171
19955SOL     OW62064   7.355   7.440   7.167 -0.0982 -0.4465 -0.2326
19955SOL    HW162065   7.406   7.508   7.211  1.2082 -0.2300 -1.9427
19955SOL    HW262066   7.349   7.470   7.076  0.0603 -2.3407 -0.9268
19956SOL     OW62067   2.243   0.519   3.122  0.1713 -0.3725 -0.3180
19956SOL    HW162068   2.329   0.516   3.163  0.4479  2.0029 -0.5838
19956SOL    HW262069   2.223   0.612   3.114 -1.8501 -0.8348 -1.4739
19957SOL     OW62070   7.055   2.387   5.570  0.1452  0.6959  0.3523
19957SOL    HW162071   7.005   2.315   5.532  0.1845  0.8819 -0.0517
19957SOL    HW262072   7.128   2.345   5.616  1.0651  0.5386 -1.1878
19958SOL     OW62073   0.346   6.126   6.283 -0.4986 -0.0164 -0.4586
19958SOL    HW162074   0.356   6.219   6.304 -0.5065 -0.1804  0.2915
19958SOL    HW262075   0.376   6.080   6.362 -3.5000 -0.6049  0.4513
19959SOL     OW62076   1.528   6.054   0.560 -0.0642  0.2534 -0.7848
19959SOL    HW162077   1.477   6.019   0.633 -0.1520 -0.0065 -0.9706
19959SOL    HW262078   1.471   6.043   0.484  0.2541  0.0043 -0.9858
19960SOL     OW62079   4.896   2.683   3.658  0.2452 -0.1253  0.1090
19960SOL    HW162080   4.931   2.770   3.675 -1.5791  0.8405 -0.8092
19960SOL    HW262081   4.966   2.638   3.609  2.5618 -0.4274  3.3905
19961SOL     OW62082   0.373   0.105   4.595  0.0954 -0.3184 -0.2071
19961SOL    HW162083   0.307   0.106   4.665 -2.7893 -3.8712 -2.4817
19961SOL    HW262084   0.448   0.061   4.634 -0.3001  0.3751  1.4312
19962SOL     OW62085   3.937   4.067   4.978  0.0319  0.7750 -0.5414
19962SOL    HW162086   3.864   4.022   5.020 -1.1330  0.6831 -2.5407
19962SOL    HW262087   3.927   4.159   5.004 -1.2220  0.8845 -1.3195
19963SOL     OW62088   9.248   2.837   6.038  0.5321  0.2809 -0.1151
19963SOL    HW162089   9.235   2.932   6.032  1.1074  0.4239  0.7426
19963SOL    HW262090   9.258   2.820   6.132  1.5331 -0.4784 -0.3493
19964SOL     OW62091   7.272   2.973   5.515  0.4832 -0.9324  0.0177
19964SOL    HW162092   7.318   3.004   5.593  1.4812  0.8919 -1.2069
19964SOL    HW262093   7.191   3.023   5.513  0.6838 -0.6099 -0.3394
19965SOL     OW62094   7.731   2.837   6.600 -0.3542  0.0258 -0.2468
19965SOL    HW162095   7.795   2.822   6.670 -0.0331 -0.4702 -0.6406
19965SOL    HW262096   7.708   2.929   6.608  0.3055  0.1752 -0.0107
19966SOL     OW62097   2.202   4.387   5.272 -0.4837 -0.2337  0.2518
19966SOL    HW162098   2.139   4.435   5.219 -2.3147  0.5359  2.8897
19966SOL    HW262099   2.222   4.446   5.345  1.0834 -1.5856  0.9905
19967SOL     OW62100   7.647   1.588   2.669  0.3577 -0.2483 -0.2629
19967SOL    HW162101   7.586   1.545   2.729  1.3323  1.0247  1.7349
19967SOL    HW262102   7.593   1.612   2.594 -2.1947  2.5738  2.2005
19968SOL     OW62103   7.591   1.617   8.964  0.1350 -0.4748  0.5096
19968SOL    HW162104   7.646   1.688   8.932  0.4018  0.2019  2.3231
19968SOL    HW262105   7.613   1.543   8.908  2.0721  0.0820  0.4274
19969SOL     OW62106   5.080   6.313   5.398  0.7072 -0.1821  0.1490
19969SOL    HW162107   5.080   6.266   5.481 -1.4240  0.5349  0.6074
19969SOL    HW262108   4.989   6.311   5.368  1.3576 -0.1714 -2.0432
19970SOL     OW62109   1.373   8.982   0.363  0.1781  0.0711  0.6507
19970SOL    HW162110   1.316   9.054   0.333 -2.7268 -0.6954  3.8029
19970SOL    HW262111   1.362   8.914   0.296  0.3807  1.2899 -0.6839
19971SOL     OW62112   2.367   5.334   4.376 -0.0848 -0.0990 -0.1070
19971SOL    HW162113   2.316   5.254   4.387 -0.0920  0.0590  1.1743
19971SOL    HW262114   2.452   5.314   4.414  0.0823  0.3477 -0.2402
19972SOL     OW62115   0.868   5.334   6.185 -0.1296  0.1376  0.0243
19972SOL    HW162116   0.803   5.359   6.120 -0.3548  1.0772  0.5924
19972SOL    HW262117   0.896   5.417   6.224 -0.0743 -0.4227  1.2042
19973SOL     OW62118   8.547   9.124   7.317 -0.1888  0.3734  0.2369
19973SOL    HW162119   8.456   9.104   7.334 -0.1278 -0.1649 -0.0632
19973SOL    HW262120   8.552   9.139   7.222 -0.1392  1.3292  0.3744
19974SOL     OW62121   0.654   7.111   0.394  0.0866  0.2875 -0.2076
19974SOL    HW162122   0.668   7.076   0.306  3.3093  1.7936 -0.4523
19974SOL    HW262123   0.588   7.179   0.384  0.6189  0.6267 -1.5512
19975SOL     OW62124   4.920   4.220   9.570 -0.7887  0.1176  0.1272
19975SOL    HW162125   4.911   4.141   9.516  1.0878  0.0933 -0.2200
19975SOL    HW262126   4.913   4.189   9.660 -2.6077 -0.0339 -0.0183
19976SOL     OW62127   5.770   2.732   7.690  0.0493  0.5716  0.0358
19976SOL    HW162128   5.768   2.720   7.595 -0.9442  0.5968  0.0355
19976SOL    HW262129   5.825   2.809   7.703  0.1437  0.6033 -0.5308
19977SOL     OW62130   1.134   3.744   1.265  0.0259  0.5767  0.5340
19977SOL    HW162131   1.048   3.774   1.296  0.0214  0.7314  0.3745
19977SOL    HW262132   1.177   3.824   1.234  0.5719  0.6440  1.4172
19978SOL     OW62133   8.114   5.627   1.814  0.1141 -0.1260 -0.3899
19978SOL    HW162134   8.106   5.636   1.909  1.1231  1.2574 -0.3958
19978SOL    HW262135   8.055   5.694   1.778  0.6784  0.2151 -0.6972
19979SOL     OW62136   2.735   4.312   3.548  0.1144  0.0759  0.1913
19979SOL    HW162137   2.724   4.219   3.528  1.3912 -0.0070 -0.1949
19979SOL    HW262138   2.655   4.336   3.595 -1.3169 -0.6581 -1.7133
19980SOL     OW62139   7.462   4.901   7.392  0.2348 -0.3434 -0.0991
19980SOL    HW162140   7.427   4.983   7.356 -1.3702 -1.3626 -0.9689
19980SOL    HW262141   7.433   4.834   7.331 -1.4006 -1.9988  2.3035
19981SOL     OW62142   8.977   9.376   4.696  0.3853 -0.4599 -0.1298
19981SOL    HW162143   9.029   9.436   4.749  1.1849 -0.3086 -1.0495
19981SOL    HW262144   8.889   9.383   4.732  0.4195  1.3721 -0.2767
19982SOL     OW62145   4.802   2.246   5.981 -0.1131  0.2181  0.0801
19982SOL    HW162146   4.755   2.180   6.032  2.2424 -1.0406  0.7480
19982SOL    HW262147   4.733   2.293   5.934 -2.4357  1.0288  3.8383
19983SOL     OW62148   0.370   9.259   6.238 -0.6963 -0.2577 -0.2897
19983SOL    HW162149   0.306   9.191   6.258 -0.6326 -0.7502 -1.6993
19983SOL    HW262150   0.447   9.211   6.206 -0.2441  0.4216 -0.2415
19984SOL     OW62151   4.020   5.874   0.874  0.0819 -0.0294  0.4725
19984SOL    HW162152   3.978   5.788   0.870 -0.2007  0.1442 -0.5739
19984SOL    HW262153   3.948   5.936   0.884  0.0218  0.2794 -1.4521
19985SOL     OW62154   8.633   6.054   7.779 -0.5599 -0.9435 -0.4225
19985SOL    HW162155   8.545   6.039   7.743 -0.0164  0.2744 -2.4210
19985SOL    HW262156   8.689   6.063   7.702  0.8280  1.0985  0.7322
19986SOL     OW62157   1.672   7.123   9.219 -0.1897  0.0254  0.5204
19986SOL    HW162158   1.710   7.091   9.301  0.1225 -0.7396  0.0907
19986SOL    HW262159   1.645   7.213   9.238 -1.5272 -0.6271  1.9116
19987SOL     OW62160   6.234   9.414   5.545  0.2914 -0.0450 -0.1815
19987SOL    HW162161   6.208   9.418   5.452  0.3803  0.1157 -0.1991
19987SOL    HW262162   6.191   9.490   5.584 -1.6891 -1.3672  0.3946
19988SOL     OW62163   6.008   0.448   0.711 -0.2860  0.6240  0.0690
19988SOL    HW162164   5.982   0.491   0.630 -1.1694 -2.0756 -1.1512
19988SOL    HW262165   6.090   0.493   0.736  0.7985  0.6163 -3.0582
19989SOL     OW62166   8.286   8.529   4.067  0.5878  0.4638 -0.2706
19989SOL    HW162167   8.293   8.460   4.133 -0.9425 -0.1027 -0.6524
19989SOL    HW262168   8.292   8.482   3.983 -2.4281  0.4546 -0.5718
19990SOL     OW62169   3.961   6.808   1.609 -0.1699 -0.3508  0.4598
19990SOL    HW162170   4.001   6.892   1.585  0.3091 -0.2013  1.6935
19990SOL    HW262171   3.870   6.817   1.582  0.3560 -0.3086 -1.4790
19991SOL     OW62172   4.265   6.139   3.865 -0.1641  0.4015 -0.2482
19991SOL    HW162173   4.351   6.129   3.907 -0.2927  0.4339  0.0250
19991SOL    HW262174   4.279   6.109   3.775  0.4626  1.6302 -0.5797
19992SOL     OW62175   0.161   3.263   6.316  0.4938  0.6736  0.8005
19992SOL    HW162176   0.169   3.182   6.266  0.8705  1.0419  0.2496
19992SOL    HW262177   0.251   3.297   6.320  0.2458  1.3882  0.4727
19993SOL     OW62178   3.463   7.696   7.124  0.6766 -0.2609  0.1936
19993SOL    HW162179   3.393   7.699   7.059  1.1253 -0.3325 -0.2984
19993SOL    HW262180   3.424   7.735   7.203 -0.1309 -0.9173  0.1375
19994SOL     OW62181   2.811   4.017   4.116  0.3577 -0.5701  0.6055
19994SOL    HW162182   2.899   4.000   4.151  1.1815 -1.7028 -1.7700
19994SOL    HW262183   2.788   3.936   4.071 -0.7699  0.6345 -1.0775
19995SOL     OW62184   0.522   3.323   6.121 -0.2948 -0.6499 -0.3520
19995SOL    HW162185   0.435   3.286   6.106 -0.3509 -0.8738  0.4599
19995SOL    HW262186   0.575   3.289   6.049 -1.2141  0.6918 -1.7239
19996SOL     OW62187   1.784   0.667   4.243  0.1630  0.0704 -0.3567
19996SOL    HW162188   1.766   0.587   4.193  1.4549 -0.4350 -0.0512
19996SOL    HW262189   1.776   0.640   4.335  4.3829 -0.8251 -0.0431
19997SOL     OW62190   3.457   5.941   3.081 -0.9820  0.1636  0.0384
19997SOL    HW162191   3.525   6.006   3.064 -0.2038 -0.4860  0.6176
19997SOL    HW262192   3.485   5.864   3.031 -0.5962 -0.5375  1.3079
19998SOL     OW62193   8.731   0.120   4.597  0.3105 -0.6594 -0.2204
19998SOL    HW162194   8.657   0.124   4.537  0.5655 -0.9231 -0.5568
19998SOL    HW262195   8.782   0.044   4.568  0.3649 -0.8769  0.4137
19999SOL     OW62196   8.171   9.356   6.135  0.4823  0.7574 -0.1089
19999SOL    HW162197   8.113   9.280   6.128  1.5805 -0.1112 -0.0367
19999SOL    HW262198   8.218   9.358   6.052  0.5279  1.3112 -0.0737
20000SOL     OW62199   3.924   0.731   1.792 -0.3950  0.1760 -0.7088
20000SOL    HW162200   3.855   0.694   1.737  1.2660 -2.2505 -1.2721
20000SOL    HW262201   4.002   0.732   1.737  0.1953  2.5363  0.0361
20001SOL     OW62202   3.690   8.848   0.501 -0.0767 -0.3657  0.7461
20001SOL    HW162203   3.668   8.940   0.486  0.3217 -0.2660  0.7496
20001SOL    HW262204   3.655   8.829   0.588  0.5710  0.0302  1.1044
20002SOL     OW62205   2.387   2.825   1.783 -0.5470 -0.1731 -0.3769
20002SOL    HW162206   2.356   2.851   1.870  2.2819  1.6125  0.2633
20002SOL    HW262207   2.464   2.771   1.801 -1.5427 -2.1885 -1.8379
20003SOL     OW62208   4.712   4.376   6.335  0.4315  0.1472 -0.3539
20003SOL    HW162209   4.702   4.381   6.430  1.6157  0.6062 -0.2447
20003SOL    HW262210   4.803   4.351   6.321  1.2975  3.4050 -1.3952
20004SOL     OW62211   6.908   1.809   6.933  0.3733  0.5615  0.1182
20004SOL    HW162212   6.924   1.785   7.024  0.6919  2.2337  0.5355
20004SOL    HW262213   6.988   1.782   6.887  1.0446  1.4637  0.7139
20005SOL     OW62214   0.131   0.419   5.475 -0.6191  0.8103 -0.2751
20005SOL    HW162215   0.119   0.422   5.380 -1.5737 -1.2290 -0.2572
20005SOL    HW262216   0.070   0.352   5.506  0.9406  0.1448  1.5766
20006SOL     OW62217   0.199   3.450   0.691  0.0459  0.1457  0.1978
20006SOL    HW162218   0.170   3.478   0.778 -0.4432 -2.2797  0.9017
20006SOL    HW262219   0.233   3.361   0.705  0.6754 -0.0057 -1.9584
20007SOL     OW62220   7.232   3.379   1.561  0.1075  0.3706 -0.5416
20007SOL    HW162221   7.261   3.462   1.599 -0.2410  0.2598 -0.0191
20007SOL    HW262222   7.148   3.362   1.603  0.2547 -0.3330 -0.5198
20008SOL     OW62223   0.189   8.781   9.205 -0.6874  0.0511 -0.0996
20008SOL    HW162224   0.151   8.823   9.283  0.9251  0.1954  0.6601
20008SOL    HW262225   0.224   8.854   9.154 -0.7625 -0.1300 -0.4096
20009SOL     OW62226   3.428   6.165   6.806 -0.4678  0.2300 -0.9031
20009SOL    HW162227   3.391   6.130   6.725 -0.8157 -2.0897  0.2047
20009SOL    HW262228   3.353   6.179   6.863 -0.0206 -0.5826 -0.0939
20010SOL     OW62229   3.052   2.276   1.613 -0.5217 -0.5278  0.4313
20010SOL    HW162230   3.082   2.194   1.651 -0.6334  0.0500  1.8376
20010SOL    HW262231   2.963   2.257   1.584 -0.4265 -0.9979  0.4354
20011SOL     OW62232   1.668   2.785   4.687 -0.1307 -0.1645 -0.0882
20011SOL    HW162233   1.583   2.751   4.716  0.3129 -1.0280  0.2484
20011SOL    HW262234   1.732   2.728   4.729  0.5837 -0.8262 -1.9650
20012SOL     OW62235   6.190   4.136   4.005 -0.4624  0.1254  0.0902
20012SOL    HW162236   6.275   4.115   3.965 -1.0240 -0.3210 -0.9071
20012SOL    HW262237   6.204   4.221   4.047  1.3407 -1.2873  2.6203
20013SOL     OW62238   7.061   8.134   8.695  0.3917 -0.0367 -0.0939
20013SOL    HW162239   7.052   8.216   8.744  2.0351 -0.9825  1.9328
20013SOL    HW262240   7.056   8.160   8.603 -0.2245  2.1605  0.5073
20014SOL     OW62241   6.242   9.447   1.273 -0.2043  0.1958  0.2517
20014SOL    HW162242   6.159   9.456   1.321 -1.0998  0.7168 -1.2977
20014SOL    HW262243   6.272   9.537   1.262 -0.6581  0.2052 -1.1658
20015SOL     OW62244   4.132   9.405   6.267 -0.4097  0.2272  0.3954
20015SOL    HW162245   4.181   9.359   6.199  2.1952 -0.4673  2.5521
20015SOL    HW262246   4.051   9.356   6.276 -0.3542 -0.2642 -1.4695
20016SOL     OW62247   5.955   5.313   0.328 -0.2583 -0.6808 -0.2363
20016SOL    HW162248   5.981   5.233   0.282 -0.7242 -1.2769  0.5060
20016SOL    HW262249   5.910   5.365   0.261 -2.1793 -2.1423 -0.1773
20017SOL     OW62250   6.435   2.000   7.722  0.5415 -0.3819  0.2115
20017SOL    HW162251   6.467   2.050   7.647 -0.2154 -0.2156 -0.0145
20017SOL    HW262252   6.507   2.001   7.785  1.0418 -0.1947 -0.3553
20018SOL     OW62253   1.788   3.627   5.647 -0.1638 -0.7869  0.4861
20018SOL    HW162254   1.765   3.648   5.737 -1.6116 -1.2058  0.2400
20018SOL    HW262255   1.719   3.567   5.618 -0.9086  0.8921 -1.5300
20019SOL     OW62256   4.376   4.925   5.796 -0.6174 -0.7147  0.8814
20019SOL    HW162257   4.316   4.862   5.757 -0.2374 -0.1138 -0.7690
20019SOL    HW262258   4.459   4.912   5.749 -0.8702  1.7986 -0.4392
20020SOL     OW62259   1.547   5.377   8.569 -0.3349 -0.4206 -0.0048
20020SOL    HW162260   1.593   5.327   8.635 -0.2311  1.6338  1.5880
20020SOL    HW262261   1.608   5.447   8.544 -0.4578 -1.0121 -2.1469
20021SOL     OW62262   7.228   0.228   2.657  0.1535 -0.3204 -0.5028
20021SOL    HW162263   7.311   0.211   2.612 -0.0135 -0.5598 -0.7233
20021SOL    HW262264   7.163   0.230   2.587 -0.2304 -1.5120 -0.1987
20022SOL     OW62265   3.890   5.440   9.472  0.0292 -0.1287 -0.4953
20022SOL    HW162266   3.860   5.453   9.382 -0.1202  3.5397 -0.0984
20022SOL    HW262267   3.981   5.412   9.464  0.6075  1.9118 -1.8844
20023SOL     OW62268   7.914   8.625   2.559  0.1353  0.0366  0.1343
20023SOL    HW162269   7.877   8.610   2.646  0.6260  1.8945  0.7137
20023SOL    HW262270   8.001   8.585   2.563 -0.6223 -1.7247 -0.2389
20024SOL     OW62271   8.763   0.488   5.094 -0.4533 -0.0389  0.1422
20024SOL    HW162272   8.823   0.452   5.159 -0.5890 -0.5467 -0.0093
20024SOL    HW262273   8.676   0.472   5.131 -0.5138  0.2776  0.1448
20025SOL     OW62274   1.848   3.728   4.624 -0.3455  0.4546  0.5184
20025SOL    HW162275   1.864   3.724   4.718 -0.0283 -0.6759  0.4321
20025SOL    HW262276   1.887   3.647   4.590 -2.9634 -0.6164 -0.2074
20026SOL     OW62277   7.473   5.864   7.358 -0.6042 -0.0246  0.0019
20026SOL    HW162278   7.489   5.830   7.446  0.0889  1.9103  0.6653
20026SOL    HW262279   7.557   5.900   7.330 -0.5327 -1.4970 -1.9207
20027SOL     OW62280   1.091   4.172   5.688 -0.2062  0.5521 -0.3608
20027SOL    HW162281   1.097   4.200   5.779 -1.2925  0.8856 -0.3846
20027SOL    HW262282   1.093   4.076   5.692  0.4412  0.5739 -0.0463
20028SOL     OW62283   9.206   6.586   7.134  0.0608  0.4854 -0.0914
20028SOL    HW162284   9.244   6.522   7.194  0.1851  1.0157  0.4058
20028SOL    HW262285   9.280   6.642   7.109  0.2181 -0.3227 -1.5318
20029SOL     OW62286   6.133   6.032   9.087  0.1910 -0.3531  0.3611
20029SOL    HW162287   6.109   6.109   9.138 -0.8937 -0.1050 -0.4870
20029SOL    HW262288   6.121   5.959   9.148 -0.3653  0.0074  0.6928
20030SOL     OW62289   4.694   4.537   4.886  0.0820  0.4072 -0.1531
20030SOL    HW162290   4.720   4.460   4.835  2.4497  0.3660  1.0072
20030SOL    HW262291   4.624   4.505   4.943  0.7277 -0.7963 -0.0103
20031SOL     OW62292   5.509   6.491   6.480 -0.0598 -0.1113 -0.1734
20031SOL    HW162293   5.566   6.428   6.435  1.2888  0.7633  0.2326
20031SOL    HW262294   5.560   6.519   6.556 -1.9363 -0.8873  1.4408
20032SOL     OW62295   2.412   7.348   8.709 -0.9489 -0.1103  0.0637
20032SOL    HW162296   2.338   7.298   8.742 -1.3066  0.5722  0.3275
20032SOL    HW262297   2.417   7.327   8.616 -0.6383 -1.1830  0.3067
20033SOL     OW62298   0.978   5.952   2.884  0.2171 -0.4798  0.3197
20033SOL    HW162299   0.998   5.862   2.908  0.7743 -0.3910  0.2026
20033SOL    HW262300   0.934   5.945   2.799  1.1692 -0.5837 -0.1799
20034SOL     OW62301   7.897   0.457   4.286  0.2525 -0.5112  0.6167
20034SOL    HW162302   7.801   0.455   4.285  0.2354 -0.2540 -1.2863
20034SOL    HW262303   7.919   0.494   4.372 -1.4588  2.3885 -0.0443
20035SOL     OW62304   3.460   5.679   2.482 -0.0573  0.7386  0.3617
20035SOL    HW162305   3.468   5.713   2.393 -0.6703 -0.6542 -0.2451
20035SOL    HW262306   3.367   5.659   2.492  0.3800 -1.6265  0.3273
20036SOL     OW62307   4.993   4.426   6.198 -0.7309 -0.5029 -0.1131
20036SOL    HW162308   5.052   4.369   6.149  0.2931  1.7847 -1.7419
20036SOL    HW262309   4.914   4.432   6.144 -0.2592  0.7138 -0.6970
20037SOL     OW62310   5.078   6.196   2.900  0.2795 -0.0966  0.2578
20037SOL    HW162311   5.146   6.243   2.852  0.1032 -0.7388 -0.6427
20037SOL    HW262312   4.996   6.235   2.870  0.2488  0.8934  1.5790
20038SOL     OW62313   2.817   6.731   9.455 -0.3791 -0.1793 -0.3035
20038SOL    HW162314   2.865   6.771   9.383  1.8561 -0.8475  0.7164
20038SOL    HW262315   2.816   6.798   9.523  1.2041 -0.9121  0.5033
20039SOL     OW62316   0.157   0.783   1.270  0.0222  0.0100  0.5680
20039SOL    HW162317   0.220   0.716   1.296 -0.2032 -0.3379  0.2176
20039SOL    HW262318   0.087   0.735   1.226  0.2537  0.5437 -0.4210
20040SOL     OW62319   5.728   5.861   1.976  0.0209 -0.0677 -0.5683
20040SOL    HW162320   5.807   5.812   2.000 -1.1828 -0.8489  2.2036
20040SOL    HW262321   5.736   5.944   2.023  0.2123  0.8401 -2.1284
20041SOL     OW62322   6.633   6.726   7.284  0.6606 -0.3092 -0.0573
20041SOL    HW162323   6.574   6.789   7.325  0.7583 -0.6724  0.6601
20041SOL    HW262324   6.681   6.777   7.219 -0.9249 -0.1561 -1.1426
20042SOL     OW62325   1.521   6.116   3.552  0.0830 -0.3108  0.1478
20042SOL    HW162326   1.538   6.122   3.646  1.5114 -0.1642 -0.0941
20042SOL    HW262327   1.608   6.115   3.512 -0.4623 -1.7250 -1.1008
20043SOL     OW62328   4.131   8.712   3.578  0.3378  0.4337  0.5363
20043SOL    HW162329   4.057   8.766   3.549 -0.0454 -0.3171  0.0825
20043SOL    HW262330   4.206   8.772   3.575 -0.1034  0.9891  0.1991
20044SOL     OW62331   5.487   4.411   3.346  0.0536  0.1073 -0.2636
20044SOL    HW162332   5.412   4.383   3.294  0.1819  0.4193 -0.6109
20044SOL    HW262333   5.560   4.359   3.313  0.2343  0.6445 -0.7207
20045SOL     OW62334   7.500   0.234   3.149  0.7966 -0.0059  0.4155
20045SOL    HW162335   7.425   0.232   3.089  0.5966 -2.1430  0.6546
20045SOL    HW262336   7.478   0.302   3.213 -0.3264  0.3045 -0.2678
20046SOL     OW62337   3.509   1.808   2.520  0.2815 -0.7107  0.1140
20046SOL    HW162338   3.507   1.846   2.432  1.3204  0.1449  0.4295
20046SOL    HW262339   3.421   1.772   2.534 -0.9536  2.0283 -0.0318
20047SOL     OW62340   7.609   8.651   2.404 -0.0899  0.0240  0.6688
20047SOL    HW162341   7.595   8.740   2.435  0.4580  1.2684 -2.3163
20047SOL    HW262342   7.562   8.596   2.466 -1.8683  2.5072  1.6628
20048SOL     OW62343   2.159   6.853   8.919 -0.1453  0.1617 -0.1530
20048SOL    HW162344   2.195   6.893   8.840  0.4444 -0.4486 -0.2054
20048SOL    HW262345   2.182   6.760   8.911  2.2095  0.4456  1.9336
20049SOL     OW62346   8.443   2.094   3.330  0.1489  0.2433 -0.1092
20049SOL    HW162347   8.489   2.030   3.275  0.5637  0.2091  0.2665
20049SOL    HW262348   8.414   2.043   3.406 -0.5207  0.2659 -0.3479
20050SOL     OW62349   0.214   2.297   5.391 -0.0233  0.1904 -0.3811
20050SOL    HW162350   0.181   2.343   5.314 -1.2728  0.0294  0.0314
20050SOL    HW262351   0.203   2.204   5.369  0.7664  0.1140 -0.4819
20051SOL     OW62352   4.328   3.239   1.510  0.2711 -0.3832  0.0285
20051SOL    HW162353   4.418   3.208   1.495  0.1144 -0.3982 -0.9380
20051SOL    HW262354   4.319   3.316   1.454  0.2900  0.7924  1.5857
20052SOL     OW62355   3.098   8.411   5.909  0.1496  0.3933  0.7536
20052SOL    HW162356   3.130   8.322   5.918  0.3598  0.6031  2.2999
20052SOL    HW262357   3.113   8.433   5.817 -2.7216 -2.2210 -0.5411
20053SOL     OW62358   1.929   3.800   4.895 -0.0101  0.1266  0.2455
20053SOL    HW162359   1.996   3.860   4.862  1.2624 -0.3497  1.8393
20053SOL    HW262360   1.890   3.847   4.969 -0.6061 -0.1023  0.0833
20054SOL     OW62361   7.390   5.716   7.151  0.0403 -0.1115  0.3435
20054SOL    HW162362   7.324   5.671   7.203 -1.1214  1.4226  0.2842
20054SOL    HW262363   7.450   5.755   7.215 -0.6129  0.6355  0.5219
20055SOL     OW62364   4.335   8.388   5.821  0.3443 -0.3038  0.5252
20055SOL    HW162365   4.303   8.305   5.857  0.6743 -0.3991  0.6140
20055SOL    HW262366   4.353   8.369   5.729  3.3240 -1.2394  1.1897
20056SOL     OW62367   8.958   4.406   6.706 -0.4487  0.5745 -0.1538
20056SOL    HW162368   8.939   4.407   6.612  1.5778  0.0763 -0.5996
20056SOL    HW262369   9.030   4.468   6.717 -1.0527  1.0811  1.1915
20057SOL     OW62370   1.916   4.881   8.154 -0.0777 -0.9703 -0.5651
20057SOL    HW162371   1.847   4.947   8.142 -0.0120 -0.9603 -0.8914
20057SOL    HW262372   1.919   4.867   8.248  0.4650  0.1041 -0.4074
20058SOL     OW62373   8.010   8.466   7.157 -0.5283  0.0042 -0.0570
20058SOL    HW162374   7.923   8.455   7.195 -0.0223  3.0599  2.3855
20058SOL    HW262375   8.063   8.396   7.196 -1.4272 -0.7570 -0.1620
20059SOL     OW62376   6.211   8.252   6.331 -0.0231  0.2959  0.2127
20059SOL    HW162377   6.290   8.210   6.295 -0.2358  0.7717 -0.8517
20059SOL    HW262378   6.226   8.254   6.425  1.3852  0.6297  0.0116
20060SOL     OW62379   5.474   7.193   8.544  0.3567  0.1678  0.8452
20060SOL    HW162380   5.563   7.190   8.577  1.0325  1.3112 -0.7611
20060SOL    HW262381   5.419   7.184   8.622  1.8680  1.2967  2.0940
20061SOL     OW62382   4.059   5.720   9.411  0.3610  0.1408 -0.8810
20061SOL    HW162383   4.080   5.812   9.423 -0.2902  0.3642 -1.3731
20061SOL    HW262384   3.987   5.703   9.472  0.4685 -0.0401 -0.8016
20062SOL     OW62385   1.706   3.651   5.931 -0.6203  0.0888  0.1262
20062SOL    HW162386   1.702   3.568   5.979  0.4294 -1.2756 -2.0009
20062SOL    HW262387   1.779   3.698   5.971  0.1428 -0.9538 -0.0096
20063SOL     OW62388   1.698   9.361   5.269  0.1796  0.7635 -0.2441
20063SOL    HW162389   1.681   9.314   5.188 -0.9626  0.1459  0.3258
20063SOL    HW262390   1.764   9.308   5.314  0.9146  1.1796 -0.8180
20064SOL     OW62391   5.298   6.586   9.571 -0.2182  0.4473 -0.2597
20064SOL    HW162392   5.234   6.616   9.635  0.0988  1.0363 -0.2132
20064SOL    HW262393   5.369   6.548   9.622 -1.0395 -1.2981 -0.3404
20065SOL     OW62394   0.000   1.837   0.659  0.4053 -0.3356  0.8217
20065SOL    HW162395   0.066   1.851   0.727  0.4852 -1.1315  0.9133
20065SOL    HW262396  -0.002   1.742   0.647 -0.4738 -0.2878  0.5686
20066SOL     OW62397   0.633   9.481   4.346  0.5430  0.7614  0.0346
20066SOL    HW162398   0.712   9.429   4.362  0.5145  0.1519 -1.5917
20066SOL    HW262399   0.571   9.451   4.413  1.8478  1.6868  1.7254
20067SOL     OW62400   6.171   3.920   7.743  0.4930  0.4203  0.2966
20067SOL    HW162401   6.208   3.909   7.830  1.4523  1.6848  0.0748
20067SOL    HW262402   6.211   4.001   7.710  0.2091 -0.0739 -1.3416
20068SOL     OW62403   7.301   0.894   5.562 -0.5947 -0.7025 -0.1586
20068SOL    HW162404   7.255   0.865   5.642 -0.6881  0.6239  0.2862
20068SOL    HW262405   7.247   0.965   5.528  1.3179  1.2414  0.6438
20069SOL     OW62406   6.034   5.755   6.189 -0.2640 -0.0272 -0.0003
20069SOL    HW162407   6.070   5.680   6.141 -0.4293 -0.9799  1.2710
20069SOL    HW262408   5.953   5.776   6.144 -0.3675 -0.8222 -0.2055
20070SOL     OW62409   6.865   7.913   1.099 -0.3541  0.3936 -0.3822
20070SOL    HW162410   6.864   7.829   1.146  2.4507  0.2272 -0.4725
20070SOL    HW262411   6.862   7.979   1.169  0.4832  0.1827 -0.1427
20071SOL     OW62412   2.041   2.370   0.830  0.3524 -0.5337  0.7581
20071SOL    HW162413   2.088   2.452   0.845 -1.1412  0.1087  2.1391
20071SOL    HW262414   2.023   2.370   0.736  2.1029 -0.2801  0.3789
20072SOL     OW62415   4.064   3.736   5.995 -0.0326  0.4329  0.1848
20072SOL    HW162416   4.004   3.779   5.934  1.9096  0.3608 -1.9205
20072SOL    HW262417   4.151   3.755   5.960  1.0766 -1.7858  1.5160
20073SOL     OW62418   2.430   5.622   5.450 -0.3294  0.0838  0.7116
20073SOL    HW162419   2.410   5.655   5.362 -4.1702 -0.1690  1.3076
20073SOL    HW262420   2.405   5.530   5.447  0.5233 -0.2030  1.7981
20074SOL     OW62421   0.378   3.516   7.107 -0.5111  0.1871  0.4470
20074SOL    HW162422   0.349   3.600   7.072 -0.9713 -0.0790  0.1972
20074SOL    HW262423   0.363   3.523   7.202 -0.8808  0.2500  0.3822
20075SOL     OW62424   2.123   8.989   6.646 -0.1424 -0.3568 -0.1470
20075SOL    HW162425   2.121   9.067   6.702  0.9180 -0.6485  0.3345
20075SOL    HW262426   2.184   9.012   6.576  0.7352 -0.9842  0.3877
20076SOL     OW62427   9.237   7.150   6.154 -0.0150  0.2789  0.5282
20076SOL    HW162428   9.255   7.172   6.245  2.3391 -1.6485  0.6189
20076SOL    HW262429   9.316   7.176   6.106 -0.1104 -1.1599 -0.4831
20077SOL     OW62430   6.268   0.998   6.403 -0.3948 -0.3427 -0.5030
20077SOL    HW162431   6.224   0.914   6.385  0.8019 -1.4081  1.2938
20077SOL    HW262432   6.325   1.012   6.327 -2.9400  0.5578 -2.3874
20078SOL     OW62433   5.821   9.375   0.548  0.1632 -0.2510  0.5441
20078SOL    HW162434   5.877   9.367   0.625  0.2433 -2.5393  0.3123
20078SOL    HW262435   5.734   9.393   0.583  0.5081  0.4507  1.0583
20079SOL     OW62436   6.225   9.382   8.283  0.3042  0.0095 -0.4517
20079SOL    HW162437   6.222   9.309   8.222 -0.3632 -1.2089  0.9510
20079SOL    HW262438   6.141   9.427   8.271  0.2961 -0.0588 -0.6393
20080SOL     OW62439   2.860   4.714   8.997 -0.1739 -0.1193  0.2018
20080SOL    HW162440   2.926   4.780   8.976 -0.0131 -0.3461 -0.0130
20080SOL    HW262441   2.821   4.691   8.913  1.6439 -2.2689 -0.1741
20081SOL     OW62442   6.333   3.530   9.366 -0.3988 -0.4733 -0.4710
20081SOL    HW162443   6.355   3.556   9.276  0.7702 -0.8715 -0.3204
20081SOL    HW262444   6.394   3.581   9.420 -0.7901 -0.5764  0.0700
20082SOL     OW62445   7.141   7.011   4.673 -0.3561  0.3558 -0.2364
20082SOL    HW162446   7.230   7.028   4.643  1.0366 -0.2601  3.0469
20082SOL    HW262447   7.126   6.919   4.653 -0.6388  0.6845 -1.5913
20083SOL     OW62448   8.074   4.117   2.315 -0.2873  0.3596 -0.1667
20083SOL    HW162449   8.122   4.124   2.233 -0.4600  1.9279 -0.1696
20083SOL    HW262450   7.982   4.131   2.290 -0.2720  1.4865  0.3524
20084SOL     OW62451   2.125   2.050   6.643 -0.4952 -0.5494 -0.0225
20084SOL    HW162452   2.114   1.963   6.680 -3.1633  0.1860  1.1676
20084SOL    HW262453   2.118   2.109   6.718  1.2547  0.7403 -0.7966
20085SOL     OW62454   1.010   2.207   5.414 -0.3281 -0.3504 -0.4891
20085SOL    HW162455   0.992   2.187   5.506  1.5831 -1.2675 -0.2697
20085SOL    HW262456   0.945   2.273   5.391 -1.2976 -0.6155  1.3107
20086SOL     OW62457   1.586   7.785   4.449 -0.0790 -0.3503 -0.8728
20086SOL    HW162458   1.648   7.712   4.442  0.7374  0.1499  0.6585
20086SOL    HW262459   1.507   7.753   4.406 -0.0337 -2.5075  0.4898
20087SOL     OW62460   6.969   9.469   6.194  0.3219  0.3815  0.1907
20087SOL    HW162461   6.875   9.458   6.182  0.2297  1.2762  0.0522
20087SOL    HW262462   6.990   9.550   6.148  1.5517 -0.9539 -1.7692
20088SOL     OW62463   2.288   1.045   4.095 -0.1584 -0.3016 -0.2688
20088SOL    HW162464   2.362   1.096   4.063  0.7098 -1.0720  0.4277
20088SOL    HW262465   2.328   0.979   4.153 -1.3801 -0.7928  0.0493
20089SOL     OW62466   0.059   4.197   8.850 -0.6532 -0.3398  0.2008
20089SOL    HW162467   0.029   4.107   8.867  0.6994 -1.5190 -2.9371
20089SOL    HW262468   0.006   4.226   8.776  0.6293  0.4993 -0.4185
20090SOL     OW62469   3.214   7.313   6.669  0.0522 -0.1039 -0.2902
20090SOL    HW162470   3.288   7.253   6.678 -0.1819 -0.5886 -1.3467
20090SOL    HW262471   3.203   7.352   6.755  0.1091 -1.7258  0.4777
20091SOL     OW62472   6.533   7.719   4.725  0.6917 -0.0631 -0.5258
20091SOL    HW162473   6.544   7.720   4.820  0.3312  0.0305 -0.4843
20091SOL    HW262474   6.451   7.765   4.709  0.4015 -0.6799 -0.8394
20092SOL     OW62475   3.149   4.759   6.422  0.8035 -0.0893  0.1487
20092SOL    HW162476   3.060   4.741   6.454  0.3740 -0.0164 -0.9491
20092SOL    HW262477   3.200   4.684   6.452  0.7107  0.5447  2.0097
20093SOL     OW62478   0.170   5.375   0.227  0.8407 -0.3607  0.3212
20093SOL    HW162479   0.222   5.452   0.205  0.2085 -0.1948 -0.6782
20093SOL    HW262480   0.083   5.410   0.244  0.2920 -0.9147 -1.1245
20094SOL     OW62481   7.875   1.399   6.950 -0.1630  0.2567  0.0535
20094SOL    HW162482   7.926   1.318   6.957 -0.5672 -0.0636 -0.6245
20094SOL    HW262483   7.879   1.423   6.858 -2.9813 -0.9705 -0.5097
20095SOL     OW62484   5.730   4.236   5.029  0.0534 -0.3070 -0.0277
20095SOL    HW162485   5.779   4.304   4.983  0.1002 -0.3216  0.0003
20095SOL    HW262486   5.792   4.202   5.094 -0.3187  0.4114  0.7376
20096SOL     OW62487   2.541   1.985   0.641 -0.0949 -0.1862 -0.3453
20096SOL    HW162488   2.491   1.940   0.709  1.4252 -1.2887  0.0742
20096SOL    HW262489   2.615   2.024   0.686  0.7802 -0.6911 -1.3164
20097SOL     OW62490   3.566   7.102   2.918  0.2255  0.1105  0.2669
20097SOL    HW162491   3.474   7.127   2.929  0.3078  1.2561 -1.2602
20097SOL    HW262492   3.566   7.006   2.925 -1.6180 -0.2185 -2.6339
20098SOL     OW62493   0.755   8.406   2.758  0.2389  0.4161  0.4954
20098SOL    HW162494   0.691   8.361   2.812 -1.5079 -0.7038 -2.3024
20098SOL    HW262495   0.716   8.491   2.740 -1.2656 -0.7232 -2.2550
20099SOL     OW62496   1.304   5.671   5.794  0.1430  0.2638  0.0216
20099SOL    HW162497   1.359   5.718   5.730 -0.8462  0.8269 -0.4456
20099SOL    HW262498   1.224   5.649   5.745 -0.2908 -0.0241  0.8447
20100SOL     OW62499   7.989   7.027   7.658 -0.0642  0.2122 -0.0156
20100SOL    HW162500   8.083   7.007   7.666 -0.1064  0.6027  2.1227
20100SOL    HW262501   7.980   7.116   7.690 -1.1160  0.3930 -0.7508
20101SOL     OW62502   7.665   5.320   6.807  0.1176  0.1673 -0.4152
20101SOL    HW162503   7.729   5.348   6.742  1.3090 -0.4975  0.4223
20101SOL    HW262504   7.713   5.324   6.890 -1.5338  1.5573  0.5210
20102SOL     OW62505   2.875   3.895   9.055 -0.2154  0.0596  0.0479
20102SOL    HW162506   2.824   3.975   9.067 -0.4126  0.2212 -1.5854
20102SOL    HW262507   2.913   3.877   9.141 -2.5853  0.2076  1.1882
20103SOL     OW62508   2.649   6.088   2.705  0.1643 -0.1727 -0.1310
20103SOL    HW162509   2.677   6.062   2.618 -1.1620 -2.9005  0.1383
20103SOL    HW262510   2.557   6.113   2.694  0.8928  2.9220 -0.0302
20104SOL     OW62511   8.258   6.234   4.744  0.5981 -0.0663  0.1345
20104SOL    HW162512   8.229   6.146   4.768 -0.8123  0.3161 -0.0774
20104SOL    HW262513   8.223   6.248   4.656 -1.2701  1.5626  1.0636
20105SOL     OW62514   7.823   1.526   1.224  0.0304 -0.0154 -0.0505
20105SOL    HW162515   7.798   1.480   1.144 -0.6542 -1.2369  0.8179
20105SOL    HW262516   7.901   1.480   1.254  1.1330  1.3477 -0.7339
20106SOL     OW62517   2.860   1.490   4.724  0.3180 -0.6368 -0.2160
20106SOL    HW162518   2.916   1.502   4.648  1.1659  0.9165  0.6157
20106SOL    HW262519   2.890   1.554   4.788 -1.4238 -0.7821  0.8411
20107SOL     OW62520   4.675   9.203   3.649  0.3150  0.4436  0.0832
20107SOL    HW162521   4.673   9.123   3.596  0.6500  2.0889 -2.5999
20107SOL    HW262522   4.585   9.214   3.679  0.1426 -0.6202 -0.0055
20108SOL     OW62523   1.849   2.456   3.952  0.0224  0.1112  0.0515
20108SOL    HW162524   1.826   2.475   3.861 -1.3678 -0.7648  0.1943
20108SOL    HW262525   1.832   2.538   3.998  1.5875  0.8354 -0.5951
20109SOL     OW62526   5.794   1.806   1.966 -0.0516  0.6051  0.4962
20109SOL    HW162527   5.840   1.771   2.041  0.2950 -0.0578 -0.0168
20109SOL    HW262528   5.773   1.730   1.912  0.2522  1.1222 -0.3846
20110SOL     OW62529   2.129   8.859   8.106 -0.0797 -0.2192  0.2606
20110SOL    HW162530   2.038   8.831   8.098 -0.9204  2.0112  1.2522
20110SOL    HW262531   2.130   8.948   8.071  1.2602  0.5424  2.0608
20111SOL     OW62532   5.217   0.973   7.275  0.4752 -0.0730 -0.0883
20111SOL    HW162533   5.139   0.937   7.233 -1.0791  1.1420  1.5702
20111SOL    HW262534   5.271   1.005   7.203 -0.3229 -1.3213 -1.3054
20112SOL     OW62535   8.315   0.484   5.269 -0.0006 -0.3195 -0.4102
20112SOL    HW162536   8.379   0.554   5.273 -1.9473  1.5075  1.5328
20112SOL    HW262537   8.344   0.421   5.335 -1.3441  1.7050  2.3162
20113SOL     OW62538   5.564   5.784   8.011 -0.3526 -0.0906 -0.0474
20113SOL    HW162539   5.655   5.798   8.037 -0.9708  1.5296  1.4982
20113SOL    HW262540   5.559   5.691   7.989  1.5882 -0.2931  0.1805
20114SOL     OW62541   4.127   5.753   6.388  0.4967 -0.0745 -0.0600
20114SOL    HW162542   4.213   5.794   6.386 -0.7449  2.7639 -2.6497
20114SOL    HW262543   4.122   5.702   6.307 -0.3543  0.0726 -0.1151
20115SOL     OW62544   9.440   0.257   5.949  0.6572  0.2336  0.2126
20115SOL    HW162545   9.447   0.161   5.947  1.4368  0.2991 -0.6399
20115SOL    HW262546   9.525   0.287   5.983  1.5585  0.7105 -2.2586
20116SOL     OW62547   6.883   1.754   7.813  0.0761 -0.1146  0.5161
20116SOL    HW162548   6.977   1.739   7.822  0.0516 -1.7596 -1.3201
20116SOL    HW262549   6.869   1.770   7.719 -1.5002 -0.2040  0.6958
20117SOL     OW62550   4.304   2.639   6.666  0.0364 -0.1204  0.7386
20117SOL    HW162551   4.311   2.574   6.596  2.7312 -0.6854  1.4433
20117SOL    HW262552   4.255   2.594   6.735 -0.1019 -0.5979  0.3391
20118SOL     OW62553   7.956   0.079   4.514 -0.0903  0.3884  0.0246
20118SOL    HW162554   7.944   0.115   4.601  0.9448  1.0883 -0.0976
20118SOL    HW262555   7.872   0.092   4.470  0.0388  2.0232  0.2225
20119SOL     OW62556   4.663   6.402   8.111  0.1194 -0.3560 -0.0443
20119SOL    HW162557   4.626   6.371   8.028 -2.2287 -0.7426  1.0504
20119SOL    HW262558   4.661   6.497   8.105  1.8205 -0.3504 -1.1443
20120SOL     OW62559   1.445   0.949   0.440  0.2663 -0.2128  0.3221
20120SOL    HW162560   1.447   0.895   0.361 -0.3264  0.8272 -0.4225
20120SOL    HW262561   1.456   0.886   0.512  1.0952 -1.1385 -0.5813
20121SOL     OW62562   4.779   1.491   0.287  0.0738  0.0550 -0.3598
20121SOL    HW162563   4.808   1.578   0.258 -0.1808  0.2995  0.1061
20121SOL    HW262564   4.737   1.452   0.210  1.2174 -0.1192 -0.9068
20122SOL     OW62565   0.558   5.925   2.849 -0.1600  0.0316 -0.5658
20122SOL    HW162566   0.499   5.894   2.918 -0.5196  0.5171 -0.6495
20122SOL    HW262567   0.499   5.952   2.778  0.2109 -0.7319 -1.1871
20123SOL     OW62568   7.361   3.151   5.031 -0.0115 -0.5601 -0.1154
20123SOL    HW162569   7.407   3.175   4.951  3.2947 -2.3110  1.0756
20123SOL    HW262570   7.375   3.057   5.040 -1.7138 -0.7115  1.7296
20124SOL     OW62571   2.351   9.376   8.006  0.1624  0.6413 -0.0425
20124SOL    HW162572   2.382   9.379   7.916  0.4518  1.7593  0.0709
20124SOL    HW262573   2.262   9.412   8.002 -0.1884 -0.2126 -0.0145
20125SOL     OW62574   1.978   9.028   2.350  0.2112  0.4980 -0.3772
20125SOL    HW162575   2.050   9.046   2.410 -0.4447  0.3108  0.4726
20125SOL    HW262576   2.019   9.032   2.263  1.1845  0.6786  0.0707
20126SOL     OW62577   4.964   2.822   1.160  0.0660  0.2233 -0.3391
20126SOL    HW162578   4.951   2.872   1.240  1.1244  0.6286 -0.4106
20126SOL    HW262579   4.897   2.856   1.100 -1.7665 -1.1444  0.8035
20127SOL     OW62580   9.264   8.248   0.280  0.1893  0.0029 -0.3068
20127SOL    HW162581   9.316   8.235   0.201 -1.2477 -1.2068 -1.1217
20127SOL    HW262582   9.173   8.239   0.250 -0.3713 -1.4503  1.6257
20128SOL     OW62583   8.089   4.303   7.563 -0.7781  0.2139 -0.0499
20128SOL    HW162584   7.997   4.288   7.542 -0.1020 -2.5276 -1.4891
20128SOL    HW262585   8.102   4.257   7.646 -1.2807  3.1846  1.8459
20129SOL     OW62586   4.383   4.203   2.378 -0.3154 -0.3801  0.1077
20129SOL    HW162587   4.440   4.244   2.312 -0.9883 -2.2598 -1.7540
20129SOL    HW262588   4.294   4.226   2.349 -0.6300 -1.5482  0.1121
20130SOL     OW62589   4.981   0.976   9.153 -0.2995  0.4344 -0.0791
20130SOL    HW162590   4.935   0.939   9.228 -0.3117 -0.9018 -0.7289
20130SOL    HW262591   5.028   1.052   9.189 -0.4812 -0.0488  1.2260
20131SOL     OW62592   0.974   4.342   5.514  0.0108  0.5280  0.3017
20131SOL    HW162593   0.960   4.254   5.480  2.1501  0.6400 -1.1217
20131SOL    HW262594   1.012   4.329   5.601 -0.7596  0.0806  0.5719
20132SOL     OW62595   6.877   5.774   2.435  0.2049 -0.2529 -0.4542
20132SOL    HW162596   6.871   5.684   2.468  2.9680 -1.2694 -2.3917
20132SOL    HW262597   6.950   5.812   2.484 -0.8162  0.9131  0.2011
20133SOL     OW62598   8.226   8.197   6.426  0.7502 -0.4694  0.5412
20133SOL    HW162599   8.223   8.292   6.414  1.9235 -0.3296  1.2350
20133SOL    HW262600   8.271   8.164   6.349 -1.7258 -0.7513 -0.9013
20134SOL     OW62601   8.970   7.804   0.685  0.7011  0.0584 -0.1236
20134SOL    HW162602   8.986   7.837   0.773  2.6379 -3.9204  1.2953
20134SOL    HW262603   8.923   7.722   0.699  0.0149 -0.1152 -2.9154
20135SOL     OW62604   2.338   4.275   9.268 -0.2190 -0.1013  0.3534
20135SOL    HW162605   2.354   4.235   9.353  1.7992 -0.2251 -0.0265
20135SOL    HW262606   2.287   4.210   9.220 -0.6459 -0.3871  1.1767
20136SOL     OW62607   1.785   8.798   5.831 -0.5675  0.4883 -0.4433
20136SOL    HW162608   1.774   8.719   5.778  1.7731 -0.5745  0.4707
20136SOL    HW262609   1.702   8.844   5.825 -1.3374 -1.0476 -2.6277
20137SOL     OW62610   0.744   9.578   7.715  0.1382  0.7854 -0.4916
20137SOL    HW162611   0.738   9.645   7.783  2.4875  0.8406 -0.2470
20137SOL    HW262612   0.810   9.611   7.654  0.2912 -0.6375 -1.1533
20138SOL     OW62613   7.542   0.351   4.341 -0.8568 -0.4403 -0.3737
20138SOL    HW162614   7.472   0.348   4.276  0.3677 -0.2222 -1.7621
20138SOL    HW262615   7.563   0.444   4.349 -1.2260 -0.4263  0.6274
20139SOL     OW62616   2.062   8.497   5.544  0.0984  0.0774 -0.1414
20139SOL    HW162617   2.147   8.483   5.503 -0.5338 -1.0458 -1.1118
20139SOL    HW262618   2.083   8.514   5.636  1.4109  0.6084 -0.5175
20140SOL     OW62619   2.280   6.599   8.834 -0.4666  0.0609  0.0204
20140SOL    HW162620   2.360   6.562   8.873  0.5550  1.4367 -0.6782
20140SOL    HW262621   2.272   6.554   8.751 -2.1123 -2.1841  1.2853
20141SOL     OW62622   5.529   9.398   7.421 -0.1090 -0.0769 -0.2004
20141SOL    HW162623   5.600   9.367   7.365  2.0054  1.0018  1.7078
20141SOL    HW262624   5.499   9.480   7.380  0.1882 -0.2106 -0.6840
20142SOL     OW62625   1.053   5.811   9.084 -0.3044 -0.4179  0.4802
20142SOL    HW162626   1.006   5.789   9.003  2.3137 -0.3589 -1.1539
20142SOL    HW262627   1.049   5.731   9.137 -0.9603 -0.8881 -0.2600
20143SOL     OW62628   1.414   1.349   8.710  0.5900 -0.1964  0.1396
20143SOL    HW162629   1.429   1.442   8.729 -0.3457 -0.1562  0.7170
20143SOL    HW262630   1.488   1.304   8.752 -0.2990  0.0836  2.1601
20144SOL     OW62631   3.908   5.260   0.100  0.1889  0.3508  0.2629
20144SOL    HW162632   3.939   5.315   0.172  0.9152  0.1238  0.1372
20144SOL    HW262633   3.906   5.318   0.024  1.5440  0.0771 -0.0035
20145SOL     OW62634   1.399   0.504   2.505  0.2159 -0.1448 -0.5491
20145SOL    HW162635   1.322   0.496   2.450 -0.1730  3.2140 -0.6934
20145SOL    HW262636   1.465   0.546   2.449 -0.0319  2.8974  1.2073
20146SOL     OW62637   5.398   0.072   0.851  0.0201 -0.1888 -0.2026
20146SOL    HW162638   5.378   0.124   0.929  1.0711 -0.8130  0.5165
20146SOL    HW262639   5.406  -0.018   0.884 -1.3063 -0.7558 -1.3391
20147SOL     OW62640   3.955   4.234   3.454 -0.2602 -0.1170  0.7167
20147SOL    HW162641   3.897   4.167   3.417  1.3412 -0.3551 -1.4968
20147SOL    HW262642   4.035   4.187   3.475  0.0934  0.7081  1.2567
20148SOL     OW62643   3.388   8.575   7.533  0.2159  0.4123  0.5657
20148SOL    HW162644   3.479   8.556   7.557  0.8340  0.5655 -1.4546
20148SOL    HW262645   3.381   8.545   7.442 -1.3528  1.6622  0.2370
20149SOL     OW62646   4.797   5.796   8.315  0.1512 -0.2131 -0.3428
20149SOL    HW162647   4.766   5.813   8.227 -0.7219  1.1742  0.2004
20149SOL    HW262648   4.876   5.743   8.303  0.1395  0.0857 -1.9475
20150SOL     OW62649   3.971   7.062   5.858 -0.0735  0.5695 -0.3335
20150SOL    HW162650   3.996   6.979   5.818  0.5996 -0.2376  1.6140
20150SOL    HW262651   3.934   7.038   5.943 -1.1079  2.1976 -0.2629
20151SOL     OW62652   2.928   1.349   9.389  0.1319  0.6517 -0.6982
20151SOL    HW162653   2.893   1.418   9.332 -0.2845 -0.1902 -1.4917
20151SOL    HW262654   2.968   1.396   9.462 -1.3125  1.7027 -0.5453
20152SOL     OW62655   4.101   0.233   0.305  0.1437 -0.6682  0.3619
20152SOL    HW162656   4.167   0.176   0.264  1.7778  1.9890 -1.0049
20152SOL    HW262657   4.148   0.278   0.374 -0.4957  0.5345  0.0416
20153SOL     OW62658   0.538   9.484   6.338 -0.0061  0.3476 -0.5025
20153SOL    HW162659   0.560   9.499   6.246  0.3195 -1.0842 -0.6778
20153SOL    HW262660   0.456   9.435   6.335 -0.5004  1.1164  0.0141
20154SOL     OW62661   1.460   1.125   7.144 -0.1398 -0.2394 -0.1120
20154SOL    HW162662   1.543   1.124   7.190  1.6456  0.9301 -3.0104
20154SOL    HW262663   1.395   1.146   7.211  2.3353  2.1595  1.7365
20155SOL     OW62664   4.822   2.219   0.028 -0.0179  0.4543  0.3723
20155SOL    HW162665   4.831   2.172  -0.055 -0.0026  1.1263 -0.0124
20155SOL    HW262666   4.834   2.152   0.095 -0.8421 -0.2551 -0.1662
20156SOL     OW62667   4.004   8.506   7.702 -0.6884  0.4097  0.7976
20156SOL    HW162668   4.047   8.564   7.764  0.4999 -0.4560  0.8128
20156SOL    HW262669   3.932   8.558   7.666 -0.5865  1.3611  1.9190
20157SOL     OW62670   5.533   9.269   3.940  0.1275  0.5698 -0.0488
20157SOL    HW162671   5.450   9.283   3.894  0.3553 -0.3512 -0.7884
20157SOL    HW262672   5.598   9.267   3.870  0.5645 -0.2591  0.3750
20158SOL     OW62673   0.322   1.150   4.877 -0.2090 -0.1970 -0.5320
20158SOL    HW162674   0.355   1.060   4.869  0.7016 -0.0725  1.3934
20158SOL    HW262675   0.381   1.201   4.820 -0.2333 -0.6869 -1.0117
20159SOL     OW62676   0.458   7.897   2.018 -0.3784 -0.5227  0.8895
20159SOL    HW162677   0.449   7.959   1.945 -2.6167 -1.4439  0.3129
20159SOL    HW262678   0.467   7.812   1.976 -1.1347 -0.9971  1.6635
20160SOL     OW62679   2.042   4.244   1.144  0.1216  0.2139 -0.7131
20160SOL    HW162680   2.062   4.300   1.219 -1.1645  0.4680 -0.5327
20160SOL    HW262681   2.123   4.196   1.127  0.5055  0.3146  0.7076
20161SOL     OW62682   1.448   0.755   1.622 -0.3246  0.3911 -0.3734
20161SOL    HW162683   1.362   0.780   1.654  0.0557 -0.4709  1.4411
20161SOL    HW262684   1.510   0.793   1.685  0.6434  1.0384 -1.6605
20162SOL     OW62685   7.908   3.139   5.720  0.0122 -0.1642  0.4125
20162SOL    HW162686   7.888   3.203   5.652 -0.5744 -2.0770 -1.3578
20162SOL    HW262687   7.826   3.129   5.769  0.1700  0.5655  0.8342
20163SOL     OW62688   4.949   2.809   4.101 -0.4472 -0.1295 -0.3991
20163SOL    HW162689   4.914   2.895   4.080 -0.0641  0.1648  0.1544
20163SOL    HW262690   5.033   2.826   4.144  0.1508 -0.8030 -1.2547
20164SOL     OW62691   4.189   8.145   2.424 -0.3230  0.5871 -0.2477
20164SOL    HW162692   4.144   8.165   2.342 -1.7956 -0.4920  0.2606
20164SOL    HW262693   4.125   8.098   2.476  0.8471  0.5379  1.2277
20165SOL     OW62694   1.241   6.841   8.433  0.7322 -0.3028  0.7699
20165SOL    HW162695   1.190   6.784   8.376  2.3222 -1.2536  0.2412
20165SOL    HW262696   1.181   6.912   8.456 -0.6294 -1.0766 -0.2724
20166SOL     OW62697   2.659   9.156   2.031  0.2132 -0.2265  0.1869
20166SOL    HW162698   2.608   9.236   2.015 -1.2383 -1.0587  0.3861
20166SOL    HW262699   2.678   9.157   2.124 -0.5738 -0.5131  0.3628
20167SOL     OW62700   6.308   8.762   8.804 -0.6408  0.1837 -0.2126
20167SOL    HW162701   6.303   8.818   8.726 -2.0641 -0.8369 -0.8987
20167SOL    HW262702   6.319   8.674   8.770  1.6517 -0.0119  0.8664
20168SOL     OW62703   2.469   7.192   1.808 -0.3777  0.2536  0.2130
20168SOL    HW162704   2.505   7.156   1.889 -1.1761  0.8379  0.8527
20168SOL    HW262705   2.470   7.119   1.746  1.9871  0.2758  0.1345
20169SOL     OW62706   3.653   5.094   0.543 -0.5171  0.1404 -0.5169
20169SOL    HW162707   3.595   5.162   0.508 -1.7240 -0.3048  0.5478
20169SOL    HW262708   3.618   5.012   0.509 -1.5385 -0.2768  1.4112
20170SOL     OW62709   2.523   9.011   1.658 -0.1453 -0.0523 -0.1771
20170SOL    HW162710   2.563   8.925   1.668 -1.6343 -0.6566  0.9568
20170SOL    HW262711   2.585   9.072   1.699  0.0127 -0.8487  0.8062
20171SOL     OW62712   8.500   1.389   8.958 -0.1357  0.1781 -0.4529
20171SOL    HW162713   8.529   1.477   8.936  1.1504 -0.2692 -0.6305
20171SOL    HW262714   8.576   1.333   8.939 -0.1474 -0.6917  1.7855
20172SOL     OW62715   4.523   4.575   7.218 -0.0242 -0.0785  0.1567
20172SOL    HW162716   4.499   4.634   7.146 -1.8630 -1.7265 -0.6599
20172SOL    HW262717   4.546   4.634   7.290  0.8492  1.6147 -1.4329
20173SOL     OW62718   5.433   2.321   4.381 -0.2356 -0.4095 -0.6137
20173SOL    HW162719   5.378   2.289   4.453 -1.2943  2.4374 -0.0465
20173SOL    HW262720   5.381   2.302   4.303 -1.8709  1.7253 -0.1234
20174SOL     OW62721   4.720   3.234   6.414 -0.0692  0.3579  0.0640
20174SOL    HW162722   4.765   3.201   6.492 -3.3051 -3.1198  0.8035
20174SOL    HW262723   4.627   3.224   6.435 -1.1609  2.7327 -2.9793
20175SOL     OW62724   2.703   7.122   3.096 -0.5069 -0.1391 -0.9844
20175SOL    HW162725   2.722   7.035   3.062 -0.6582 -1.1469  1.2936
20175SOL    HW262726   2.627   7.109   3.153 -0.3732  1.4316 -0.3933
20176SOL     OW62727   6.074   4.984   7.385  0.6888  0.6955  0.3194
20176SOL    HW162728   5.980   4.982   7.370 -0.0331  0.0642  3.9307
20176SOL    HW262729   6.111   5.022   7.305 -2.4053 -0.5179 -1.8935
20177SOL     OW62730   1.603   4.470   7.696 -0.1203  0.3324 -0.5877
20177SOL    HW162731   1.603   4.420   7.778  0.4330  0.1493 -0.6987
20177SOL    HW262732   1.517   4.453   7.658  0.5607 -1.7528 -1.3482
20178SOL     OW62733   9.519   4.309   2.689  0.0864 -0.1277 -0.2148
20178SOL    HW162734   9.466   4.230   2.703  0.5879 -0.6763 -1.2587
20178SOL    HW262735   9.498   4.365   2.763 -1.9022 -0.3544 -0.5276
20179SOL     OW62736   4.012   0.567   5.276 -0.4922 -0.5700  0.0081
20179SOL    HW162737   4.051   0.630   5.337 -0.8966  1.3806 -1.6370
20179SOL    HW262738   3.920   0.563   5.301 -0.4279 -0.6863  0.2346
20180SOL     OW62739   3.009   4.855   3.265 -0.0157  0.1334 -0.2467
20180SOL    HW162740   2.968   4.769   3.279  0.4678 -0.1559 -0.5614
20180SOL    HW262741   2.945   4.918   3.296 -0.6781 -0.3154 -0.6888
20181SOL     OW62742   5.988   6.214   2.115 -0.2853  0.3011  0.4050
20181SOL    HW162743   5.895   6.193   2.112 -0.0913 -1.0638  2.3624
20181SOL    HW262744   6.031   6.132   2.139  1.5795  0.6373 -1.4528
20182SOL     OW62745   4.940   9.032   9.315  0.2542 -0.6522 -0.8287
20182SOL    HW162746   5.028   9.005   9.288 -0.1688 -1.9596 -0.9596
20182SOL    HW262747   4.955   9.109   9.370  1.3517  0.1611 -2.1902
20183SOL     OW62748   5.709   7.847   5.501 -0.3529  0.4184  0.4052
20183SOL    HW162749   5.645   7.778   5.481  2.7974 -2.0993 -2.0475
20183SOL    HW262750   5.721   7.893   5.417 -0.1345  1.9971  1.2674
20184SOL     OW62751   7.832   5.614   5.324 -0.4436 -0.1583  0.3987
20184SOL    HW162752   7.844   5.689   5.265  1.8915 -0.6129  0.2188
20184SOL    HW262753   7.760   5.641   5.381 -1.2892  1.2073 -1.2134
20185SOL     OW62754   7.253   0.528   2.268  0.8775 -0.7551 -0.1313
20185SOL    HW162755   7.272   0.547   2.176  1.5968  0.1687  0.1921
20185SOL    HW262756   7.338   0.511   2.307  0.8693  1.1992  0.8605
20186SOL     OW62757   7.631   5.451   7.367  0.3407  0.1549 -0.1075
20186SOL    HW162758   7.724   5.471   7.356  0.4569 -0.9218 -1.3668
20186SOL    HW262759   7.595   5.459   7.279 -0.7157  0.3109  0.3338
20187SOL     OW62760   1.862   4.518   1.016 -0.2748  0.4286  0.3460
20187SOL    HW162761   1.798   4.555   1.078 -1.6761 -0.8937 -0.2523
20187SOL    HW262762   1.830   4.544   0.930  2.0254  2.8344  0.0799
20188SOL     OW62763   1.615   6.095   2.532  0.3560 -0.0294 -0.0128
20188SOL    HW162764   1.524   6.094   2.562  0.6343 -1.9780  0.9326
20188SOL    HW262765   1.662   6.141   2.602  0.3083 -0.3578  0.2376
20189SOL     OW62766   2.996   5.970   4.141 -0.7219 -0.0296  0.9963
20189SOL    HW162767   3.060   6.012   4.198  1.4162 -1.1182 -0.4623
20189SOL    HW262768   2.993   5.879   4.170  0.4327 -0.6155 -0.5646
20190SOL     OW62769   7.658   5.373   2.687 -0.3001 -0.0694  0.2987
20190SOL    HW162770   7.672   5.328   2.770  0.0962  0.3252  0.4522
20190SOL    HW262771   7.604   5.313   2.635  0.7132 -0.9847  0.2675
20191SOL     OW62772   7.120   9.284   8.665 -0.1817  0.3649 -0.2977
20191SOL    HW162773   7.213   9.280   8.643  0.4066 -1.7245  2.0929
20191SOL    HW262774   7.106   9.207   8.720 -3.7687 -0.4176 -2.0506
20192SOL     OW62775   1.779   5.378   6.200  0.6005  0.0424  0.5877
20192SOL    HW162776   1.869   5.410   6.191  0.7229 -0.5318 -0.3745
20192SOL    HW262777   1.726   5.440   6.149  1.0921 -2.2944 -3.1318
20193SOL     OW62778   2.445   5.852   1.108  0.1509 -0.2474  0.1349
20193SOL    HW162779   2.452   5.758   1.093 -0.3997 -0.5495  1.5750
20193SOL    HW262780   2.491   5.866   1.191 -0.4602  0.6291  0.3369
20194SOL     OW62781   1.895   6.235   4.565 -0.3633  0.3455 -0.2628
20194SOL    HW162782   1.973   6.180   4.556 -0.4191  0.2935 -0.4321
20194SOL    HW262783   1.830   6.195   4.506 -0.8536 -0.2135  0.6270
20195SOL     OW62784   3.970   6.419   6.065 -0.0698  0.6051 -0.5593
20195SOL    HW162785   4.046   6.367   6.093  0.5674  1.8181  0.0462
20195SOL    HW262786   3.895   6.365   6.087  0.5197  0.5267  1.4235
20196SOL     OW62787   2.890   2.317   3.067 -0.2939 -0.2480  0.0602
20196SOL    HW162788   2.835   2.239   3.078  1.2035 -1.2935  0.5445
20196SOL    HW262789   2.900   2.326   2.972 -2.1924  0.6610 -0.0987
20197SOL     OW62790   6.708   3.665   0.674  0.2950 -0.6005 -0.3537
20197SOL    HW162791   6.677   3.586   0.630 -0.9832 -0.3723  0.0970
20197SOL    HW262792   6.777   3.634   0.734 -1.1807 -1.6189  0.8936
20198SOL     OW62793   7.230   5.946   8.894  0.4081 -0.2126  0.4925
20198SOL    HW162794   7.285   5.991   8.830  0.7385 -0.0292  0.9009
20198SOL    HW262795   7.231   5.855   8.866 -0.9919  0.1509 -0.8619
20199SOL     OW62796   1.134   0.170   9.353  0.3655 -0.6563  0.5424
20199SOL    HW162797   1.133   0.233   9.425 -0.5811 -0.4588  0.3674
20199SOL    HW262798   1.184   0.213   9.284  0.4991 -0.4782  0.7487
20200SOL     OW62799   8.376   0.687   7.823  0.1397 -0.1226 -0.0047
20200SOL    HW162800   8.416   0.750   7.884 -0.4333 -0.0260  0.2777
20200SOL    HW262801   8.283   0.710   7.823 -0.3366 -1.8637  1.2294
20201SOL     OW62802   5.848   8.325   0.252  0.1010 -0.2418 -0.6567
20201SOL    HW162803   5.767   8.332   0.303 -0.3881 -1.2832 -1.2688
20201SOL    HW262804   5.890   8.245   0.285  0.4839 -0.1387 -0.8925
20202SOL     OW62805   9.304   1.093   6.051  0.1932  0.8425 -0.3366
20202SOL    HW162806   9.354   1.107   5.971  3.5446  1.2278  1.6293
20202SOL    HW262807   9.352   1.141   6.118 -2.1954  0.1807  2.0360
20203SOL     OW62808   3.616   2.129   7.973 -0.4632  0.0542  0.1873
20203SOL    HW162809   3.625   2.221   8.000  0.5591  0.1379 -0.3991
20203SOL    HW262810   3.705   2.100   7.957 -0.8288 -0.8747 -0.2058
20204SOL     OW62811   4.669   1.066   8.214 -0.0515 -0.1813  0.0397
20204SOL    HW162812   4.704   1.155   8.218  0.6950 -0.4792  0.4055
20204SOL    HW262813   4.583   1.072   8.255  0.0622  0.3422  0.2034
20205SOL     OW62814   8.949   0.695   1.923 -0.1461  0.7672 -1.0182
20205SOL    HW162815   8.987   0.764   1.869  1.1306  1.3924  0.5930
20205SOL    HW262816   8.925   0.738   2.005  1.3517 -0.7590  0.3140
20206SOL     OW62817   3.130   0.983   8.264  0.1484  0.3825 -0.3504
20206SOL    HW162818   3.116   1.039   8.188  0.0081 -2.1738 -2.3343
20206SOL    HW262819   3.046   0.983   8.309 -0.3347  0.4733 -1.2358
20207SOL     OW62820   2.720   5.232   1.708  0.3011 -0.2557  0.6211
20207SOL    HW162821   2.798   5.180   1.725  1.7302  1.4959 -0.2444
20207SOL    HW262822   2.654   5.168   1.682  1.0290 -1.9136  2.6010
20208SOL     OW62823   5.024   0.819   8.208 -0.5823 -0.2888 -0.4658
20208SOL    HW162824   5.114   0.806   8.239  0.4677  1.9497 -2.2462
20208SOL    HW262825   5.031   0.813   8.113 -2.3989 -0.3008 -0.6292
20209SOL     OW62826   2.072   4.994   0.524 -0.5694 -1.0347 -0.2496
20209SOL    HW162827   2.162   4.961   0.519 -0.7842 -1.7689  0.4936
20209SOL    HW262828   2.074   5.058   0.595 -0.1961  0.4984 -1.5705
20210SOL     OW62829   4.134   9.416   5.563 -0.3747  0.0800 -0.3848
20210SOL    HW162830   4.163   9.382   5.647  1.1532 -1.3874 -1.4454
20210SOL    HW262831   4.134   9.340   5.504 -0.5169  1.2072 -1.9208
20211SOL     OW62832   2.983   8.811   4.071 -0.1655  0.0170 -0.2693
20211SOL    HW162833   3.054   8.748   4.075  1.3224  1.6066 -0.6920
20211SOL    HW262834   2.970   8.840   4.161  0.1772  0.1919 -0.2741
20212SOL     OW62835   8.014   6.000   4.023 -0.0118 -0.2582 -0.0647
20212SOL    HW162836   8.020   5.932   3.955 -0.3204  0.2799 -0.6403
20212SOL    HW262837   8.096   5.992   4.072 -0.2652 -1.3878  0.2057
20213SOL     OW62838   8.161   2.555   0.353 -0.5426  0.1587 -0.7868
20213SOL    HW162839   8.242   2.507   0.373 -0.3088 -0.4658 -2.9763
20213SOL    HW262840   8.091   2.492   0.372 -0.4532  0.2069 -0.2670
20214SOL     OW62841   6.827   4.669   4.985 -0.3652  0.0805 -0.5905
20214SOL    HW162842   6.752   4.698   4.934  0.0588 -0.9914 -1.8902
20214SOL    HW262843   6.868   4.751   5.015 -0.3547  0.7963 -2.4027
20215SOL     OW62844   3.352   4.435   2.166 -0.3168  0.4088  0.7494
20215SOL    HW162845   3.407   4.490   2.223 -1.5061  1.6597  0.7343
20215SOL    HW262846   3.267   4.478   2.165 -0.6426 -0.1646 -1.1450
20216SOL     OW62847   4.702   5.617   7.441 -0.4158  0.4965  0.5614
20216SOL    HW162848   4.761   5.579   7.376 -1.1229 -1.9703  1.2412
20216SOL    HW262849   4.761   5.658   7.505  0.5028 -0.4343  0.3486
20217SOL     OW62850   0.091   5.778   0.410  0.4393  0.3387 -0.9887
20217SOL    HW162851   0.015   5.792   0.466  2.0994 -0.2461  1.5670
20217SOL    HW262852   0.064   5.812   0.325 -3.0113 -0.7299 -0.5101
20218SOL     OW62853   6.273   9.007   6.102  0.1063 -0.4709  0.5315
20218SOL    HW162854   6.261   9.101   6.087  0.2607 -0.2048  1.9675
20218SOL    HW262855   6.368   8.996   6.108  0.2072 -1.0465 -1.4612
20219SOL     OW62856   6.703   6.577   2.628  0.2292  0.4411  0.3367
20219SOL    HW162857   6.758   6.619   2.562  0.3159  0.9381  0.7243
20219SOL    HW262858   6.737   6.488   2.635  1.2891  0.8803  0.9117
20220SOL     OW62859   1.644   4.841   7.821  0.3180  0.2678 -0.1785
20220SOL    HW162860   1.693   4.921   7.798  1.3145 -0.3081 -0.1256
20220SOL    HW262861   1.554   4.871   7.832  0.4641  1.2066 -1.2424
20221SOL     OW62862   4.630   4.129   2.428 -0.7574 -0.1085  0.0449
20221SOL    HW162863   4.628   4.051   2.372 -0.3796 -0.6860  0.8126
20221SOL    HW262864   4.539   4.157   2.433 -0.7487  0.1867 -1.1602
20222SOL     OW62865   8.681   0.280   2.056  0.3277 -0.5082 -0.2212
20222SOL    HW162866   8.707   0.319   2.140  2.1120 -0.2066 -0.8728
20222SOL    HW262867   8.660   0.355   2.001 -0.9713 -0.7129 -0.0204
20223SOL     OW62868   2.464   8.375   3.314 -0.1716 -0.3008 -0.4185
20223SOL    HW162869   2.528   8.340   3.252 -0.1030  0.3606 -0.7308
20223SOL    HW262870   2.398   8.418   3.259 -0.3517 -0.1001 -0.0520
20224SOL     OW62871   4.861   4.632   7.049 -0.0284 -0.6260 -0.2227
20224SOL    HW162872   4.795   4.680   6.999 -0.9096 -0.3142  1.1835
20224SOL    HW262873   4.907   4.579   6.983 -2.2654 -1.5584 -1.1569
20225SOL     OW62874   4.959   6.135   3.892  0.2242  0.0887 -0.0950
20225SOL    HW162875   5.039   6.088   3.870  0.8772  0.9170  0.4561
20225SOL    HW262876   4.930   6.097   3.975 -0.9903 -1.4648 -1.1581
20226SOL     OW62877   2.589   3.588   3.806 -0.7888  0.0839  0.1577
20226SOL    HW162878   2.505   3.600   3.850 -1.0326  2.0105 -0.7256
20226SOL    HW262879   2.652   3.634   3.862  0.3029 -3.5995  2.2893
20227SOL     OW62880   9.480   5.652   2.787 -0.2717  0.6038 -0.4652
20227SOL    HW162881   9.468   5.746   2.775  0.8494  1.0258  1.3710
20227SOL    HW262882   9.574   5.638   2.784 -0.4830 -0.8717 -3.0610
20228SOL     OW62883   8.202   6.749   1.626 -0.0512 -0.3430 -0.1369
20228SOL    HW162884   8.162   6.835   1.611 -0.0967  0.0672  1.9750
20228SOL    HW262885   8.228   6.719   1.539 -1.3694  1.1444 -1.1005
20229SOL     OW62886   8.322   2.054   5.595  0.5670 -0.2991  0.3658
20229SOL    HW162887   8.298   2.140   5.562  0.9003 -0.0412  0.7894
20229SOL    HW262888   8.417   2.054   5.595  0.7660 -2.2339 -3.7474
20230SOL     OW62889   2.779   5.806   4.612  0.1664  0.2866 -0.2261
20230SOL    HW162890   2.859   5.758   4.632  0.5854  1.2530  0.5129
20230SOL    HW262891   2.772   5.872   4.682 -0.0009  1.7529 -1.5763
20231SOL     OW62892   3.421   9.422   5.480 -0.4063  0.3740 -0.1723
20231SOL    HW162893   3.336   9.433   5.522 -0.8181 -2.2639 -0.1424
20231SOL    HW262894   3.481   9.401   5.552  0.3572  2.3372 -0.1765
20232SOL     OW62895   4.873   7.761   1.316 -0.0704 -0.4687  0.0764
20232SOL    HW162896   4.846   7.807   1.396 -1.5716  0.1326 -0.7206
20232SOL    HW262897   4.920   7.827   1.266 -0.8602 -0.2420 -0.3837
20233SOL     OW62898   3.292   1.832   6.671  0.1598  0.3872 -0.3009
20233SOL    HW162899   3.295   1.921   6.636 -0.5574  1.2611  1.7064
20233SOL    HW262900   3.371   1.825   6.724  0.1315 -0.1244 -0.3261
20234SOL     OW62901   3.127   3.446   3.516  0.1935 -0.2667 -0.6330
20234SOL    HW162902   3.112   3.362   3.560 -2.1729 -0.0288 -0.8753
20234SOL    HW262903   3.167   3.500   3.584 -0.2634 -0.9433  0.2105
20235SOL     OW62904   3.554   9.237   7.857  0.4102 -0.1437  0.2488
20235SOL    HW162905   3.559   9.169   7.790  0.9661  0.5134 -0.3968
20235SOL    HW262906   3.479   9.212   7.912  1.4389 -2.0298  0.8886
20236SOL     OW62907   8.446   4.952   1.932  0.1734  0.1490  0.2724
20236SOL    HW162908   8.415   4.907   1.853 -2.2591 -1.0223  1.7814
20236SOL    HW262909   8.513   4.895   1.968 -0.1162 -0.3139  0.0845
20237SOL     OW62910   4.366   0.213   4.895  0.3154 -0.1186 -0.3429
20237SOL    HW162911   4.441   0.161   4.870  0.6914  0.2266  0.0516
20237SOL    HW262912   4.339   0.258   4.815 -0.1143 -1.0394 -0.7213
20238SOL     OW62913   8.700   5.801   5.955  0.6805  0.6059  0.6103
20238SOL    HW162914   8.749   5.831   6.031 -0.8513  5.0636  0.1315
20238SOL    HW262915   8.746   5.838   5.880 -1.0138  1.3293 -0.1345
20239SOL     OW62916   8.154   1.540   1.456 -0.4513 -0.5101  0.1968
20239SOL    HW162917   8.167   1.612   1.394  0.4802 -0.4962  0.3992
20239SOL    HW262918   8.160   1.581   1.542 -1.3391 -0.6011  0.3138
20240SOL     OW62919   7.097   4.263   6.115  0.1047  0.3420 -0.5403
20240SOL    HW162920   7.067   4.335   6.059 -0.8388 -0.3519 -0.9379
20240SOL    HW262921   7.018   4.227   6.154  0.5113 -0.8255 -0.7530
20241SOL     OW62922   3.834   8.647   7.445  0.1684 -0.2528  0.0258
20241SOL    HW162923   3.925   8.619   7.436  0.0603 -1.0697  1.1185
20241SOL    HW262924   3.793   8.626   7.361 -0.2870 -5.1094  1.1574
20242SOL     OW62925   8.231   5.590   1.071 -0.2522  0.2138  0.5067
20242SOL    HW162926   8.277   5.553   1.146  0.5778  0.0544 -0.0599
20242SOL    HW262927   8.177   5.518   1.038 -0.9385  0.4062  1.1878
20243SOL     OW62928   3.420   0.656   6.786 -0.2079 -0.1168  0.1529
20243SOL    HW162929   3.443   0.708   6.862  0.4910 -2.2814  1.5102
20243SOL    HW262930   3.501   0.611   6.762 -1.4214 -3.0989  1.1496
20244SOL     OW62931   1.243   5.882   4.660 -0.4086 -0.9478  0.1898
20244SOL    HW162932   1.228   5.806   4.604 -1.2988 -2.1001  1.8914
20244SOL    HW262933   1.336   5.900   4.651 -0.9646  1.0116 -4.1076
20245SOL     OW62934   4.957   7.303   3.819  0.2723 -0.2349 -0.2111
20245SOL    HW162935   5.045   7.277   3.844  0.2413 -0.2213 -0.0896
20245SOL    HW262936   4.933   7.372   3.881 -0.0034 -0.5633  0.0468
20246SOL     OW62937   4.312   3.212   4.198  0.1369  0.3796  0.0816
20246SOL    HW162938   4.392   3.160   4.192  0.8327  1.4855 -0.4993
20246SOL    HW262939   4.254   3.172   4.133  1.2561  1.2869 -1.5602
20247SOL     OW62940   8.339   5.888   2.527  0.2914  0.2440 -0.1164
20247SOL    HW162941   8.362   5.962   2.584 -0.7031  1.5271 -1.3149
20247SOL    HW262942   8.246   5.871   2.546  0.3790 -0.3800 -0.2143
20248SOL     OW62943   8.575   2.392   9.388 -0.5297  0.4316 -0.2201
20248SOL    HW162944   8.637   2.441   9.335  0.4896  1.2212  1.5904
20248SOL    HW262945   8.609   2.303   9.391 -2.1755 -0.4280 -3.1947
20249SOL     OW62946   4.171   8.646   4.965 -0.4315  0.0758 -0.1303
20249SOL    HW162947   4.215   8.712   4.913 -0.2266 -1.4716 -2.0431
20249SOL    HW262948   4.243   8.595   5.005 -0.5573  0.0904  0.1159
20250SOL     OW62949   4.195   0.429   4.663  0.0166  0.5202 -0.2905
20250SOL    HW162950   4.128   0.477   4.712 -0.4527  0.3583 -0.7544
20250SOL    HW262951   4.145   0.361   4.616  0.0412  2.2168 -3.0340
20251SOL     OW62952   6.909   9.556   3.556  0.3241  0.0026 -0.2514
20251SOL    HW162953   6.880   9.618   3.489  0.5564  1.1701  0.7103
20251SOL    HW262954   6.993   9.590   3.586 -0.0123 -0.2363  0.9885
20252SOL     OW62955   0.017   1.043   8.564  0.1510 -0.1982  0.5629
20252SOL    HW162956  -0.065   1.091   8.558  0.5556  0.5989  1.1733
20252SOL    HW262957   0.015   1.001   8.650 -0.8049 -2.4750 -0.4843
20253SOL     OW62958   0.063   8.695   1.938 -0.0292 -0.0762 -0.7369
20253SOL    HW162959   0.150   8.658   1.923 -0.0985 -0.7180  0.3589
20253SOL    HW262960   0.075   8.789   1.928  0.2905 -0.2930 -2.9517
20254SOL     OW62961   2.636   4.950   1.649 -0.4223  0.2275 -0.5718
20254SOL    HW162962   2.641   4.934   1.743 -1.0312  2.3254 -0.1396
20254SOL    HW262963   2.707   4.898   1.613  1.6508  1.4926  1.3857
20255SOL     OW62964   8.267   2.156   6.692 -0.7430 -0.7613 -0.0481
20255SOL    HW162965   8.253   2.222   6.760  0.6969 -0.3020 -0.1476
20255SOL    HW262966   8.183   2.112   6.683 -1.0348 -0.6913  1.8699
20256SOL     OW62967   5.219   0.585   3.631 -0.3573  0.1091 -0.2435
20256SOL    HW162968   5.132   0.598   3.671 -1.6265  0.8226 -2.9937
20256SOL    HW262969   5.216   0.496   3.597  0.2142 -0.0594  0.1514
20257SOL     OW62970   2.796   5.582   0.767  0.8957 -0.0256  0.5073
20257SOL    HW162971   2.870   5.522   0.777  0.4010 -0.6254  0.6311
20257SOL    HW262972   2.791   5.628   0.851  0.4017 -0.8343  0.9300
20258SOL     OW62973   7.066   5.141   0.030  0.1928 -0.1505  0.0420
20258SOL    HW162974   6.992   5.102   0.077  1.4932  0.6245  2.9115
20258SOL    HW262975   7.060   5.234   0.049  2.3012 -0.1634  1.0311
20259SOL     OW62976   2.751   2.969   2.612  0.0586 -0.6261 -0.3919
20259SOL    HW162977   2.834   2.928   2.586  1.3785  2.0257 -0.7186
20259SOL    HW262978   2.696   2.963   2.533 -0.8130 -3.8389  0.3004
20260SOL     OW62979   5.244   1.974   8.089  0.3719  0.4642 -0.2884
20260SOL    HW162980   5.203   2.037   8.031 -0.9555  0.5575  0.7139
20260SOL    HW262981   5.183   1.901   8.093  0.7106  0.2138  0.5422
20261SOL     OW62982   1.702   7.383   4.871  0.1548 -0.0810  0.2227
20261SOL    HW162983   1.623   7.432   4.894  0.2264 -0.1197  0.5484
20261SOL    HW262984   1.766   7.450   4.849  0.2206 -0.0286  0.5675
20262SOL     OW62985   3.328   3.249   5.633  0.0483  0.1327 -0.4619
20262SOL    HW162986   3.403   3.194   5.658 -0.8322 -0.6513  0.5504
20262SOL    HW262987   3.326   3.318   5.699 -1.1994 -0.9059  0.6380
20263SOL     OW62988   9.493   3.838   6.490  0.0857 -0.4285  0.5983
20263SOL    HW162989   9.487   3.777   6.417 -3.1425  0.6729 -0.2142
20263SOL    HW262990   9.459   3.789   6.565 -1.1328 -0.1404  0.2590
20264SOL     OW62991   1.153   7.656   6.019  0.3783 -0.1689 -0.5051
20264SOL    HW162992   1.239   7.615   6.024  0.2359 -0.4525 -0.3976
20264SOL    HW262993   1.098   7.594   5.971 -0.0190 -0.4270  0.2638
20265SOL     OW62994   7.222   4.652   5.883 -0.3217  0.0751  0.2154
20265SOL    HW162995   7.188   4.740   5.865 -1.2128 -0.6039 -1.6832
20265SOL    HW262996   7.144   4.601   5.907 -0.0840 -0.5822 -0.3708
20266SOL     OW62997   7.207   0.896   1.906 -0.0507  0.1584  0.1108
20266SOL    HW162998   7.283   0.930   1.860  0.6582 -1.4260  0.0593
20266SOL    HW262999   7.168   0.833   1.845  0.5928 -1.5664  1.4109
20267SOL     OW63000   7.569   0.426   2.580 -0.6295 -0.1541  0.5235
20267SOL    HW163001   7.642   0.428   2.519 -0.8473 -0.0498  0.2629
20267SOL    HW263002   7.511   0.358   2.546 -0.8729  0.0779  0.4754
20268SOL     OW63003   8.813   4.497   8.447  0.5361 -0.4974 -0.7500
20268SOL    HW163004   8.821   4.555   8.523 -0.0479 -1.2206 -0.1208
20268SOL    HW263005   8.792   4.555   8.374 -0.5820  0.0395 -0.0234
20269SOL     OW63006   1.126   7.289   4.145 -0.7980  0.1126  0.6544
20269SOL    HW163007   1.048   7.234   4.132 -0.3506 -0.7736  1.5812
20269SOL    HW263008   1.166   7.254   4.224 -0.9272  2.2982  1.7475
20270SOL     OW63009   4.940   8.038   5.168 -0.0947 -0.3112  0.0255
20270SOL    HW163010   4.984   7.991   5.239 -0.2031 -0.5627 -0.0721
20270SOL    HW263011   4.900   7.969   5.115  0.0598 -0.1301 -0.3303
20271SOL     OW63012   9.418   6.806   3.893 -0.3262 -0.0890  0.1012
20271SOL    HW163013   9.501   6.853   3.881  0.0453 -0.7415  0.0618
20271SOL    HW263014   9.363   6.835   3.820  0.0286 -0.0077 -0.1341
20272SOL     OW63015   3.943   6.746   7.004 -0.0912  0.0497  0.1396
20272SOL    HW163016   4.015   6.729   6.943 -0.3412  0.8152 -0.3669
20272SOL    HW263017   3.939   6.666   7.057 -0.0817 -0.7565 -1.0349
20273SOL     OW63018   5.937   7.035   0.506  0.4243  0.2446  0.6069
20273SOL    HW163019   5.916   7.119   0.466  0.8051  0.1540  0.2138
20273SOL    HW263020   5.926   6.971   0.436  1.4478  0.1277  0.5325
20274SOL     OW63021   6.442   5.413   9.419  0.6482  0.2680  0.4843
20274SOL    HW163022   6.509   5.349   9.393 -0.8004 -1.3478  0.5262
20274SOL    HW263023   6.476   5.452   9.500  1.5112 -0.5554  0.5392
20275SOL     OW63024   1.688   0.331   5.650  0.2331  0.0434  0.0073
20275SOL    HW163025   1.724   0.266   5.710  0.8175 -1.2644 -1.6878
20275SOL    HW263026   1.627   0.282   5.595 -1.0257  1.4054  0.1108
20276SOL     OW63027   2.590   5.238   4.539  0.0115  0.0752  0.0640
20276SOL    HW163028   2.645   5.310   4.571 -1.7777  1.8521 -0.6211
20276SOL    HW263029   2.526   5.224   4.609 -0.1576 -0.2838 -0.1601
20277SOL     OW63030   5.845   3.663   2.984 -0.2792  0.1270 -0.4358
20277SOL    HW163031   5.818   3.742   3.030 -0.8358  0.7486 -1.7718
20277SOL    HW263032   5.809   3.591   3.036 -1.1802  0.8143 -0.0919
20278SOL     OW63033   7.671   6.462   8.267  0.1461 -0.1067  0.2369
20278SOL    HW163034   7.582   6.433   8.246 -0.4519  0.9977  1.1611
20278SOL    HW263035   7.717   6.460   8.183 -1.4703  1.7499 -0.7916
20279SOL     OW63036   8.819   1.990   5.128  0.1787 -0.3241 -0.5130
20279SOL    HW163037   8.859   1.973   5.214  1.4052 -1.3270 -1.2516
20279SOL    HW263038   8.887   1.967   5.065 -0.0143  2.2706 -1.7589
20280SOL     OW63039   4.304   6.357   5.104 -0.5296 -0.1075  0.0750
20280SOL    HW163040   4.227   6.312   5.070  0.4749 -0.8641 -1.3100
20280SOL    HW263041   4.329   6.417   5.034 -0.3070  0.6805  0.8262
20281SOL     OW63042   6.590   6.110   1.622  0.1968 -0.1617  0.3244
20281SOL    HW163043   6.498   6.138   1.621  0.4767  0.7994  0.6420
20281SOL    HW263044   6.640   6.190   1.608  1.0265 -0.4968  1.2273
20282SOL     OW63045   0.483   0.687   8.915 -0.2428 -0.3369 -0.2894
20282SOL    HW163046   0.445   0.618   8.971 -0.8087  1.1349  1.2171
20282SOL    HW263047   0.545   0.640   8.859 -0.3884 -2.0463  0.8907
20283SOL     OW63048   7.977   5.223   3.719 -0.0240 -0.1268  0.0805
20283SOL    HW163049   8.002   5.154   3.657 -1.7230 -1.5291  0.8584
20283SOL    HW263050   7.951   5.176   3.798 -1.6615  1.3463  0.4964
20284SOL     OW63051   2.430   5.274   0.848  0.0844  0.3644 -0.0241
20284SOL    HW163052   2.357   5.331   0.825 -2.9283 -2.7322  1.0340
20284SOL    HW263053   2.428   5.270   0.943  0.4459 -1.1814 -0.0582
20285SOL     OW63054   9.094   6.686   4.722  0.0326 -0.0025  0.0146
20285SOL    HW163055   9.044   6.604   4.715  1.2887 -0.7449 -0.5555
20285SOL    HW263056   9.166   6.665   4.782  0.4458  0.6410 -0.2463
20286SOL     OW63057   2.925   3.161   3.240  0.1422  0.2381 -0.0662
20286SOL    HW163058   2.915   3.106   3.318  0.3882 -1.5666 -1.2387
20286SOL    HW263059   2.836   3.188   3.218  0.0537  0.6197  0.7326
20287SOL     OW63060   7.444   1.792   4.789 -0.0826 -0.6672  0.2050
20287SOL    HW163061   7.380   1.804   4.719  0.4538  0.0853 -0.1592
20287SOL    HW263062   7.522   1.838   4.760  0.9204 -2.2407  0.2984
20288SOL     OW63063   4.665   0.844   8.526  0.7169  0.1760 -0.5922
20288SOL    HW163064   4.589   0.823   8.472 -1.9438 -0.1829  2.9666
20288SOL    HW263065   4.665   0.940   8.531 -0.3609  0.1451  0.4077
20289SOL     OW63066   1.337   4.706   7.848  0.1597  0.1337 -0.0916
20289SOL    HW163067   1.253   4.683   7.887  0.9123 -0.2157  1.4223
20289SOL    HW263068   1.401   4.658   7.900  1.3999  1.5414 -0.2378
20290SOL     OW63069   1.168   6.285   6.264  0.1046 -0.8069  0.3123
20290SOL    HW163070   1.190   6.311   6.353  0.0762  0.9892 -0.1624
20290SOL    HW263071   1.159   6.368   6.217 -0.3170 -1.7098 -1.2552
20291SOL     OW63072   0.909   4.209   7.695  0.3557  0.2202 -0.3134
20291SOL    HW163073   0.857   4.134   7.724  1.5841 -1.4957 -2.2295
20291SOL    HW263074   0.891   4.215   7.601  4.3771 -1.2916 -1.3992
20292SOL     OW63075   0.781   8.904   8.181 -0.1374 -0.0108 -0.0009
20292SOL    HW163076   0.727   8.932   8.107  0.6878  0.4181 -0.4595
20292SOL    HW263077   0.807   8.815   8.159  0.4407  0.2582 -0.4386
20293SOL     OW63078   7.018   5.879   1.312  0.1015 -0.3145  0.5536
20293SOL    HW163079   6.990   5.930   1.236 -0.7694  0.0952  1.1272
20293SOL    HW263080   7.028   5.944   1.382 -0.7766 -0.8787  1.2340
20294SOL     OW63081   5.926   0.687   9.385  0.5439 -0.3106  0.5800
20294SOL    HW163082   6.001   0.719   9.435  2.2490 -0.8470 -1.4716
20294SOL    HW263083   5.868   0.762   9.378  1.4014  0.4458  1.3345
20295SOL     OW63084   3.538   9.397   1.563 -0.5999  0.1933  0.2236
20295SOL    HW163085   3.451   9.371   1.532 -0.0996 -2.0690  0.6175
20295SOL    HW263086   3.523   9.422   1.654 -0.8793  0.1523  0.1921
20296SOL     OW63087   2.129   8.476   2.971 -0.8007 -0.3837  0.6133
20296SOL    HW163088   2.104   8.407   3.032 -0.0527 -0.8882  0.3698
20296SOL    HW263089   2.224   8.467   2.963 -0.8640 -0.2369 -0.5013
20297SOL     OW63090   5.625   5.235   5.997 -0.1971  0.0970 -0.1444
20297SOL    HW163091   5.688   5.190   5.941  0.0889  0.8132 -0.4154
20297SOL    HW263092   5.675   5.308   6.035 -0.9079  0.8109 -0.5493
20298SOL     OW63093   1.624   0.962   5.682  0.2945 -0.2472 -0.1382
20298SOL    HW163094   1.534   0.992   5.696 -0.0697 -0.6149 -1.5507
20298SOL    HW263095   1.657   1.017   5.612 -0.2480 -2.7038 -2.5148
20299SOL     OW63096   3.953   1.646   8.790 -0.6103  0.4197  0.5633
20299SOL    HW163097   3.888   1.632   8.858 -2.1167  1.6756 -0.5487
20299SOL    HW263098   3.974   1.558   8.759 -0.4252 -0.1226  2.1171
20300SOL     OW63099   7.827   7.506   8.961  0.1510  0.1991 -0.0845
20300SOL    HW163100   7.849   7.431   8.907  0.4495 -1.3370  2.0161
20300SOL    HW263101   7.866   7.581   8.916  0.9139 -1.0632 -1.6248
20301SOL     OW63102   9.386   6.289   9.341  0.6799  0.0317 -0.7998
20301SOL    HW163103   9.398   6.328   9.428 -0.1231  3.1020 -1.9172
20301SOL    HW263104   9.459   6.229   9.330  1.0239 -0.1161  1.8138
20302SOL     OW63105   4.754   1.428   4.962 -0.7828  0.7316  0.2602
20302SOL    HW163106   4.685   1.367   4.988  0.1797 -0.0536  1.0290
20302SOL    HW263107   4.741   1.441   4.868 -1.9842  0.6218  0.3973
20303SOL     OW63108   7.388   4.911   7.036 -0.0288 -0.2585 -0.1553
20303SOL    HW163109   7.348   4.991   7.071  1.7810  1.2055 -1.2186
20303SOL    HW263110   7.336   4.891   6.958 -0.8565 -0.4771  0.4418
20304SOL     OW63111   6.561   8.082   6.433 -0.3323  0.3699  0.4456
20304SOL    HW163112   6.607   8.080   6.349 -1.1853  2.2592 -0.1126
20304SOL    HW263113   6.589   8.163   6.475 -1.8277  0.7069  0.8491
20305SOL     OW63114   8.009   1.787   8.097  0.4898  0.1369 -0.1919
20305SOL    HW163115   8.087   1.830   8.062  0.6792 -0.0542 -0.0041
20305SOL    HW263116   8.033   1.761   8.186 -0.0241  0.7021  0.1122
20306SOL     OW63117   8.190   4.285   6.470 -0.0900 -0.0235  0.2889
20306SOL    HW163118   8.244   4.225   6.520  1.9729  1.9659  0.6140
20306SOL    HW263119   8.156   4.347   6.535 -1.2759 -0.1599 -0.1727
20307SOL     OW63120   7.532   4.303   5.472  0.1052 -0.2273 -0.0983
20307SOL    HW163121   7.520   4.358   5.395 -1.1156  2.1897  1.7015
20307SOL    HW263122   7.444   4.289   5.506  0.7243  0.4599  1.9334
20308SOL     OW63123   7.402   7.090   4.524  0.3666 -0.2457 -0.0257
20308SOL    HW163124   7.409   7.010   4.472 -0.5745 -1.1432  1.1357
20308SOL    HW263125   7.490   7.104   4.559  0.5512 -0.7493 -0.2817
20309SOL     OW63126   2.500   4.986   9.194  0.0965 -0.0257 -0.2215
20309SOL    HW163127   2.561   5.054   9.225 -0.6667  1.7883 -2.4089
20309SOL    HW263128   2.556   4.923   9.148  0.4934  0.9905 -1.1706
20310SOL     OW63129   5.812   6.680   6.690  0.0712 -0.7115  0.7573
20310SOL    HW163130   5.743   6.746   6.686  0.1104 -0.6440  1.1239
20310SOL    HW263131   5.765   6.597   6.688 -0.0419 -0.6661  1.2121
20311SOL     OW63132   7.225   7.727   4.432  0.1291 -0.1287 -0.1887
20311SOL    HW163133   7.288   7.778   4.483  0.4251 -0.5664 -0.1027
20311SOL    HW263134   7.245   7.748   4.341 -0.4123  0.6695 -0.1319
20312SOL     OW63135   3.447   1.637   4.588 -0.0161  0.1085 -0.9267
20312SOL    HW163136   3.406   1.708   4.539 -1.5195  0.8363  1.2409
20312SOL    HW263137   3.384   1.566   4.584 -1.6783  1.2007  2.3389
20313SOL     OW63138   7.405   8.914   6.620  0.0948  0.2416  0.6516
20313SOL    HW163139   7.368   8.912   6.532  0.4442  0.8059  0.4841
20313SOL    HW263140   7.397   8.824   6.652 -1.7414  0.4070  0.7658
20314SOL     OW63141   2.787   2.907   0.981 -0.3286  0.2922  0.2616
20314SOL    HW163142   2.696   2.882   0.999 -0.4141 -0.0163 -0.5532
20314SOL    HW263143   2.837   2.828   1.000 -0.3613  0.1239 -0.3393
20315SOL     OW63144   0.207   6.127   4.245  0.0950  0.5787  0.3209
20315SOL    HW163145   0.162   6.177   4.177  0.2038 -0.0084 -0.1911
20315SOL    HW263146   0.210   6.186   4.320 -2.7252  0.1966  0.8572
20316SOL     OW63147   4.160   3.395   3.960 -0.2953 -0.6073  0.1326
20316SOL    HW163148   4.146   3.489   3.955 -2.6572 -0.9519 -0.6895
20316SOL    HW263149   4.105   3.366   4.033 -2.2840 -1.7471 -1.7224
20317SOL     OW63150   0.414   5.042   8.708  0.0240 -0.5464 -0.5082
20317SOL    HW163151   0.473   4.980   8.751 -2.0152 -1.4992  1.1584
20317SOL    HW263152   0.372   4.992   8.638 -0.6708 -0.6961 -0.0018
20318SOL     OW63153   1.525   4.301   4.127  0.0528 -0.0373 -0.7396
20318SOL    HW163154   1.602   4.298   4.070 -0.2205  0.6409 -1.1491
20318SOL    HW263155   1.460   4.352   4.078 -0.0971  0.7813  0.2794
20319SOL     OW63156   4.187   0.843   7.489 -0.3034  0.0290 -0.5378
20319SOL    HW163157   4.174   0.854   7.583 -1.4933  0.8082 -0.7783
20319SOL    HW263158   4.164   0.751   7.473  0.1822 -0.1870 -0.0327
20320SOL     OW63159   4.033   8.296   0.068  0.1210  0.5750 -0.1718
20320SOL    HW163160   3.975   8.242   0.122  1.0165  0.5111  0.7768
20320SOL    HW263161   4.000   8.286  -0.021  0.5350 -1.9722 -0.1277
20321SOL     OW63162   1.514   8.774   9.130  0.3263  0.6850  0.4727
20321SOL    HW163163   1.538   8.747   9.042 -0.0630 -2.1275  1.1421
20321SOL    HW263164   1.568   8.852   9.147  0.3723  1.3299 -2.2043
20322SOL     OW63165   4.036   0.983   9.338  0.2709 -0.5003  0.4442
20322SOL    HW163166   3.987   1.036   9.276  1.1730 -1.5459 -1.2328
20322SOL    HW263167   3.994   0.897   9.335  0.6247 -0.6982  0.9169
20323SOL     OW63168   5.080   3.675   0.900  0.2664  0.0635 -0.5121
20323SOL    HW163169   5.039   3.690   0.815  0.3223  0.9478 -0.3868
20323SOL    HW263170   5.010   3.639   0.954 -0.0489  0.4942 -0.6274
20324SOL     OW63171   7.858   1.867   4.973  0.1495 -0.3663  0.1357
20324SOL    HW163172   7.789   1.858   4.907  0.4565  2.7341 -0.7809
20324SOL    HW263173   7.934   1.826   4.933 -0.7842 -2.9023  0.7327
20325SOL     OW63174   9.503   4.174   5.958 -0.5410  0.0952 -0.5717
20325SOL    HW163175   9.549   4.161   6.040  0.0915 -0.1452 -0.9547
20325SOL    HW263176   9.500   4.087   5.917 -1.0127  0.1761 -0.7210
20326SOL     OW63177   5.305   2.822   8.644 -0.5194 -0.6767  0.4047
20326SOL    HW163178   5.279   2.743   8.692 -2.0648 -0.1017  0.5837
20326SOL    HW263179   5.240   2.829   8.573 -0.2633  0.2939  0.2494
20327SOL     OW63180   2.645   1.287   3.507 -0.3234  0.6867 -0.0886
20327SOL    HW163181   2.728   1.331   3.523 -0.5202  0.3120  2.4034
20327SOL    HW263182   2.602   1.286   3.593 -2.3495 -0.2342 -1.0586
20328SOL     OW63183   3.524   2.064   4.195  0.4071  0.1495  0.2840
20328SOL    HW163184   3.499   2.095   4.107 -0.1147 -0.8281  0.0651
20328SOL    HW263185   3.593   2.123   4.223 -0.4453  1.4035 -0.1686
20329SOL     OW63186   2.632   1.174   5.989  0.2987  0.6493 -0.1916
20329SOL    HW163187   2.705   1.216   5.944  0.9186  1.0805  1.1385
20329SOL    HW263188   2.560   1.178   5.927  0.5234  3.0730 -0.3923
20330SOL     OW63189   2.744   9.257   6.282 -0.3390 -0.4790  0.0769
20330SOL    HW163190   2.775   9.175   6.321 -1.2417 -1.7209 -1.6982
20330SOL    HW263191   2.664   9.278   6.329  0.9736  0.6128  1.9881
20331SOL     OW63192   0.053   5.270   4.337  0.5660  0.0284 -0.3734
20331SOL    HW163193  -0.004   5.346   4.349  1.0905  0.4107 -0.2733
20331SOL    HW263194   0.051   5.225   4.421  0.7211  0.2556 -0.2479
20332SOL     OW63195   4.636   1.096   1.088 -0.0156 -0.3354  0.5750
20332SOL    HW163196   4.580   1.024   1.115 -0.5455  0.1060  0.6690
20332SOL    HW263197   4.725   1.063   1.100 -0.2527 -0.8741  0.8757
20333SOL     OW63198   2.979   0.171   7.914  0.3188 -0.7787  0.4431
20333SOL    HW163199   2.954   0.149   7.824 -2.6331  0.2139  0.9121
20333SOL    HW263200   3.023   0.256   7.906 -0.2438 -0.5272 -0.0613
20334SOL     OW63201   1.571   8.123   6.965 -0.0154  1.0508  0.2652
20334SOL    HW163202   1.634   8.164   7.025  3.1075  0.0211 -2.0668
20334SOL    HW263203   1.549   8.041   7.008  1.7095  0.6030  0.4039
20335SOL     OW63204   0.001   3.297   8.279 -0.2261 -0.0964 -0.1711
20335SOL    HW163205   0.050   3.263   8.204  0.4022 -0.3038  0.3216
20335SOL    HW263206  -0.091   3.292   8.253 -0.0235 -0.2912 -0.8695
20336SOL     OW63207   9.424   3.371   7.973  0.1068  0.3600 -0.1016
20336SOL    HW163208   9.469   3.287   7.969  2.1439  1.4093 -0.4951
20336SOL    HW263209   9.341   3.352   8.017  0.8119 -1.7051  0.4249
20337SOL     OW63210   7.789   3.435   4.671 -0.5704 -0.6085 -0.3844
20337SOL    HW163211   7.735   3.460   4.746 -0.8154  0.9740 -1.0507
20337SOL    HW263212   7.848   3.367   4.705 -0.1575  0.6062  1.4483
20338SOL     OW63213   6.014   8.151   8.768 -0.2675 -0.0137 -0.5512
20338SOL    HW163214   6.036   8.070   8.723 -0.9559  0.0716 -1.0810
20338SOL    HW263215   6.088   8.169   8.826 -0.4912 -1.4613  0.2090
20339SOL     OW63216   3.100   7.524   7.311  0.3649  0.1317  0.5907
20339SOL    HW163217   3.078   7.541   7.402 -1.5965  0.7764  0.0558
20339SOL    HW263218   3.070   7.434   7.296 -1.1602  0.6778  0.1214
20340SOL     OW63219   0.617   2.936   3.105  0.2811 -0.2683  0.4413
20340SOL    HW163220   0.578   2.880   3.172  0.1532 -0.9197 -0.1728
20340SOL    HW263221   0.665   3.002   3.155 -0.7690 -0.0354  1.2021
20341SOL     OW63222   3.726   4.097   5.465  0.0396  0.2618 -0.5874
20341SOL    HW163223   3.774   4.125   5.543  0.1476  0.1209 -0.6030
20341SOL    HW263224   3.793   4.091   5.397 -0.0020  0.0775 -0.6123
20342SOL     OW63225   3.887   7.616   7.181 -0.1210 -0.0195 -0.0206
20342SOL    HW163226   3.929   7.618   7.095 -0.6240  0.0761 -0.2626
20342SOL    HW263227   3.858   7.706   7.196 -0.7659 -0.2073 -0.1140
20343SOL     OW63228   5.538   3.305   2.945  0.1367  0.1637 -0.2335
20343SOL    HW163229   5.633   3.303   2.961  0.1469 -0.8362 -0.3729
20343SOL    HW263230   5.516   3.398   2.948  1.4861  0.6086 -2.3164
20344SOL     OW63231   5.363   5.448   5.264  0.1857 -0.3605  0.0989
20344SOL    HW163232   5.393   5.401   5.341 -0.8245  0.4358  1.0187
20344SOL    HW263233   5.283   5.493   5.293  0.5152  1.0361 -1.0197
20345SOL     OW63234   3.633   1.947   1.203 -0.1351  0.2509 -0.8069
20345SOL    HW163235   3.553   1.912   1.241 -1.3613  1.6110 -1.9814
20345SOL    HW263236   3.700   1.932   1.269 -1.4872 -0.4015  0.4660
20346SOL     OW63237   4.118   8.693   0.082 -0.1091 -0.0831  0.0638
20346SOL    HW163238   4.181   8.726   0.018  0.7221  0.2492  1.0327
20346SOL    HW263239   4.171   8.656   0.152 -1.0121 -0.8850  0.3503
20347SOL     OW63240   6.708   6.329   0.134 -0.1174 -0.4984  0.0591
20347SOL    HW163241   6.761   6.325   0.214  0.9955  0.2628 -0.6201
20347SOL    HW263242   6.618   6.314   0.165  0.3730 -0.9439  1.3503
20348SOL     OW63243   6.689   9.577   3.743  0.3556 -0.3741  0.3059
20348SOL    HW163244   6.737   9.633   3.803 -0.8028  0.4039  0.5289
20348SOL    HW263245   6.757   9.541   3.685  1.3310 -0.1618  1.2739
20349SOL     OW63246   7.429   6.150   0.587  0.4019  0.5207 -0.6099
20349SOL    HW163247   7.446   6.228   0.640 -0.7412  1.1422 -1.1144
20349SOL    HW263248   7.409   6.081   0.651  0.0516  1.0004 -0.1949
20350SOL     OW63249   5.489   4.658   4.258 -0.3850 -0.1039 -0.3307
20350SOL    HW163250   5.517   4.572   4.287 -3.2811 -1.7728 -1.9686
20350SOL    HW263251   5.430   4.641   4.184  0.6761  3.4274 -2.2615
20351SOL     OW63252   5.953   7.277   7.144  0.2598 -0.2717 -0.5377
20351SOL    HW163253   5.936   7.366   7.175  1.9957  0.1199 -0.6108
20351SOL    HW263254   5.900   7.268   7.065 -2.1048 -0.3124  0.9558
20352SOL     OW63255   8.649   2.121   6.648 -0.1015  0.2503 -0.6418
20352SOL    HW163256   8.697   2.203   6.637  0.4649 -0.2550 -2.2775
20352SOL    HW263257   8.585   2.121   6.577 -0.9558 -0.1482  0.1156
20353SOL     OW63258   6.994   1.649   5.629  0.7944 -0.4718 -0.0467
20353SOL    HW163259   7.016   1.586   5.560  1.4162 -0.7529  0.3991
20353SOL    HW263260   6.901   1.669   5.615  1.2775  0.7126 -1.9688
20354SOL     OW63261   3.781   8.282   7.131 -0.2146  0.3868 -0.2758
20354SOL    HW163262   3.707   8.246   7.181  1.0618  0.1886  1.5681
20354SOL    HW263263   3.857   8.235   7.164  0.7517  0.3938 -2.3326
20355SOL     OW63264   6.200   0.619   0.513 -0.3619 -0.0871  0.8926
20355SOL    HW163265   6.243   0.703   0.498 -1.9021  0.6977  0.6140
20355SOL    HW263266   6.115   0.628   0.469 -0.4980 -1.8503  0.7463
20356SOL     OW63267   2.017   5.577   9.353  0.4013 -0.2891 -0.0946
20356SOL    HW163268   1.968   5.497   9.371  0.6147 -0.8123 -1.6880
20356SOL    HW263269   2.085   5.580   9.420  0.7566 -1.7499 -0.3744
20357SOL     OW63270   1.663   7.321   8.669  0.3536  0.4521 -0.1475
20357SOL    HW163271   1.683   7.250   8.609  1.1610  0.8088 -0.3210
20357SOL    HW263272   1.625   7.389   8.613 -0.4216  0.1643  0.0187
20358SOL     OW63273   4.436   3.238   6.358  0.2944  0.2456  0.1327
20358SOL    HW163274   4.411   3.268   6.446 -0.3070 -2.3445  0.9365
20358SOL    HW263275   4.394   3.299   6.299 -0.7517  1.0352  1.6325
20359SOL     OW63276   2.931   5.699   2.941  1.0509  0.1105 -0.4878
20359SOL    HW163277   3.012   5.750   2.928  0.1491  1.3735 -1.3655
20359SOL    HW263278   2.882   5.711   2.860 -1.1508  1.4933  0.9710
20360SOL     OW63279   4.324   8.050   9.516  0.0046  0.0603 -0.4287
20360SOL    HW163280   4.346   8.048   9.609  0.6206 -0.6290 -0.5871
20360SOL    HW263281   4.281   7.966   9.499 -0.1621  0.2071 -0.7583
20361SOL     OW63282   4.847   7.615   6.270  0.6452  0.0562 -0.5032
20361SOL    HW163283   4.836   7.525   6.299 -0.7434  1.2270  3.2476
20361SOL    HW263284   4.934   7.618   6.231  1.3528 -2.5956  0.6485
20362SOL     OW63285   1.051   6.785   5.725  0.0167  0.2909  0.0507
20362SOL    HW163286   1.012   6.829   5.649  2.2231  1.5762 -0.4302
20362SOL    HW263287   1.143   6.775   5.702  1.1283  2.1362  3.1185
20363SOL     OW63288   0.351   2.499   9.499 -0.4415  0.5474 -0.3300
20363SOL    HW163289   0.431   2.500   9.447 -0.1789 -0.0192  0.0567
20363SOL    HW263290   0.326   2.407   9.503  0.4563  0.3259  1.9095
20364SOL     OW63291   1.998   7.399   5.552  0.4995 -0.3027 -0.2557
20364SOL    HW163292   2.058   7.324   5.559  0.6436 -0.2247 -0.6428
20364SOL    HW263293   2.011   7.447   5.634  0.0741 -0.9426  0.1990
20365SOL     OW63294   7.931   4.511   1.694  0.4097  0.4344  0.6072
20365SOL    HW163295   7.864   4.579   1.698  0.9098  0.9572  0.3264
20365SOL    HW263296   7.883   4.431   1.675 -0.2829  0.5575  1.7401
20366SOL     OW63297   2.276   6.931   0.966  0.4331 -0.1577  0.6058
20366SOL    HW163298   2.303   6.998   1.028  1.0780  1.9615 -1.8078
20366SOL    HW263299   2.348   6.867   0.966  0.7467  0.1901  1.4891
20367SOL     OW63300   1.651   5.662   6.975 -0.3681 -0.1149  0.6994
20367SOL    HW163301   1.734   5.699   7.006 -0.7532  1.0312  0.3973
20367SOL    HW263302   1.677   5.588   6.919  0.5892  1.5109 -1.1474
20368SOL     OW63303   8.564   4.540   6.318  0.3977 -0.1424 -0.4208
20368SOL    HW163304   8.554   4.630   6.348 -0.7194  0.0148 -1.2167
20368SOL    HW263305   8.476   4.513   6.291  0.7603 -1.3853 -0.4412
20369SOL     OW63306   2.706   4.146   7.552 -0.2830  0.3601 -0.3111
20369SOL    HW163307   2.708   4.068   7.496  1.5380 -0.2338  0.4924
20369SOL    HW263308   2.753   4.213   7.503 -0.1067  0.3410 -0.1677
20370SOL     OW63309   8.980   1.377   8.884  0.1181  0.6061 -0.3169
20370SOL    HW163310   8.884   1.383   8.875  0.0455 -0.1651 -0.1826
20370SOL    HW263311   8.994   1.294   8.929  0.8857  0.4033 -0.9105
20371SOL     OW63312   0.675   2.882   6.465 -0.2761  0.3279 -0.1361
20371SOL    HW163313   0.626   2.802   6.445 -0.0906  0.0469  0.5333
20371SOL    HW263314   0.689   2.879   6.559  0.9576  0.4517 -0.2993
20372SOL     OW63315   5.478   5.709   5.229 -0.4161  0.1222  0.5944
20372SOL    HW163316   5.438   5.622   5.234  0.8958 -0.9592 -3.7269
20372SOL    HW263317   5.410   5.765   5.193  0.0367 -0.2632 -0.9255
20373SOL     OW63318   9.537   7.970   4.014  0.0772 -0.5288 -0.3352
20373SOL    HW163319   9.504   7.890   3.973  1.6354 -0.3517 -2.0752
20373SOL    HW263320   9.575   8.020   3.942 -1.8666  2.3976  0.4936
20374SOL     OW63321   0.158   8.057   6.025 -0.2008 -0.0134  0.0373
20374SOL    HW163322   0.235   8.001   6.017 -0.6720 -0.8038  0.9465
20374SOL    HW263323   0.154   8.103   5.941 -0.9307 -2.7593 -1.5455
20375SOL     OW63324   7.695   8.063   0.056  0.5802 -0.8438  0.4640
20375SOL    HW163325   7.759   8.065   0.128  0.7266 -1.2309  0.3440
20375SOL    HW263326   7.726   8.129  -0.006  0.3649 -0.3914  0.8264
20376SOL     OW63327   5.488   2.851   5.896  0.2005  0.8353  0.6828
20376SOL    HW163328   5.516   2.780   5.952  2.0830 -0.8722 -2.1588
20376SOL    HW263329   5.443   2.808   5.823 -0.8114  2.7984  0.0563
20377SOL     OW63330   5.191   2.222   5.211  0.8312 -0.7846  0.1444
20377SOL    HW163331   5.199   2.162   5.137  0.5258 -1.8103  0.9170
20377SOL    HW263332   5.149   2.300   5.175  1.1306 -1.0710 -0.8578
20378SOL     OW63333   0.353   2.399   8.148  0.3951  0.0675  0.3968
20378SOL    HW163334   0.310   2.477   8.181  0.1610  1.3981 -2.6939
20378SOL    HW263335   0.293   2.365   8.081  1.5439 -1.4422  0.0704
20379SOL     OW63336   6.399   4.900   7.007 -0.2465  0.2011  0.1554
20379SOL    HW163337   6.437   4.984   7.034  2.1414 -0.7436  0.0051
20379SOL    HW263338   6.397   4.904   6.911  1.2690 -0.4031  0.0620
20380SOL     OW63339   4.726   2.415   5.117  0.1007 -0.3607  0.2646
20380SOL    HW163340   4.729   2.322   5.097  0.6886 -0.1687 -0.6140
20380SOL    HW263341   4.731   2.458   5.032  1.8739  0.4897  0.7427
20381SOL     OW63342   5.627   1.922   8.164  0.4682  0.5099 -0.4460
20381SOL    HW163343   5.582   1.877   8.093  2.6486 -0.3203 -1.4127
20381SOL    HW263344   5.598   1.877   8.244 -0.9732  0.5458 -0.9249
20382SOL     OW63345   9.183   1.808   7.728 -0.2374 -1.0252 -0.0790
20382SOL    HW163346   9.242   1.883   7.722 -1.7287  0.0847 -1.8786
20382SOL    HW263347   9.167   1.797   7.822 -1.8148  2.4808  0.2086
20383SOL     OW63348   8.901   3.027   3.822  0.1330  0.0805  0.0654
20383SOL    HW163349   8.919   2.943   3.780 -0.2131 -0.1359  0.3428
20383SOL    HW263350   8.855   3.078   3.756  0.5793  0.1518 -0.1947
20384SOL     OW63351   1.260   3.303   3.006 -0.1005  0.2880 -0.3316
20384SOL    HW163352   1.178   3.344   2.978 -0.5150  0.3771  0.9432
20384SOL    HW263353   1.274   3.335   3.095  0.4309 -1.0536  0.0958
20385SOL     OW63354   4.159   6.500   2.921 -0.0642 -0.1411 -0.5581
20385SOL    HW163355   4.141   6.468   3.009 -0.3874  0.9955 -0.2002
20385SOL    HW263356   4.206   6.582   2.934  2.4421 -1.3329 -1.4575
20386SOL     OW63357   0.233   8.863   8.012  0.4788 -0.9897 -0.3997
20386SOL    HW163358   0.204   8.920   8.084  1.0722 -0.8349 -0.2770
20386SOL    HW263359   0.172   8.790   8.014  0.0335 -0.6248 -0.2127
20387SOL     OW63360   6.058   3.878   7.483 -0.3550  0.4552 -0.3695
20387SOL    HW163361   6.082   3.786   7.496  0.0109  0.7796  1.4853
20387SOL    HW263362   6.100   3.924   7.555 -0.0507  2.1895 -1.5920
20388SOL     OW63363   1.821   9.041   8.462  0.3545 -0.4776  0.0541
20388SOL    HW163364   1.915   9.058   8.466  0.1353  0.8611  0.1283
20388SOL    HW263365   1.808   8.992   8.381  1.4953 -3.6304  1.6429
20389SOL     OW63366   1.917   3.804   6.016  0.1429  0.4872 -0.4436
20389SOL    HW163367   2.003   3.797   5.976 -0.6442  0.0993 -2.1880
20389SOL    HW263368   1.933   3.834   6.105  2.1031 -0.1848 -0.5390
20390SOL     OW63369   7.198   3.529   4.413 -0.2703 -0.1351 -0.3255
20390SOL    HW163370   7.288   3.503   4.398  0.0555 -0.5483  1.9714
20390SOL    HW263371   7.158   3.453   4.455 -1.4829  0.3190 -0.6196
20391SOL     OW63372   9.173   1.781   8.810  0.1339  0.4508  0.1342
20391SOL    HW163373   9.156   1.724   8.885  0.5715  0.1876  0.0390
20391SOL    HW263374   9.156   1.726   8.734  0.9701  0.3046  0.0396
20392SOL     OW63375   6.391   6.781   1.034 -0.1733 -0.1127 -0.4895
20392SOL    HW163376   6.476   6.774   1.078 -0.0110  1.2812 -0.5321
20392SOL    HW263377   6.337   6.833   1.094 -0.5362  0.2332 -1.1001
20393SOL     OW63378   0.595   8.441   1.776 -0.4470 -0.4900 -0.3786
20393SOL    HW163379   0.667   8.473   1.831 -1.0018 -1.3137  0.8658
20393SOL    HW263380   0.639   8.405   1.699  0.5341 -1.4488  0.5858
20394SOL     OW63381   3.837   1.149   2.424  0.3492 -0.5439 -0.2520
20394SOL    HW163382   3.744   1.153   2.400  0.5386 -1.7332 -1.3518
20394SOL    HW263383   3.839   1.175   2.516 -1.3053 -2.0755  0.2915
20395SOL     OW63384   3.034   3.987   4.797 -0.1878 -0.0123  0.1103
20395SOL    HW163385   3.001   4.034   4.873 -0.3138 -2.8961  2.0037
20395SOL    HW263386   3.129   3.985   4.808 -0.1237  0.3260 -0.3254
20396SOL     OW63387   5.297   1.496   4.384 -0.2119 -0.1582 -0.1448
20396SOL    HW163388   5.370   1.539   4.428 -1.2138  0.9083  0.5424
20396SOL    HW263389   5.314   1.403   4.396  1.3390  0.0467 -0.5349
20397SOL     OW63390   7.431   7.993   6.439 -0.0691  0.1727  0.0338
20397SOL    HW163391   7.394   8.080   6.455 -0.3149 -0.0476  0.7076
20397SOL    HW263392   7.526   8.005   6.446 -0.0657  0.5006 -0.4902
20398SOL     OW63393   0.035   3.102   6.054 -0.6096  0.7376  0.0750
20398SOL    HW163394   0.124   3.114   6.021 -0.3178 -0.9525  0.1407
20398SOL    HW263395   0.027   3.008   6.067 -2.4841  0.8302 -0.1150
20399SOL     OW63396   9.520   9.145   3.444  0.3818  0.0594 -0.0083
20399SOL    HW163397   9.572   9.177   3.518  0.5391  0.7272 -0.4028
20399SOL    HW263398   9.502   9.223   3.392  2.3795 -0.7321 -2.0167
20400SOL     OW63399   6.444   1.299   5.078 -0.4893  0.3550 -0.0050
20400SOL    HW163400   6.357   1.261   5.077  0.0851 -1.0143 -0.6306
20400SOL    HW263401   6.463   1.313   5.171 -1.5481  1.1504  0.1142
20401SOL     OW63402   8.781   7.881   6.066 -0.3467 -0.7501 -0.3908
20401SOL    HW163403   8.725   7.917   6.135 -0.9540 -0.8686 -0.8134
20401SOL    HW263404   8.868   7.879   6.105 -0.4155  0.5673 -0.1408
20402SOL     OW63405   1.657   5.491   9.261 -0.0265  0.1099  0.0371
20402SOL    HW163406   1.619   5.549   9.327  1.5835  0.1195  1.0113
20402SOL    HW263407   1.746   5.525   9.248  0.5301 -1.4072 -0.2760
20403SOL     OW63408   8.538   0.927   0.795  0.7033  0.1601 -0.0777
20403SOL    HW163409   8.556   1.020   0.783  1.7556 -0.0420 -0.1000
20403SOL    HW263410   8.560   0.910   0.887 -0.2855  0.1045  0.1602
20404SOL     OW63411   7.018   4.446   5.940 -0.1972 -0.1036  0.5397
20404SOL    HW163412   6.991   4.502   5.867 -0.0696 -0.3319  0.3191
20404SOL    HW263413   6.954   4.374   5.941 -0.6136  0.2567  1.0837
20405SOL     OW63414   1.869   4.510   1.904 -0.1633 -0.0797  0.8061
20405SOL    HW163415   1.777   4.484   1.910  0.1690 -2.3399 -1.8528
20405SOL    HW263416   1.896   4.524   1.994 -3.2999  1.5484  1.6257
20406SOL     OW63417   9.132   1.604   1.136 -0.0326  0.5106  0.4233
20406SOL    HW163418   9.058   1.650   1.175  1.1898  1.8492  1.2411
20406SOL    HW263419   9.209   1.648   1.171  1.1526  0.2283 -1.6831
20407SOL     OW63420   4.373   3.519   7.458  0.0580  0.0614 -0.5956
20407SOL    HW163421   4.464   3.513   7.487 -0.1341 -0.6653 -0.1246
20407SOL    HW263422   4.322   3.520   7.540 -0.4680 -1.6011 -0.8640
20408SOL     OW63423   5.865   1.729   6.481 -0.5848 -0.8340  0.3037
20408SOL    HW163424   5.794   1.674   6.448 -1.0391 -0.1529  0.1458
20408SOL    HW263425   5.934   1.666   6.505 -0.6035 -1.4022 -1.0447
20409SOL     OW63426   0.328   2.879   9.468  0.3074 -0.5518 -0.3169
20409SOL    HW163427   0.351   2.786   9.461  2.2171 -0.0610 -1.1568
20409SOL    HW263428   0.311   2.906   9.378  0.3409  0.0494 -0.1465
20410SOL     OW63429   4.199   1.355   4.157  0.2473  0.0840 -0.5385
20410SOL    HW163430   4.192   1.260   4.148  0.4928  0.1071 -1.0024
20410SOL    HW263431   4.289   1.369   4.188 -0.2026  0.0851  0.8302
20411SOL     OW63432   4.527   4.030   4.865 -0.3101  0.0985  0.1106
20411SOL    HW163433   4.445   4.063   4.902 -0.1989 -1.9747  2.4527
20411SOL    HW263434   4.589   4.031   4.938  0.7059 -1.8011 -0.6402
20412SOL     OW63435   5.120   8.455   4.597 -0.0586 -0.7278  0.3577
20412SOL    HW163436   5.125   8.550   4.600 -0.6750 -0.7062  1.4526
20412SOL    HW263437   5.027   8.435   4.605 -0.0142 -1.4159 -0.6513
20413SOL     OW63438   5.965   7.117   6.846  0.2155 -0.4745  0.0637
20413SOL    HW163439   5.916   7.107   6.765  1.4224 -0.1101 -0.7336
20413SOL    HW263440   5.988   7.210   6.849  3.5678 -1.0982 -1.2596
20414SOL     OW63441   4.001   1.756   0.419  0.5615 -0.5346  0.0514
20414SOL    HW163442   3.913   1.766   0.455  1.0287  0.5395  0.9657
20414SOL    HW263443   4.000   1.808   0.338  0.7497  0.7189  0.8197
20415SOL     OW63444   8.069   5.279   0.083 -0.5132 -0.2957  0.2991
20415SOL    HW163445   8.146   5.237   0.122 -0.3279 -0.0548  0.2002
20415SOL    HW263446   8.004   5.210   0.077  0.1012 -0.8064 -0.7447
20416SOL     OW63447   8.787   8.505   7.320 -0.0199  0.2641 -0.2062
20416SOL    HW163448   8.703   8.461   7.306  0.9496 -1.3274 -1.4026
20416SOL    HW263449   8.826   8.510   7.233  2.9641 -3.0242  0.7108
20417SOL     OW63450   2.949   2.799   1.826  0.3756  0.6333 -0.0529
20417SOL    HW163451   2.943   2.716   1.780  2.4435 -1.5747  3.2600
20417SOL    HW263452   3.001   2.855   1.768  1.3763 -1.3682 -1.1684
20418SOL     OW63453   0.768   4.805   0.749 -0.0079  0.4664 -0.4096
20418SOL    HW163454   0.750   4.714   0.775  1.1381 -0.1119 -1.5233
20418SOL    HW263455   0.736   4.811   0.659 -0.6059  1.3565 -0.1510
20419SOL     OW63456   7.908   5.029   1.337  0.1862 -0.5745 -0.3300
20419SOL    HW163457   7.909   4.970   1.412  2.6113  1.4349  1.4002
20419SOL    HW263458   7.855   5.104   1.365 -0.2824 -0.5220 -1.2921
20420SOL     OW63459   2.519   4.468   4.385 -0.0156  0.0544  0.1368
20420SOL    HW163460   2.552   4.432   4.302 -1.2450 -0.9267  0.0505
20420SOL    HW263461   2.598   4.476   4.440  0.9189  1.3092 -1.2936
20421SOL     OW63462   4.225   8.702   8.136  0.1746  0.2722  0.1965
20421SOL    HW163463   4.147   8.687   8.083  0.3665 -1.8018  0.4137
20421SOL    HW263464   4.287   8.743   8.076 -0.3802  0.0467 -0.5532
20422SOL     OW63465   8.683   7.065   4.576  0.0059  0.1644  0.0648
20422SOL    HW163466   8.659   7.007   4.648  1.0599  0.5094  0.7324
20422SOL    HW263467   8.706   7.007   4.504  2.5990 -0.3886  1.2131
20423SOL     OW63468   5.757   2.520   7.861 -0.2064  0.3521  0.0338
20423SOL    HW163469   5.734   2.438   7.816  0.5338 -0.7544  1.5878
20423SOL    HW263470   5.753   2.586   7.792 -0.4682 -1.0440 -1.3661
20424SOL     OW63471   1.517   5.661   4.104  0.2368 -0.2837  0.4973
20424SOL    HW163472   1.430   5.629   4.081 -0.6312  2.3089 -0.1110
20424SOL    HW263473   1.577   5.598   4.062 -1.3255 -1.0110 -0.7561
20425SOL     OW63474   4.609   6.805   3.823  0.4189  0.6862  0.0090
20425SOL    HW163475   4.621   6.802   3.918  1.6707 -0.9318 -0.1790
20425SOL    HW263476   4.693   6.777   3.786 -0.4010  0.1612 -1.5606
20426SOL     OW63477   8.423   4.616   5.186  0.3516 -0.7952  0.8772
20426SOL    HW163478   8.504   4.575   5.154  0.0386 -0.6296 -0.1734
20426SOL    HW263479   8.367   4.622   5.108 -0.5167 -0.5326  1.5066
20427SOL     OW63480   6.084   8.046   2.968  0.1843  0.5402 -0.7634
20427SOL    HW163481   6.088   8.066   3.062 -0.1367  0.1489 -0.6611
20427SOL    HW263482   6.045   8.123   2.928 -0.7905  0.2451 -0.4117
20428SOL     OW63483   5.850   7.476   3.701 -0.0805  0.7052 -0.4819
20428SOL    HW163484   5.856   7.388   3.664 -0.4156  0.7516 -0.6563
20428SOL    HW263485   5.757   7.498   3.695 -0.0224  1.0082 -0.2938
20429SOL     OW63486   1.082   4.124   1.482  0.2535  0.3095 -0.0692
20429SOL    HW163487   1.144   4.058   1.450 -0.2366 -0.4987  0.5978
20429SOL    HW263488   1.063   4.177   1.405 -0.6153 -1.3489 -1.0721
20430SOL     OW63489   2.494   6.699   4.750 -0.0902 -0.8627 -0.4489
20430SOL    HW163490   2.452   6.784   4.741 -0.5174 -1.2205 -2.1760
20430SOL    HW263491   2.528   6.698   4.839  1.7606  1.9763 -0.9914
20431SOL     OW63492   5.088   3.271   3.603 -0.0664  0.3310 -0.0025
20431SOL    HW163493   5.169   3.224   3.627  0.0743 -0.3260 -1.6422
20431SOL    HW263494   5.042   3.282   3.686  0.7889 -1.0585  0.7046
20432SOL     OW63495   7.274   1.209   5.882  0.2252  0.2134 -0.1395
20432SOL    HW163496   7.258   1.124   5.842  0.0859  0.1896 -0.0336
20432SOL    HW263497   7.366   1.206   5.908 -0.3467 -0.7862  1.9650
20433SOL     OW63498   0.353   1.724   7.026 -0.3130 -0.3442 -0.8148
20433SOL    HW163499   0.413   1.796   7.044  0.1400 -1.0704  0.7898
20433SOL    HW263500   0.319   1.742   6.938  1.4819  0.6304 -1.3697
20434SOL     OW63501   2.652   6.961   4.097  0.1393  0.4487 -0.3854
20434SOL    HW163502   2.634   7.054   4.082  0.5071  0.5947  0.0473
20434SOL    HW263503   2.567   6.924   4.120  0.0261  0.7283 -0.3400
20435SOL     OW63504   1.108   6.694   8.217 -0.1790 -0.4259 -0.3559
20435SOL    HW163505   1.113   6.776   8.168  1.0719  0.6529  1.4730
20435SOL    HW263506   1.177   6.640   8.180 -0.1136 -0.1323 -0.6676
20436SOL     OW63507   7.961   8.426   8.557  0.1123  0.6624  0.0536
20436SOL    HW163508   7.954   8.477   8.476 -0.6963  1.1186  0.3977
20436SOL    HW263509   7.943   8.336   8.531 -1.3407  0.9745 -0.0926
20437SOL     OW63510   0.545   2.065   0.425  0.4471 -0.4135  0.9712
20437SOL    HW163511   0.573   2.147   0.386 -2.5280 -0.8281 -2.5008
20437SOL    HW263512   0.454   2.079   0.450  0.9744 -1.5820  4.0334
20438SOL     OW63513   1.666   1.745   0.660 -0.3349  0.5476 -0.2115
20438SOL    HW163514   1.681   1.822   0.715 -0.1118  1.7543 -1.9145
20438SOL    HW263515   1.690   1.671   0.716  1.0526  1.7951  0.9190
20439SOL     OW63516   8.958   3.225   9.352  0.4815 -0.0247 -0.8174
20439SOL    HW163517   8.934   3.278   9.276  1.6238 -1.9434 -2.6157
20439SOL    HW263518   9.033   3.270   9.391  0.5121  0.4463 -1.4193
20440SOL     OW63519   2.222   8.598   5.158 -0.3037  0.5729  0.3276
20440SOL    HW163520   2.218   8.656   5.082  3.4391  1.4120  0.5666
20440SOL    HW263521   2.144   8.544   5.151 -1.6724  2.6335 -2.3946
20441SOL     OW63522   7.496   2.147   2.499 -0.2845  0.2096 -0.0077
20441SOL    HW163523   7.569   2.086   2.509  0.9151  1.5988  0.0305
20441SOL    HW263524   7.435   2.102   2.441  0.7035 -0.9014 -0.2240
20442SOL     OW63525   7.393   6.139   2.170  0.0185 -0.6973  0.4416
20442SOL    HW163526   7.339   6.064   2.146  1.5590 -2.0330  0.9952
20442SOL    HW263527   7.477   6.124   2.125  0.6046  0.2935  1.1621
20443SOL     OW63528   1.710   8.311   5.828 -1.3716  0.6168  0.1191
20443SOL    HW163529   1.666   8.318   5.913 -1.8101  1.5068 -0.1742
20443SOL    HW263530   1.791   8.263   5.847 -2.9623 -2.1641  0.4764
20444SOL     OW63531   5.885   6.036   7.654 -0.0234 -0.0135 -0.2257
20444SOL    HW163532   5.833   6.094   7.709 -0.3785  0.0989 -0.6731
20444SOL    HW263533   5.975   6.050   7.681  0.0662  1.8647 -1.3368
20445SOL     OW63534   1.486   5.764   0.197 -0.0906 -0.2690  0.1791
20445SOL    HW163535   1.469   5.823   0.123 -1.3055  0.0291  0.6691
20445SOL    HW263536   1.564   5.801   0.239 -0.0464  0.2028 -0.2980
20446SOL     OW63537   9.023   2.001   7.116  0.3102  0.4008  0.0217
20446SOL    HW163538   9.079   2.066   7.159  0.5548 -0.7780  1.5677
20446SOL    HW263539   8.935   2.039   7.119  0.3739  0.4902  1.3216
20447SOL     OW63540   0.747   6.229   4.873 -0.0707  0.2025  0.1409
20447SOL    HW163541   0.660   6.250   4.906 -0.4043 -2.2035  0.9158
20447SOL    HW263542   0.801   6.219   4.951  0.2806 -0.8364 -0.2162
20448SOL     OW63543   0.536   8.765   6.947  0.2906 -0.7621 -0.3872
20448SOL    HW163544   0.456   8.814   6.964  1.2791  0.3186  1.3915
20448SOL    HW263545   0.543   8.764   6.851 -1.3022 -0.0232 -0.5479
20449SOL     OW63546   4.775   2.413   8.858  0.5872 -0.0535 -0.5594
20449SOL    HW163547   4.858   2.390   8.815 -0.1348 -3.1369 -0.5784
20449SOL    HW263548   4.709   2.400   8.790  0.0145  2.1557 -0.4805
20450SOL     OW63549   6.687   1.992   8.152  0.6092  0.3359 -0.2328
20450SOL    HW163550   6.711   1.920   8.210  0.5970  1.2895  1.0157
20450SOL    HW263551   6.599   2.016   8.178  0.0443 -0.1193 -1.6372
20451SOL     OW63552   6.209   1.471   5.507  0.0976  0.5471  0.3591
20451SOL    HW163553   6.267   1.547   5.497 -0.1024  0.8245  1.2216
20451SOL    HW263554   6.141   1.500   5.568 -1.4473  0.4959 -1.2505
20452SOL     OW63555   8.877   2.816   5.393  0.3619  0.3909  0.5130
20452SOL    HW163556   8.784   2.792   5.402  0.4123 -0.0260 -0.0535
20452SOL    HW263557   8.924   2.733   5.397  0.5934  0.4371 -0.7602
20453SOL     OW63558   7.829   0.581   8.458 -0.0720  0.3806 -0.2649
20453SOL    HW163559   7.908   0.603   8.508 -1.4919  0.1303  2.2535
20453SOL    HW263560   7.767   0.550   8.523 -2.2818  0.5547 -2.1438
20454SOL     OW63561   1.583   5.420   8.937  0.0377  0.1307 -0.2010
20454SOL    HW163562   1.600   5.444   8.845 -1.5840 -0.0807 -0.5860
20454SOL    HW263563   1.604   5.327   8.941 -3.5251 -0.8974 -1.4445
20455SOL     OW63564   4.155   3.832   7.573 -0.0030  0.1024  0.0835
20455SOL    HW163565   4.061   3.848   7.563  0.4917  2.8845 -0.8945
20455SOL    HW263566   4.193   3.918   7.589  2.4769 -0.8628 -0.1668
20456SOL     OW63567   2.949   6.563   5.875 -0.9364  0.0648  0.1062
20456SOL    HW163568   2.884   6.602   5.817 -1.4178 -0.0899  0.5353
20456SOL    HW263569   2.926   6.596   5.962 -0.0425  0.5282  0.1751
20457SOL     OW63570   8.316   1.669   3.784 -0.2038  0.7040  0.5042
20457SOL    HW163571   8.395   1.696   3.738  1.3361  0.1304  2.6404
20457SOL    HW263572   8.282   1.595   3.734  1.2322  0.2741  0.1406
20458SOL     OW63573   7.202   7.467   0.021 -0.1929 -0.4921  0.0137
20458SOL    HW163574   7.164   7.428   0.100  0.6688  0.4397  0.9395
20458SOL    HW263575   7.142   7.444  -0.049 -1.0778 -1.2134  0.9732
20459SOL     OW63576   7.372   6.515   9.541  0.5377  0.0920 -0.1308
20459SOL    HW163577   7.295   6.460   9.531 -0.6083  1.7405 -0.9805
20459SOL    HW263578   7.352   6.572   9.615  1.6490 -0.5042  0.6659
20460SOL     OW63579   5.807   5.744   9.485 -0.7585 -0.8260  0.0856
20460SOL    HW163580   5.754   5.700   9.552 -0.3138 -0.8111  0.4455
20460SOL    HW263581   5.810   5.682   9.413 -1.9814 -0.4891 -0.2779
20461SOL     OW63582   3.603   9.476   4.402  0.1265 -0.2843  0.0069
20461SOL    HW163583   3.625   9.475   4.495 -2.0599  1.5199  0.6282
20461SOL    HW263584   3.554   9.558   4.389  2.3646  0.7622 -3.2507
20462SOL     OW63585   2.708   5.752   8.701 -0.6154 -0.1469  0.1419
20462SOL    HW163586   2.787   5.790   8.663 -0.5719 -0.5440 -0.1697
20462SOL    HW263587   2.660   5.827   8.736 -0.2725  0.1346  0.0146
20463SOL     OW63588   5.064   0.316   3.650 -0.3716 -0.0767  0.0884
20463SOL    HW163589   5.145   0.265   3.657  0.0524  0.5673 -0.0327
20463SOL    HW263590   5.051   0.353   3.737  0.5582  1.4337 -0.3843
20464SOL     OW63591   5.595   4.562   7.527  0.3129 -0.3124 -0.2823
20464SOL    HW163592   5.596   4.611   7.445  0.5834  0.7116  0.3184
20464SOL    HW263593   5.508   4.578   7.564  0.5172 -0.0220  0.0727
20465SOL     OW63594   6.434   3.182   8.140  0.1690  0.6477 -0.0122
20465SOL    HW163595   6.456   3.186   8.233 -0.8589 -2.7323  0.5186
20465SOL    HW263596   6.345   3.146   8.138  0.2317  0.4891 -2.3283
20466SOL     OW63597   6.177   3.532   1.139  0.2212 -0.4342 -0.5390
20466SOL    HW163598   6.098   3.506   1.186 -0.5967 -0.4150 -1.8564
20466SOL    HW263599   6.248   3.486   1.186 -0.3442  0.6948  1.5539
20467SOL     OW63600   0.658   7.089   0.652 -0.4353  0.1735 -0.2238
20467SOL    HW163601   0.576   7.041   0.645 -1.0503  0.9058  1.3592
20467SOL    HW263602   0.680   7.115   0.563 -1.9764  0.0376 -0.6564
20468SOL     OW63603   2.120   3.723   6.214 -0.2895 -0.3164  0.0934
20468SOL    HW163604   2.117   3.816   6.236  0.0736 -0.8016  2.4174
20468SOL    HW263605   2.149   3.721   6.123  0.0257  1.8307  0.0980
20469SOL     OW63606   5.261   9.002   0.121  0.0153  0.5036 -0.6408
20469SOL    HW163607   5.174   8.974   0.092 -0.7093  0.0113  1.8102
20469SOL    HW263608   5.251   9.096   0.137 -0.3546  0.2797  0.5160
20470SOL     OW63609   3.937   1.655   3.645 -0.2771 -0.0196  0.4487
20470SOL    HW163610   3.972   1.709   3.716 -1.1018  1.9001 -0.5334
20470SOL    HW263611   3.995   1.673   3.571 -2.4004  2.1422 -0.8154
20471SOL     OW63612   7.107   8.586   8.214  0.2817  0.1813  0.1694
20471SOL    HW163613   7.077   8.500   8.244  0.8453 -0.6613 -1.5005
20471SOL    HW263614   7.200   8.588   8.236  0.1081  0.7061  0.8919
20472SOL     OW63615   7.946   7.959   7.518 -0.1376 -0.3893 -0.1236
20472SOL    HW163616   7.990   7.879   7.549 -1.1112 -0.2170  1.8783
20472SOL    HW263617   7.858   7.954   7.554 -0.4563  1.2512 -0.5697
20473SOL     OW63618   6.493   8.758   9.552  0.1628  0.5373 -0.4796
20473SOL    HW163619   6.472   8.718   9.468  1.3105  0.5864 -0.8094
20473SOL    HW263620   6.414   8.806   9.577 -0.3671  0.0889 -1.2700
20474SOL     OW63621   0.800   7.487   9.193  0.7919  0.2402 -0.1468
20474SOL    HW163622   0.776   7.448   9.109  0.9963  0.1133 -0.1467
20474SOL    HW263623   0.893   7.507   9.184  0.8827 -0.0477  0.1594
20475SOL     OW63624   0.549   0.747   6.140 -0.0290  0.9053  0.0924
20475SOL    HW163625   0.468   0.767   6.094  0.0977 -0.9457 -1.0549
20475SOL    HW263626   0.521   0.690   6.212 -0.0495  2.6103  1.4916
20476SOL     OW63627   2.786   8.074   5.818  0.1133  0.0279 -0.3087
20476SOL    HW163628   2.775   8.066   5.913  0.1695  0.0897 -0.2967
20476SOL    HW263629   2.764   7.987   5.784 -0.5748  0.1964 -0.3032
20477SOL     OW63630   1.520   0.235   1.586 -0.0221 -0.2111 -0.1367
20477SOL    HW163631   1.564   0.266   1.665  0.2832  1.9390 -1.0680
20477SOL    HW263632   1.488   0.315   1.544 -3.1903 -1.4968 -0.4837
20478SOL     OW63633   3.666   7.604   5.657 -0.3061 -0.0238 -0.2951
20478SOL    HW163634   3.718   7.525   5.673 -2.2757 -1.6850 -1.5865
20478SOL    HW263635   3.731   7.673   5.640  1.4637 -1.4149  0.5687
20479SOL     OW63636   9.158   8.784   6.593 -0.5747  0.5679 -0.2943
20479SOL    HW163637   9.220   8.850   6.624  1.3906 -1.3081  0.0429
20479SOL    HW263638   9.161   8.792   6.498 -0.9896  1.4909 -0.2382
20480SOL     OW63639   9.389   5.172   1.793  0.3472  0.1985  0.1827
20480SOL    HW163640   9.452   5.240   1.771  0.7911 -0.5062 -0.7697
20480SOL    HW263641   9.433   5.090   1.772 -1.1983 -0.2921 -1.3995
20481SOL     OW63642   3.322   1.683   2.002  0.3179  0.1303 -0.0685
20481SOL    HW163643   3.252   1.747   2.011  1.3609  1.9307 -3.2152
20481SOL    HW263644   3.283   1.611   1.953  0.4589  0.7859 -1.1568
20482SOL     OW63645   7.523   1.218   5.390 -0.3031  0.1650  0.2406
20482SOL    HW163646   7.488   1.157   5.326  2.7616 -1.1180 -0.4108
20482SOL    HW263647   7.518   1.172   5.474  0.6169 -0.4117 -0.0055
20483SOL     OW63648   1.119   4.936   6.697  0.1198 -0.3419 -0.1279
20483SOL    HW163649   1.071   4.997   6.754  0.1691 -1.1104  0.7663
20483SOL    HW263650   1.133   4.985   6.616 -1.1546  0.3015  0.0188
20484SOL     OW63651   0.925   7.375   4.507  0.6007 -0.1152  0.0444
20484SOL    HW163652   0.952   7.461   4.539  0.5388 -0.3641  0.7929
20484SOL    HW263653   0.980   7.313   4.556 -1.3087 -0.6452  1.6202
20485SOL     OW63654   9.451   6.544   8.801  0.1259 -0.4820 -0.0456
20485SOL    HW163655   9.373   6.504   8.839  0.1424  0.4043  0.9810
20485SOL    HW263656   9.418   6.597   8.728 -0.4344  0.9408  1.1908
20486SOL     OW63657   0.816   8.206   7.717  0.7855  0.3116 -0.4940
20486SOL    HW163658   0.788   8.271   7.654  1.5559  0.3540 -0.8112
20486SOL    HW263659   0.804   8.248   7.802 -0.2264  0.2646 -0.6090
20487SOL     OW63660   8.899   7.582   2.582  0.6317 -0.3537  0.0030
20487SOL    HW163661   8.966   7.518   2.607  0.7728 -0.5829 -0.9147
20487SOL    HW263662   8.829   7.530   2.545 -0.0658 -0.1099  0.9376
20488SOL     OW63663   3.634   4.982   1.990  0.1929  0.2878 -0.0442
20488SOL    HW163664   3.633   5.048   2.059 -1.3233  0.2568  0.0019
20488SOL    HW263665   3.727   4.961   1.978  0.5286  0.7326  1.5378
20489SOL     OW63666   6.728   4.674   4.052  0.1456  0.0894 -0.1547
20489SOL    HW163667   6.732   4.768   4.040  0.2741  0.3943  1.9835
20489SOL    HW263668   6.819   4.646   4.056  0.1071 -0.1081 -0.5514
20490SOL     OW63669   4.131   9.337   5.252  0.4106  0.3076 -0.4464
20490SOL    HW163670   4.211   9.350   5.303 -0.2157  0.3119  0.5636
20490SOL    HW263671   4.103   9.248   5.273 -0.4728  0.7064  0.1171
20491SOL     OW63672   0.765   8.619   7.073  0.2539 -0.0392  0.3063
20491SOL    HW163673   0.693   8.680   7.054  1.4393  0.8366 -1.6213
20491SOL    HW263674   0.724   8.550   7.125 -1.5136  1.4976  1.0913
20492SOL     OW63675   4.744   0.493   1.783  0.2319 -0.4531  0.3087
20492SOL    HW163676   4.818   0.474   1.726  0.3370 -1.0944  0.6545
20492SOL    HW263677   4.690   0.414   1.780 -0.8566  0.2910 -0.5572
20493SOL     OW63678   4.790   8.947   5.188  0.2442 -0.5325 -0.5031
20493SOL    HW163679   4.855   8.882   5.212 -0.1901 -0.6530  0.3892
20493SOL    HW263680   4.784   8.941   5.092  0.6774 -1.3394 -0.4866
20494SOL     OW63681   2.940   3.292   4.527 -0.0682 -0.7390  0.2543
20494SOL    HW163682   2.957   3.380   4.492 -0.5433 -0.9083 -0.4240
20494SOL    HW263683   2.939   3.235   4.450 -0.8298 -1.1661  0.5696
20495SOL     OW63684   1.704   5.257   7.455  0.1755 -0.0114  0.1495
20495SOL    HW163685   1.744   5.172   7.472 -0.8925 -0.7555 -0.9600
20495SOL    HW263686   1.665   5.282   7.539 -0.1813 -0.9996  0.2922
20496SOL     OW63687   0.863   7.571   6.661  0.1724 -0.3725  0.1318
20496SOL    HW163688   0.887   7.482   6.686  1.2025  0.3741  1.9422
20496SOL    HW263689   0.915   7.588   6.582 -0.8118 -1.6866 -0.8626
20497SOL     OW63690   0.399   1.905   8.748  0.3863  0.4076  0.0787
20497SOL    HW163691   0.306   1.920   8.732  0.5567 -0.3546 -1.9419
20497SOL    HW263692   0.402   1.852   8.828 -0.9439  0.0284 -0.0996
20498SOL     OW63693   5.146   2.375   3.075  0.3255  0.1537  0.4662
20498SOL    HW163694   5.201   2.298   3.087 -1.7695 -1.4694  0.2832
20498SOL    HW263695   5.067   2.355   3.124 -1.4207  0.8994 -1.8669
20499SOL     OW63696   0.427   1.178   0.596  0.1064 -0.1572 -0.1606
20499SOL    HW163697   0.415   1.112   0.664 -0.2479  0.4239  0.3547
20499SOL    HW263698   0.416   1.131   0.514 -1.5379 -0.4744  0.2196
20500SOL     OW63699   0.770   7.719   3.678  0.3988 -0.0381 -0.4232
20500SOL    HW163700   0.771   7.796   3.621 -0.0239 -0.0626 -0.4668
20500SOL    HW263701   0.861   7.711   3.709  0.3061  0.8706  0.1133
20501SOL     OW63702   9.116   4.394   0.988 -0.0299 -0.5022 -0.3751
20501SOL    HW163703   9.158   4.324   0.938  1.2662 -0.2801  0.3872
20501SOL    HW263704   9.169   4.472   0.970  1.3766 -0.6933  2.4307
20502SOL     OW63705   0.760   2.838   7.514  0.6274  0.6499 -0.3902
20502SOL    HW163706   0.741   2.758   7.563  1.1018  0.4218 -0.5704
20502SOL    HW263707   0.842   2.819   7.469 -1.5426 -0.6473 -4.3111
20503SOL     OW63708   0.672   0.427   3.061 -0.3219  0.2465  0.6822
20503SOL    HW163709   0.711   0.348   3.023 -1.2908  1.0693 -2.3411
20503SOL    HW263710   0.741   0.493   3.054 -0.8409  0.6795 -0.8748
20504SOL     OW63711   1.404   9.139   8.753  0.1767  0.0880  0.2258
20504SOL    HW163712   1.320   9.119   8.712  0.3950 -0.9012  0.2441
20504SOL    HW263713   1.466   9.142   8.680 -0.0210  1.8348  0.0803
20505SOL     OW63714   3.781   3.906   2.401 -0.3268 -0.4984 -0.3343
20505SOL    HW163715   3.774   3.824   2.450  1.0273 -0.0089  0.7264
20505SOL    HW263716   3.875   3.915   2.383 -0.3277  1.3109  0.4329
20506SOL     OW63717   4.044   4.021   6.793 -0.1779  1.1343 -0.4790
20506SOL    HW163718   4.019   4.109   6.821 -1.0061  0.7820 -0.0830
20506SOL    HW263719   4.128   4.033   6.748 -0.0216  2.0492  0.0347
20507SOL     OW63720   9.207   2.112   5.410 -0.0614  0.4153  0.0860
20507SOL    HW163721   9.297   2.084   5.428 -0.0274 -0.4505 -1.2728
20507SOL    HW263722   9.153   2.037   5.434 -0.2838  0.4298 -0.3473
20508SOL     OW63723   4.995   3.276   6.784 -0.2982 -0.1389  0.2322
20508SOL    HW163724   4.945   3.239   6.711 -0.9799  1.3891 -0.0948
20508SOL    HW263725   5.004   3.203   6.846 -4.7073 -0.0318  1.2862
20509SOL     OW63726   0.085   5.290   2.130 -0.6139  0.1353 -0.0326
20509SOL    HW163727   0.026   5.364   2.115 -0.4185  0.8562  2.3762
20509SOL    HW263728   0.089   5.281   2.225  0.1213 -2.4071 -0.2360
20510SOL     OW63729   8.264   4.507   6.609  0.0516  0.3227 -0.0794
20510SOL    HW163730   8.317   4.560   6.550 -0.5169  0.6631 -0.2941
20510SOL    HW263731   8.320   4.433   6.632  0.7873  0.9051  0.0584
20511SOL     OW63732   6.635   5.666   6.184 -0.4076  0.5091 -0.0722
20511SOL    HW163733   6.699   5.627   6.243  0.2197  0.0033 -1.0506
20511SOL    HW263734   6.688   5.703   6.113 -1.1965 -2.8400 -2.7020
20512SOL     OW63735   2.422   4.006   8.953 -0.3554  0.3426 -0.4290
20512SOL    HW163736   2.365   3.953   9.008 -0.2451 -0.5392 -1.1389
20512SOL    HW263737   2.504   4.012   9.003  0.0270 -1.1444 -0.8328
20513SOL     OW63738   6.016   0.061   3.354  0.2171  0.4454 -0.5276
20513SOL    HW163739   5.997  -0.032   3.346  0.4846  0.5320 -2.6626
20513SOL    HW263740   6.088   0.066   3.417  0.2901 -0.7975 -0.4950
20514SOL     OW63741   6.669   2.586   1.532 -0.1406 -0.1085  0.3554
20514SOL    HW163742   6.648   2.602   1.440  3.6942 -0.1497 -0.7181
20514SOL    HW263743   6.703   2.497   1.534  0.0588 -0.0217  1.7782
20515SOL     OW63744   2.448   8.935   6.796  0.0721 -0.0055 -0.4549
20515SOL    HW163745   2.388   8.966   6.729 -1.2876 -0.9206  0.3001
20515SOL    HW263746   2.524   8.902   6.747 -0.6549 -0.1697 -1.4988
20516SOL     OW63747   1.338   4.768   2.845 -0.0823 -0.3854  0.0674
20516SOL    HW163748   1.289   4.686   2.848 -1.9365  0.6612 -0.3234
20516SOL    HW263749   1.387   4.763   2.763 -1.9127 -0.2045 -1.0854
20517SOL     OW63750   2.569   6.872   9.316  0.1431  0.2205  0.2314
20517SOL    HW163751   2.603   6.820   9.389  2.1089 -1.0034 -1.4677
20517SOL    HW263752   2.519   6.810   9.263  0.7773  0.5056 -0.7301
20518SOL     OW63753   8.164   3.603   8.062 -0.3437 -0.1460  1.2542
20518SOL    HW163754   8.224   3.664   8.021 -0.4471 -0.6352  0.3356
20518SOL    HW263755   8.163   3.527   8.003 -2.7145  0.3052  0.6029
20519SOL     OW63756   7.712   3.987   0.770 -0.5314  0.0245 -0.2424
20519SOL    HW163757   7.661   3.961   0.848 -1.5590  0.0623 -0.8783
20519SOL    HW263758   7.744   3.904   0.735 -0.1282  0.0001  0.1681
20520SOL     OW63759   6.614   8.835   3.078 -0.0058 -0.6679 -0.1411
20520SOL    HW163760   6.600   8.900   3.009  0.4538 -0.7953 -0.3622
20520SOL    HW263761   6.560   8.865   3.151 -0.2764 -0.3763 -0.4566
20521SOL     OW63762   1.044   8.942   4.914 -0.2969 -0.2687 -0.3919
20521SOL    HW163763   1.126   8.987   4.938 -0.4101 -0.1036 -0.3116
20521SOL    HW263764   1.058   8.851   4.941 -1.2604  0.3222  2.4263
20522SOL     OW63765   2.823   1.221   7.404  0.3984  0.1256  0.0296
20522SOL    HW163766   2.893   1.203   7.341  0.5993 -0.5717  0.4522
20522SOL    HW263767   2.862   1.284   7.465  0.8416 -0.6408  0.5609
20523SOL     OW63768   8.856   3.807   1.703 -0.5466  0.1734 -0.1216
20523SOL    HW163769   8.869   3.846   1.789 -0.4788 -0.0634 -0.0235
20523SOL    HW263770   8.826   3.879   1.647 -1.5368  0.1357  0.3336
20524SOL     OW63771   4.113   5.073   2.682  0.1261  0.3875  0.5534
20524SOL    HW163772   4.044   5.138   2.671 -1.2128 -1.0789  0.0813
20524SOL    HW263773   4.119   5.060   2.776  0.3760  1.1325  0.6510
20525SOL     OW63774   9.118   2.131   8.272 -0.0406  0.1911 -0.2801
20525SOL    HW163775   9.208   2.162   8.281 -0.8546  2.2606  1.4592
20525SOL    HW263776   9.111   2.108   8.179  2.0626  0.5634 -0.5963
20526SOL     OW63777   5.505   2.655   7.676  0.0316  0.1280 -0.1304
20526SOL    HW163778   5.595   2.684   7.694  0.0296 -0.4352  0.8449
20526SOL    HW263779   5.507   2.628   7.585 -0.2172  4.0759 -1.5070
20527SOL     OW63780   1.634   5.985   1.656  0.1477  0.3241 -0.3295
20527SOL    HW163781   1.563   6.013   1.599 -1.2143 -1.8664  0.1989
20527SOL    HW263782   1.593   5.969   1.741  0.9834 -2.0966 -0.2994
20528SOL     OW63783   1.116   2.964   4.481  0.1200 -0.4196  0.1539
20528SOL    HW163784   1.167   3.044   4.494  0.4414 -0.3552 -1.3259
20528SOL    HW263785   1.027   2.988   4.507  0.3175  0.2780  0.2093
20529SOL     OW63786   9.194   4.807   6.403  0.1135 -0.0164  0.0364
20529SOL    HW163787   9.243   4.879   6.365 -1.6369  1.9117  1.2468
20529SOL    HW263788   9.103   4.837   6.403 -0.2625 -0.7124  3.7728
20530SOL     OW63789   9.267   5.620   4.382 -0.0743 -0.7232 -0.2852
20530SOL    HW163790   9.278   5.612   4.287  1.9900 -2.0529  0.0018
20530SOL    HW263791   9.308   5.703   4.403  2.5159 -1.9128 -0.2427
20531SOL     OW63792   8.649   3.870   0.630  0.3830  0.3248  0.6732
20531SOL    HW163793   8.640   3.861   0.535  0.7990 -0.9614  0.7387
20531SOL    HW263794   8.726   3.925   0.642  0.4197  0.3623  0.2646
20532SOL     OW63795   4.758   2.385   7.699  0.2680  0.2623 -0.3972
20532SOL    HW163796   4.708   2.463   7.674  0.6666  0.8012  0.4345
20532SOL    HW263797   4.819   2.371   7.627 -0.5775  0.0355 -1.0800
20533SOL     OW63798   9.061   2.143   4.691  0.2101 -0.0634 -0.3935
20533SOL    HW163799   9.079   2.093   4.770 -1.1012  0.9185  0.5705
20533SOL    HW263800   8.966   2.136   4.679  0.3697 -0.0947 -1.8309
20534SOL     OW63801   3.985   5.357   4.189  0.4314  0.4285 -0.1014
20534SOL    HW163802   4.020   5.288   4.245 -1.9989 -0.4275  0.4519
20534SOL    HW263803   4.060   5.386   4.137  1.9697 -1.1542  1.1333
20535SOL     OW63804   1.207   1.254   3.807  0.2122 -0.5255  0.2122
20535SOL    HW163805   1.154   1.333   3.811 -0.0077 -0.6995  2.6249
20535SOL    HW263806   1.297   1.285   3.801  0.1978  0.0026  2.0718
20536SOL     OW63807   3.676   2.646   5.320 -0.7969  0.1212 -0.2464
20536SOL    HW163808   3.665   2.722   5.378  1.2431 -0.4063  0.9349
20536SOL    HW263809   3.714   2.682   5.240 -0.8255  0.4709 -0.1041
20537SOL     OW63810   5.995   4.232   0.946  0.5460 -0.1921  0.8293
20537SOL    HW163811   6.087   4.229   0.972  0.8608  1.7664  0.0849
20537SOL    HW263812   5.998   4.247   0.852 -0.5476  0.0397  0.8270
20538SOL     OW63813   3.677   6.832   8.075 -0.9076  0.2903 -0.1253
20538SOL    HW163814   3.772   6.840   8.083 -0.5308 -2.5235 -0.6461
20538SOL    HW263815   3.664   6.796   7.987 -2.5669  1.5053 -0.4164
20539SOL     OW63816   6.071   7.610   3.197 -0.2791  0.3591  0.3357
20539SOL    HW163817   6.049   7.614   3.290 -0.2858  0.7663  0.3185
20539SOL    HW263818   5.995   7.648   3.153 -0.9936 -1.3086  0.0462
20540SOL     OW63819   6.993   2.765   4.897  0.3835  0.7014 -0.0021
20540SOL    HW163820   7.079   2.736   4.868 -0.1936 -3.0651  1.3834
20540SOL    HW263821   7.004   2.786   4.989 -0.0135  1.0076 -0.0222
20541SOL     OW63822   6.610   0.491   9.461  0.5807  0.0288  0.0997
20541SOL    HW163823   6.677   0.468   9.396  1.0124 -1.1587  0.9193
20541SOL    HW263824   6.614   0.419   9.525 -2.5024 -0.8697 -0.5774
20542SOL     OW63825   6.604   8.721   4.401  0.4294  0.3210  0.1905
20542SOL    HW163826   6.687   8.751   4.364  1.0571 -1.1331  0.3614
20542SOL    HW263827   6.628   8.674   4.481 -0.6056  0.3705  0.5422
20543SOL     OW63828   8.442   4.450   7.591 -0.3359 -0.3755 -0.0408
20543SOL    HW163829   8.498   4.480   7.663  1.3710 -0.0364 -1.4213
20543SOL    HW263830   8.426   4.529   7.539 -0.5074 -0.8317 -0.6933
20544SOL     OW63831   1.053   3.659   0.001  0.2200 -0.0172 -0.2082
20544SOL    HW163832   1.011   3.574   0.016 -0.2913  0.1459 -0.7030
20544SOL    HW263833   1.081   3.656  -0.090 -0.5211  0.6532 -0.4650
20545SOL     OW63834   5.542   6.301   9.275  0.3566 -0.4961 -0.1333
20545SOL    HW163835   5.621   6.266   9.234  0.2906 -0.7256 -0.0644
20545SOL    HW263836   5.481   6.314   9.202  0.3610 -0.5784 -0.1515
20546SOL     OW63837   7.569   8.302   4.778 -0.2096  0.4611  0.5128
20546SOL    HW163838   7.531   8.354   4.849  0.5841  1.9160 -0.1004
20546SOL    HW263839   7.640   8.253   4.821 -0.6108  0.2817  0.9868
20547SOL     OW63840   9.289   5.252   7.682 -0.1542  0.3886 -0.1376
20547SOL    HW163841   9.203   5.233   7.720 -0.1917  2.6449  1.0284
20547SOL    HW263842   9.275   5.247   7.588 -1.0209 -1.3237  0.0311
20548SOL     OW63843   4.889   5.739   1.081  0.3636 -0.3347  0.0698
20548SOL    HW163844   4.795   5.726   1.086  0.0724  1.3134 -0.4360
20548SOL    HW263845   4.924   5.655   1.052 -1.0678 -0.6572 -0.7933
20549SOL     OW63846   3.868   3.428   4.611  0.0691 -0.2267 -0.4011
20549SOL    HW163847   3.884   3.521   4.596  2.0542 -0.3275  0.7779
20549SOL    HW263848   3.871   3.389   4.524 -0.1837  0.7277 -0.8486
20550SOL     OW63849   1.881   5.518   7.714  0.1279 -0.0345 -1.2192
20550SOL    HW163850   1.893   5.574   7.790 -2.1485 -1.0370 -0.0306
20550SOL    HW263851   1.952   5.543   7.655  0.9341  1.9983  0.4684
20551SOL     OW63852   6.643   0.763   8.893 -0.1155  0.9829  0.1593
20551SOL    HW163853   6.590   0.843   8.893  0.1097  1.1357 -0.3371
20551SOL    HW263854   6.605   0.710   8.823  0.1716  0.9481  0.0303
20552SOL     OW63855   8.774   3.111   8.556  0.0502 -0.8045  0.4550
20552SOL    HW163856   8.745   3.049   8.489  0.8442 -1.4758  0.7189
20552SOL    HW263857   8.816   3.182   8.507 -0.5554 -0.6279  0.1759
20553SOL     OW63858   5.753   7.786   3.859  0.0402 -0.1642 -0.8436
20553SOL    HW163859   5.777   7.851   3.926 -0.4978 -0.8006 -0.0020
20553SOL    HW263860   5.660   7.802   3.844 -0.1583 -0.8993 -0.4327
20554SOL     OW63861   4.819   3.632   6.228 -0.1106 -0.0331  0.3914
20554SOL    HW163862   4.744   3.627   6.287 -1.1267 -1.1708 -0.9472
20554SOL    HW263863   4.800   3.705   6.170 -0.8250 -1.0879 -0.7480
20555SOL     OW63864   4.656   2.722   8.952  0.0013 -0.2615 -0.0709
20555SOL    HW163865   4.742   2.686   8.929  0.3356  0.4668  0.0106
20555SOL    HW263866   4.610   2.731   8.869  0.7824  1.2889 -0.3732
20556SOL     OW63867   3.494   8.735   2.705 -0.6942 -0.3277 -0.2810
20556SOL    HW163868   3.500   8.798   2.633  0.2669 -1.1561 -0.9657
20556SOL    HW263869   3.427   8.673   2.677 -0.7143 -0.3389 -0.2077
20557SOL     OW63870   0.656   5.890   7.327 -0.3353  0.0328  0.2332
20557SOL    HW163871   0.612   5.910   7.245  0.2170  0.9175  0.1381
20557SOL    HW263872   0.620   5.953   7.390 -0.7304 -0.6154  0.6743
20558SOL     OW63873   5.911   2.936   5.152 -0.0706 -0.2666 -0.0157
20558SOL    HW163874   5.959   2.985   5.085 -0.6536  0.9970  0.4658
20558SOL    HW263875   5.835   2.901   5.105  1.2515 -2.2631 -0.7750
20559SOL     OW63876   2.248   5.201   3.824 -0.1590 -0.3010 -0.4476
20559SOL    HW163877   2.207   5.172   3.906 -0.3503 -1.1119 -0.8219
20559SOL    HW263878   2.233   5.129   3.763  0.4903  0.0493 -1.0329
20560SOL     OW63879   1.611   2.765   2.091 -0.8084 -0.7814  1.0524
20560SOL    HW163880   1.650   2.720   2.166 -1.3778 -3.1304  0.0324
20560SOL    HW263881   1.674   2.752   2.020 -1.0543 -0.0509  0.6941
20561SOL     OW63882   2.547   2.191   8.758 -0.0354 -0.1716 -0.5843
20561SOL    HW163883   2.453   2.177   8.745 -0.5314  0.4060  1.7570
20561SOL    HW263884   2.555   2.285   8.772  0.7857 -0.2857 -0.2462
20562SOL     OW63885   3.314   4.033   4.819 -0.0909  0.5962  0.4513
20562SOL    HW163886   3.323   4.067   4.730 -0.5493  1.4496  0.7246
20562SOL    HW263887   3.401   3.998   4.840  0.6179  2.2150  0.3991
20563SOL     OW63888   2.436   8.639   6.827 -0.2617 -0.4372  0.3032
20563SOL    HW163889   2.468   8.703   6.763 -1.8382 -0.3630 -0.4571
20563SOL    HW263890   2.428   8.558   6.778 -1.8072 -0.2974  0.2857
20564SOL     OW63891   7.842   9.048   4.008  0.1972  0.3375  0.1553
20564SOL    HW163892   7.842   9.137   4.042 -0.9536 -0.1086  1.4245
20564SOL    HW263893   7.762   9.043   3.955  0.2318  0.0662  0.1288
20565SOL     OW63894   2.787   2.773   8.031  0.5259  0.4816  0.5363
20565SOL    HW163895   2.839   2.724   7.968 -1.1851  0.0951 -0.6269
20565SOL    HW263896   2.836   2.854   8.045  0.1295  1.4157 -2.7115
20566SOL     OW63897   4.064   4.451   5.256  0.2043  0.4158  0.0946
20566SOL    HW163898   4.122   4.527   5.256 -0.9525  1.3291 -0.0365
20566SOL    HW263899   4.005   4.466   5.331 -1.6455  0.9576 -1.3872
20567SOL     OW63900   0.544   5.405   4.309  0.1301  0.1582  0.3187
20567SOL    HW163901   0.569   5.418   4.217 -2.2948 -1.4218 -0.6525
20567SOL    HW263902   0.526   5.494   4.341  0.5830  0.6929 -0.8474
20568SOL     OW63903   8.460   8.096   2.213 -0.1870 -0.2258 -0.3053
20568SOL    HW163904   8.504   8.030   2.159 -0.6009 -1.2298  0.5666
20568SOL    HW263905   8.447   8.053   2.297  1.2153  1.5842  0.9051
20569SOL     OW63906   2.397   4.188   9.518 -0.4607 -0.7567 -0.1991
20569SOL    HW163907   2.465   4.146   9.570 -0.0919  1.8107  1.5579
20569SOL    HW263908   2.316   4.142   9.542  0.3112 -2.5446 -0.8359
20570SOL     OW63909   6.963   1.250   3.154 -0.5515 -0.4960 -0.3322
20570SOL    HW163910   6.897   1.193   3.195 -1.0457  0.2099 -0.1250
20570SOL    HW263911   6.940   1.248   3.061  0.7451 -2.3274 -0.6615
20571SOL     OW63912   2.648   2.949   8.781  0.1563  0.6157 -0.2848
20571SOL    HW163913   2.654   2.997   8.863  0.3143 -0.3555  0.2797
20571SOL    HW263914   2.556   2.921   8.776  0.9420 -2.8804  1.6656
20572SOL     OW63915   6.877   4.974   2.324 -0.1747 -0.5579  0.3448
20572SOL    HW163916   6.948   4.969   2.261  0.2389  1.1261  0.6354
20572SOL    HW263917   6.797   4.971   2.271  0.1309 -1.0160 -0.0943
20573SOL     OW63918   4.454   2.453   8.822  0.7839 -0.5372  0.0981
20573SOL    HW163919   4.492   2.541   8.818  0.3795 -0.4113 -1.3179
20573SOL    HW263920   4.430   2.432   8.732  0.7188 -2.0446  0.4254
20574SOL     OW63921   8.647   7.667   6.419 -0.1552 -0.4631  0.2197
20574SOL    HW163922   8.590   7.726   6.468  1.3278  0.2637  1.1695
20574SOL    HW263923   8.617   7.579   6.442  0.1475 -0.1243  2.0192
20575SOL     OW63924   4.335   8.567   0.241  0.2654  0.4896 -0.8057
20575SOL    HW163925   4.405   8.605   0.188  0.9660 -0.5525 -0.6421
20575SOL    HW263926   4.333   8.474   0.216 -0.3100  0.2691  0.0059
20576SOL     OW63927   3.543   4.580   2.326 -0.2944 -0.0020 -0.2963
20576SOL    HW163928   3.621   4.565   2.380 -0.3321  0.1850 -0.1887
20576SOL    HW263929   3.509   4.664   2.356  0.8913  1.1692 -2.0503
20577SOL     OW63930   9.483   3.431   3.328  0.0669  0.3430 -0.2850
20577SOL    HW163931   9.547   3.493   3.362  0.0530  0.2495 -0.0876
20577SOL    HW263932   9.503   3.349   3.373  0.0440  0.2207 -0.4990
20578SOL     OW63933   5.600   4.650   6.700  0.3145 -0.7961  0.9812
20578SOL    HW163934   5.661   4.719   6.725  0.3764 -0.9325  1.2028
20578SOL    HW263935   5.640   4.609   6.623  0.6911 -1.1456  1.3667
20579SOL     OW63936   5.381   0.097   0.253  0.3778  0.4993 -0.1042
20579SOL    HW163937   5.311   0.072   0.314 -0.1602  2.0719 -0.0364
20579SOL    HW263938   5.462   0.071   0.297 -0.0406  0.9318  0.9569
20580SOL     OW63939   7.627   3.064   2.979  0.1871  0.5580 -0.1202
20580SOL    HW163940   7.591   2.989   3.026  2.6529 -0.1360  0.8209
20580SOL    HW263941   7.700   3.028   2.928  0.5640  2.1023 -0.7327
20581SOL     OW63942   3.900   7.988   6.605 -0.3232 -0.2906  0.2908
20581SOL    HW163943   3.825   8.048   6.597 -0.5530 -0.6803 -0.6938
20581SOL    HW263944   3.962   8.035   6.661 -0.5844  0.7974 -0.2842
20582SOL     OW63945   8.393   6.253   3.203  0.0409 -0.3557 -0.5613
20582SOL    HW163946   8.415   6.178   3.148  0.0625  0.4684 -1.7341
20582SOL    HW263947   8.300   6.241   3.224  0.1498 -0.9168 -0.3842
20583SOL     OW63948   3.257   6.281   8.021  0.7395  0.3531 -0.6592
20583SOL    HW163949   3.200   6.227   8.075  0.3588 -0.9169 -2.2359
20583SOL    HW263950   3.345   6.251   8.041  0.4794 -2.0968 -2.6123
20584SOL     OW63951   8.436   1.508   2.536  0.1814 -0.1004 -0.8717
20584SOL    HW163952   8.457   1.538   2.447  2.2163  0.6590 -0.1999
20584SOL    HW263953   8.482   1.569   2.593 -0.3874 -1.0877  0.7023
20585SOL     OW63954   9.454   2.287   2.900  0.1880 -0.2435 -0.2740
20585SOL    HW163955   9.376   2.286   2.955  0.6676 -2.3597  0.4545
20585SOL    HW263956   9.522   2.326   2.954 -0.2608  1.3905 -0.8300
20586SOL     OW63957   6.277   5.247   7.575 -0.0939 -0.1884 -0.0025
20586SOL    HW163958   6.372   5.235   7.572 -0.3152 -2.0766 -0.9361
20586SOL    HW263959   6.243   5.186   7.509 -1.9359  0.7837 -0.0177
20587SOL     OW63960   3.591   7.597   3.404  0.4337 -0.4252  0.3728
20587SOL    HW163961   3.496   7.598   3.400  0.4176 -2.1776 -0.3898
20587SOL    HW263962   3.612   7.545   3.481  0.8038  0.7482  1.0963
20588SOL     OW63963   2.168   0.231   0.852  0.0432 -0.1011 -0.0597
20588SOL    HW163964   2.082   0.233   0.895 -0.6024 -0.8466 -1.2419
20588SOL    HW263965   2.177   0.318   0.813  0.0974  0.1815  0.5803
20589SOL     OW63966   0.075   4.587   6.824 -0.3800  0.0487 -0.0386
20589SOL    HW163967   0.114   4.568   6.739 -0.5385  0.4569 -0.2077
20589SOL    HW263968  -0.015   4.615   6.804 -0.2081  0.8059  0.2012
20590SOL     OW63969   2.233   7.432   2.940 -0.0528  0.5809  0.5203
20590SOL    HW163970   2.160   7.377   2.911 -0.1677  0.1633  1.5537
20590SOL    HW263971   2.306   7.370   2.953  0.4161  0.9545 -0.2201
20591SOL     OW63972   6.086   8.877   1.840  0.4234  0.1512  0.0703
20591SOL    HW163973   6.125   8.793   1.816 -0.7051  0.0938 -1.8233
20591SOL    HW263974   5.992   8.859   1.845  0.0104  1.5218 -1.6780
20592SOL     OW63975   7.245   9.117   7.876  0.0907 -0.3821  0.4034
20592SOL    HW163976   7.337   9.135   7.858  0.0104 -1.1392 -0.8304
20592SOL    HW263977   7.197   9.182   7.825 -0.0717 -0.2117  0.7684
20593SOL     OW63978   6.792   3.016   6.337 -0.7932 -0.0710  0.0980
20593SOL    HW163979   6.825   2.950   6.276  1.0140  0.1870  0.7407
20593SOL    HW263980   6.780   2.968   6.419  2.1515  0.6215  1.0585
20594SOL     OW63981   8.687   0.129   7.959 -0.0016 -0.1138  0.3500
20594SOL    HW163982   8.664   0.212   8.000 -2.3556 -0.6285  0.1962
20594SOL    HW263983   8.782   0.123   7.970  0.5149  3.3048 -1.0585
20595SOL     OW63984   4.956   5.024   3.519  0.0472  0.1115 -0.3260
20595SOL    HW163985   4.887   5.092   3.515  0.1325  0.2141 -0.0686
20595SOL    HW263986   4.913   4.945   3.486 -0.2791  0.1086  0.0996
20596SOL     OW63987   6.011   8.519   1.516  0.0933 -0.2880 -0.3550
20596SOL    HW163988   5.933   8.527   1.571  2.8773  2.3806  3.8395
20596SOL    HW263989   6.020   8.605   1.474 -0.7512 -1.5770 -3.3500
20597SOL     OW63990   8.520   0.680   3.437 -0.5535  0.0255  0.0833
20597SOL    HW163991   8.490   0.730   3.361  0.7795 -0.8100 -1.0281
20597SOL    HW263992   8.509   0.740   3.511  0.5050  1.7987 -1.1283
20598SOL     OW63993   7.117   9.367   1.547  0.2756 -0.4395  0.0069
20598SOL    HW163994   7.174   9.381   1.622  0.9378 -1.5026 -0.2781
20598SOL    HW263995   7.081   9.453   1.528  0.0443 -0.1528  1.5710
20599SOL     OW63996   3.975   4.193   2.315 -0.5816  0.0274 -0.2598
20599SOL    HW163997   4.001   4.104   2.292 -3.1626 -1.3566  1.6269
20599SOL    HW263998   3.923   4.223   2.241  0.0621 -0.1542 -0.7839
20600SOL     OW63999   4.839   4.774   7.294 -0.3350 -0.3461 -0.4986
20600SOL    HW164000   4.898   4.708   7.330 -1.5233 -1.7220 -0.9620
20600SOL    HW264001   4.812   4.739   7.209 -1.9187  0.1400 -0.2382
20601SOL     OW64002   0.610   9.516   4.796 -0.4363 -0.2579  0.0078
20601SOL    HW164003   0.623   9.593   4.851 -0.8421 -0.3773  0.2769
20601SOL    HW264004   0.698   9.483   4.780 -0.3698 -1.1336  1.8913
20602SOL     OW64005   1.457   6.391   7.817  0.6060  0.0281  0.2354
20602SOL    HW164006   1.415   6.477   7.820  0.5374 -0.0250  1.1538
20602SOL    HW264007   1.418   6.343   7.889 -0.2068 -1.1889 -0.9782
20603SOL     OW64008   0.779   8.095   4.208 -0.4855  0.5521 -0.5668
20603SOL    HW164009   0.759   8.097   4.114 -1.5974  0.4072 -0.3463
20603SOL    HW264010   0.806   8.005   4.225  0.9602  0.8830 -0.9741
20604SOL     OW64011   6.444   5.406   8.425  0.3288 -0.7197  0.4788
20604SOL    HW164012   6.389   5.430   8.499 -0.4942 -0.7870 -0.0943
20604SOL    HW264013   6.408   5.323   8.394  1.1395 -1.0789  0.4584
20605SOL     OW64014   8.459   0.198   0.848 -0.3100 -0.1243 -0.4324
20605SOL    HW164015   8.493   0.123   0.897  0.5251 -0.0614 -0.8991
20605SOL    HW264016   8.431   0.260   0.916 -1.5936 -1.0867 -0.0323
20606SOL     OW64017   7.121   8.714   3.708 -0.6586 -0.0489  0.0458
20606SOL    HW164018   7.116   8.657   3.631  0.1783  0.1931 -0.1981
20606SOL    HW264019   7.067   8.789   3.686 -0.6998 -0.1393 -0.1633
20607SOL     OW64020   6.626   1.779   1.298  0.5141  0.3504  0.3344
20607SOL    HW164021   6.620   1.792   1.204  1.1035  1.8551  0.4857
20607SOL    HW264022   6.606   1.686   1.310  0.1405  0.1958 -1.2315
20608SOL     OW64023   2.554   1.375   0.074  0.0327 -0.7780 -0.1582
20608SOL    HW164024   2.588   1.454   0.031 -2.0164 -0.4121 -1.2911
20608SOL    HW264025   2.464   1.398   0.098  0.0865 -2.0815  1.4660
20609SOL     OW64026   4.269   7.476   1.781 -0.1071  0.1512  0.1373
20609SOL    HW164027   4.300   7.560   1.813  0.8671 -0.6253  1.3237
20609SOL    HW264028   4.345   7.437   1.738 -0.2413 -0.5516  0.5179
20610SOL     OW64029   1.890   3.191   0.289  0.3469  0.0337 -0.3140
20610SOL    HW164030   1.900   3.243   0.369 -0.0051 -0.4063  0.0242
20610SOL    HW264031   1.976   3.151   0.275  0.5194  0.4267 -0.3784
20611SOL     OW64032   8.876   2.939   3.324  0.2784 -0.1945  0.6470
20611SOL    HW164033   8.951   2.994   3.345 -0.1649  1.6983 -2.2911
20611SOL    HW264034   8.876   2.872   3.393  3.3708  0.9501  1.9316
20612SOL     OW64035   1.852   9.523   7.901  0.3180 -0.9145  0.0437
20612SOL    HW164036   1.866   9.602   7.849 -1.7654 -0.8507 -0.5091
20612SOL    HW264037   1.827   9.555   7.987  0.1523 -0.9630  0.0151
20613SOL     OW64038   0.242   7.151   0.143  0.1152  0.3422  0.5902
20613SOL    HW164039   0.283   7.118   0.063  1.3910  1.3462  0.8024
20613SOL    HW264040   0.196   7.075   0.178  1.8757 -0.9034  0.3740
20614SOL     OW64041   0.442   9.066   8.000  0.3710  0.2058  0.5187
20614SOL    HW164042   0.448   9.078   8.095  1.0526  2.1512  0.2764
20614SOL    HW264043   0.381   8.993   7.989  0.4754 -0.2269  2.4472
20615SOL     OW64044   0.050   6.563   1.250 -0.3652 -0.3636 -0.0910
20615SOL    HW164045   0.098   6.491   1.291 -0.8238 -2.1028 -2.3793
20615SOL    HW264046  -0.025   6.577   1.308  1.8160  1.2143  2.5992
20616SOL     OW64047   7.823   2.564   5.101  0.0451 -0.7486 -0.6036
20616SOL    HW164048   7.871   2.523   5.029 -0.6980 -3.3400  0.2703
20616SOL    HW264049   7.733   2.533   5.090 -0.1984 -0.7248  1.0895
20617SOL     OW64050   5.429   5.298   3.838  0.5838 -0.5830  0.1379
20617SOL    HW164051   5.378   5.284   3.758  1.7422 -0.4631 -0.6405
20617SOL    HW264052   5.403   5.385   3.868  2.0959  0.5238 -1.6124
20618SOL     OW64053   2.154   0.156   7.510 -0.1388 -0.1208 -0.1895
20618SOL    HW164054   2.174   0.145   7.417 -0.3018 -0.2734 -0.2084
20618SOL    HW264055   2.085   0.222   7.512 -1.1999 -1.2006 -0.2947
20619SOL     OW64056   1.212   1.759   8.149 -0.4911 -0.3454 -0.2082
20619SOL    HW164057   1.192   1.667   8.136 -3.4346  0.2692 -0.8869
20619SOL    HW264058   1.235   1.767   8.241 -0.7342 -1.6807 -0.0226
20620SOL     OW64059   8.084   2.637   1.659 -0.1968  0.3384 -0.3478
20620SOL    HW164060   8.002   2.683   1.677 -1.1597 -1.2445 -0.4818
20620SOL    HW264061   8.060   2.567   1.599  1.7146  1.2577 -2.3424
20621SOL     OW64062   7.590   7.997   8.407  0.0754  0.3622 -0.7052
20621SOL    HW164063   7.520   7.935   8.389  0.4072 -0.6060  1.1532
20621SOL    HW264064   7.669   7.954   8.374  0.0158  0.8229 -1.4813
20622SOL     OW64065   6.946   7.446   3.931 -0.2943  0.3264 -0.1427
20622SOL    HW164066   7.012   7.509   3.903 -1.0379  1.7337  1.1483
20622SOL    HW264067   6.996   7.365   3.945  1.3194  1.5107  1.4455
20623SOL     OW64068   4.532   3.843   3.299  0.0962  0.3464 -0.1067
20623SOL    HW164069   4.471   3.872   3.367  0.8341  1.6371  0.0321
20623SOL    HW264070   4.572   3.763   3.334 -1.8871 -0.8654 -0.4329
20624SOL     OW64071   7.815   2.442   0.801 -0.1988  0.7684 -0.5019
20624SOL    HW164072   7.770   2.485   0.729  1.0469  0.7847 -1.2978
20624SOL    HW264073   7.800   2.348   0.787 -3.2347  0.8239  1.4436
20625SOL     OW64074   5.793   4.981   8.481 -0.5679 -0.0591  0.3217
20625SOL    HW164075   5.731   5.019   8.418 -2.3959 -3.6427 -0.3353
20625SOL    HW264076   5.740   4.968   8.560 -0.2716 -1.7038  0.2873
20626SOL     OW64077   5.457   3.939   3.700 -0.1990  0.1453  0.3072
20626SOL    HW164078   5.468   3.888   3.780  2.3000  1.0991  0.6518
20626SOL    HW264079   5.427   3.876   3.635 -0.3775 -1.0474  1.5066
20627SOL     OW64080   2.680   8.170   8.818 -0.0487  0.2290 -0.1366
20627SOL    HW164081   2.730   8.088   8.814 -0.0384  0.2354 -0.1420
20627SOL    HW264082   2.715   8.215   8.895 -1.0610 -0.4249  0.7202
20628SOL     OW64083   0.591   5.887   1.930 -0.4276 -0.1763 -0.0706
20628SOL    HW164084   0.551   5.826   1.868 -1.6403 -1.5795  1.9497
20628SOL    HW264085   0.614   5.832   2.005  0.6900  1.4885  0.8574
20629SOL     OW64086   0.158   1.585   3.197  0.0016 -0.4241 -0.6978
20629SOL    HW164087   0.097   1.635   3.250  0.7865  0.3304 -0.4917
20629SOL    HW264088   0.184   1.512   3.253  1.4015  0.7708  0.2846
20630SOL     OW64089   7.060   7.933   3.930 -0.4760  0.2334 -0.1745
20630SOL    HW164090   6.969   7.953   3.906  0.5428  2.4212 -2.7290
20630SOL    HW264091   7.112   8.001   3.886  2.4710 -1.2881  0.6986
20631SOL     OW64092   0.935   2.190   5.688  0.0983 -0.0191  0.0236
20631SOL    HW164093   0.918   2.257   5.754  1.0784  0.0940  0.1651
20631SOL    HW264094   0.848   2.163   5.659 -0.3126  1.1393  0.1406
20632SOL     OW64095   1.158   7.072   7.999  0.6088  0.5507 -0.0389
20632SOL    HW164096   1.189   6.983   8.015  1.4390  0.7464 -0.4758
20632SOL    HW264097   1.193   7.094   7.912  0.8824  1.5011  0.3022
20633SOL     OW64098   0.048   9.116   9.282  0.8816 -0.3546  0.2813
20633SOL    HW164099  -0.002   9.038   9.305  0.3206  0.2758  1.3083
20633SOL    HW264100  -0.017   9.185   9.270  1.4341  0.3249  0.9831
20634SOL     OW64101   5.199   4.960   1.498  0.1458 -0.3983 -0.3325
20634SOL    HW164102   5.119   4.908   1.499  0.5022 -0.9624  0.0814
20634SOL    HW264103   5.170   5.051   1.489 -0.4928 -0.6644 -0.9630
20635SOL     OW64104   2.334   3.262   0.214 -0.3757  0.6985 -0.0158
20635SOL    HW164105   2.269   3.210   0.259  0.4451  0.8398  1.3862
20635SOL    HW264106   2.366   3.205   0.144 -0.3338 -0.2415  0.7521
20636SOL     OW64107   1.994   0.706   1.570 -0.5871 -0.2830 -0.2355
20636SOL    HW164108   1.980   0.798   1.595 -1.1606  0.7316 -3.6954
20636SOL    HW264109   2.086   0.702   1.544 -0.5864 -0.6617 -0.1781
20637SOL     OW64110   4.808   1.995   3.204 -0.2593  0.3559  0.5302
20637SOL    HW164111   4.813   2.084   3.167 -0.3779  0.3301  0.4509
20637SOL    HW264112   4.846   1.939   3.136  1.4323  0.5353  1.2757
20638SOL     OW64113   0.111   3.880   8.228  0.1763  0.0125 -0.0452
20638SOL    HW164114   0.143   3.820   8.162  2.5862  0.2814  0.7808
20638SOL    HW264115   0.036   3.924   8.187  0.6453 -0.9132 -1.9960
20639SOL     OW64116   5.854   9.185   7.035 -0.6188  0.8349  0.3722
20639SOL    HW164117   5.815   9.253   7.090 -1.0877 -0.9510  2.3801
20639SOL    HW264118   5.782   9.124   7.018  0.0922  0.1566 -0.2535
20640SOL     OW64119   6.440   2.191   1.249 -0.5189 -0.9051  0.1197
20640SOL    HW164120   6.505   2.176   1.318  1.5476 -1.0881 -1.7523
20640SOL    HW264121   6.407   2.104   1.227 -2.0628 -0.7407  1.6106
20641SOL     OW64122   0.307   1.643   0.724  0.4849  0.4464  0.0732
20641SOL    HW164123   0.310   1.730   0.765 -0.3683  0.3570  0.3547
20641SOL    HW264124   0.382   1.596   0.762  0.7051  0.9194  0.2356
20642SOL     OW64125   0.694   2.124   0.141 -0.0723  0.4545  0.2315
20642SOL    HW164126   0.756   2.124   0.214  1.1780 -0.4811 -0.7953
20642SOL    HW264127   0.682   2.217   0.121  1.7229  0.6601 -0.1101
20643SOL     OW64128   4.390   8.512   5.085 -0.1371  0.5788  0.3221
20643SOL    HW164129   4.418   8.471   5.166 -0.6190  0.0210  0.2116
20643SOL    HW264130   4.470   8.519   5.033  0.3219  1.6368  1.1278
20644SOL     OW64131   3.361   1.796   7.659 -0.5436  0.1698 -0.2624
20644SOL    HW164132   3.403   1.735   7.598 -1.0963 -0.9010  0.3874
20644SOL    HW264133   3.434   1.841   7.702 -0.0082 -1.4758  0.6681
20645SOL     OW64134   0.053   4.437   1.256  0.7125 -0.4166  0.2406
20645SOL    HW164135   0.048   4.449   1.350 -1.3866  0.3081  0.1143
20645SOL    HW264136  -0.031   4.395   1.233 -1.1086  3.7065 -1.7389
20646SOL     OW64137   5.173   2.448   4.807 -0.9419 -0.5912 -0.1471
20646SOL    HW164138   5.142   2.474   4.894  0.7518  1.4299 -0.0722
20646SOL    HW264139   5.123   2.504   4.747  0.5154  0.7138 -0.1928
20647SOL     OW64140   2.222   8.820   8.391 -0.0600 -0.8185 -0.4079
20647SOL    HW164141   2.308   8.839   8.353  0.8467  0.8773  2.2169
20647SOL    HW264142   2.161   8.837   8.320  1.6519 -0.4272 -1.8801
20648SOL     OW64143   0.702   6.522   5.542  0.1350 -0.0792 -0.2557
20648SOL    HW164144   0.703   6.511   5.447  2.0411  1.2710 -0.4450
20648SOL    HW264145   0.716   6.616   5.555 -0.6426 -0.1590  1.3703
20649SOL     OW64146   2.118   7.074   0.267  0.4033 -0.0704  0.3636
20649SOL    HW164147   2.031   7.068   0.228 -0.6096 -2.2836  2.7407
20649SOL    HW264148   2.163   6.994   0.237  2.2395  1.6474 -1.9245
20650SOL     OW64149   5.612   3.734   8.357 -0.1231  0.1840 -0.2151
20650SOL    HW164150   5.588   3.735   8.264 -1.1686  0.0579  0.0428
20650SOL    HW264151   5.697   3.777   8.360  0.8473 -1.4952 -1.4759
20651SOL     OW64152   5.606   4.042   5.930 -0.3507 -0.1110  0.1947
20651SOL    HW164153   5.524   4.089   5.922 -0.1506  0.0352 -1.3021
20651SOL    HW264154   5.645   4.047   5.843  1.3935  0.0984  0.9391
20652SOL     OW64155   2.509   3.911   1.504 -0.2639  0.1761  0.0248
20652SOL    HW164156   2.480   3.855   1.576 -0.5309 -1.5596 -1.3699
20652SOL    HW264157   2.449   3.890   1.432  1.7941 -0.3572 -1.6224
20653SOL     OW64158   6.628   1.044   0.156 -0.1887  0.7694 -0.1392
20653SOL    HW164159   6.683   1.023   0.081  1.2019  1.0068  0.7763
20653SOL    HW264160   6.575   0.965   0.170  0.3119  0.3273 -0.6990
20654SOL     OW64161   8.659   6.170   2.505 -0.1271 -0.3708 -0.2152
20654SOL    HW164162   8.696   6.127   2.428  0.1023  1.2371 -1.0606
20654SOL    HW264163   8.576   6.207   2.475 -0.1215  0.1247  0.3457
20655SOL     OW64164   6.533   4.694   1.401  0.5964  0.2994  0.4241
20655SOL    HW164165   6.596   4.625   1.420  0.1326 -0.1480  0.3599
20655SOL    HW264166   6.522   4.691   1.306  0.9582  0.8084  0.3607
20656SOL     OW64167   9.089   3.561   2.538 -0.3630 -0.1657 -0.5057
20656SOL    HW164168   9.139   3.564   2.456  0.1986 -1.3558 -0.2298
20656SOL    HW264169   9.006   3.519   2.513 -1.5013  2.2338 -1.0627
20657SOL     OW64170   2.413   0.744   7.726 -0.1573  0.0214 -0.0811
20657SOL    HW164171   2.454   0.705   7.649 -1.4040  0.2792 -0.9152
20657SOL    HW264172   2.349   0.679   7.755  1.5863 -0.9066  1.9386
20658SOL     OW64173   5.733   9.072   0.815 -0.2491 -0.2833  0.2140
20658SOL    HW164174   5.823   9.096   0.835  0.6486 -2.0747 -1.3460
20658SOL    HW264175   5.684   9.093   0.895  1.9598 -1.4445  1.9943
20659SOL     OW64176   4.563   7.594   5.480 -0.6622 -0.0124 -0.6127
20659SOL    HW164177   4.569   7.517   5.536  1.8708  1.0603  0.7832
20659SOL    HW264178   4.492   7.575   5.419 -1.9720 -2.2362  1.4549
20660SOL     OW64179   6.035   4.821   2.880  0.0128  0.0283 -0.4964
20660SOL    HW164180   6.037   4.878   2.957 -1.8450 -1.2417  0.5942
20660SOL    HW264181   6.028   4.732   2.916  0.7434 -0.7449 -2.1477
20661SOL     OW64182   4.039   1.536   0.806 -0.3783  0.2924  0.1353
20661SOL    HW164183   3.997   1.620   0.790 -0.0141  0.1718 -1.5691
20661SOL    HW264184   4.102   1.554   0.876  1.8582  2.2339 -2.1720
20662SOL     OW64185   9.445   0.310   0.121 -0.6545 -0.1909  0.0614
20662SOL    HW164186   9.501   0.288   0.196 -0.2456  0.5718  0.0004
20662SOL    HW264187   9.502   0.363   0.064 -0.6168 -1.6514 -1.3266
20663SOL     OW64188   0.319   4.942   2.030 -0.0208  0.2232 -0.2124
20663SOL    HW164189   0.269   4.902   1.959  0.2845  0.2187 -0.4266
20663SOL    HW264190   0.408   4.910   2.018 -0.0445 -0.0923  0.4073
20664SOL     OW64191   0.277   9.518   1.307  0.2830 -0.0953  0.1776
20664SOL    HW164192   0.239   9.495   1.392  0.4579 -1.4639 -0.0901
20664SOL    HW264193   0.205   9.560   1.259 -0.4125 -1.1226  0.2915
20665SOL     OW64194   9.388   0.918   3.172 -0.1590  0.2798  0.5263
20665SOL    HW164195   9.311   0.964   3.138  0.5150  0.1331 -1.2995
20665SOL    HW264196   9.354   0.835   3.204 -0.7482  0.0984 -0.5234
20666SOL     OW64197   4.637   3.620   6.899 -0.0396  0.0789  0.1770
20666SOL    HW164198   4.615   3.698   6.950  0.7679  0.8849 -0.6726
20666SOL    HW264199   4.621   3.646   6.808  1.6364 -0.2319 -0.2391
20667SOL     OW64200   8.993   6.384   1.188  0.7203 -0.2158 -0.7181
20667SOL    HW164201   8.989   6.300   1.233  0.4507 -0.0716 -0.4696
20667SOL    HW264202   8.912   6.389   1.136 -0.9806  1.3162  1.8427
20668SOL     OW64203   7.215   8.285   4.984  0.5825 -0.1309  0.4746
20668SOL    HW164204   7.207   8.314   4.893  3.5599  0.2884  0.2466
20668SOL    HW264205   7.156   8.342   5.033 -0.7024 -0.0370 -1.1028
20669SOL     OW64206   7.169   7.474   4.313 -0.0592 -0.1912  0.4224
20669SOL    HW164207   7.213   7.395   4.344 -0.9080 -0.1843  1.7189
20669SOL    HW264208   7.197   7.542   4.375  1.4958  0.8181 -1.2739
20670SOL     OW64209   1.464   8.853   4.959  0.1605  0.3388 -0.3511
20670SOL    HW164210   1.432   8.894   4.878 -0.5643 -0.4677 -0.4872
20670SOL    HW264211   1.389   8.803   4.991  0.2872  1.0234  1.0868
20671SOL     OW64212   4.603   9.325   0.819 -0.2466 -0.2795 -0.7872
20671SOL    HW164213   4.541   9.294   0.886 -0.0416  0.9112 -0.0076
20671SOL    HW264214   4.686   9.333   0.865 -0.2648  1.2752 -0.9517
20672SOL     OW64215   4.215   1.368   3.564  0.7202  0.0933 -0.4982
20672SOL    HW164216   4.147   1.301   3.553  0.2571  0.3170  0.8601
20672SOL    HW264217   4.253   1.377   3.476 -1.7599  0.8070 -1.5845
20673SOL     OW64218   2.889   5.748   8.418 -0.1795 -0.0119 -0.0261
20673SOL    HW164219   2.938   5.720   8.340 -0.8604  0.9948 -0.8494
20673SOL    HW264220   2.814   5.796   8.383 -0.5546  0.3862  1.2646
20674SOL     OW64221   9.278   6.119   1.147  0.1191  0.2119  0.2542
20674SOL    HW164222   9.344   6.090   1.210  0.7197  2.2500  0.6487
20674SOL    HW264223   9.324   6.184   1.093 -0.6398 -0.8059 -1.7210
20675SOL     OW64224   8.376   6.393   7.049 -0.1454  0.0636  0.6382
20675SOL    HW164225   8.311   6.448   7.091  0.3827  1.6865 -0.5544
20675SOL    HW264226   8.327   6.339   6.987 -0.4776  0.4155  0.5966
20676SOL     OW64227   6.364   1.674   6.259 -0.0778  0.2794 -0.3391
20676SOL    HW164228   6.406   1.598   6.299 -0.6923  0.2154  0.1895
20676SOL    HW264229   6.426   1.745   6.271 -0.8321  0.6268  2.0576
20677SOL     OW64230   3.901   5.071   0.648  0.2656  0.6460 -0.2870
20677SOL    HW164231   3.899   4.976   0.660  0.3445  0.4360 -1.7573
20677SOL    HW264232   3.827   5.090   0.591  0.6391  1.3818 -0.5423
20678SOL     OW64233   0.265   1.507   4.841 -0.0964 -0.1370  0.5233
20678SOL    HW164234   0.218   1.463   4.912  0.0036 -1.4628 -0.2004
20678SOL    HW264235   0.198   1.559   4.797 -0.4192 -0.2511  0.8733
20679SOL     OW64236   2.413   1.676   0.248 -0.4942 -0.1202  0.1618
20679SOL    HW164237   2.383   1.608   0.308 -0.4284 -0.0455  0.2822
20679SOL    HW264238   2.509   1.668   0.249 -0.5223 -0.6018 -0.5110
20680SOL     OW64239   1.687   3.205   4.613 -0.0343  0.2243  0.3944
20680SOL    HW164240   1.654   3.295   4.622  1.4737  0.6073  2.9986
20680SOL    HW264241   1.630   3.152   4.668 -0.7609 -0.4426 -0.9347
20681SOL     OW64242   5.086   8.085   5.949  0.2681  0.1058 -0.3945
20681SOL    HW164243   5.035   8.018   5.902 -0.9297 -1.0536  2.3229
20681SOL    HW264244   5.020   8.132   6.001  1.6929 -0.0165  1.6172
20682SOL     OW64245   8.682   5.705   3.104  0.1464 -0.0529  0.8868
20682SOL    HW164246   8.715   5.623   3.141 -0.6461 -0.5508  0.5022
20682SOL    HW264247   8.731   5.773   3.151  0.6120 -0.7277  1.4069
20683SOL     OW64248   0.346   2.935   0.198 -0.1715  0.5481 -0.2220
20683SOL    HW164249   0.421   2.975   0.154 -1.7593  2.1852 -1.6111
20683SOL    HW264250   0.355   2.842   0.181  1.6808  0.6821 -0.1147
20684SOL     OW64251   6.010   8.486   7.461  0.0390 -0.5760  0.5502
20684SOL    HW164252   5.988   8.405   7.506 -2.7408 -0.0607  0.2524
20684SOL    HW264253   5.981   8.555   7.520 -2.0496  0.1219 -1.1840
20685SOL     OW64254   1.342   7.897   3.726  0.2886  0.3192  0.7183
20685SOL    HW164255   1.393   7.929   3.652  0.9028 -0.6089  0.7197
20685SOL    HW264256   1.255   7.878   3.690 -0.0429  1.8099  0.6923
20686SOL     OW64257   3.927   2.719   2.540 -0.3793  0.4267  0.1223
20686SOL    HW164258   3.999   2.657   2.528 -0.6804  0.0773  0.0693
20686SOL    HW264259   3.853   2.664   2.566 -1.1137  0.5301 -1.5833
20687SOL     OW64260   7.812   3.624   3.593  0.7082 -0.0735  0.0644
20687SOL    HW164261   7.810   3.689   3.523  0.7334 -0.5455 -0.3820
20687SOL    HW264262   7.725   3.583   3.591 -0.0473  1.3152  1.6772
20688SOL     OW64263   1.580   2.055   2.556  0.0194  0.4976 -0.0320
20688SOL    HW164264   1.499   2.007   2.539 -0.0088  0.4732  0.1643
20688SOL    HW264265   1.603   2.094   2.472 -0.1577  0.4460 -0.1056
20689SOL     OW64266   7.540   4.005   8.440  0.6219  0.3258  0.1974
20689SOL    HW164267   7.459   4.055   8.448 -0.0304 -0.5205 -0.8081
20689SOL    HW264268   7.514   3.915   8.460  1.0450 -0.1415 -1.2572
20690SOL     OW64269   3.352   3.573   3.066 -0.0159 -0.0762  0.0229
20690SOL    HW164270   3.341   3.533   3.152  1.7780  0.5045  0.5564
20690SOL    HW264271   3.444   3.559   3.044 -0.0785  1.1078 -1.1245
20691SOL     OW64272   5.595   5.243   8.561 -0.6753 -0.5510 -0.4406
20691SOL    HW164273   5.604   5.150   8.578  0.0946 -0.4228 -0.1096
20691SOL    HW264274   5.569   5.249   8.469 -0.4919 -1.0761 -0.5260
20692SOL     OW64275   4.535   2.914   8.518 -0.2681 -0.1039  0.0347
20692SOL    HW164276   4.473   2.872   8.458 -0.2968  0.0618 -0.0516
20692SOL    HW264277   4.605   2.946   8.462 -1.1542  1.6370 -0.1415
20693SOL     OW64278   5.219   2.743   3.312 -0.2242 -0.1419 -0.2329
20693SOL    HW164279   5.271   2.804   3.364  1.8986 -2.5172  0.6142
20693SOL    HW264280   5.128   2.767   3.330  0.5020  1.3754  1.7134
20694SOL     OW64281   1.398   1.826   3.637  0.6638  0.3001 -0.1647
20694SOL    HW164282   1.388   1.753   3.576  1.1511  0.3367 -0.2892
20694SOL    HW264283   1.309   1.843   3.669  0.8533 -2.4214  2.3040
20695SOL     OW64284   7.132   6.535   0.461 -0.1935 -0.1650  0.0875
20695SOL    HW164285   7.140   6.465   0.526  0.0420 -0.3833 -0.1687
20695SOL    HW264286   7.188   6.606   0.494 -0.0895 -0.2683  0.1349
20696SOL     OW64287   8.723   3.380   7.076  0.0274 -0.2748 -0.3060
20696SOL    HW164288   8.642   3.421   7.045  0.0549  0.0664  0.0678
20696SOL    HW264289   8.713   3.376   7.171 -0.4490 -2.1454 -0.3901
20697SOL     OW64290   3.185   0.208   3.585  0.2394 -0.3488  0.2788
20697SOL    HW164291   3.183   0.237   3.494  1.6040 -1.5361 -0.1628
20697SOL    HW264292   3.268   0.161   3.594 -0.6576 -1.7834  1.6608
20698SOL     OW64293   5.547   5.914   4.085 -0.2205 -0.4507  0.1962
20698SOL    HW164294   5.554   6.007   4.106  0.9741 -0.0766 -1.6404
20698SOL    HW264295   5.475   5.882   4.140 -2.8230  2.2481 -1.3119
20699SOL     OW64296   5.264   5.936   9.297 -0.3605 -0.4463  0.2320
20699SOL    HW164297   5.345   5.914   9.251  0.9660  3.0436  0.6423
20699SOL    HW264298   5.197   5.934   9.230  1.2827  3.0823 -1.7918
20700SOL     OW64299   2.268   7.933   5.907 -0.1243 -0.6551 -0.4279
20700SOL    HW164300   2.270   7.837   5.899 -0.3858 -0.7944  1.0295
20700SOL    HW264301   2.177   7.953   5.927 -0.0574 -0.0914 -0.6829
20701SOL     OW64302   6.979   3.243   7.734 -0.1668  0.2523 -0.6899
20701SOL    HW164303   6.941   3.278   7.815 -0.0368 -1.1769  0.0204
20701SOL    HW264304   6.965   3.148   7.740 -1.6454  0.2328 -3.1233
20702SOL     OW64305   6.771   6.162   8.799 -0.5101 -0.7674  0.0541
20702SOL    HW164306   6.706   6.099   8.828 -0.4392 -1.6932 -1.6988
20702SOL    HW264307   6.856   6.123   8.822 -0.4431 -1.6230 -1.5082
20703SOL     OW64308   8.102   7.909   4.529 -0.6440  0.2586  0.3769
20703SOL    HW164309   8.116   7.920   4.435 -0.2379  1.3858  0.5522
20703SOL    HW264310   8.007   7.896   4.537 -0.8115  1.0456 -0.1306
20704SOL     OW64311   1.797   1.616   4.784  0.1302 -0.1786 -0.0583
20704SOL    HW164312   1.736   1.577   4.847  1.2117 -2.1639 -0.1697
20704SOL    HW264313   1.745   1.629   4.705 -0.5867 -0.1142  0.4116
20705SOL     OW64314   3.473   0.013   4.772 -0.1810 -0.4915  0.3216
20705SOL    HW164315   3.439   0.065   4.699  0.6016  0.8021  0.8650
20705SOL    HW264316   3.531  -0.050   4.730 -1.5505 -1.3446 -0.3954
20706SOL     OW64317   6.163   7.466   6.214 -0.1615  0.4181 -0.5953
20706SOL    HW164318   6.222   7.423   6.275  1.3483  2.2102 -0.7197
20706SOL    HW264319   6.174   7.417   6.132 -0.6096 -0.6679 -0.0280
20707SOL     OW64320   7.108   5.210   8.953 -0.3678 -0.4802  0.7269
20707SOL    HW164321   7.070   5.206   9.041 -1.6459 -0.7802  0.1716
20707SOL    HW264322   7.193   5.252   8.966  0.1584 -1.9279  2.3375
20708SOL     OW64323   6.486   2.779   0.544 -0.0273  0.5292 -0.5310
20708SOL    HW164324   6.566   2.830   0.560  0.3435 -0.4033  0.8224
20708SOL    HW264325   6.418   2.845   0.531  0.1441  1.5151  2.6134
20709SOL     OW64326   5.047   7.873   3.192 -0.1287  0.2455 -0.5340
20709SOL    HW164327   5.052   7.787   3.151  0.3322 -0.0055  0.0343
20709SOL    HW264328   5.066   7.935   3.121 -3.1168  0.0887 -1.6050
20710SOL     OW64329   4.937   2.849   8.058  0.2517  0.2973  0.4921
20710SOL    HW164330   5.002   2.819   8.121 -1.0303 -1.5531  1.0030
20710SOL    HW264331   4.870   2.892   8.111  0.2886  0.8145  0.1286
20711SOL     OW64332   6.333   9.401   4.920 -0.2853 -0.0401 -0.1496
20711SOL    HW164333   6.371   9.349   4.849  1.0559  0.4783  0.1572
20711SOL    HW264334   6.280   9.467   4.876 -0.3468 -0.3917 -0.6102
20712SOL     OW64335   2.311   5.758   8.180  0.1377 -0.4745  0.2293
20712SOL    HW164336   2.318   5.790   8.090  0.7275  0.8597  0.7229
20712SOL    HW264337   2.401   5.760   8.214 -0.2240  0.1391  1.2003
20713SOL     OW64338   9.359   1.847   4.776 -0.0152 -0.2127  0.5052
20713SOL    HW164339   9.386   1.919   4.718  0.3579  0.6259  1.6809
20713SOL    HW264340   9.306   1.790   4.721 -1.9845  1.9752  0.0169
20714SOL     OW64341   6.815   4.987   1.066 -0.3404  0.4973  0.4564
20714SOL    HW164342   6.906   5.010   1.087  0.3013 -0.6491 -0.8580
20714SOL    HW264343   6.799   4.906   1.114  0.4283 -0.9831 -1.6267
20715SOL     OW64344   0.440   0.499   1.993 -0.5150 -0.2377 -0.3553
20715SOL    HW164345   0.419   0.436   1.925  0.8643 -3.9191  2.2865
20715SOL    HW264346   0.383   0.476   2.066  1.1070  0.4970  1.2416
20716SOL     OW64347   3.467   2.303   6.021 -0.1351  0.3016 -0.1500
20716SOL    HW164348   3.378   2.328   6.045 -0.2609  0.2322 -0.5507
20716SOL    HW264349   3.498   2.374   5.964 -0.2556 -0.1211 -0.7454
20717SOL     OW64350   5.502   7.028   0.095  0.1463  0.1195  0.0955
20717SOL    HW164351   5.550   7.095   0.046 -0.2766  0.6424  0.3867
20717SOL    HW264352   5.546   7.024   0.180  0.3021 -0.1325  0.0072
20718SOL     OW64353   8.191   8.761   8.200 -0.2813 -0.3698  0.5126
20718SOL    HW164354   8.212   8.800   8.285  1.0395 -0.6860  0.3505
20718SOL    HW264355   8.275   8.730   8.166 -0.7637 -0.1359 -0.9733
20719SOL     OW64356   3.616   6.565   3.376  0.1713 -0.4097  0.0799
20719SOL    HW164357   3.592   6.652   3.346  1.2764 -0.3803 -0.8014
20719SOL    HW264358   3.542   6.509   3.352 -0.4473  0.2394  0.4535
20720SOL     OW64359   3.606   1.829   9.300 -0.3159  0.9738 -0.3806
20720SOL    HW164360   3.606   1.884   9.379  1.0781  0.2191  0.1907
20720SOL    HW264361   3.699   1.817   9.279 -0.5998 -0.4140 -1.0089
20721SOL     OW64362   5.855   4.933   3.908 -0.0738  0.6728 -0.1017
20721SOL    HW164363   5.896   5.019   3.898 -0.7839  0.8570 -1.6939
20721SOL    HW264364   5.925   4.870   3.892  0.5372  0.9195  1.4453
20722SOL     OW64365   3.304   6.256   7.732  0.1062  0.2880  0.7688
20722SOL    HW164366   3.293   6.274   7.825  1.4935 -1.4222  1.3294
20722SOL    HW264367   3.235   6.193   7.711  1.4798 -1.5210  1.4064
20723SOL     OW64368   6.835   8.407   1.944 -0.7890 -0.5943  0.6485
20723SOL    HW164369   6.781   8.415   2.022  0.6618  0.1249  1.6317
20723SOL    HW264370   6.833   8.314   1.922 -0.7160 -0.9119  1.9390
20724SOL     OW64371   9.035   7.879   6.573 -0.1537  0.4988  1.0680
20724SOL    HW164372   9.003   7.885   6.483  1.0292  0.8643  0.6513
20724SOL    HW264373   8.956   7.884   6.627 -1.3159 -3.0811  0.0050
20725SOL     OW64374   9.379   3.409   4.780 -0.5773 -0.0929 -0.1240
20725SOL    HW164375   9.341   3.408   4.868  0.6188 -1.0148  0.4265
20725SOL    HW264376   9.439   3.484   4.781 -1.6410  0.7855 -0.6694
20726SOL     OW64377   2.516   4.941   0.334  0.3099 -0.6404  0.6606
20726SOL    HW164378   2.584   4.901   0.281 -0.6190 -0.4226 -0.7413
20726SOL    HW264379   2.445   4.961   0.272 -1.3134 -1.4676  2.1698
20727SOL     OW64380   5.624   1.086   4.031 -0.2473 -0.4666 -0.4449
20727SOL    HW164381   5.558   1.017   4.037  0.9714 -1.7029 -0.7471
20727SOL    HW264382   5.585   1.160   4.078 -2.0337 -0.9816 -1.0313
20728SOL     OW64383   6.558   4.560   4.596 -0.5635  0.4537  0.0051
20728SOL    HW164384   6.529   4.516   4.516 -1.1343 -0.0945  0.4938
20728SOL    HW264385   6.653   4.556   4.593 -0.5762  0.5622 -0.7131
20729SOL     OW64386   1.126   1.479   4.608 -0.0022  0.1776  0.1822
20729SOL    HW164387   1.203   1.463   4.663  0.9875 -0.6577 -1.3583
20729SOL    HW264388   1.052   1.471   4.668  1.0055 -0.9797  1.3498
20730SOL     OW64389   5.652   3.234   7.570  0.5641 -0.0257 -0.6545
20730SOL    HW164390   5.698   3.253   7.488  0.7474 -0.8601 -0.7581
20730SOL    HW264391   5.719   3.245   7.638  0.8198 -0.8175 -0.7660
20731SOL     OW64392   1.209   0.660   0.062 -0.5660  0.4399 -0.3261
20731SOL    HW164393   1.271   0.590   0.042 -1.1103 -0.1115 -0.1025
20731SOL    HW264394   1.166   0.633   0.143 -1.0667  0.8350 -0.4483
20732SOL     OW64395   2.355   9.551   8.816 -0.0377 -0.1266  0.2007
20732SOL    HW164396   2.274   9.598   8.797 -0.8941 -1.6985 -0.1716
20732SOL    HW264397   2.359   9.545   8.911 -0.5849 -0.4069  0.2077
20733SOL     OW64398   7.159   8.926   2.721  0.3538 -0.2007  0.3120
20733SOL    HW164399   7.080   8.974   2.695  0.0470 -0.2061  1.2253
20733SOL    HW264400   7.223   8.994   2.741  0.0550 -0.1669  1.1831
20734SOL     OW64401   7.906   7.347   0.352  0.6214  0.5187 -0.0945
20734SOL    HW164402   7.871   7.308   0.272  1.2563 -0.6513  0.1692
20734SOL    HW264403   7.919   7.439   0.330 -1.1077  0.6583 -0.6768
20735SOL     OW64404   7.280   9.304   2.333  0.1149 -0.0965  0.1461
20735SOL    HW164405   7.193   9.271   2.312 -0.1978  0.9872 -0.3249
20735SOL    HW264406   7.337   9.267   2.266 -0.0763 -0.3186  0.1035
20736SOL     OW64407   5.736   3.715   7.643  0.0917 -0.1299 -0.0823
20736SOL    HW164408   5.828   3.709   7.668  0.0821  1.4516  0.4315
20736SOL    HW264409   5.688   3.676   7.716  0.2586  1.0556  0.6824
20737SOL     OW64410   7.353   8.622   6.154 -0.0354  0.0714  0.0727
20737SOL    HW164411   7.298   8.681   6.103  0.8381 -0.2355 -1.2724
20737SOL    HW264412   7.337   8.535   6.118  0.2109 -0.2315  0.6682
20738SOL     OW64413   1.494   5.753   5.603 -0.5472  0.5568 -0.0773
20738SOL    HW164414   1.551   5.675   5.602 -2.3884 -0.8551 -0.2385
20738SOL    HW264415   1.537   5.813   5.663  1.9409  0.2208 -1.3938
20739SOL     OW64416   0.992   3.453   3.381 -0.2829 -0.2359  0.2158
20739SOL    HW164417   1.007   3.547   3.387  0.7655 -0.3972  0.3845
20739SOL    HW264418   1.058   3.422   3.318  0.0119 -0.9760  0.8623
20740SOL     OW64419   8.623   1.072   8.695 -0.2446 -0.5365 -0.7858
20740SOL    HW164420   8.679   1.026   8.631  1.2244 -0.8466  0.6594
20740SOL    HW264421   8.592   1.149   8.648  1.3832 -0.3681 -1.6670
20741SOL     OW64422   9.522   7.800   2.048  0.5177 -0.1887 -0.2780
20741SOL    HW164423   9.545   7.863   2.117  0.3500 -0.9033  0.4394
20741SOL    HW264424   9.427   7.806   2.042  0.6627  1.4579 -1.9973
20742SOL     OW64425   7.658   2.133   8.671  0.3387  0.0408  0.0510
20742SOL    HW164426   7.724   2.203   8.673 -0.2635  0.6458 -0.6400
20742SOL    HW264427   7.706   2.054   8.646  0.6647  0.6590 -1.3865
20743SOL     OW64428   3.547   8.893   3.519 -0.3641  0.0577 -0.0179
20743SOL    HW164429   3.561   8.977   3.563 -2.2283  0.9291 -0.9455
20743SOL    HW264430   3.560   8.911   3.427 -0.9872 -0.6018 -0.2505
20744SOL     OW64431   8.998   2.607   6.608  0.6762  0.0311  0.3731
20744SOL    HW164432   8.911   2.594   6.646  1.1357  1.1739  1.9271
20744SOL    HW264433   8.995   2.560   6.525 -0.7314 -1.7115  1.3352
20745SOL     OW64434   8.053   3.680   2.876  0.2785 -0.1550 -0.1159
20745SOL    HW164435   8.029   3.711   2.964  0.0342  0.3872 -0.3680
20745SOL    HW264436   7.969   3.658   2.835  0.3215  0.4336 -0.5226
20746SOL     OW64437   0.823   1.843   7.919  0.0910  0.2120  0.6896
20746SOL    HW164438   0.832   1.841   8.015  0.5818  1.8478  0.7095
20746SOL    HW264439   0.752   1.781   7.901 -0.7547  0.6613  2.2254
20747SOL     OW64440   2.965   1.385   7.593  0.2373 -0.3609  0.0090
20747SOL    HW164441   2.962   1.385   7.689 -0.2906 -0.0970 -0.0027
20747SOL    HW264442   2.935   1.473   7.569 -2.1522 -1.2423 -0.4620
20748SOL     OW64443   6.976   8.710   4.895  0.5492 -0.2175  0.0707
20748SOL    HW164444   7.038   8.719   4.822  1.6209  1.2162  1.1128
20748SOL    HW264445   7.026   8.735   4.973 -1.1573  0.3555  1.0372
20749SOL     OW64446   3.493   0.202   1.899  0.1930  0.0130 -0.0276
20749SOL    HW164447   3.437   0.245   1.834 -0.2521  1.6181  1.3174
20749SOL    HW264448   3.579   0.196   1.857 -0.4580 -0.4851 -1.3343
20750SOL     OW64449   7.685   7.603   5.495 -0.4170 -0.1721 -0.2100
20750SOL    HW164450   7.733   7.563   5.422  0.2281 -1.3281  0.8000
20750SOL    HW264451   7.741   7.674   5.525 -0.3351 -0.1640 -0.3808
20751SOL     OW64452   3.048   9.302   2.113 -0.2972  0.0100  0.2120
20751SOL    HW164453   3.081   9.286   2.202  0.0443 -0.3217  0.0289
20751SOL    HW264454   2.966   9.252   2.109 -0.4025  0.1654  0.3967
20752SOL     OW64455   2.902   2.362   7.531 -0.6224 -0.1077 -0.1898
20752SOL    HW164456   2.966   2.346   7.463  0.0189  1.7943 -0.1080
20752SOL    HW264457   2.907   2.285   7.588  0.5711 -0.6168 -0.9495
20753SOL     OW64458   2.020   0.543   0.918  0.7255 -0.2552 -0.3298
20753SOL    HW164459   2.076   0.590   0.856  1.5609 -1.6642 -0.6774
20753SOL    HW264460   2.063   0.555   1.003  1.2282 -0.8278 -0.5007
20754SOL     OW64461   2.232   4.196   3.968 -0.3272  0.1475 -0.5900
20754SOL    HW164462   2.300   4.253   3.933  0.3458 -0.1022  0.2835
20754SOL    HW264463   2.225   4.221   4.061  0.8725 -2.0234  0.1360
20755SOL     OW64464   8.894   8.490   8.350  0.7223  0.2046 -0.2893
20755SOL    HW164465   8.813   8.440   8.336 -0.3488  2.0720 -1.2866
20755SOL    HW264466   8.898   8.549   8.274  1.7941  1.7255  0.8873
20756SOL     OW64467   4.684   6.166   3.735 -0.2787 -0.4390 -0.2587
20756SOL    HW164468   4.776   6.143   3.722 -0.0680  0.5276 -0.5141
20756SOL    HW264469   4.673   6.169   3.830  0.3303  0.9009 -0.2175
20757SOL     OW64470   3.656   7.281   5.021 -0.2507 -0.2867  0.2766
20757SOL    HW164471   3.614   7.366   5.027 -0.4015 -0.4220  1.4388
20757SOL    HW264472   3.738   7.297   4.975 -0.5374  0.3822 -0.0034
20758SOL     OW64473   8.121   6.364   0.588  0.0839 -0.3766  0.0808
20758SOL    HW164474   8.028   6.379   0.604  0.4434  0.5957  1.3496
20758SOL    HW264475   8.140   6.282   0.633 -0.3823 -1.2051 -1.1605
20759SOL     OW64476   5.557   8.130   4.447  0.0032  0.4412 -0.1136
20759SOL    HW164477   5.568   8.128   4.352 -2.8858 -0.4800 -0.5205
20759SOL    HW264478   5.606   8.054   4.478 -0.4470 -0.2649 -1.0907
20760SOL     OW64479   7.411   7.486   3.399 -0.2176  0.4731 -0.2916
20760SOL    HW164480   7.326   7.447   3.378 -0.0897 -0.8950  1.5743
20760SOL    HW264481   7.472   7.412   3.399 -0.0474  0.3866  3.7862
20761SOL     OW64482   0.840   3.993   0.077 -0.5542  0.1159 -0.7800
20761SOL    HW164483   0.782   3.921   0.102 -0.4723 -0.0376 -1.0327
20761SOL    HW264484   0.881   3.964  -0.005 -1.0547  0.7498 -1.2586
20762SOL     OW64485   4.874   1.054   5.786  0.3001  0.2512 -0.4337
20762SOL    HW164486   4.919   1.064   5.870  2.4467 -0.8143 -1.3930
20762SOL    HW264487   4.794   1.106   5.796  1.1510  1.2762  1.7610
20763SOL     OW64488   0.551   4.497   7.593  0.2011  0.4089  0.2156
20763SOL    HW164489   0.604   4.482   7.672 -2.4378  0.0582  2.0466
20763SOL    HW264490   0.552   4.413   7.547 -0.8611 -0.4225  1.6330
20764SOL     OW64491   5.929   1.945   8.868 -0.0441 -0.0551  0.3272
20764SOL    HW164492   5.880   1.869   8.837 -1.5652  0.8789  0.3512
20764SOL    HW264493   6.021   1.922   8.854 -0.4089 -2.2975  1.2791
20765SOL     OW64494   3.803   4.745   6.080 -0.3886  0.4288 -0.5606
20765SOL    HW164495   3.824   4.829   6.038 -0.8249  0.8659  0.0600
20765SOL    HW264496   3.732   4.709   6.027  1.1498 -0.5516 -2.0407
20766SOL     OW64497   1.835   0.375   7.932  0.3319 -0.2053 -0.0958
20766SOL    HW164498   1.761   0.416   7.977  0.2586  1.1214 -1.3773
20766SOL    HW264499   1.856   0.299   7.987 -0.8106  0.4026  1.2622
20767SOL     OW64500   6.874   5.050   9.117  0.1461 -0.2457  0.4190
20767SOL    HW164501   6.871   5.021   9.208  2.6395 -0.4224  0.5264
20767SOL    HW264502   6.895   4.971   9.068 -1.7768 -0.2747 -0.4443
20768SOL     OW64503   5.536   2.132   0.014 -0.0928 -0.3038 -0.1191
20768SOL    HW164504   5.518   2.096   0.101 -0.3205 -0.4286 -0.2162
20768SOL    HW264505   5.612   2.188   0.026 -0.6856  0.4264  0.3573
20769SOL     OW64506   9.021   7.322   3.394  0.1377 -0.6276  0.1818
20769SOL    HW164507   9.006   7.415   3.381 -0.3427 -0.7766 -0.3511
20769SOL    HW264508   9.098   7.302   3.339  1.1319 -0.2683  1.3932
20770SOL     OW64509   1.979   8.867   8.807  0.4625 -0.0355 -0.3716
20770SOL    HW164510   1.993   8.819   8.726 -1.2920 -1.2600 -0.0223
20770SOL    HW264511   1.885   8.883   8.809  0.8291  2.3281  0.1792
20771SOL     OW64512   4.206   5.773   2.283  0.7128  0.1430 -0.1887
20771SOL    HW164513   4.260   5.846   2.314 -0.4886  0.6119  0.8678
20771SOL    HW264514   4.146   5.813   2.220  1.1214 -0.2603 -0.8564
20772SOL     OW64515   7.790   2.124   0.990 -0.4789 -1.0580 -0.2966
20772SOL    HW164516   7.864   2.165   0.946 -0.6002  0.5400  0.8809
20772SOL    HW264517   7.817   2.119   1.082 -1.7159 -0.7228  0.1005
20773SOL     OW64518   6.880   0.965   4.678 -0.6273  0.1909  0.1429
20773SOL    HW164519   6.843   0.951   4.765  0.3556  0.9354  0.7008
20773SOL    HW264520   6.965   1.005   4.695 -0.9269  1.4787 -1.1948
20774SOL     OW64521   0.812   2.992   7.010 -0.1441  0.0992  0.3990
20774SOL    HW164522   0.872   2.939   7.063  0.5845 -1.0649 -1.4870
20774SOL    HW264523   0.744   3.021   7.072  0.8646 -0.8630  2.0191
20775SOL     OW64524   2.075   6.938   3.867  0.4649  0.2451 -0.6396
20775SOL    HW164525   2.134   6.988   3.812  0.3037 -0.5335 -1.5347
20775SOL    HW264526   2.003   6.999   3.887  0.7069  0.6442 -0.9761
20776SOL     OW64527   0.299   3.996   9.193 -1.0465  0.6958  0.2675
20776SOL    HW164528   0.212   3.965   9.216 -1.8164  1.0421 -1.9478
20776SOL    HW264529   0.358   3.932   9.234 -2.3099  0.2730  1.5322
20777SOL     OW64530   0.301   0.144   5.339 -0.1421  0.0198  0.4370
20777SOL    HW164531   0.266   0.154   5.250 -1.5217  1.6476  1.1063
20777SOL    HW264532   0.354   0.223   5.354 -0.2571 -0.0360  1.1948
20778SOL     OW64533   5.887   7.213   1.398 -0.2839  0.6802 -0.2221
20778SOL    HW164534   5.812   7.190   1.344 -0.1785  0.0784 -0.1222
20778SOL    HW264535   5.962   7.179   1.350 -0.0785  1.2227 -0.2895
20779SOL     OW64536   0.684   6.223   2.388  0.6360 -0.0665  0.1649
20779SOL    HW164537   0.631   6.195   2.462  2.1009 -1.4983  0.7340
20779SOL    HW264538   0.770   6.242   2.426  1.9195 -2.4118 -1.3359
20780SOL     OW64539   3.453   5.980   8.706 -0.0688  0.4220 -1.0933
20780SOL    HW164540   3.441   6.022   8.791 -0.0448 -0.8983 -0.4024
20780SOL    HW264541   3.374   6.003   8.657 -0.3408  0.7519 -0.5165
20781SOL     OW64542   2.777   4.304   6.976  0.3720 -0.0814 -0.5952
20781SOL    HW164543   2.769   4.296   6.881  1.2665  1.0039 -0.7805
20781SOL    HW264544   2.714   4.371   7.000  0.0769 -0.4249 -0.4055
20782SOL     OW64545   9.238   5.691   6.142  0.2104  0.3585 -0.2134
20782SOL    HW164546   9.288   5.705   6.062 -1.3301  1.2024 -1.0855
20782SOL    HW264547   9.246   5.598   6.160  0.0510  0.0239 -1.7537
20783SOL     OW64548   5.524   4.111   3.486 -0.0561  0.3815 -0.5290
20783SOL    HW164549   5.478   4.042   3.534  0.3121 -0.0966 -0.8667
20783SOL    HW264550   5.460   4.183   3.481 -0.3396  0.1733  0.0639
20784SOL     OW64551   6.799   6.825   4.372  0.5541  0.6724 -0.4435
20784SOL    HW164552   6.869   6.799   4.433  1.5553  1.9486 -0.9823
20784SOL    HW264553   6.759   6.743   4.344  0.9638 -0.0139  0.8997
20785SOL     OW64554   5.320   2.607   0.701 -0.2041  0.2769 -0.3384
20785SOL    HW164555   5.337   2.640   0.790 -0.4924  2.0919 -0.9223
20785SOL    HW264556   5.361   2.521   0.700  2.4376  1.3952  0.6695
20786SOL     OW64557   5.569   8.234   7.403  0.0294 -0.2804  0.6159
20786SOL    HW164558   5.645   8.186   7.371  1.1090  2.4528 -1.3399
20786SOL    HW264559   5.498   8.209   7.344  0.3516 -0.1363  0.1633
20787SOL     OW64560   4.977   4.048   2.614 -0.3516  0.2012 -0.1314
20787SOL    HW164561   4.940   4.073   2.529 -0.6938  0.0929 -0.0152
20787SOL    HW264562   5.068   4.076   2.609  0.0323 -1.1267 -1.0890
20788SOL     OW64563   4.886   8.997   8.590  0.3483  0.1639 -0.2676
20788SOL    HW164564   4.880   9.000   8.494  0.6824 -0.2824 -0.3021
20788SOL    HW264565   4.831   9.070   8.619 -0.3101 -0.1179 -0.7795
20789SOL     OW64566   3.889   5.785   4.546 -0.0612  0.0441  0.1976
20789SOL    HW164567   3.912   5.699   4.511 -0.3300 -0.0644  0.2853
20789SOL    HW264568   3.806   5.807   4.503 -1.1022 -0.6859  1.7387
20790SOL     OW64569   5.807   5.685   7.851 -0.5277 -0.2913  0.3649
20790SOL    HW164570   5.895   5.660   7.822 -0.7125 -1.1686  0.5419
20790SOL    HW264571   5.817   5.775   7.882  0.0086  0.1338 -0.9375
20791SOL     OW64572   0.613   2.182   0.993 -0.0974  0.2520  0.2109
20791SOL    HW164573   0.704   2.208   0.979 -0.2034  0.7559  0.4077
20791SOL    HW264574   0.589   2.222   1.077 -1.2617  2.3710 -1.0208
20792SOL     OW64575   5.570   1.189   0.185  0.2510 -0.0328  0.0880
20792SOL    HW164576   5.609   1.276   0.177  0.9627 -0.3722 -0.2175
20792SOL    HW264577   5.644   1.131   0.203 -0.2334 -0.5588  0.4166
20793SOL     OW64578   2.429   1.589   2.265 -0.0321  0.5026 -0.6535
20793SOL    HW164579   2.448   1.629   2.350 -1.6519 -1.3887  0.7072
20793SOL    HW264580   2.507   1.606   2.213  0.4891  2.8911  0.7270
20794SOL     OW64581   5.766   3.339   0.156  0.0635 -0.2461  0.4548
20794SOL    HW164582   5.806   3.310   0.073  1.2653 -0.7299  1.1811
20794SOL    HW264583   5.681   3.296   0.157 -0.6399  0.9754 -1.2292
20795SOL     OW64584   5.248   2.966   5.593 -0.2566 -0.6195 -0.5864
20795SOL    HW164585   5.324   2.916   5.564 -0.5995 -1.2968 -0.3341
20795SOL    HW264586   5.257   2.970   5.689 -1.3896 -2.1355 -0.3867
20796SOL     OW64587   8.537   6.735   0.904  0.2071  0.0415  0.2896
20796SOL    HW164588   8.549   6.783   0.822 -1.3660 -0.3274 -0.1879
20796SOL    HW264589   8.521   6.644   0.877  0.6898 -0.2900  1.0680
20797SOL     OW64590   3.548   1.331   3.469  0.2934  0.1901  0.7129
20797SOL    HW164591   3.642   1.346   3.481  0.3106 -0.3888  1.4026
20797SOL    HW264592   3.534   1.243   3.503 -0.7721  0.8781  2.1534
20798SOL     OW64593   8.712   7.038   5.647 -0.4994 -0.2190  0.1229
20798SOL    HW164594   8.740   6.960   5.696 -1.1017 -0.9701 -0.7094
20798SOL    HW264595   8.711   7.108   5.713 -0.0336 -0.9277  0.9025
20799SOL     OW64596   2.195   5.515   1.601  0.2545 -0.0908  0.5468
20799SOL    HW164597   2.239   5.442   1.558  0.0060 -0.5480  1.0549
20799SOL    HW264598   2.149   5.475   1.674 -1.5414  0.2810 -0.3390
20800SOL     OW64599   7.747   7.828   4.013  0.3976 -0.4260  0.0285
20800SOL    HW164600   7.664   7.804   4.054 -0.5478  0.3732 -1.3256
20800SOL    HW264601   7.726   7.832   3.919  1.2698  2.3882 -0.1231
20801SOL     OW64602   8.947   4.682   8.885 -0.1892 -0.3291 -0.6644
20801SOL    HW164603   8.974   4.640   8.803 -0.1776 -1.2890 -0.1814
20801SOL    HW264604   9.024   4.674   8.942  0.2472  1.4050 -0.9221
20802SOL     OW64605   5.439   8.771   1.661 -0.3957  0.6372 -0.5870
20802SOL    HW164606   5.516   8.752   1.607  0.3226 -0.0230  0.6324
20802SOL    HW264607   5.415   8.686   1.699 -0.2080  1.2655  0.9858
20803SOL     OW64608   3.727   1.165   6.960 -0.4678  0.3718 -0.2355
20803SOL    HW164609   3.741   1.126   7.046 -0.4257 -2.0076 -1.2629
20803SOL    HW264610   3.632   1.178   6.955 -0.5485 -0.1543 -0.1016
20804SOL     OW64611   9.257   3.521   6.483 -0.2356  0.3140  0.2398
20804SOL    HW164612   9.278   3.434   6.450  1.4877  0.1225  1.6873
20804SOL    HW264613   9.179   3.508   6.538 -1.0630  0.0453 -0.9554
20805SOL     OW64614   4.304   2.970   2.819  0.1286 -0.3691 -0.1222
20805SOL    HW164615   4.314   3.065   2.805 -0.1705 -0.5274 -1.5694
20805SOL    HW264616   4.379   2.931   2.775 -0.1402 -0.8438 -0.1683
20806SOL     OW64617   8.528   7.995   4.444  0.3880  0.0956  0.2436
20806SOL    HW164618   8.548   7.963   4.531 -1.2586 -2.1516 -0.1267
20806SOL    HW264619   8.582   7.941   4.385 -0.7448 -0.5064 -0.2722
20807SOL     OW64620   6.495   8.123   0.048 -0.7184 -0.0723  0.0296
20807SOL    HW164621   6.452   8.121   0.134 -0.4780 -0.4266  0.1384
20807SOL    HW264622   6.440   8.182  -0.003  0.4006  2.0497  1.1071
20808SOL     OW64623   8.583   4.228   4.962 -0.1350  0.0392  0.1871
20808SOL    HW164624   8.563   4.305   4.908 -1.0155 -0.5517 -0.3398
20808SOL    HW264625   8.629   4.264   5.038  1.8153  0.8190 -1.2837
20809SOL     OW64626   6.860   1.530   5.865 -0.4069  0.7942 -0.3242
20809SOL    HW164627   6.880   1.512   5.773  0.6830 -0.0868  0.0624
20809SOL    HW264628   6.941   1.568   5.900 -0.4175  0.0324  0.5423
20810SOL     OW64629   0.094   4.062   6.488 -0.7536  0.1247  0.1069
20810SOL    HW164630   0.088   4.081   6.582  0.4675  0.1436  0.2015
20810SOL    HW264631   0.033   3.990   6.475 -1.5759  0.6874  0.7443
20811SOL     OW64632   5.160   5.596   1.294 -0.1523  0.1480 -0.2200
20811SOL    HW164633   5.175   5.510   1.254  0.2497 -0.4756  1.2116
20811SOL    HW264634   5.238   5.612   1.347 -1.1583  0.3978  1.2404
20812SOL     OW64635   8.566   3.885   3.276  0.3373  0.7331  0.5359
20812SOL    HW164636   8.565   3.976   3.304 -2.2069  1.0817 -0.4389
20812SOL    HW264637   8.560   3.889   3.181  1.6219 -0.4792  0.3701
20813SOL     OW64638   4.759   8.861   0.061  0.2596 -0.1824 -0.1194
20813SOL    HW164639   4.718   8.876  -0.024  0.6797 -0.2919 -0.3464
20813SOL    HW264640   4.726   8.931   0.117  0.5645  0.3402 -0.5875
20814SOL     OW64641   0.228   3.534   2.620 -0.2269 -0.1323  0.6195
20814SOL    HW164642   0.291   3.491   2.677 -1.0273 -1.3269  0.6556
20814SOL    HW264643   0.186   3.600   2.676  0.5648  0.2648  0.7550
20815SOL     OW64644   6.543   6.540   6.744  0.3985  0.7065  0.2776
20815SOL    HW164645   6.542   6.487   6.664  0.1161  2.3361 -0.8470
20815SOL    HW264646   6.455   6.529   6.780  0.5473 -0.0911  0.4357
20816SOL     OW64647   1.710   1.907   8.547  0.1277  0.1309  0.7532
20816SOL    HW164648   1.692   1.988   8.500  2.0866  0.1128 -0.0840
20816SOL    HW264649   1.627   1.886   8.591 -1.7779  0.2310 -2.5209
20817SOL     OW64650   7.654   7.634   6.736 -0.8397  0.0956 -0.2187
20817SOL    HW164651   7.599   7.635   6.658  0.8891 -0.1100 -1.4956
20817SOL    HW264652   7.736   7.594   6.707 -0.8082 -1.7934  2.1848
20818SOL     OW64653   0.869   5.755   3.264  1.0466 -0.0272  0.2193
20818SOL    HW164654   0.919   5.827   3.225 -0.5175  1.0938  0.1807
20818SOL    HW264655   0.833   5.792   3.344  0.4474 -0.8593  0.3472
20819SOL     OW64656   6.507   3.248   3.418 -0.0532 -0.2250  0.1845
20819SOL    HW164657   6.482   3.238   3.326  1.8567  1.0759 -0.5307
20819SOL    HW264658   6.559   3.170   3.437 -0.4811 -0.5132  0.1968
20820SOL     OW64659   0.506   2.945   4.134 -0.2204  0.3389  0.2944
20820SOL    HW164660   0.551   2.944   4.218  0.0186 -1.0682  0.1640
20820SOL    HW264661   0.552   2.880   4.081 -0.2283  1.3449 -1.0100
20821SOL     OW64662   8.185   9.031   1.627  0.2455 -0.2563 -0.2291
20821SOL    HW164663   8.212   9.044   1.717 -0.9014  1.2274 -0.0632
20821SOL    HW264664   8.254   8.977   1.588  1.1167 -0.2962  1.3214
20822SOL     OW64665   1.116   4.559   2.571  0.1002 -0.2198  0.1616
20822SOL    HW164666   1.172   4.534   2.497 -0.1982 -1.4343  0.3248
20822SOL    HW264667   1.035   4.508   2.558 -0.6831  0.9372  0.3362
20823SOL     OW64668   4.047   0.334   3.496 -0.0469 -0.1170  0.0842
20823SOL    HW164669   3.966   0.361   3.539 -0.1928  1.0371 -0.8741
20823SOL    HW264670   4.021   0.309   3.407  0.6244  0.1336 -0.1915
20824SOL     OW64671   7.079   8.964   2.217  0.3000  0.3420 -0.4627
20824SOL    HW164672   6.992   8.930   2.241 -0.0870  0.9223 -1.0153
20824SOL    HW264673   7.140   8.902   2.257 -0.3801 -0.7516 -1.0509
20825SOL     OW64674   1.004   0.862   4.929 -0.2334  0.4191 -0.2373
20825SOL    HW164675   0.973   0.883   4.841 -0.5385  0.3218 -0.1562
20825SOL    HW264676   0.978   0.938   4.982 -2.6112 -0.7140  0.3507
20826SOL     OW64677   4.925   2.548   1.168 -0.4799 -0.0889 -0.1824
20826SOL    HW164678   4.939   2.638   1.136  1.5111 -0.2765  0.0307
20826SOL    HW264679   4.857   2.557   1.235 -0.3681  1.2606 -0.2191
20827SOL     OW64680   3.154   7.384   7.063  0.5824 -0.0979  0.1948
20827SOL    HW164681   3.132   7.444   7.134  2.0062  2.8328 -1.6491
20827SOL    HW264682   3.092   7.405   6.994  0.9423 -0.9646 -0.4004
20828SOL     OW64683   8.607   5.989   4.588  0.4861  0.3829  0.2463
20828SOL    HW164684   8.636   5.914   4.536  0.1401 -0.8764  1.7681
20828SOL    HW264685   8.681   6.008   4.646 -0.7557 -1.4707  2.6573
20829SOL     OW64686   7.735   6.869   4.193  0.2620 -0.5700  0.1764
20829SOL    HW164687   7.790   6.794   4.170  1.5017  0.3744 -0.0731
20829SOL    HW264688   7.797   6.933   4.230 -0.4077  1.1307 -1.4985
20830SOL     OW64689   6.495   7.249   7.917  0.0239  0.3074 -0.1133
20830SOL    HW164690   6.582   7.265   7.881  1.0323  0.8131  2.3385
20830SOL    HW264691   6.476   7.327   7.969 -2.7934  1.0863 -2.0670
20831SOL     OW64692   0.654   2.632   8.557  0.1535  0.3551 -0.2800
20831SOL    HW164693   0.612   2.622   8.642  0.4728 -1.9663 -0.3415
20831SOL    HW264694   0.597   2.587   8.496  0.7199  0.6346 -1.0418
20832SOL     OW64695   4.004   5.802   6.895  0.0155 -0.6685  0.3467
20832SOL    HW164696   4.097   5.805   6.874 -0.2583 -2.0689 -1.3225
20832SOL    HW264697   3.991   5.716   6.935 -0.6300 -0.6874  0.1168
20833SOL     OW64698   0.537   8.395   9.042 -0.2209 -0.0155 -0.2418
20833SOL    HW164699   0.530   8.391   8.947 -0.6688 -1.9304 -0.1661
20833SOL    HW264700   0.620   8.353   9.063 -0.6315 -0.6035  0.2552
20834SOL     OW64701   8.804   4.108   7.324 -0.2173 -0.3262 -0.2695
20834SOL    HW164702   8.732   4.164   7.353 -1.1813 -2.4185  1.7163
20834SOL    HW264703   8.869   4.169   7.288 -2.0915  1.8188 -0.2533
20835SOL     OW64704   6.214   6.501   0.397  0.2503  0.1938 -0.2939
20835SOL    HW164705   6.221   6.406   0.392 -0.1285  0.0092  1.7249
20835SOL    HW264706   6.276   6.533   0.331 -1.2383 -1.4107 -2.6447
20836SOL     OW64707   0.285   5.117   8.336  0.2773 -0.4763 -0.1249
20836SOL    HW164708   0.299   5.081   8.423  0.1873  0.5371  0.3214
20836SOL    HW264709   0.190   5.132   8.331  0.3913  0.3286 -0.0343
20837SOL     OW64710   5.512   2.935   6.226  0.2545 -0.3669  0.3222
20837SOL    HW164711   5.469   2.849   6.224 -1.7158  0.5085  1.5294
20837SOL    HW264712   5.449   2.993   6.184  0.1597  0.9885  2.2049
20838SOL     OW64713   5.144   7.496   6.141 -0.0064  0.3129 -0.7046
20838SOL    HW164714   5.068   7.522   6.089 -0.4145 -0.2267 -0.3865
20838SOL    HW264715   5.170   7.411   6.105 -0.8943 -0.5460  0.5738
20839SOL     OW64716   5.510   6.740   5.545  0.3833 -0.3555 -0.3051
20839SOL    HW164717   5.536   6.689   5.468  0.5803 -1.4525  0.4541
20839SOL    HW264718   5.557   6.823   5.536  2.1939 -1.3203 -0.2630
20840SOL     OW64719   5.498   7.148   0.554 -0.6600  0.9822  0.1182
20840SOL    HW164720   5.575   7.137   0.609  0.0759  0.6450 -0.9542
20840SOL    HW264721   5.480   7.061   0.519 -1.9114  0.9345  0.8479
20841SOL     OW64722   3.677   6.867   0.955 -0.8745 -0.0296  0.3491
20841SOL    HW164723   3.715   6.790   0.997 -0.9317 -0.3410 -0.1580
20841SOL    HW264724   3.585   6.844   0.941 -0.6016 -0.4290 -1.0340
20842SOL     OW64725   6.413   8.641   2.410  0.1044 -0.5249  0.0875
20842SOL    HW164726   6.403   8.681   2.496  0.5470 -0.1286 -0.0398
20842SOL    HW264727   6.482   8.575   2.422  1.0999  0.4185 -0.2431
20843SOL     OW64728   3.052   3.556   4.478  1.0673 -0.4746 -0.0860
20843SOL    HW164729   3.106   3.628   4.509  2.6646 -1.3730 -0.6934
20843SOL    HW264730   3.026   3.582   4.389  0.6560 -0.1317  0.1327
20844SOL     OW64731   5.551   1.615   8.695  0.1737  0.1325  0.2294
20844SOL    HW164732   5.457   1.614   8.676  0.1080  2.7069  0.1026
20844SOL    HW264733   5.574   1.522   8.706 -2.1589 -0.6320 -0.6872
20845SOL     OW64734   5.002   1.450   3.647 -0.3192 -0.0013 -0.2590
20845SOL    HW164735   5.057   1.463   3.725  0.4339 -0.1781 -0.7543
20845SOL    HW264736   4.920   1.415   3.682 -0.3170  0.7521  0.5423
20846SOL     OW64737   0.550   5.468   6.102  0.1537 -0.2899 -0.1062
20846SOL    HW164738   0.580   5.410   6.032  0.8754 -0.5137  0.3702
20846SOL    HW264739   0.470   5.508   6.068  1.1941  0.6255 -1.5900
20847SOL     OW64740   9.117   5.631   8.448 -0.3454  0.0506  0.2747
20847SOL    HW164741   9.034   5.642   8.495 -2.3136 -1.8903 -2.3795
20847SOL    HW264742   9.138   5.719   8.417 -2.2770  0.4064 -0.1984
20848SOL     OW64743   3.053   0.909   1.615  0.4413 -0.6775 -0.0475
20848SOL    HW164744   3.098   0.837   1.569  1.0254 -1.1216  1.1910
20848SOL    HW264745   2.967   0.914   1.572  0.8778 -1.2223 -1.0378
20849SOL     OW64746   5.472   7.483   3.875 -0.0787 -0.5669 -0.1410
20849SOL    HW164747   5.389   7.479   3.827 -0.5849 -4.0772  0.6979
20849SOL    HW264748   5.498   7.391   3.885  3.5617  0.3526  0.3225
20850SOL     OW64749   3.878   0.080   3.749 -0.7258 -0.5086 -0.4929
20850SOL    HW164750   3.880   0.051   3.658  1.4280  0.5720 -0.8578
20850SOL    HW264751   3.881   0.176   3.744  0.7435 -0.4482  0.6755
20851SOL     OW64752   8.411   3.683   0.292 -0.4721 -0.5094  0.2723
20851SOL    HW164753   8.373   3.596   0.285  0.9397 -1.1455  0.2340
20851SOL    HW264754   8.419   3.699   0.386 -0.7104 -0.4320  0.2791
20852SOL     OW64755   9.043   1.347   1.009  0.0971  0.0308  0.0064
20852SOL    HW164756   9.071   1.428   1.051 -0.7630  0.4338 -0.1786
20852SOL    HW264757   9.091   1.345   0.926  0.6920 -0.0328  0.3498
20853SOL     OW64758   3.837   8.218   9.137  0.6958 -0.6218 -0.1341
20853SOL    HW164759   3.900   8.281   9.102 -0.7065  0.4310 -0.8546
20853SOL    HW264760   3.828   8.152   9.068  0.0445 -0.0596 -0.6017
20854SOL     OW64761   2.220   2.711   2.796  0.1297  0.1308  0.1247
20854SOL    HW164762   2.265   2.627   2.808 -1.4557 -0.8140 -0.3813
20854SOL    HW264763   2.274   2.758   2.732 -0.1735 -1.4549 -1.3620
20855SOL     OW64764   0.347   3.373   3.763  0.3226  0.9121 -0.1138
20855SOL    HW164765   0.371   3.328   3.843 -0.1921  1.1513  0.1813
20855SOL    HW264766   0.355   3.466   3.784  2.4691  0.9854 -1.0536
20856SOL     OW64767   2.000   0.347   5.511 -0.2775  0.0097  0.4428
20856SOL    HW164768   1.927   0.379   5.459  0.1394 -0.5670 -0.5230
20856SOL    HW264769   2.049   0.425   5.537 -1.7588  0.4980  1.9513
20857SOL     OW64770   5.508   3.132   2.749 -0.0066 -0.2443  0.0987
20857SOL    HW164771   5.517   3.200   2.816  1.2061  0.4951 -0.7890
20857SOL    HW264772   5.429   3.084   2.775 -0.3279  0.8696  1.2972
20858SOL     OW64773   8.796   7.032   5.960  0.4419 -0.0290 -0.6992
20858SOL    HW164774   8.736   7.019   6.034  1.0849  0.1060 -0.1396
20858SOL    HW264775   8.771   7.117   5.923 -0.1714 -0.3019 -0.9115
20859SOL     OW64776   9.390   8.413   7.733  0.2078 -0.0980  0.4316
20859SOL    HW164777   9.426   8.486   7.683  0.6632  0.1845  1.1524
20859SOL    HW264778   9.295   8.423   7.726  0.2063 -1.2173 -2.0418
20860SOL     OW64779   8.216   1.492   8.056  0.2747 -0.2497 -0.2585
20860SOL    HW164780   8.129   1.466   8.085  0.1435 -1.2659 -1.4750
20860SOL    HW264781   8.200   1.546   7.979  0.7097 -0.0761 -0.2295
20861SOL     OW64782   9.062   2.512   6.358 -0.2712  0.2600 -0.0650
20861SOL    HW164783   9.141   2.495   6.307 -0.6362  0.4623 -0.7084
20861SOL    HW264784   8.992   2.468   6.310 -1.3694  3.8166 -2.1084
20862SOL     OW64785   9.435   1.998   6.088 -0.3326 -0.1245 -0.2207
20862SOL    HW164786   9.356   1.958   6.125 -0.3255  1.3307  1.4955
20862SOL    HW264787   9.412   2.016   5.997 -1.8553 -0.0878  0.1362
20863SOL     OW64788   7.147   9.406   0.749  0.0988  0.6801  0.0504
20863SOL    HW164789   7.230   9.429   0.705 -0.5885  2.0174 -0.6203
20863SOL    HW264790   7.174   9.368   0.833  1.4385 -1.3392 -1.2160
20864SOL     OW64791   8.825   3.565   1.183  0.0532  0.2610 -0.1179
20864SOL    HW164792   8.834   3.493   1.120 -0.1275 -1.8224  2.0844
20864SOL    HW264793   8.912   3.574   1.222 -0.3668 -0.1102  0.9492
20865SOL     OW64794   6.932   8.312   0.354 -0.7137 -0.7223  0.5121
20865SOL    HW164795   7.020   8.305   0.319  0.2468  0.5444  2.5108
20865SOL    HW264796   6.880   8.251   0.301  1.0336 -0.4920 -1.5961
20866SOL     OW64797   5.484   5.218   1.011 -0.0179  0.4243 -0.3279
20866SOL    HW164798   5.452   5.164   0.938 -1.4026  1.2441 -0.3563
20866SOL    HW264799   5.422   5.201   1.082 -0.1411  1.5598 -0.1578
20867SOL     OW64800   8.468   0.447   8.839  0.2292  0.0172  0.4187
20867SOL    HW164801   8.428   0.392   8.906 -1.1646  1.0915  0.5212
20867SOL    HW264802   8.445   0.404   8.756 -0.8984  0.4421  0.4947
20868SOL     OW64803   2.343   5.241   5.900  0.2044  0.0781  0.0294
20868SOL    HW164804   2.393   5.307   5.948  0.1498 -0.5883  1.0496
20868SOL    HW264805   2.252   5.256   5.927 -0.1720  1.1990 -1.7124
20869SOL     OW64806   5.413   3.355   2.271  0.5694  0.5090  0.2010
20869SOL    HW164807   5.423   3.329   2.363  0.3223  1.2673  0.4516
20869SOL    HW264808   5.336   3.307   2.241 -0.3732  1.5271  0.8939
20870SOL     OW64809   8.861   5.061   8.947  0.3217 -0.1263 -0.0378
20870SOL    HW164810   8.867   4.989   9.009 -0.8360 -0.2794 -0.0913
20870SOL    HW264811   8.805   5.029   8.877  1.5685  0.0598 -1.1687
20871SOL     OW64812   7.419   4.750   5.021  0.1788  0.1570  0.0486
20871SOL    HW164813   7.411   4.718   4.932  2.7261 -1.1377  0.2098
20871SOL    HW264814   7.512   4.769   5.032 -0.1481  0.7803  2.2760
20872SOL     OW64815   1.406   5.566   1.848  0.0901  0.8731 -0.1650
20872SOL    HW164816   1.420   5.553   1.942  0.5541 -2.9255 -0.6179
20872SOL    HW264817   1.473   5.629   1.823  0.5385  1.2837  1.8587
20873SOL     OW64818   1.085   0.007   3.830  0.4029  0.0725  0.1671
20873SOL    HW164819   1.153  -0.009   3.764  0.2413 -2.0676  0.4246
20873SOL    HW264820   1.028   0.074   3.791  1.9713  1.0296 -0.5541
20874SOL     OW64821   8.016   9.163   6.615 -0.3348  0.1350  0.0931
20874SOL    HW164822   7.994   9.214   6.693 -2.0438  1.8357 -1.3984
20874SOL    HW264823   8.031   9.228   6.546 -1.8509 -1.2997 -1.7215
20875SOL     OW64824   5.301   0.175   1.113 -0.0205  0.0674 -0.1377
20875SOL    HW164825   5.375   0.233   1.133 -0.4384  0.4881  0.2185
20875SOL    HW264826   5.295   0.117   1.189 -0.9809  1.0095  0.5307
20876SOL     OW64827   1.558   4.628   8.017  0.3259  0.4453  0.6438
20876SOL    HW164828   1.589   4.636   8.107  2.6480  1.1454 -0.1360
20876SOL    HW264829   1.616   4.685   7.967 -0.8173 -0.0254 -1.3287
20877SOL     OW64830   7.959   7.992   2.881  0.2519 -0.3179 -0.2281
20877SOL    HW164831   7.928   7.905   2.906  0.1883  0.0776  1.1182
20877SOL    HW264832   7.963   8.041   2.963  0.5436  0.8747 -0.9313
20878SOL     OW64833   2.390   3.008   8.665  0.1171 -0.9568  0.5904
20878SOL    HW164834   2.386   3.102   8.650  1.0037 -0.4138  3.1675
20878SOL    HW264835   2.349   2.969   8.589  1.5104  1.4121 -1.5196
20879SOL     OW64836   5.462   6.958   4.182 -0.4088 -0.2804  0.4117
20879SOL    HW164837   5.368   6.957   4.164 -0.5259  4.0133 -0.3692
20879SOL    HW264838   5.469   6.985   4.273  0.0495 -0.2157  0.3634
20880SOL     OW64839   9.480   1.833   7.196 -0.0837 -0.5574  0.4230
20880SOL    HW164840   9.389   1.804   7.200  0.1739 -1.2449  1.9228
20880SOL    HW264841   9.475   1.928   7.186 -0.9421 -0.8217 -2.7847
20881SOL     OW64842   7.911   4.010   5.014  0.5977  0.0831 -0.2109
20881SOL    HW164843   7.902   3.970   5.101  0.8734  1.1298  0.3152
20881SOL    HW264844   8.004   4.032   5.007  0.3729  1.0611 -0.2754
20882SOL     OW64845   5.691   7.941   6.842 -0.4579  0.0230 -0.1856
20882SOL    HW164846   5.682   7.994   6.763 -0.2455  0.2526 -0.0553
20882SOL    HW264847   5.785   7.941   6.860 -0.5382  0.2215  0.2371
20883SOL     OW64848   2.441   4.486   7.525  0.2801 -0.5955 -0.7670
20883SOL    HW164849   2.490   4.568   7.532 -0.2701 -0.1400 -1.9666
20883SOL    HW264850   2.355   4.512   7.493 -0.3311 -1.5280  0.0333
20884SOL     OW64851   9.078   0.560   1.038 -0.1189  0.1316  0.1114
20884SOL    HW164852   9.099   0.616   1.113  1.1064  1.8686 -1.4256
20884SOL    HW264853   8.983   0.551   1.041 -0.0520 -0.3532  2.1799
20885SOL     OW64854   2.066   8.235   4.459  0.0078  0.4282 -0.1300
20885SOL    HW164855   2.066   8.306   4.524 -0.6173  0.3620 -0.0472
20885SOL    HW264856   1.973   8.217   4.445  0.1588 -0.9254  0.4615
20886SOL     OW64857   8.273   0.913   0.507  0.3939  0.0756  0.3721
20886SOL    HW164858   8.245   0.834   0.461  1.1278 -0.3043  0.5618
20886SOL    HW264859   8.348   0.885   0.559  0.4275  0.8154  0.7315
20887SOL     OW64860   2.544   3.429   2.409  0.2289  0.0551 -0.1493
20887SOL    HW164861   2.459   3.438   2.365  0.9975  2.2358 -1.3530
20887SOL    HW264862   2.545   3.501   2.473  1.1346  0.0141 -0.1018
20888SOL     OW64863   2.359   3.440   5.731 -0.1839 -0.3585  0.0056
20888SOL    HW164864   2.345   3.399   5.646  0.0035  0.6821 -0.5385
20888SOL    HW264865   2.379   3.531   5.711 -1.6405  0.2770  1.2197
20889SOL     OW64866   2.457   3.647   6.476  0.2746  0.0217  0.9296
20889SOL    HW164867   2.444   3.599   6.395  1.1232  1.0944  0.1242
20889SOL    HW264868   2.399   3.723   6.469 -1.2078 -0.9265  2.2722
20890SOL     OW64869   8.551   8.152   0.933 -0.6342 -0.0465 -0.6515
20890SOL    HW164870   8.611   8.136   0.860  0.8922 -0.6974  0.7064
20890SOL    HW264871   8.572   8.084   0.997 -0.9177  1.4015  1.0324
20891SOL     OW64872   3.905   8.797   0.795 -0.3640  0.1517 -0.2478
20891SOL    HW164873   3.847   8.770   0.866 -1.1017 -1.2737 -1.3557
20891SOL    HW264874   3.846   8.823   0.724  0.3639  0.4893 -0.7441
20892SOL     OW64875   4.540   2.318   4.092  0.6906  0.5325  0.3015
20892SOL    HW164876   4.490   2.289   4.017  0.1329  0.5169  0.6743
20892SOL    HW264877   4.481   2.376   4.140  1.1361  0.7685  0.5808
20893SOL     OW64878   1.359   1.235   5.276  0.5395 -0.6286  0.4516
20893SOL    HW164879   1.335   1.225   5.368  0.5342 -1.4670  0.3670
20893SOL    HW264880   1.276   1.227   5.228  0.5652 -0.3649  0.3613
20894SOL     OW64881   4.265   1.460   4.642 -0.0523  0.4470  0.1496
20894SOL    HW164882   4.212   1.382   4.662 -0.3810  0.9811  1.4385
20894SOL    HW264883   4.202   1.530   4.630  0.3161  0.9437  1.0123
20895SOL     OW64884   8.837   6.465   1.800 -0.1121  0.1441  0.2187
20895SOL    HW164885   8.863   6.374   1.786 -0.6027  0.1949 -1.1871
20895SOL    HW264886   8.749   6.461   1.837  0.4150  0.0410  1.5104
20896SOL     OW64887   5.466   3.671   9.104  0.3114  0.1501 -0.4713
20896SOL    HW164888   5.550   3.712   9.124 -0.6163  1.8641  0.1843
20896SOL    HW264889   5.478   3.632   9.017  1.8397  0.1315 -0.2786
20897SOL     OW64890   2.302   1.900   0.371  0.2296  0.1814  0.7192
20897SOL    HW164891   2.253   1.844   0.430 -1.4058  0.9708  0.1739
20897SOL    HW264892   2.312   1.848   0.291  1.9321 -0.6608  1.4129
20898SOL     OW64893   4.472   5.922   2.095  0.1140 -0.2099  0.2707
20898SOL    HW164894   4.447   5.939   2.186  0.4205  1.0437  0.1337
20898SOL    HW264895   4.389   5.917   2.048 -0.0045  0.4580  0.4031
20899SOL     OW64896   2.787   9.182   9.043  0.5752  0.7776  0.4347
20899SOL    HW164897   2.812   9.171   8.952 -0.6813 -0.9054  0.2519
20899SOL    HW264898   2.822   9.105   9.087 -0.6544  0.4783  0.9390
20900SOL     OW64899   0.875   4.247   8.951 -0.0487 -0.3678  0.5459
20900SOL    HW164900   0.780   4.256   8.937  0.2838  0.2159 -1.6685
20900SOL    HW264901   0.884   4.161   8.993 -1.6269  0.0894  1.9444
20901SOL     OW64902   8.184   8.958   4.576  0.2485  0.3272 -0.2724
20901SOL    HW164903   8.217   9.021   4.512  1.1547 -0.8744 -1.0298
20901SOL    HW264904   8.253   8.951   4.642  0.1081  0.2101 -0.1353
20902SOL     OW64905   8.777   6.391   1.045 -0.2320 -0.3203 -0.0122
20902SOL    HW164906   8.727   6.436   0.977 -0.4571 -2.1899 -1.1465
20902SOL    HW264907   8.795   6.304   1.009  0.4194 -1.0701  1.9687
20903SOL     OW64908   7.263   0.587   1.628 -0.4113  0.7970  0.0274
20903SOL    HW164909   7.327   0.597   1.698 -1.4168 -0.3003  1.1483
20903SOL    HW264910   7.202   0.660   1.639 -0.6041  0.5893  0.3458
20904SOL     OW64911   6.039   8.126   9.113 -0.2218  0.3507  0.1349
20904SOL    HW164912   6.124   8.143   9.072 -1.0865  2.2694 -0.9859
20904SOL    HW264913   6.034   8.188   9.185 -1.3133  1.4323 -0.8276
20905SOL     OW64914   0.234   7.850   1.342 -0.1609  0.8281 -0.5197
20905SOL    HW164915   0.277   7.916   1.286  1.1817  0.2417 -0.2174
20905SOL    HW264916   0.215   7.897   1.423  0.3903  0.9722 -0.4663
20906SOL     OW64917   8.951   6.647   3.694  0.3637 -0.3376  0.2926
20906SOL    HW164918   8.856   6.658   3.682  0.5410  0.1719 -0.8298
20906SOL    HW264919   8.967   6.679   3.783 -0.5019 -0.2871  0.4459
20907SOL     OW64920   2.121   1.308   6.731  0.2433 -0.3904  0.3015
20907SOL    HW164921   2.193   1.296   6.793  0.2280  1.1837  0.6704
20907SOL    HW264922   2.157   1.280   6.647  1.1523 -0.0392  0.5588
20908SOL     OW64923   0.135   8.356   0.993  0.0621  0.7371 -0.2341
20908SOL    HW164924   0.166   8.414   0.923  0.8195  0.7813  0.1276
20908SOL    HW264925   0.151   8.268   0.959  0.8528  0.7593  0.0525
20909SOL     OW64926   0.581   6.648   1.094 -0.7669  0.0458 -0.1556
20909SOL    HW164927   0.545   6.726   1.137  0.9384  0.9529 -0.2974
20909SOL    HW264928   0.646   6.615   1.156 -0.4146 -0.3932 -0.7531
20910SOL     OW64929   2.558   5.966   0.114  0.5741  0.0693 -0.1273
20910SOL    HW164930   2.537   5.893   0.171 -1.1542  0.9065  0.3651
20910SOL    HW264931   2.621   6.018   0.164  1.5327 -0.8559 -0.3383
20911SOL     OW64932   3.035   7.516   8.118 -0.3752  0.1652  0.4349
20911SOL    HW164933   3.105   7.535   8.056  0.7957  1.8945  2.1894
20911SOL    HW264934   3.023   7.597   8.167 -2.6461 -0.5373  1.1544
20912SOL     OW64935   4.239   0.116   3.509 -0.2780  0.2570  0.0409
20912SOL    HW164936   4.281   0.105   3.423 -0.3620 -1.0073  0.1331
20912SOL    HW264937   4.177   0.187   3.497 -1.1419 -0.6841 -1.2964
20913SOL     OW64938   6.579   5.156   2.569 -0.0728 -0.2293  0.1062
20913SOL    HW164939   6.624   5.209   2.635 -0.7440 -1.0873  1.2872
20913SOL    HW264940   6.588   5.206   2.488 -1.6886  2.3344  1.3670
20914SOL     OW64941   7.277   8.551   5.525 -0.1593  0.2515  0.3746
20914SOL    HW164942   7.359   8.502   5.516  1.1808  2.5386 -1.1989
20914SOL    HW264943   7.210   8.484   5.536  1.4330 -2.0131 -2.2647
20915SOL     OW64944   3.626   0.802   8.386 -0.1399 -0.4147 -0.1225
20915SOL    HW164945   3.541   0.845   8.374  0.5943  0.9338 -0.7483
20915SOL    HW264946   3.620   0.720   8.338 -0.2741  0.8050 -2.2862
20916SOL     OW64947   3.012   8.589   5.476  0.3293  0.0914 -0.3020
20916SOL    HW164948   3.091   8.616   5.430  0.0169 -0.1093 -0.9666
20916SOL    HW264949   3.042   8.522   5.538  0.7328  0.2814 -0.2920
20917SOL     OW64950   3.673   5.759   9.199 -0.1697 -0.1091  0.0246
20917SOL    HW164951   3.739   5.701   9.238 -0.0229  0.7364  1.0879
20917SOL    HW264952   3.652   5.719   9.115  0.4095 -1.3464  0.4464
20918SOL     OW64953   2.328   6.745   6.764  0.2333 -0.4780 -0.7342
20918SOL    HW164954   2.275   6.822   6.743  0.0252 -0.7852 -1.3591
20918SOL    HW264955   2.328   6.693   6.684 -0.0666 -1.3951 -0.1553
20919SOL     OW64956   8.471   8.497   5.090  0.1402  0.8641  0.1311
20919SOL    HW164957   8.541   8.473   5.030 -1.0788 -0.1730 -0.9560
20919SOL    HW264958   8.461   8.422   5.148  0.2477  1.2051  0.5994
20920SOL     OW64959   2.345   4.430   2.010  0.9514 -0.2383  0.3799
20920SOL    HW164960   2.385   4.491   1.948  1.1743  0.3107  1.0464
20920SOL    HW264961   2.367   4.343   1.977  1.2588  0.0526 -0.1857
20921SOL     OW64962   1.135   5.387   8.664 -0.2318  0.2153 -0.0234
20921SOL    HW164963   1.052   5.433   8.681 -0.3875 -0.0854  0.0284
20921SOL    HW264964   1.134   5.314   8.725  1.1002  1.4776  1.6109
20922SOL     OW64965   1.326   5.990   0.743 -0.3503 -0.2789  0.4461
20922SOL    HW164966   1.285   5.906   0.763 -1.2910  0.7582  3.4728
20922SOL    HW264967   1.254   6.054   0.748  0.8226  1.0451  1.3785
20923SOL     OW64968   9.293   3.596   4.542 -0.2635 -0.3882  0.1503
20923SOL    HW164969   9.271   3.622   4.632 -0.4307 -2.7368  0.8506
20923SOL    HW264970   9.386   3.617   4.534 -0.1794 -0.3788  0.9836
20924SOL     OW64971   7.916   8.937   1.296  0.0466  0.3728  0.4566
20924SOL    HW164972   7.917   8.924   1.201 -0.7146 -0.4395  0.5444
20924SOL    HW264973   7.864   9.016   1.309  0.5601  0.7644  0.1793
20925SOL     OW64974   3.685   4.683   8.843 -0.6855 -0.2329  0.1564
20925SOL    HW164975   3.632   4.701   8.765 -2.5863 -0.6773  1.2947
20925SOL    HW264976   3.682   4.763   8.894  0.7640  0.1404 -0.3040
20926SOL     OW64977   7.293   7.320   2.615 -0.6145 -0.1730  0.1209
20926SOL    HW164978   7.232   7.287   2.549 -2.0498  1.2046  0.6781
20926SOL    HW264979   7.242   7.321   2.696  0.1562  0.9576  0.6155
20927SOL     OW64980   6.074   5.145   7.988 -0.2748  0.1366  0.4825
20927SOL    HW164981   6.036   5.158   8.075  0.0596 -0.8105  0.7778
20927SOL    HW264982   6.155   5.196   7.989 -1.3877  1.9976 -0.0777
20928SOL     OW64983   3.294   1.112   3.325  0.3562 -0.5218  0.1510
20928SOL    HW164984   3.247   1.130   3.407  1.0815 -1.3988  0.7721
20928SOL    HW264985   3.323   1.198   3.296 -1.2172 -0.0058 -0.0090
20929SOL     OW64986   4.942   7.337   0.142 -0.3033  0.4370  0.0773
20929SOL    HW164987   4.890   7.296   0.211  0.2635  0.4997  0.5429
20929SOL    HW264988   4.909   7.298   0.061 -2.4215  1.8681  0.1612
20930SOL     OW64989   7.544   9.444   7.928 -0.0438  0.0653 -0.1031
20930SOL    HW164990   7.575   9.507   7.994 -0.2016  1.4446 -1.3003
20930SOL    HW264991   7.455   9.472   7.909 -1.0768 -2.0949  1.1651
20931SOL     OW64992   6.681   3.297   5.142  0.2225  0.0446 -0.0681
20931SOL    HW164993   6.642   3.210   5.143  1.1212 -0.5033 -2.8480
20931SOL    HW264994   6.764   3.287   5.188  0.8005 -0.8777 -1.2679
20932SOL     OW64995   4.965   1.265   2.583 -0.3885 -0.2361  0.2475
20932SOL    HW164996   5.021   1.292   2.656 -1.2986 -0.5950  1.1100
20932SOL    HW264997   4.927   1.182   2.612  1.4142 -1.8723 -1.8327
20933SOL     OW64998   8.450   7.352   4.093  0.6170  0.7482 -0.2230
20933SOL    HW164999   8.433   7.387   4.006  2.1808  3.1324  0.3315
20933SOL    HW265000   8.402   7.411   4.152  0.9857  0.2199  0.6243
20934SOL     OW65001   4.182   9.218   1.038  0.1989 -0.0721  0.3202
20934SOL    HW165002   4.090   9.243   1.046 -0.2869 -2.0581  1.9583
20934SOL    HW265003   4.189   9.180   0.951 -0.7586 -0.6523  0.4798
20935SOL     OW65004   1.509   6.955   6.316 -0.3583 -0.2979 -0.7117
20935SOL    HW165005   1.457   6.879   6.342  0.1531 -0.3115  0.3438
20935SOL    HW265006   1.580   6.958   6.380 -0.1023  0.7946 -1.0222
20936SOL     OW65007   8.195   3.971   2.723  0.5279 -0.3615  0.0716
20936SOL    HW165008   8.225   3.923   2.800 -0.5782 -0.9737  0.1466
20936SOL    HW265009   8.238   3.927   2.649  0.0181 -1.0983  0.1940
20937SOL     OW65010   2.585   2.206   4.459  0.2301 -1.1445  0.1619
20937SOL    HW165011   2.575   2.155   4.540 -0.6885 -1.5061 -0.1688
20937SOL    HW265012   2.680   2.217   4.450  0.4345 -2.5031  0.4312
20938SOL     OW65013   0.188   6.880   3.507 -0.5951 -0.2269  0.2281
20938SOL    HW165014   0.245   6.817   3.464  1.1272  2.2308 -1.4168
20938SOL    HW265015   0.243   6.924   3.571 -1.4062  0.4008  0.5199
20939SOL     OW65016   0.437   4.875   0.220  0.2754  0.3577 -0.2031
20939SOL    HW165017   0.507   4.820   0.254  1.5657  1.2636 -1.2811
20939SOL    HW265018   0.382   4.816   0.168  1.9227  0.1242 -1.7635
20940SOL     OW65019   2.214   7.627   7.162 -0.5922  0.1092 -0.0253
20940SOL    HW165020   2.164   7.652   7.240 -1.7753  0.8916 -1.0056
20940SOL    HW265021   2.305   7.620   7.193 -0.5295  3.3479  0.8272
20941SOL     OW65022   7.378   5.170   7.852  0.8561  0.1877  0.1037
20941SOL    HW165023   7.283   5.174   7.841  0.5952 -1.4402  1.2852
20941SOL    HW265024   7.390   5.138   7.941  2.5370  0.7256  0.1050
20942SOL     OW65025   4.075   0.969   0.846 -0.6486 -0.0792 -0.5967
20942SOL    HW165026   4.031   0.971   0.761 -0.7994 -1.5178 -0.5716
20942SOL    HW265027   4.091   0.876   0.863  0.4212  0.2704  0.4187
20943SOL     OW65028   1.059   7.615   5.478 -0.4287  0.0965 -0.2506
20943SOL    HW165029   1.151   7.634   5.495 -0.7068  0.3355  1.1878
20943SOL    HW265030   1.022   7.597   5.565 -1.7308 -0.0223 -0.8007
20944SOL     OW65031   1.588   7.496   3.212 -0.3385  0.4181 -0.0408
20944SOL    HW165032   1.660   7.509   3.150  0.7624  1.1944  1.3286
20944SOL    HW265033   1.528   7.568   3.195 -0.4636  0.1412 -0.7679
20945SOL     OW65034   4.427   4.966   9.374 -0.0081  0.3387 -0.0941
20945SOL    HW165035   4.517   4.980   9.405 -0.4934  1.8308  0.7690
20945SOL    HW265036   4.436   4.944   9.282  1.2916 -0.5323  0.2071
20946SOL     OW65037   6.700   6.996   8.378 -0.2543  0.0524 -0.0248
20946SOL    HW165038   6.615   6.968   8.411 -1.5391  0.3367 -2.8221
20946SOL    HW265039   6.699   7.091   8.386 -1.0173  0.2246 -1.6516
20947SOL     OW65040   5.188   6.690   2.550 -0.1393  0.2250  0.0599
20947SOL    HW165041   5.165   6.671   2.459 -0.3447  0.7731 -0.0032
20947SOL    HW265042   5.275   6.730   2.545  1.5734 -3.1208  0.3999
20948SOL     OW65043   4.522   2.513   4.838 -0.7269 -0.1774 -0.0458
20948SOL    HW165044   4.435   2.517   4.879 -2.2191 -0.2063 -2.9440
20948SOL    HW265045   4.517   2.437   4.780  0.5539  0.9181 -1.6615
20949SOL     OW65046   1.111   3.894   9.481 -0.1345  0.7962  0.1828
20949SOL    HW165047   1.080   3.813   9.521 -0.8644  1.0068  0.0504
20949SOL    HW265048   1.196   3.910   9.522  0.4174 -0.4824 -0.3972
20950SOL     OW65049   0.930   2.658   3.098 -0.2795 -0.2775  0.6611
20950SOL    HW165050   0.933   2.742   3.053  1.9038 -0.9553 -0.6000
20950SOL    HW265051   0.894   2.596   3.034  1.3643 -0.9375  0.3208
20951SOL     OW65052   6.808   5.106   4.907  0.2182 -0.4497 -0.0381
20951SOL    HW165053   6.835   5.191   4.943  0.3961  0.0129 -1.2428
20951SOL    HW265054   6.740   5.128   4.843  0.6924 -1.1640 -0.7976
20952SOL     OW65055   7.702   5.700   9.012  0.3893 -0.1922  0.2807
20952SOL    HW165056   7.734   5.636   8.949 -0.5498 -0.8485  0.4596
20952SOL    HW265057   7.607   5.697   9.004  0.0294 -2.3383  3.6414
20953SOL     OW65058   3.104   8.689   3.771 -0.0015 -0.6416 -0.4568
20953SOL    HW165059   3.172   8.739   3.725 -1.2574  1.2449 -0.3406
20953SOL    HW265060   3.139   8.678   3.860  0.5258 -0.4462 -0.6347
20954SOL     OW65061   4.322   2.101   9.198 -0.8500  0.2622 -0.3377
20954SOL    HW165062   4.375   2.117   9.276 -0.7814  0.0727 -0.3442
20954SOL    HW265063   4.350   2.169   9.136 -0.1075 -0.2606 -0.5920
20955SOL     OW65064   8.325   6.205   6.111 -0.1000 -0.0286  0.0048
20955SOL    HW165065   8.238   6.197   6.071  0.4685 -2.9177 -0.9255
20955SOL    HW265066   8.359   6.115   6.110  2.0255  0.6459  2.3877
20956SOL     OW65067   0.754   2.696   9.370  0.1902  0.3609  0.7996
20956SOL    HW165068   0.711   2.666   9.450 -0.8974 -2.8880 -0.8356
20956SOL    HW265069   0.690   2.753   9.328  0.3596  1.2474  1.7194
20957SOL     OW65070   6.163   1.156   1.147  0.0748  0.5904 -0.3378
20957SOL    HW165071   6.236   1.174   1.206  1.2260 -0.0402 -1.5125
20957SOL    HW265072   6.196   1.180   1.061 -1.2633  0.6707 -0.8503
20958SOL     OW65073   6.704   7.171   9.307  0.0478  0.3225  0.0681
20958SOL    HW165074   6.684   7.213   9.390  0.5921  1.3659 -0.3126
20958SOL    HW265075   6.678   7.079   9.319  0.4085  0.3949  1.4763
20959SOL     OW65076   0.553   3.679   0.864 -0.2973 -0.5606  0.0974
20959SOL    HW165077   0.491   3.635   0.922 -3.3056  2.0784 -0.8277
20959SOL    HW265078   0.591   3.749   0.917 -2.6683  1.5296 -0.7733
20960SOL     OW65079   8.493   1.798   6.843  0.1717 -0.0542  0.2643
20960SOL    HW165080   8.495   1.884   6.884 -1.0794  0.1389 -0.0553
20960SOL    HW265081   8.405   1.765   6.860  0.3943 -0.9568 -0.2638
20961SOL     OW65082   3.733   1.290   7.337  0.4833 -0.0945 -0.1446
20961SOL    HW165083   3.741   1.231   7.262 -1.3268  0.4821 -0.8362
20961SOL    HW265084   3.722   1.231   7.412 -0.4441 -0.6741 -0.7170
20962SOL     OW65085   0.371   8.733   3.908  0.1694 -0.1383  0.0507
20962SOL    HW165086   0.450   8.784   3.926 -0.0934 -0.1438  1.3934
20962SOL    HW265087   0.332   8.775   3.832 -0.9223  2.8268  2.0283
20963SOL     OW65088   2.253   0.995   3.258  0.0224 -0.3973 -0.4783
20963SOL    HW165089   2.335   0.949   3.271  0.7089  0.8614 -0.1978
20963SOL    HW265090   2.227   1.025   3.345 -0.6901 -0.7042 -0.5733
20964SOL     OW65091   5.969   3.842   8.796 -0.0975 -0.4072  0.0116
20964SOL    HW165092   6.040   3.779   8.786  0.5081  0.2216  0.3284
20964SOL    HW265093   5.904   3.796   8.849  1.0968 -0.1684  1.7309
20965SOL     OW65094   6.857   7.616   2.012 -0.0233  0.1125 -0.3628
20965SOL    HW165095   6.814   7.602   2.097  0.2493  2.1742  0.1855
20965SOL    HW265096   6.786   7.645   1.955  0.0325  0.1207 -0.4272
20966SOL     OW65097   6.959   4.471   4.744  0.1604  0.6128  0.2525
20966SOL    HW165098   7.050   4.451   4.763  0.4425  1.2792 -0.3557
20966SOL    HW265099   6.941   4.551   4.793  0.3628  1.3276 -0.8074
20967SOL     OW65100   9.389   4.853   2.832  0.0510 -0.0381  0.5170
20967SOL    HW165101   9.309   4.845   2.780  0.4818  1.6087 -0.4806
20967SOL    HW265102   9.360   4.845   2.923 -1.0171 -0.8879  0.1264
20968SOL     OW65103   8.702   9.102   3.040  0.1409  0.0050 -0.1551
20968SOL    HW165104   8.659   9.018   3.024  2.2818 -1.4283  1.0864
20968SOL    HW265105   8.666   9.132   3.124 -0.1839  0.0334 -0.3033
20969SOL     OW65106   8.943   3.048   6.289  0.2669 -0.4126 -0.3368
20969SOL    HW165107   8.924   2.955   6.283  1.5260 -0.8639  1.6368
20969SOL    HW265108   9.012   3.054   6.356 -0.7776  2.0591  0.6346
20970SOL     OW65109   4.399   1.589   5.165  0.0255 -0.6559  0.0153
20970SOL    HW165110   4.419   1.506   5.122  0.7676 -0.6594  0.3426
20970SOL    HW265111   4.304   1.590   5.173 -0.0656 -1.0444 -0.8391
20971SOL     OW65112   5.716   0.648   5.042 -0.2310  0.2450  0.0868
20971SOL    HW165113   5.774   0.662   5.117  0.7323 -1.1207 -0.3568
20971SOL    HW265114   5.743   0.713   4.978  0.7209 -0.2595 -0.0437
20972SOL     OW65115   5.811   9.340   0.240 -0.5219 -0.2027  0.0037
20972SOL    HW165116   5.812   9.341   0.336 -0.4112 -1.9763  0.0519
20972SOL    HW265117   5.819   9.248   0.217 -1.2843  0.1202 -1.7169
20973SOL     OW65118   7.403   3.819   0.650 -0.2709  0.6088  0.4988
20973SOL    HW165119   7.474   3.847   0.708 -0.1332  0.3824  0.4424
20973SOL    HW265120   7.364   3.745   0.696  0.0550  0.2105  0.1480
20974SOL     OW65121   6.910   4.086   7.869 -0.1673 -0.1944 -0.2065
20974SOL    HW165122   6.901   4.181   7.866  2.4408  0.1368  0.2916
20974SOL    HW265123   6.937   4.067   7.958  1.2959 -1.1656 -0.8334
20975SOL     OW65124   2.187   9.168   2.486  0.5812 -0.0265  0.1959
20975SOL    HW165125   2.135   9.244   2.515 -1.3268 -0.7847 -1.0446
20975SOL    HW265126   2.263   9.206   2.443 -0.9561  1.3001 -1.5320
20976SOL     OW65127   8.360   8.852   6.051  0.2120  0.4974  0.3284
20976SOL    HW165128   8.272   8.864   6.015  0.0234 -1.4839 -0.0080
20976SOL    HW265129   8.411   8.923   6.013 -0.9446  0.9359 -0.4957
20977SOL     OW65130   9.572   1.628   4.784 -0.1344 -0.3573 -0.4094
20977SOL    HW165131   9.488   1.670   4.805  0.3816  0.3062  0.4345
20977SOL    HW265132   9.623   1.697   4.741 -0.8321 -1.4285 -3.1737
20978SOL     OW65133   5.563   1.785   4.261 -0.4948 -0.3610  0.3356
20978SOL    HW165134   5.641   1.777   4.316 -1.2273 -4.1583  1.0345
20978SOL    HW265135   5.498   1.827   4.317  0.4488  1.1684  0.3412
20979SOL     OW65136   1.158   2.959   7.307 -0.0292  0.2935 -0.1306
20979SOL    HW165137   1.156   2.921   7.395 -0.4912  1.0768  0.2037
20979SOL    HW265138   1.230   3.022   7.309  0.6786 -0.4657 -0.6590
20980SOL     OW65139   5.045   1.095   5.390  0.1609  0.0249 -0.2283
20980SOL    HW165140   5.047   1.163   5.458 -0.8237 -0.0809 -0.0838
20980SOL    HW265141   5.063   1.014   5.436  0.3954  0.0688 -0.2434
20981SOL     OW65142   5.823   5.410   0.564  0.0805 -0.2715 -0.2468
20981SOL    HW165143   5.869   5.366   0.493 -0.4263 -0.2275 -0.6079
20981SOL    HW265144   5.838   5.504   0.549 -1.1477 -0.1892 -1.0909
20982SOL     OW65145   5.256   4.744   8.588  0.4129  0.0135 -0.4853
20982SOL    HW165146   5.191   4.815   8.587  1.4954  1.0332 -1.6234
20982SOL    HW265147   5.320   4.771   8.653  0.5550 -0.1876 -0.5426
20983SOL     OW65148   5.101   3.595   8.503 -0.5374 -0.8155  0.4935
20983SOL    HW165149   5.187   3.615   8.466 -1.5410  0.9083 -1.0816
20983SOL    HW265150   5.091   3.500   8.492  1.0128 -0.9872  0.4135
20984SOL     OW65151   1.989   0.710   5.244 -0.1416  0.4695  0.0340
20984SOL    HW165152   1.948   0.734   5.327  1.2719  1.6033  0.4491
20984SOL    HW265153   2.057   0.647   5.269 -1.6655 -1.5595 -0.6673
20985SOL     OW65154   9.296   6.913   5.330 -0.1637  0.1972 -0.1159
20985SOL    HW165155   9.334   6.825   5.335  2.4510  1.1612 -1.0299
20985SOL    HW265156   9.321   6.954   5.413  0.6732  0.7782 -0.6393
20986SOL     OW65157   0.726   4.072   3.731  0.2431 -0.2780 -0.4507
20986SOL    HW165158   0.651   4.103   3.781 -0.6857 -0.2434 -1.7892
20986SOL    HW265159   0.801   4.081   3.790 -0.4714  1.6968  0.2224
20987SOL     OW65160   9.559   8.728   8.690 -0.7193 -0.7960 -0.2374
20987SOL    HW165161   9.510   8.807   8.666  0.2047 -0.1625 -0.1024
20987SOL    HW265162   9.493   8.658   8.691 -1.3163 -0.2979 -1.7086
20988SOL     OW65163   4.653   7.735   1.566  0.3247  0.4808 -0.3121
20988SOL    HW165164   4.603   7.785   1.631 -0.2126  0.3006 -0.5759
20988SOL    HW265165   4.586   7.702   1.505  0.7308 -0.0544 -0.4775
20989SOL     OW65166   1.356   5.540   1.539  0.0664 -0.8703  0.1433
20989SOL    HW165167   1.280   5.487   1.514 -0.1595 -0.1834 -0.6669
20989SOL    HW265168   1.328   5.584   1.620 -0.9084  0.3868 -0.8396
20990SOL     OW65169   4.039   1.162   0.609  1.0209  0.0068  0.4789
20990SOL    HW165170   4.073   1.087   0.560 -0.4984  0.3103 -1.1309
20990SOL    HW265171   4.019   1.227   0.542 -1.7647  0.2089  1.3954
20991SOL     OW65172   8.573   4.213   5.336 -0.0183 -0.3384 -0.1712
20991SOL    HW165173   8.609   4.125   5.329 -1.6277 -1.2228  1.7797
20991SOL    HW265174   8.493   4.202   5.387 -0.8900  2.1024 -0.8867
20992SOL     OW65175   5.136   6.699   0.187 -0.0556  0.3054  0.1472
20992SOL    HW165176   5.132   6.627   0.250  0.1205  0.8607  0.8083
20992SOL    HW265177   5.056   6.749   0.203  0.5565  1.1168  0.7680
20993SOL     OW65178   7.804   7.421   2.888  0.4940 -0.2574 -0.1842
20993SOL    HW165179   7.710   7.431   2.904  0.8015  3.6461  0.0512
20993SOL    HW265180   7.841   7.406   2.975  0.1078 -2.5105 -0.3569
20994SOL     OW65181   7.344   2.895   4.542  0.5967 -0.2400 -0.1699
20994SOL    HW165182   7.380   2.975   4.502  2.4057 -0.1232  1.5583
20994SOL    HW265183   7.421   2.845   4.568 -0.5261 -1.7711  0.3285
20995SOL     OW65184   3.038   2.695   5.986  0.4463  0.0932 -0.0310
20995SOL    HW165185   3.086   2.751   6.046  0.7737 -1.1897  0.9532
20995SOL    HW265186   3.104   2.661   5.926  0.3184  0.4049 -0.3544
20996SOL     OW65187   4.296   8.183   7.834 -0.1690 -0.2724  0.4821
20996SOL    HW165188   4.293   8.279   7.832 -0.6383 -0.2894  0.0138
20996SOL    HW265189   4.334   8.161   7.919  1.0951  0.3521  0.1032
20997SOL     OW65190   4.850   7.525   6.587 -0.4314 -0.3332 -0.0586
20997SOL    HW165191   4.937   7.562   6.572  0.3458 -2.1655 -0.3431
20997SOL    HW265192   4.793   7.573   6.526  0.9449 -1.0921 -2.0622
20998SOL     OW65193   1.469   5.113   0.943  0.2413 -0.6741 -0.6185
20998SOL    HW165194   1.457   5.114   1.038 -1.7891  2.9912 -0.7220
20998SOL    HW265195   1.563   5.101   0.930  0.7571  0.1834  1.9152
20999SOL     OW65196   4.386   8.488   6.102 -0.3258 -0.3775  0.2026
20999SOL    HW165197   4.368   8.464   6.011  2.2929 -0.6240 -0.3374
20999SOL    HW265198   4.320   8.442   6.153  0.7696 -3.9121 -1.2427
21000SOL     OW65199   9.398   4.663   1.966  0.1026  0.1851  0.2890
21000SOL    HW165200   9.441   4.592   2.015 -0.1853 -1.7582 -2.0868
21000SOL    HW265201   9.333   4.698   2.027  0.2619 -1.5995  1.5723
21001SOL     OW65202   2.890   1.013   5.862 -0.2874 -0.1688 -0.0347
21001SOL    HW165203   2.956   1.081   5.849 -0.3240 -0.0241  0.5416
21001SOL    HW265204   2.897   0.990   5.954  0.2097 -1.4525 -0.3643
21002SOL     OW65205   2.357   9.290   2.730  0.7259  0.4281 -0.1821
21002SOL    HW165206   2.374   9.379   2.698 -0.6140  0.9824  0.5576
21002SOL    HW265207   2.261   9.282   2.727  0.8131 -0.8618  0.1062
21003SOL     OW65208   0.611   7.260   2.938 -0.2913 -0.2255  0.5606
21003SOL    HW165209   0.538   7.233   2.994 -0.7638 -1.2490 -0.5040
21003SOL    HW265210   0.579   7.338   2.893 -0.8053 -0.7596 -0.0187
21004SOL     OW65211   8.476   7.338   1.395 -0.2198  0.2753  0.1175
21004SOL    HW165212   8.418   7.385   1.455 -0.2503 -0.1380  0.4111
21004SOL    HW265213   8.429   7.259   1.371 -0.4084  0.6531 -0.8327
21005SOL     OW65214   9.062   7.306   4.137  0.2084  0.2552 -0.6703
21005SOL    HW165215   9.019   7.388   4.161 -0.2517  0.3272 -1.7049
21005SOL    HW265216   8.998   7.259   4.083  0.8678 -0.3022 -0.9887
21006SOL     OW65217   6.841   3.172   6.705 -0.7148  0.1450 -0.0765
21006SOL    HW165218   6.902   3.184   6.777  0.6454 -1.6952 -0.8453
21006SOL    HW265219   6.785   3.099   6.731 -2.2256  1.3842  0.3327
21007SOL     OW65220   2.035   5.296   5.067  0.1019 -0.5375 -0.3222
21007SOL    HW165221   2.060   5.346   4.989  0.9462 -0.6429 -0.1384
21007SOL    HW265222   2.059   5.353   5.140  0.9011 -1.1243 -0.1146
21008SOL     OW65223   1.629   9.356   4.990  0.1161 -0.1622 -0.4207
21008SOL    HW165224   1.660   9.307   4.914 -0.2634 -1.1198  0.0240
21008SOL    HW265225   1.614   9.444   4.958  0.5104 -0.4165 -1.3198
21009SOL     OW65226   2.573   3.835   5.254 -0.1182 -0.2601 -0.5504
21009SOL    HW165227   2.554   3.919   5.212  1.4688 -0.4014 -1.6521
21009SOL    HW265228   2.643   3.797   5.201 -0.7580 -2.2711 -0.0541
21010SOL     OW65229   2.787   7.943   7.554  0.6053 -0.0259 -0.6082
21010SOL    HW165230   2.849   7.991   7.609 -0.7010  1.2334 -0.1591
21010SOL    HW265231   2.770   8.002   7.480 -1.5249  0.5921  0.2772
21011SOL     OW65232   9.259   1.028   5.321 -0.2697 -0.7153 -0.5290
21011SOL    HW165233   9.341   1.055   5.363  1.3844 -2.1774 -2.5413
21011SOL    HW265234   9.198   1.100   5.337  1.7867  0.9992  0.0451
21012SOL     OW65235   0.875   3.444   7.144  0.6269 -0.1572 -0.1549
21012SOL    HW165236   0.884   3.535   7.174  1.5106  0.6668 -2.6336
21012SOL    HW265237   0.782   3.425   7.152  0.6078  0.4925  1.5909
21013SOL     OW65238   5.154   4.473   8.625  0.1557  0.6380 -0.6210
21013SOL    HW165239   5.167   4.443   8.536  2.9482  1.9882 -0.7816
21013SOL    HW265240   5.168   4.568   8.621 -1.6637  1.0483  0.9546
21014SOL     OW65241   7.812   3.724   5.674 -0.1015 -0.2315 -0.2215
21014SOL    HW165242   7.863   3.725   5.593 -0.4273  1.6809 -0.4536
21014SOL    HW265243   7.876   3.742   5.743 -0.3467  2.1296 -0.5084
21015SOL     OW65244   2.473   1.577   5.138  0.2142  0.3734 -0.1238
21015SOL    HW165245   2.517   1.507   5.089 -1.4621  1.4444 -3.4184
21015SOL    HW265246   2.521   1.657   5.113 -0.4188  0.8990  0.3302
21016SOL     OW65247   9.146   8.394   7.000 -0.4184 -0.7810 -0.7379
21016SOL    HW165248   9.169   8.445   6.923 -1.0263  0.1118 -0.3485
21016SOL    HW265249   9.073   8.442   7.040 -0.2118 -1.2977  0.3044
21017SOL     OW65250   4.543   3.608   8.492 -0.5609 -0.2637  0.3658
21017SOL    HW165251   4.467   3.575   8.538  0.1376  0.6678  2.2942
21017SOL    HW265252   4.569   3.687   8.541  0.1621  0.8676 -1.7093
21018SOL     OW65253   2.809   3.122   5.608 -0.3501  0.0862 -0.3313
21018SOL    HW165254   2.809   3.031   5.638  0.2529 -0.2879 -1.4459
21018SOL    HW265255   2.900   3.140   5.586  0.0033  1.7142  2.0397
21019SOL     OW65256   4.430   2.218   2.729  0.4027 -0.0433  0.5932
21019SOL    HW165257   4.414   2.126   2.710 -0.9432  0.0356  1.1757
21019SOL    HW265258   4.427   2.262   2.644 -0.6392 -0.3341  0.4592
21020SOL     OW65259   5.405   5.373   4.959 -0.5914  0.0318 -0.4311
21020SOL    HW165260   5.493   5.347   4.987 -0.4944  0.9794  0.1871
21020SOL    HW265261   5.352   5.367   5.038 -0.5049  1.9196 -0.1834
21021SOL     OW65262   1.980   7.924   7.252 -0.3721  0.0151  0.4457
21021SOL    HW165263   1.945   7.999   7.204 -1.2851  0.2772  1.4659
21021SOL    HW265264   2.005   7.960   7.338  1.1230 -0.4552  0.2455
21022SOL     OW65265   4.059   4.483   4.377 -0.1531 -0.3446  0.1815
21022SOL    HW165266   3.979   4.446   4.340 -0.7508  0.3242  0.7876
21022SOL    HW265267   4.092   4.543   4.309 -1.1062  0.6822  0.5985
21023SOL     OW65268   3.035   2.473   8.613  0.6779 -0.0777 -0.4803
21023SOL    HW165269   3.094   2.436   8.678  0.0059 -0.6621 -0.1899
21023SOL    HW265270   3.007   2.398   8.561 -0.4036  0.0692 -0.1321
21024SOL     OW65271   5.334   1.570   6.094  0.1461  0.4886  0.4505
21024SOL    HW165272   5.318   1.554   6.001 -0.7025 -1.0558  0.8233
21024SOL    HW265273   5.423   1.606   6.097  0.2484  0.4019 -0.9433
21025SOL     OW65274   3.784   0.050   8.301  0.1190 -0.1579 -0.4072
21025SOL    HW165275   3.735  -0.031   8.315 -0.6220  0.1712 -1.0224
21025SOL    HW265276   3.866   0.021   8.259  0.2749 -0.6654  0.2289
21026SOL     OW65277   1.844   6.694   3.959  0.0092  0.2365 -0.2755
21026SOL    HW165278   1.902   6.618   3.954 -0.6090 -0.2300 -0.5061
21026SOL    HW265279   1.892   6.758   4.011  1.1911  0.2772 -1.3576
21027SOL     OW65280   7.258   5.550   2.544 -0.8060  0.4050 -0.1494
21027SOL    HW165281   7.200   5.473   2.538 -0.1858 -0.2863  1.9920
21027SOL    HW265282   7.260   5.571   2.637  2.4282  0.3673 -0.1106
21028SOL     OW65283   0.040   5.645   1.891 -0.2666  0.3434  0.5419
21028SOL    HW165284   0.033   5.737   1.868 -2.7231  0.1421  0.2295
21028SOL    HW265285   0.109   5.641   1.957 -0.6311  2.5121  1.1098
21029SOL     OW65286   9.302   7.729   6.031 -0.0265  0.4322 -0.5471
21029SOL    HW165287   9.378   7.787   6.038  2.1638 -2.3112  0.0018
21029SOL    HW265288   9.323   7.654   6.087 -2.6442 -0.9834 -1.2844
21030SOL     OW65289   3.440   7.662   5.445 -0.0257  0.3205  0.0024
21030SOL    HW165290   3.499   7.671   5.520 -0.6375 -0.6474  0.6212
21030SOL    HW265291   3.359   7.629   5.482 -0.1312 -0.8011 -1.1607
21031SOL     OW65292   9.547   4.920   6.459  0.6645 -0.0563  0.2571
21031SOL    HW165293   9.533   4.908   6.365  0.3134 -0.8844  0.3986
21031SOL    HW265294   9.533   5.013   6.474 -2.0976 -0.3168 -0.0784
21032SOL     OW65295   8.170   6.611   5.778 -0.1265  0.0647  0.0791
21032SOL    HW165296   8.208   6.685   5.824  0.1881 -0.2396  0.3173
21032SOL    HW265297   8.243   6.550   5.766 -0.0938  0.3295 -1.2262
21033SOL     OW65298   3.500   6.171   1.857 -0.0376  0.1270 -0.3171
21033SOL    HW165299   3.537   6.205   1.775  1.0265 -1.9943 -0.7803
21033SOL    HW265300   3.453   6.092   1.831  0.4947 -0.6909  1.1299
21034SOL     OW65301   3.162   6.336   5.516 -0.2592 -0.1796 -0.5616
21034SOL    HW165302   3.111   6.410   5.550 -0.1573 -0.6089  0.5778
21034SOL    HW265303   3.164   6.349   5.421  1.7647  2.5747 -0.2272
21035SOL     OW65304   0.561   2.861   9.216 -0.3884  0.1113  0.1757
21035SOL    HW165305   0.503   2.921   9.264  1.0643  0.2884  1.7922
21035SOL    HW265306   0.501   2.811   9.160 -1.7698  2.2442 -0.3787
21036SOL     OW65307   3.197   5.652   5.225  0.1939 -0.9383  0.5690
21036SOL    HW165308   3.196   5.561   5.195 -0.6021 -1.1249  1.1131
21036SOL    HW265309   3.290   5.670   5.243  0.6873 -0.8553 -1.7699
21037SOL     OW65310   4.786   4.326   2.521  0.2567 -0.2499 -0.8650
21037SOL    HW165311   4.875   4.320   2.487  1.0584 -1.8430  1.2714
21037SOL    HW265312   4.743   4.246   2.490  0.0474 -0.2214 -0.6513
21038SOL     OW65313   2.450   6.340   6.988 -0.1026  0.1398  0.2472
21038SOL    HW165314   2.362   6.314   7.014  0.2292 -0.7324  0.5443
21038SOL    HW265315   2.491   6.372   7.069 -0.3286  1.1103 -0.0080
21039SOL     OW65316   6.296   0.194   0.769 -0.3694  0.2300  0.0019
21039SOL    HW165317   6.220   0.158   0.724 -0.3359  0.2760 -0.0921
21039SOL    HW265318   6.266   0.278   0.804  0.1647  1.1454 -1.6537
21040SOL     OW65319   1.332   7.794   9.098  0.1107  0.0590 -0.4837
21040SOL    HW165320   1.277   7.770   9.023  1.2295 -0.5692 -1.1412
21040SOL    HW265321   1.416   7.752   9.080  0.3900 -0.1596  1.1794
21041SOL     OW65322   3.678   3.573   1.704 -0.2599 -0.1436 -0.3012
21041SOL    HW165323   3.654   3.554   1.794 -2.3625 -0.5844 -0.9098
21041SOL    HW265324   3.636   3.656   1.684 -0.5931 -0.4984 -1.1519
21042SOL     OW65325   2.597   8.507   4.215  0.2087 -0.2297 -0.3225
21042SOL    HW165326   2.623   8.545   4.299  0.3701  0.6470 -0.7514
21042SOL    HW265327   2.516   8.552   4.192  1.0846  0.8564 -1.4604
21043SOL     OW65328   9.027   4.910   2.332 -0.4306  0.4579 -1.1284
21043SOL    HW165329   9.120   4.930   2.316 -0.3936  0.1000 -1.3831
21043SOL    HW265330   9.029   4.844   2.401 -0.4089 -0.8271 -2.3339
21044SOL     OW65331   5.287   2.992   2.807  0.0869 -0.0326 -0.1816
21044SOL    HW165332   5.275   2.903   2.773 -2.3537  0.8127 -1.7615
21044SOL    HW265333   5.225   3.000   2.879  1.8288 -0.2187  1.4419
21045SOL     OW65334   1.082   5.893   0.833 -0.3113  0.0473  0.3913
21045SOL    HW165335   1.096   5.799   0.841  2.1556  0.2485 -0.7872
21045SOL    HW265336   0.991   5.901   0.804 -0.3052 -2.0392 -0.3745
21046SOL     OW65337   3.398   7.752   7.673 -0.4526 -0.1449 -0.3039
21046SOL    HW165338   3.352   7.668   7.666 -0.0478 -0.3280 -0.8588
21046SOL    HW265339   3.488   7.729   7.693 -0.9593  0.2828  2.9590
21047SOL     OW65340   8.298   8.849   0.452  0.3289  0.5080  0.1833
21047SOL    HW165341   8.246   8.796   0.392  0.3679 -1.0032  1.4080
21047SOL    HW265342   8.385   8.809   0.450  0.9192  1.7834 -0.3638
21048SOL     OW65343   6.863   9.357   3.928  0.1310  0.2058 -0.6465
21048SOL    HW165344   6.878   9.448   3.952  0.4317 -0.2133  0.8676
21048SOL    HW265345   6.906   9.347   3.844  0.9795  1.2098 -0.3512
21049SOL     OW65346   7.864   8.510   7.993 -0.5054 -0.2943 -0.3101
21049SOL    HW165347   7.934   8.460   7.950 -1.5075  0.1676 -2.6827
21049SOL    HW265348   7.847   8.583   7.932 -2.5594 -0.0063  0.5394
21050SOL     OW65349   3.601   6.327   2.244 -0.3549  0.2560  0.1127
21050SOL    HW165350   3.568   6.268   2.312  0.4939  2.0832  2.2294
21050SOL    HW265351   3.604   6.413   2.286  3.0750  0.9489 -1.2031
21051SOL     OW65352   3.053   7.682   0.832 -0.6150 -0.0933  0.4302
21051SOL    HW165353   3.148   7.673   0.837 -0.6518 -2.5001 -1.4573
21051SOL    HW265354   3.020   7.628   0.904 -0.5830 -0.7516 -0.0506
21052SOL     OW65355   2.423   9.567   9.534  0.0800  0.0145  0.1731
21052SOL    HW165356   2.497   9.512   9.560 -0.1787 -0.3227  0.2000
21052SOL    HW265357   2.452   9.607   9.452  0.0218 -0.6710 -0.1954
21053SOL     OW65358   1.870   4.578   0.410 -0.0475 -0.0357  0.2534
21053SOL    HW165359   1.776   4.593   0.397 -0.1840 -0.5185  0.6748
21053SOL    HW265360   1.878   4.556   0.502  0.7365  2.0104  0.7267
21054SOL     OW65361   0.212   3.898   8.725 -0.8537 -0.1714 -0.1904
21054SOL    HW165362   0.135   3.852   8.759 -0.8468 -0.3185 -0.3754
21054SOL    HW265363   0.254   3.835   8.667  0.8708 -1.0549  1.8922
21055SOL     OW65364   8.379   6.528   8.065 -0.0569  0.4004 -0.1656
21055SOL    HW165365   8.335   6.607   8.096  1.3303  1.7016 -1.3538
21055SOL    HW265366   8.387   6.473   8.143  0.4099  2.1554  1.0785
21056SOL     OW65367   3.997   7.307   3.957 -0.1826  0.6633  0.1384
21056SOL    HW165368   4.080   7.269   3.930 -0.4030  0.4402 -0.2356
21056SOL    HW265369   4.012   7.402   3.957 -0.3348  0.7141 -1.3507
21057SOL     OW65370   2.128   1.857   7.539  0.0096  0.7336  0.2965
21057SOL    HW165371   2.223   1.858   7.551  0.2109  0.2745 -1.0897
21057SOL    HW265372   2.115   1.831   7.448 -1.4980 -1.3127  1.0108
21058SOL     OW65373   7.720   6.313   5.434 -0.4829  0.2276 -0.0638
21058SOL    HW165374   7.812   6.334   5.455 -0.3898 -0.0308 -0.2076
21058SOL    HW265375   7.725   6.266   5.351 -1.0215  3.2632 -1.9670
21059SOL     OW65376   1.651   4.586   1.194 -0.1738  0.1458 -0.7834
21059SOL    HW165377   1.637   4.649   1.265 -1.7638 -1.3604  0.3280
21059SOL    HW265378   1.575   4.598   1.136 -0.3005 -0.4803 -0.7553
21060SOL     OW65379   2.702   8.909   7.263  0.0024 -0.1459 -0.1566
21060SOL    HW165380   2.663   8.981   7.313  0.9303  0.1305  0.1975
21060SOL    HW265381   2.656   8.909   7.180 -0.0093  0.8635 -0.1601
21061SOL     OW65382   3.800   8.172   0.176 -0.0235  0.3314  0.7002
21061SOL    HW165383   3.787   8.096   0.119 -0.9131  0.6089  0.5210
21061SOL    HW265384   3.802   8.135   0.264 -1.2548  0.1644  0.6782
21062SOL     OW65385   5.552   1.956   5.354 -0.6920 -0.2118  0.1061
21062SOL    HW165386   5.545   2.012   5.431  0.7328  0.4044 -0.1830
21062SOL    HW265387   5.593   2.012   5.288 -2.1738 -0.6216 -1.2292
21063SOL     OW65388   1.527   6.578   0.861 -0.0046 -0.9000  0.5180
21063SOL    HW165389   1.500   6.614   0.776 -0.1859  0.7139  1.2258
21063SOL    HW265390   1.594   6.514   0.839  1.7078  1.1972 -0.7439
21064SOL     OW65391   5.481   0.676   6.226  0.8620  0.2356  0.3704
21064SOL    HW165392   5.423   0.627   6.283  0.3491 -0.2792 -0.5599
21064SOL    HW265393   5.471   0.767   6.252  0.5480  0.0171  1.0093
21065SOL     OW65394   8.133   7.431   0.174 -0.3417  0.3025 -0.0502
21065SOL    HW165395   8.068   7.380   0.126  0.7619 -1.8667  0.6342
21065SOL    HW265396   8.213   7.379   0.167  0.7413  1.7658  1.0582
21066SOL     OW65397   2.225   8.534   3.481 -0.1470  0.0448 -0.3273
21066SOL    HW165398   2.295   8.590   3.447  0.2187  0.0709  0.4480
21066SOL    HW265399   2.169   8.594   3.531 -1.0859  0.1425 -1.4491
21067SOL     OW65400   1.469   1.814   1.075  0.3270 -0.1678 -0.1487
21067SOL    HW165401   1.423   1.827   0.992  1.1901  2.5297 -0.2955
21067SOL    HW265402   1.402   1.824   1.142  0.0781  0.2633 -0.4591
21068SOL     OW65403   4.265   7.781   9.546  0.0250 -0.0574 -0.0787
21068SOL    HW165404   4.325   7.741   9.609 -0.4347 -0.6387 -0.0095
21068SOL    HW265405   4.204   7.711   9.522  0.1140  0.1906 -1.0728
21069SOL     OW65406   4.507   0.679   1.732  0.0635 -0.4032 -1.0435
21069SOL    HW165407   4.556   0.760   1.717 -0.0003 -0.1654 -0.0700
21069SOL    HW265408   4.566   0.609   1.703 -0.7004  0.0304 -3.9754
21070SOL     OW65409   4.532   4.762   0.976 -0.4072  0.4494 -0.4995
21070SOL    HW165410   4.482   4.683   0.999  1.4837 -0.5058  0.6863
21070SOL    HW265411   4.493   4.831   1.029 -0.3905 -0.3036  0.5330
21071SOL     OW65412   3.141   3.479   8.566 -0.0364  0.1534  0.7610
21071SOL    HW165413   3.047   3.460   8.568  0.0774 -0.5469 -0.0148
21071SOL    HW265414   3.166   3.467   8.474  1.2529 -1.8609  1.3216
21072SOL     OW65415   5.968   6.905   1.580  0.0109 -0.2537  0.2630
21072SOL    HW165416   5.898   6.970   1.592 -1.0358 -1.4115  0.5989
21072SOL    HW265417   5.984   6.904   1.486 -0.9529 -0.4915  0.0859
21073SOL     OW65418   9.297   8.084   4.100  0.5051  0.3999 -0.1012
21073SOL    HW165419   9.376   8.030   4.092  0.5960  0.2444  1.5445
21073SOL    HW265420   9.225   8.025   4.075  0.7918  0.1471 -0.3377
21074SOL     OW65421   7.910   4.470   6.436 -0.1540  0.1143 -0.0428
21074SOL    HW165422   7.942   4.560   6.434  0.5937 -0.1305  0.2181
21074SOL    HW265423   7.815   4.477   6.434 -0.1693  0.9922  1.8348
21075SOL     OW65424   1.565   1.235   6.907  0.4074 -0.3017 -0.1279
21075SOL    HW165425   1.522   1.191   6.980 -1.1405 -1.8659 -1.8695
21075SOL    HW265426   1.657   1.207   6.913  0.4883  0.2120  1.6034
21076SOL     OW65427   3.778   1.741   1.366 -0.6667 -0.2474 -0.6123
21076SOL    HW165428   3.771   1.662   1.314 -0.7698 -0.1823 -0.6961
21076SOL    HW265429   3.787   1.710   1.456  2.6072 -0.4957 -0.9053
21077SOL     OW65430   9.215   7.319   1.282  0.0533  0.0378  0.9046
21077SOL    HW165431   9.275   7.363   1.342 -0.2617  0.1814  1.1202
21077SOL    HW265432   9.182   7.244   1.331 -0.2220  0.1673  0.9244
21078SOL     OW65433   6.910   8.642   1.020 -0.2723 -0.6800 -1.1142
21078SOL    HW165434   6.998   8.643   0.981  0.0859 -1.3616 -0.3569
21078SOL    HW265435   6.924   8.609   1.108 -1.0425  1.0115 -0.3221
21079SOL     OW65436   7.905   3.335   1.403  0.2847 -0.1055 -0.1251
21079SOL    HW165437   7.901   3.403   1.336 -0.7037 -0.9527 -0.9695
21079SOL    HW265438   7.818   3.337   1.442 -0.0752 -1.5001 -0.8116
21080SOL     OW65439   1.606   3.756   9.056 -0.8053 -0.0011  0.2817
21080SOL    HW165440   1.607   3.776   8.963  0.6640 -3.2288 -0.5098
21080SOL    HW265441   1.668   3.819   9.094 -0.2354  0.3436 -1.1557
21081SOL     OW65442   3.139   8.261   2.575 -0.4607  0.3256  0.3419
21081SOL    HW165443   3.058   8.292   2.537 -0.9398 -0.3689  0.7679
21081SOL    HW265444   3.112   8.200   2.644  0.3469  1.8030  2.0747
21082SOL     OW65445   2.370   1.654   1.331  0.1128  0.0561  0.0854
21082SOL    HW165446   2.350   1.572   1.285 -1.0395  0.6052 -0.4200
21082SOL    HW265447   2.284   1.688   1.357  0.6703  0.2886  1.7495
21083SOL     OW65448   6.596   7.687   7.273 -0.5478 -0.0507 -0.3054
21083SOL    HW165449   6.529   7.624   7.300 -1.6600  0.6275 -1.3653
21083SOL    HW265450   6.669   7.671   7.332 -1.8919 -0.3712  1.3593
21084SOL     OW65451   8.322   1.462   2.946 -0.3779  0.3702  1.1627
21084SOL    HW165452   8.307   1.414   3.027  1.0770 -2.3723 -0.0788
21084SOL    HW265453   8.235   1.487   2.917 -1.5756 -3.6768  0.7170
21085SOL     OW65454   6.686   2.131   2.976  0.0485  0.3444 -0.2754
21085SOL    HW165455   6.694   2.083   3.058 -1.6721 -0.1615 -0.3704
21085SOL    HW265456   6.731   2.076   2.912  1.2041  0.6335  0.2656
21086SOL     OW65457   5.143   8.025   1.605  0.3946 -0.0363  0.3654
21086SOL    HW165458   5.056   7.993   1.581  0.4195  0.3721 -0.2888
21086SOL    HW265459   5.165   7.976   1.684  0.0093 -0.8861 -0.0414
21087SOL     OW65460   0.867   6.459   7.950 -0.0213 -0.2139 -0.3306
21087SOL    HW165461   0.843   6.425   7.864 -0.6964  3.5402 -1.8166
21087SOL    HW265462   0.820   6.542   7.957  1.3709  0.4446  2.9598
21088SOL     OW65463   3.599   7.975   9.352  0.2522 -0.4588 -0.3523
21088SOL    HW165464   3.516   7.933   9.375 -1.5381  2.5409 -0.8323
21088SOL    HW265465   3.631   7.925   9.276 -1.4895 -1.2155 -0.6437
21089SOL     OW65466   5.942   7.269   3.247 -0.4280 -0.2434 -0.0837
21089SOL    HW165467   6.023   7.271   3.197 -0.9792 -1.3952 -1.0811
21089SOL    HW265468   5.901   7.354   3.230 -0.6528 -0.6341 -1.7418
21090SOL     OW65469   3.030   5.783   3.349 -0.2077 -0.3250 -0.0332
21090SOL    HW165470   3.025   5.728   3.427 -0.4181  0.7330  0.7208
21090SOL    HW265471   3.115   5.828   3.356 -0.4111  0.0917 -0.1866
21091SOL     OW65472   2.499   3.491   1.156 -0.6026  0.1298  0.1921
21091SOL    HW165473   2.528   3.420   1.099 -0.8309 -2.0135  2.5922
21091SOL    HW265474   2.408   3.470   1.177  0.1202 -0.5390  3.1441
21092SOL     OW65475   5.346   3.315   4.291  0.0749  0.0167 -0.2926
21092SOL    HW165476   5.268   3.272   4.328 -0.3655  0.3553 -0.8123
21092SOL    HW265477   5.313   3.397   4.253  0.6880  0.1695 -0.5135
21093SOL     OW65478   1.558   6.904   3.959  0.1426 -0.1617  0.1791
21093SOL    HW165479   1.536   6.875   3.870  0.7274  0.3830 -0.1498
21093SOL    HW265480   1.553   6.999   3.955  0.5277 -0.1201  0.6372
21094SOL     OW65481   2.879   2.737   3.887  0.1708  0.6998 -0.2878
21094SOL    HW165482   2.863   2.804   3.953  0.4532  0.5648 -0.0804
21094SOL    HW265483   2.870   2.654   3.933  0.1944  0.6005 -0.4582
21095SOL     OW65484   6.392   9.452   5.179 -0.0408 -0.3536 -0.3849
21095SOL    HW165485   6.368   9.466   5.088  0.2884  1.2574 -0.2510
21095SOL    HW265486   6.353   9.525   5.226  2.1142  0.4138  0.3337
21096SOL     OW65487   6.075   3.442   4.745  0.4539 -0.3180 -0.4710
21096SOL    HW165488   5.995   3.401   4.710  0.5978 -0.4663 -0.6289
21096SOL    HW265489   6.107   3.497   4.673 -0.1365  0.6573 -0.0120
21097SOL     OW65490   7.080   6.333   0.674 -0.1061  0.4742 -0.2491
21097SOL    HW165491   7.123   6.290   0.748  1.2327 -0.2917 -1.4153
21097SOL    HW265492   7.035   6.409   0.712 -1.3652 -1.1285  1.6785
21098SOL     OW65493   3.974   3.676   7.869  0.4001  0.3415  0.3343
21098SOL    HW165494   3.939   3.606   7.924 -1.1247  0.1204 -0.8568
21098SOL    HW265495   4.042   3.717   7.923 -0.7049 -0.1380  2.1800
21099SOL     OW65496   0.525   1.837   1.229  0.1668  0.4799 -0.9349
21099SOL    HW165497   0.548   1.838   1.322  1.7657 -3.3804 -1.0981
21099SOL    HW265498   0.446   1.782   1.225  0.7744 -0.3548 -1.9068
21100SOL     OW65499   7.989   6.425   2.829 -0.5647  0.1018 -0.3268
21100SOL    HW165500   7.933   6.348   2.819 -1.5738  0.8955 -0.9935
21100SOL    HW265501   7.944   6.480   2.892 -0.3775  0.6104 -0.6305
21101SOL     OW65502   8.215   9.334   7.534 -0.2503  0.2385  0.1687
21101SOL    HW165503   8.295   9.311   7.581  0.2004  1.9724  0.3225
21101SOL    HW265504   8.150   9.273   7.567  0.7637 -0.5466  0.7980
21102SOL     OW65505   7.053   4.107   2.225  0.1535 -0.1024  0.3944
21102SOL    HW165506   7.091   4.105   2.313  0.9906  1.7482  0.1319
21102SOL    HW265507   6.961   4.126   2.239  0.0856 -0.7728  0.9018
21103SOL     OW65508   8.943   3.488   3.904  0.0191  0.8809  0.0715
21103SOL    HW165509   9.025   3.484   3.855  0.4926 -1.0650  0.9321
21103SOL    HW265510   8.875   3.468   3.839  0.7415 -3.0677  0.2584
21104SOL     OW65511   7.431   5.397   3.629  0.1704  0.0990  0.5770
21104SOL    HW165512   7.511   5.345   3.626 -0.0006 -0.1494 -2.3328
21104SOL    HW265513   7.461   5.486   3.651  1.2826  0.0183 -0.4977
21105SOL     OW65514   6.679   0.496   1.111 -0.7932 -0.1654  0.0020
21105SOL    HW165515   6.750   0.561   1.112 -1.0167  0.0951 -0.4192
21105SOL    HW265516   6.660   0.480   1.203  0.7081 -1.2439  0.1637
21106SOL     OW65517   8.242   7.686   4.474 -0.2158  0.3158  0.3766
21106SOL    HW165518   8.150   7.663   4.460 -0.2129  0.2244  0.5153
21106SOL    HW265519   8.244   7.781   4.470 -0.3265  0.3201  0.4361
21107SOL     OW65520   4.134   9.089   9.531  0.9569  0.1112  0.3540
21107SOL    HW165521   4.088   9.036   9.466 -0.5034  0.9215  0.6872
21107SOL    HW265522   4.067   9.113   9.595  2.3122 -0.4773  2.0593
21108SOL     OW65523   6.385   7.168   4.664  0.2164 -0.0384 -0.1505
21108SOL    HW165524   6.298   7.186   4.628  0.5102  0.2086 -0.7391
21108SOL    HW265525   6.437   7.245   4.641  0.2783  0.3569  1.2587
21109SOL     OW65526   1.008   3.080   4.865  0.0584 -0.4218  0.0593
21109SOL    HW165527   0.962   2.999   4.888 -0.9241 -0.7510 -2.7501
21109SOL    HW265528   0.989   3.093   4.773  3.0952  1.1307 -0.4729
21110SOL     OW65529   4.416   4.062   4.088  1.0161  0.4833  0.0370
21110SOL    HW165530   4.396   4.155   4.094 -0.4125  0.1192  1.2944
21110SOL    HW265531   4.365   4.021   4.157 -0.8231 -1.6160 -2.3523
21111SOL     OW65532   5.307   5.819   8.449  0.6023 -0.2953 -0.2135
21111SOL    HW165533   5.322   5.726   8.470  1.5783 -0.6028 -2.1043
21111SOL    HW265534   5.215   5.834   8.472 -0.2666 -2.3801 -2.0207
21112SOL     OW65535   0.165   1.045   7.990 -0.1128 -0.4613  0.2290
21112SOL    HW165536   0.131   1.015   8.074 -3.6511  0.6296 -0.6343
21112SOL    HW265537   0.228   1.113   8.012 -1.0726 -0.1091  1.9999
21113SOL     OW65538   1.593   0.911   2.725  0.0849  0.4708  0.5731
21113SOL    HW165539   1.637   0.831   2.697 -0.0292  0.5033  0.2969
21113SOL    HW265540   1.502   0.899   2.698 -0.1139  0.3360  1.2819
21114SOL     OW65541   6.274   4.483   0.890  0.5444 -0.2338  0.2468
21114SOL    HW165542   6.269   4.574   0.918  0.1952 -0.4292  0.8343
21114SOL    HW265543   6.267   4.433   0.971  1.0107 -0.7782 -0.0468
21115SOL     OW65544   0.753   2.189   7.749 -0.2661 -0.0728  0.5994
21115SOL    HW165545   0.723   2.110   7.795 -0.3024 -0.8431 -0.7037
21115SOL    HW265546   0.672   2.232   7.721 -0.2354  0.2649  1.0096
21116SOL     OW65547   4.762   1.873   5.454  0.4176 -0.0670  0.1345
21116SOL    HW165548   4.721   1.877   5.367 -0.9050  2.2042  0.7582
21116SOL    HW265549   4.852   1.846   5.437 -0.2490 -1.3055 -1.7424
21117SOL     OW65550   8.730   1.175   3.141  0.1055 -0.1006  0.1644
21117SOL    HW165551   8.652   1.141   3.184  0.0110  0.9870  0.8742
21117SOL    HW265552   8.791   1.101   3.142 -0.7612 -0.8472 -0.0580
21118SOL     OW65553   7.392   2.297   4.280  0.1016 -0.0638 -0.1641
21118SOL    HW165554   7.363   2.367   4.221 -1.7051 -0.8441 -0.2705
21118SOL    HW265555   7.453   2.245   4.226 -0.1374  0.2551 -0.7541
21119SOL     OW65556   4.205   6.199   9.034  0.2451  0.2298  0.5829
21119SOL    HW165557   4.274   6.263   9.016 -0.5608  1.5162  1.8248
21119SOL    HW265558   4.143   6.208   8.962  1.2510 -0.8328 -0.4648
21120SOL     OW65559   2.712   8.102   6.332 -0.1068  0.2460 -0.1098
21120SOL    HW165560   2.702   8.045   6.409 -1.4806 -0.6169 -0.8812
21120SOL    HW265561   2.735   8.188   6.369  0.5926 -0.4594  1.1645
21121SOL     OW65562   5.118   5.052   2.482 -0.2253 -0.0593 -0.1033
21121SOL    HW165563   5.140   5.022   2.393  1.2016  0.0270  0.1845
21121SOL    HW265564   5.108   5.147   2.473 -1.6710 -0.2209 -0.4434
21122SOL     OW65565   4.231   1.631   3.151 -0.3718  0.0211 -0.3344
21122SOL    HW165566   4.304   1.693   3.161 -0.3854 -0.0467  0.2622
21122SOL    HW265567   4.253   1.579   3.074  0.2672 -0.0661 -0.1018
21123SOL     OW65568   2.358   1.315   5.439  0.2418 -0.6713 -0.2291
21123SOL    HW165569   2.362   1.411   5.432 -1.5612 -0.5769 -0.2416
21123SOL    HW265570   2.429   1.293   5.500 -1.1833  0.9637  2.1933
21124SOL     OW65571   3.638   2.763   4.604  0.2714 -0.2822  0.4069
21124SOL    HW165572   3.585   2.838   4.576 -0.4247 -0.6411  0.7209
21124SOL    HW265573   3.629   2.761   4.699 -0.9830 -1.6419  0.2952
21125SOL     OW65574   3.033   8.773   4.947  0.0346 -0.1596  0.3099
21125SOL    HW165575   3.047   8.723   4.866 -0.1674  0.2319  0.0306
21125SOL    HW265576   3.004   8.859   4.917  1.8792  0.6621  0.7043
21126SOL     OW65577   1.354   8.389   3.094 -0.0325  0.2983  0.4595
21126SOL    HW165578   1.272   8.432   3.069 -0.3573 -0.4518  0.2017
21126SOL    HW265579   1.421   8.432   3.040 -0.7287 -1.3675 -1.9111
21127SOL     OW65580   8.894   6.918   4.143  0.3688 -0.3632 -0.0572
21127SOL    HW165581   8.982   6.953   4.156  0.1603  0.0972  0.1474
21127SOL    HW265582   8.845   6.948   4.220 -0.0114 -0.4646 -0.2582
21128SOL     OW65583   3.721   8.137   6.289 -0.0684 -0.0604  0.9140
21128SOL    HW165584   3.719   8.225   6.327 -1.5606 -0.3430  1.5657
21128SOL    HW265585   3.632   8.104   6.300  0.8351 -2.3133  2.2836
21129SOL     OW65586   5.727   6.800   8.608 -0.2384 -0.4036 -0.2579
21129SOL    HW165587   5.736   6.817   8.514 -3.4617  1.0389 -0.4258
21129SOL    HW265588   5.646   6.750   8.615 -1.4311  1.6274  1.8588
21130SOL     OW65589   4.790   6.058   8.452 -0.2851 -0.4138 -0.8404
21130SOL    HW165590   4.728   6.049   8.525  0.1748  1.5308 -0.1717
21130SOL    HW265591   4.783   5.974   8.406 -2.9798 -0.5032 -0.4623
21131SOL     OW65592   1.880   0.198   5.130 -0.4654 -0.4418  0.0177
21131SOL    HW165593   1.857   0.141   5.057  1.3622 -0.1484 -0.8380
21131SOL    HW265594   1.811   0.265   5.131 -1.4203 -1.3902 -0.3513
21132SOL     OW65595   8.155   5.884   8.524  0.5607  0.1013 -0.8945
21132SOL    HW165596   8.244   5.896   8.555  1.3278  0.0292 -2.9255
21132SOL    HW265597   8.119   5.814   8.578  2.0135 -0.4292 -0.5980
21133SOL     OW65598   6.704   2.866   6.812  0.1426 -0.0105 -0.1939
21133SOL    HW165599   6.730   2.925   6.883  1.2598  0.1819 -0.7428
21133SOL    HW265600   6.716   2.778   6.849 -0.3074  0.0876  0.2003
21134SOL     OW65601   6.256   5.669   1.669  0.1809 -0.1847  0.0833
21134SOL    HW165602   6.345   5.633   1.665  0.1082 -0.2741 -0.9170
21134SOL    HW265603   6.269   5.764   1.667  0.2693 -0.1867  0.4337
21135SOL     OW65604   2.992   6.976   6.045  0.3277  0.3452  0.1370
21135SOL    HW165605   2.963   7.057   6.002  0.0174  0.2835  0.2286
21135SOL    HW265606   3.036   7.005   6.125  0.2654  0.4254  0.1419
21136SOL     OW65607   7.284   3.855   4.945 -0.2821  0.2590  0.0342
21136SOL    HW165608   7.287   3.784   5.010  0.1819 -0.2928 -0.5779
21136SOL    HW265609   7.267   3.811   4.862 -0.2427  0.8982 -0.3181
21137SOL     OW65610   6.738   7.950   4.222 -0.3607 -0.4694 -0.0456
21137SOL    HW165611   6.746   7.861   4.187  0.2915 -0.1541 -0.7012
21137SOL    HW265612   6.812   7.958   4.283 -0.5277 -0.4327  0.1550
21138SOL     OW65613   9.389   8.913   4.131 -0.2218  0.0128 -0.0309
21138SOL    HW165614   9.480   8.926   4.107 -0.2109 -0.9459 -0.5409
21138SOL    HW265615   9.388   8.829   4.177 -0.7593  0.2970  0.5011
21139SOL     OW65616   7.009   0.583   7.794 -0.2182  0.9384  0.1320
21139SOL    HW165617   6.942   0.566   7.728 -0.4487 -0.3449  0.6655
21139SOL    HW265618   6.973   0.546   7.875  0.6239  1.3004  0.6920
21140SOL     OW65619   2.916   4.789   8.569  0.1211  0.4396 -0.3071
21140SOL    HW165620   3.011   4.788   8.570  0.1279 -0.3425 -0.9810
21140SOL    HW265621   2.891   4.728   8.499 -0.8763  0.4501  0.0146
21141SOL     OW65622   7.124   5.286   4.350 -0.4608 -0.5185 -0.1046
21141SOL    HW165623   7.199   5.313   4.298  0.2160 -0.2330  0.9956
21141SOL    HW265624   7.130   5.190   4.353 -0.6819 -0.5608 -0.7874
21142SOL     OW65625   4.598   2.194   7.473  0.1317  0.0577 -1.1018
21142SOL    HW165626   4.661   2.264   7.489 -0.0914 -0.0853  0.5453
21142SOL    HW265627   4.545   2.190   7.552  0.3911 -2.2299 -0.9752
21143SOL     OW65628   8.625   3.830   3.922  0.0584 -0.2848  0.5273
21143SOL    HW165629   8.561   3.765   3.950 -0.2667 -0.7460 -1.1983
21143SOL    HW265630   8.707   3.803   3.963 -0.4415 -0.7807  1.2154
21144SOL     OW65631   8.418   7.011   8.642  0.3868 -0.3931 -0.4410
21144SOL    HW165632   8.511   7.018   8.622  0.3341 -2.0139 -1.4007
21144SOL    HW265633   8.385   6.945   8.581 -1.5915  0.8183 -0.7640
21145SOL     OW65634   4.787   0.100   4.456 -0.4392  0.1477 -0.2281
21145SOL    HW165635   4.811   0.155   4.382 -3.5440 -0.1143 -1.5689
21145SOL    HW265636   4.746   0.159   4.519  0.7372  0.0960  0.6442
21146SOL     OW65637   1.591   4.448   1.875 -0.0872 -0.0117  0.4886
21146SOL    HW165638   1.503   4.466   1.840  0.4767  1.6013 -0.2180
21146SOL    HW265639   1.619   4.368   1.830 -0.3165  0.7249 -1.0215
21147SOL     OW65640   3.585   3.857   9.184 -0.2532  0.7109  0.0241
21147SOL    HW165641   3.663   3.908   9.165 -1.1297  1.7783 -0.8988
21147SOL    HW265642   3.525   3.878   9.112 -0.9441 -1.0326  0.0343
21148SOL     OW65643   2.833   6.454   8.678 -0.3989 -0.1189 -0.1767
21148SOL    HW165644   2.881   6.390   8.625  1.3685  1.8802 -1.1139
21148SOL    HW265645   2.898   6.489   8.739 -0.2725  3.2761 -2.0231
21149SOL     OW65646   4.620   7.970   2.684  0.0573 -0.2562  0.2169
21149SOL    HW165647   4.625   7.954   2.590 -0.9084  0.3598  0.0458
21149SOL    HW265648   4.617   7.883   2.723  2.5343 -0.5798 -0.1546
21150SOL     OW65649   1.054   3.161   7.966 -0.0861 -0.1063  0.3234
21150SOL    HW165650   1.102   3.243   7.961 -0.1546  0.0454  1.7560
21150SOL    HW265651   1.035   3.138   7.875  1.6237  0.4492 -0.1948
21151SOL     OW65652   1.067   5.492   4.022 -0.6580  0.2209  0.4464
21151SOL    HW165653   0.991   5.464   3.972 -0.7589 -2.2367  1.8357
21151SOL    HW265654   1.137   5.432   3.995 -0.4184 -0.3944  2.3223
21152SOL     OW65655   3.116   2.863   7.519  0.0408  0.0929  0.7547
21152SOL    HW165656   3.127   2.880   7.612 -2.4646  0.3017  1.0709
21152SOL    HW265657   3.051   2.927   7.490  0.5254 -0.1841 -1.0739
21153SOL     OW65658   1.547   0.253   6.275 -0.1808 -0.3738 -0.0868
21153SOL    HW165659   1.630   0.206   6.272 -0.9138 -1.9227  1.7667
21153SOL    HW265660   1.559   0.327   6.216  1.6263 -1.9431 -1.8316
21154SOL     OW65661   5.514   6.951   8.799  0.3461 -0.0451 -0.4514
21154SOL    HW165662   5.457   6.874   8.808  1.3762 -0.6000  2.5058
21154SOL    HW265663   5.603   6.915   8.800  0.8167  1.0777 -0.6507
21155SOL     OW65664   2.200   2.663   6.258  0.9401  0.1986 -0.0016
21155SOL    HW165665   2.146   2.711   6.321 -0.1369 -0.3152 -0.5169
21155SOL    HW265666   2.258   2.730   6.221 -1.3302  1.4392 -1.5726
21156SOL     OW65667   2.555   8.703   5.424 -0.1714 -0.0007 -0.3619
21156SOL    HW165668   2.631   8.650   5.398 -0.4234 -0.5855  0.0670
21156SOL    HW265669   2.481   8.643   5.416 -0.8506  1.0276 -2.3758
21157SOL     OW65670   8.973   8.659   1.164 -0.0072  0.0125 -0.0767
21157SOL    HW165671   8.941   8.582   1.211 -0.8888  0.9651  0.9375
21157SOL    HW265672   8.956   8.732   1.223 -0.8555  1.2304 -1.7553
21158SOL     OW65673   5.779   8.843   4.080  0.6171 -0.3365  0.3523
21158SOL    HW165674   5.692   8.882   4.094  0.5089 -0.2828 -0.4107
21158SOL    HW265675   5.772   8.755   4.116  0.1117 -0.4731 -0.0623
21159SOL     OW65676   2.548   3.638   0.637 -0.0127  0.1880 -0.0951
21159SOL    HW165677   2.507   3.663   0.553  0.1178  0.2997 -0.1248
21159SOL    HW265678   2.476   3.641   0.700 -0.3327 -0.8841 -0.3906
21160SOL     OW65679   9.144   6.111   3.212 -0.0255  0.2689  0.0962
21160SOL    HW165680   9.114   6.068   3.292 -0.3058  0.8599  0.3177
21160SOL    HW265681   9.075   6.093   3.148 -0.0436  0.2178  0.1297
21161SOL     OW65682   1.344   6.651   2.220  0.2248  0.0673  0.0853
21161SOL    HW165683   1.274   6.635   2.284 -0.5503 -1.6530 -1.1227
21161SOL    HW265684   1.299   6.684   2.143  0.7488 -0.7455 -0.5921
21162SOL     OW65685   9.210   5.959   0.860 -0.3992  0.1681 -0.0921
21162SOL    HW165686   9.175   5.888   0.806 -1.2625  0.0512  0.6071
21162SOL    HW265687   9.145   5.972   0.928  0.3369  0.8078  0.5082
21163SOL     OW65688   4.270   6.061   6.032  0.1234  0.0797 -0.0580
21163SOL    HW165689   4.237   6.086   5.945  0.4854  0.5897 -0.0526
21163SOL    HW265690   4.252   5.967   6.038 -0.7211  0.2110 -0.3232
21164SOL     OW65691   3.662   0.240   0.037 -0.0655  0.2233 -0.7687
21164SOL    HW165692   3.628   0.161  -0.003  1.4589 -0.3460 -1.0131
21164SOL    HW265693   3.677   0.216   0.129  0.9442  0.0374 -0.9754
21165SOL     OW65694   1.963   3.261   3.603 -0.0369 -0.2435 -0.4177
21165SOL    HW165695   1.879   3.227   3.573 -0.2042 -0.0799 -0.1345
21165SOL    HW265696   1.941   3.339   3.653  0.1685 -1.0019  0.8943
21166SOL     OW65697   4.059   9.097   6.100 -0.0809  0.1721 -0.1597
21166SOL    HW165698   4.083   9.004   6.095 -1.6011 -0.5173  2.6512
21166SOL    HW265699   4.140   9.141   6.123  0.5969 -0.4965 -1.1881
21167SOL     OW65700   5.481   1.424   9.204 -0.7098 -0.1123  0.0571
21167SOL    HW165701   5.501   1.408   9.297 -1.6985 -0.6002  0.1997
21167SOL    HW265702   5.403   1.371   9.187  0.8251 -1.9263 -1.6859
21168SOL     OW65703   9.163   7.833   3.754  0.3339 -0.2203  0.4600
21168SOL    HW165704   9.148   7.888   3.676 -0.8251 -2.0221 -0.6783
21168SOL    HW265705   9.167   7.744   3.719  1.5983 -0.9319  2.3006
21169SOL     OW65706   3.326   7.616   8.672  0.5184 -0.2994  0.1028
21169SOL    HW165707   3.232   7.616   8.652  0.7011 -2.0365 -0.9249
21169SOL    HW265708   3.330   7.626   8.767 -0.7494 -1.2977  0.2885
21170SOL     OW65709   2.727   1.769   7.779 -0.1795 -0.0434 -0.1860
21170SOL    HW165710   2.635   1.757   7.802 -0.2169  0.5490 -0.0005
21170SOL    HW265711   2.733   1.861   7.752 -0.0338 -0.5715 -2.0778
21171SOL     OW65712   3.978   2.207   1.386  0.3431  0.0168 -0.9097
21171SOL    HW165713   4.008   2.272   1.323  1.9897 -0.8175 -1.0296
21171SOL    HW265714   3.901   2.167   1.344  0.8595  0.1136 -1.9920
21172SOL     OW65715   5.034   1.900   2.645 -0.0315 -0.0545 -0.1769
21172SOL    HW165716   5.051   1.892   2.738  0.0985 -2.0827 -0.3338
21172SOL    HW265717   4.963   1.838   2.628 -0.6036  0.8631 -1.3051
21173SOL     OW65718   5.464   0.082   7.322  0.1004  0.5398 -0.0267
21173SOL    HW165719   5.546   0.119   7.290  0.0391 -0.3789 -1.3046
21173SOL    HW265720   5.467   0.095   7.417  1.2535  1.4165 -0.1634
21174SOL     OW65721   8.207   7.588   8.706 -0.2016 -0.6720  0.1223
21174SOL    HW165722   8.249   7.510   8.742 -0.2185 -1.6939 -1.9141
21174SOL    HW265723   8.231   7.588   8.613 -3.1416 -0.3349 -0.7685
21175SOL     OW65724   0.158   7.914   3.717 -0.6086 -0.3734 -0.1033
21175SOL    HW165725   0.227   7.895   3.653 -0.9125 -0.6988 -0.3372
21175SOL    HW265726   0.163   7.843   3.780 -0.1746  0.0569  0.3586
21176SOL     OW65727   9.151   1.761   5.909 -0.7138 -0.4178 -0.6986
21176SOL    HW165728   9.188   1.673   5.905 -1.4303 -0.6914 -1.5833
21176SOL    HW265729   9.154   1.783   6.002  0.8862 -0.7463 -0.6389
21177SOL     OW65730   0.226   0.350   3.985  0.5463  0.1719  0.0686
21177SOL    HW165731   0.287   0.311   4.047  1.5342  1.0994 -0.2889
21177SOL    HW265732   0.276   0.359   3.904  0.2483  1.7577  0.0143
21178SOL     OW65733   6.569   8.509   6.877  0.2889  0.7774  0.2423
21178SOL    HW165734   6.633   8.443   6.901  0.0807  0.7049  0.5939
21178SOL    HW265735   6.497   8.498   6.939  0.4788  1.6700  0.6461
21179SOL     OW65736   5.492   8.312   6.389  0.2196  0.0895 -0.3130
21179SOL    HW165737   5.454   8.233   6.428  0.6960  0.0039 -0.0096
21179SOL    HW265738   5.425   8.344   6.329 -0.7921  0.5750  1.0327
21180SOL     OW65739   7.628   3.661   8.028 -0.2550  0.1118 -0.0533
21180SOL    HW165740   7.649   3.754   8.028 -0.1078  0.0871  0.7114
21180SOL    HW265741   7.709   3.618   8.057  0.0980 -0.3672 -1.6528
21181SOL     OW65742   9.426   5.632   3.835  0.0573  0.1105 -0.3769
21181SOL    HW165743   9.471   5.588   3.907  2.5527  0.1122 -1.8326
21181SOL    HW265744   9.494   5.686   3.794 -1.7553  1.6079 -1.5832
21182SOL     OW65745   0.693   4.816   1.040 -0.0725 -0.3285 -0.0570
21182SOL    HW165746   0.725   4.840   0.953  0.5007 -1.2556 -0.1242
21182SOL    HW265747   0.684   4.721   1.037 -1.5536 -0.2294  0.4128
21183SOL     OW65748   1.193   5.854   2.560  0.0804 -0.2625 -0.9497
21183SOL    HW165749   1.135   5.881   2.488 -0.1468 -2.9419 -1.8788
21183SOL    HW265750   1.136   5.803   2.618  0.9442 -0.7370 -0.5072
21184SOL     OW65751   6.932   8.602   2.128 -0.2188 -0.0261 -0.4309
21184SOL    HW165752   6.936   8.552   2.047  0.6151 -0.6115 -0.0501
21184SOL    HW265753   6.910   8.537   2.195  0.7341  0.1203  0.0485
21185SOL     OW65754   2.607   4.413   7.248  0.2035  0.5375 -0.3564
21185SOL    HW165755   2.568   4.418   7.335  0.4481 -0.9095 -0.1486
21185SOL    HW265756   2.634   4.503   7.229  0.6987  0.7705  1.3108
21186SOL     OW65757   5.734   6.300   4.184 -0.1819  0.2982  0.0857
21186SOL    HW165758   5.728   6.205   4.193  1.7970 -0.2059 -2.7085
21186SOL    HW265759   5.740   6.315   4.090  0.1934  3.1737  0.4824
21187SOL     OW65760   5.073   7.516   0.276  0.0650 -0.2281 -0.2071
21187SOL    HW165761   5.002   7.580   0.276 -0.3375 -0.6430  1.3417
21187SOL    HW265762   5.048   7.453   0.208 -0.2145  0.5108 -0.8036
21188SOL     OW65763   1.476   8.386   0.374 -0.5507 -0.0698 -0.5021
21188SOL    HW165764   1.498   8.462   0.319  0.3474 -0.2678 -0.4202
21188SOL    HW265765   1.530   8.315   0.340  1.4185  0.2269  1.7663
21189SOL     OW65766   0.618   5.306   9.045 -0.1648  0.1339 -0.5625
21189SOL    HW165767   0.695   5.318   9.100 -1.2823  1.8495  0.7435
21189SOL    HW265768   0.567   5.238   9.089  0.5053 -0.9090 -1.3558
21190SOL     OW65769   8.364   1.139   3.532 -0.2822  0.5156  0.2522
21190SOL    HW165770   8.268   1.139   3.533 -0.3360  0.0664 -1.3742
21190SOL    HW265771   8.388   1.062   3.584 -0.8581 -0.0956 -0.3639
21191SOL     OW65772   3.610   0.763   5.179 -0.4447  0.4425 -0.3354
21191SOL    HW165773   3.519   0.738   5.165 -0.5693  0.7811 -0.1249
21191SOL    HW265774   3.626   0.747   5.272 -0.7529  1.8720 -0.0253
21192SOL     OW65775   5.097   8.599   3.848 -0.1361  0.3107  0.6258
21192SOL    HW165776   5.149   8.557   3.917 -0.0653 -0.1263  0.3045
21192SOL    HW265777   5.036   8.655   3.896 -0.3466 -0.2819  1.0699
21193SOL     OW65778   6.157   9.467   6.134 -0.0351 -0.3652 -0.0560
21193SOL    HW165779   6.071   9.504   6.157 -1.2558 -1.9134 -1.7982
21193SOL    HW265780   6.180   9.511   6.052 -0.2870 -1.5467 -0.7856
21194SOL     OW65781   4.875   1.711   7.222 -0.3798  0.2573  0.0256
21194SOL    HW165782   4.783   1.733   7.209 -0.5214  1.3636  2.3786
21194SOL    HW265783   4.887   1.628   7.177 -2.0135  1.0297 -1.9822
21195SOL     OW65784   3.698   4.138   1.681 -0.5657 -0.1487 -0.0645
21195SOL    HW165785   3.633   4.190   1.729 -2.0165 -1.8775 -0.0657
21195SOL    HW265786   3.775   4.195   1.677 -1.5707  1.4092  1.2299
21196SOL     OW65787   6.290   4.600   6.261  0.3530 -0.2804  0.5988
21196SOL    HW165788   6.209   4.592   6.311 -0.0365  0.3481  0.0848
21196SOL    HW265789   6.359   4.576   6.323 -0.1317  0.3136  1.3816
21197SOL     OW65790   0.649   7.408   1.804  0.5329  0.0316 -0.6638
21197SOL    HW165791   0.591   7.410   1.728 -0.3214  0.3287 -0.0157
21197SOL    HW265792   0.620   7.332   1.855 -0.5920  1.2836  0.6449
21198SOL     OW65793   4.180   9.517   6.519  0.0112  0.5136  0.4522
21198SOL    HW165794   4.099   9.495   6.565  0.0443  0.4442  0.4788
21198SOL    HW265795   4.156   9.515   6.426  0.2275 -0.5692  0.4026
21199SOL     OW65796   6.255   4.689   1.929  0.1178 -0.1858  0.1078
21199SOL    HW165797   6.233   4.708   2.021 -0.0456  0.4202 -0.0477
21199SOL    HW265798   6.347   4.663   1.931  0.9308  2.4197  0.1478
21200SOL     OW65799   2.108   3.720   7.458  0.0140  0.1139 -0.4517
21200SOL    HW165800   2.196   3.725   7.495 -0.8658  0.9305  1.6687
21200SOL    HW265801   2.054   3.774   7.516 -2.1978 -1.6203 -0.7490
21201SOL     OW65802   5.852   6.457   8.021 -0.4412  0.3540 -0.8994
21201SOL    HW165803   5.848   6.372   7.976  0.4547  0.3323 -0.9561
21201SOL    HW265804   5.894   6.438   8.105 -2.7511  0.2594  0.3313
21202SOL     OW65805   3.291   5.558   6.061  0.1362  0.1196 -0.5010
21202SOL    HW165806   3.357   5.500   6.022  0.8917 -0.7205  1.8144
21202SOL    HW265807   3.341   5.611   6.124 -1.3470 -0.6051  1.3940
21203SOL     OW65808   4.654   5.319   0.341 -0.4153  0.0417  0.3175
21203SOL    HW165809   4.654   5.225   0.324  2.6751 -0.1631  0.7325
21203SOL    HW265810   4.689   5.358   0.261 -1.6113  0.8771  0.1732
21204SOL     OW65811   5.361   4.522   3.584 -0.4844 -0.2818  0.7780
21204SOL    HW165812   5.425   4.489   3.520 -1.5529 -1.5077  0.3220
21204SOL    HW265813   5.380   4.473   3.664 -0.3992 -0.1316  0.8501
21205SOL     OW65814   7.754   0.933   5.655  0.0679  0.1215  0.4011
21205SOL    HW165815   7.826   0.976   5.702 -0.2539  1.5897 -0.3802
21205SOL    HW265816   7.772   0.840   5.664  1.0923  0.4117  1.7304
21206SOL     OW65817   8.465   4.159   8.058 -0.0676 -0.5934 -0.0433
21206SOL    HW165818   8.469   4.151   8.154 -3.2217 -0.2508  0.2187
21206SOL    HW265819   8.460   4.253   8.043 -0.0502 -0.6709 -0.5360
21207SOL     OW65820   8.551   5.678   1.165 -0.0873 -0.2143  0.2101
21207SOL    HW165821   8.501   5.700   1.243 -1.3513  0.3987 -0.7403
21207SOL    HW265822   8.559   5.583   1.168 -0.4468 -0.2266  0.8971
21208SOL     OW65823   8.385   3.230   3.107  0.4354 -0.2196  0.0551
21208SOL    HW165824   8.364   3.137   3.095 -0.5572 -0.1901  1.3870
21208SOL    HW265825   8.323   3.275   3.050  0.5363 -0.3488 -0.1602
21209SOL     OW65826   3.116   7.220   8.401  0.2897  0.3469 -0.2361
21209SOL    HW165827   3.172   7.266   8.463  0.2436 -0.0113  0.0781
21209SOL    HW265828   3.142   7.128   8.409 -1.1421  0.0007  0.7724
21210SOL     OW65829   0.930   7.731   7.826 -0.0645  0.3496 -0.8356
21210SOL    HW165830   1.008   7.772   7.863  0.4165 -1.3950  0.2029
21210SOL    HW265831   0.945   7.637   7.836 -1.0365 -0.1412 -3.2650
21211SOL     OW65832   7.804   2.847   6.288  0.3460 -0.6783  0.1595
21211SOL    HW165833   7.751   2.920   6.254  1.8218  0.1073 -0.5307
21211SOL    HW265834   7.770   2.833   6.377  0.0232  0.8735  0.3172
21212SOL     OW65835   5.598   8.346   9.292  0.6332 -0.0976 -0.2355
21212SOL    HW165836   5.672   8.316   9.240  3.7115  1.8408  2.6049
21212SOL    HW265837   5.611   8.307   9.378 -1.5458  0.4978  0.4283
21213SOL     OW65838   6.483   6.370   8.800  0.2754  0.4444 -0.3371
21213SOL    HW165839   6.535   6.359   8.879  1.6093  3.5759 -0.6192
21213SOL    HW265840   6.398   6.400   8.831  0.4502  0.6428 -0.0452
21214SOL     OW65841   4.620   8.571   1.058  0.2546  0.0225 -0.0587
21214SOL    HW165842   4.638   8.644   0.999 -0.4021  0.1864 -0.0680
21214SOL    HW265843   4.597   8.499   1.000  0.8588 -0.1810 -0.0475
21215SOL     OW65844   9.110   3.640   7.902 -0.0261  0.6439  0.1610
21215SOL    HW165845   9.133   3.619   7.812 -0.2190 -1.1737  0.4945
21215SOL    HW265846   9.116   3.735   7.907  1.6339  0.6639 -1.3214
21216SOL     OW65847   1.767   9.011   4.598 -0.4309 -0.1962 -0.0313
21216SOL    HW165848   1.698   8.946   4.608 -0.7513  0.1368 -0.0458
21216SOL    HW265849   1.785   9.013   4.504  2.1680 -2.9034  0.2862
21217SOL     OW65850   4.624   9.528   7.279  0.5422  0.6014 -0.4395
21217SOL    HW165851   4.539   9.486   7.269  1.2943 -1.0961 -0.1056
21217SOL    HW265852   4.618   9.575   7.362  0.1672 -0.1327 -0.0432
21218SOL     OW65853   2.593   9.299   2.557 -0.1213 -0.1271  0.3577
21218SOL    HW165854   2.537   9.260   2.625 -0.6459  0.4276  0.2563
21218SOL    HW265855   2.533   9.321   2.486  0.5744 -1.6649 -0.7492
21219SOL     OW65856   0.853   7.786   2.332  0.4872 -0.1542  0.3297
21219SOL    HW165857   0.763   7.814   2.318  0.4429 -1.0913 -1.5498
21219SOL    HW265858   0.903   7.867   2.332 -0.0845  0.2247 -1.1475
21220SOL     OW65859   8.339   1.502   1.113  0.1022  0.0002 -0.4186
21220SOL    HW165860   8.289   1.566   1.163 -2.4421 -1.1093 -1.4012
21220SOL    HW265861   8.388   1.454   1.179 -1.0532  0.3532  0.7389
21221SOL     OW65862   8.428   2.313   7.562  0.4970  0.6674  0.1342
21221SOL    HW165863   8.409   2.354   7.477  0.8329  0.3526 -0.0965
21221SOL    HW265864   8.499   2.367   7.598  1.6736 -0.3113 -0.6410
21222SOL     OW65865   6.278   0.365   6.168  0.5366 -0.0824 -0.2980
21222SOL    HW165866   6.295   0.437   6.106  0.1802 -1.2303 -1.7994
21222SOL    HW265867   6.183   0.359   6.171  0.5608 -1.4787 -1.4335
21223SOL     OW65868   5.856   7.754   3.094 -0.4581  0.1459 -0.6428
21223SOL    HW165869   5.907   7.806   3.156  0.7682 -0.8348 -0.7860
21223SOL    HW265870   5.770   7.796   3.092 -0.6152  0.0945  1.8637
21224SOL     OW65871   3.724   8.815   1.895 -0.3709 -0.6717  0.6463
21224SOL    HW165872   3.799   8.865   1.928 -0.6409 -0.3571  0.7802
21224SOL    HW265873   3.762   8.731   1.869 -0.1679 -0.9856  1.9025
21225SOL     OW65874   8.415   4.376   0.488 -0.5390  0.4248 -0.3350
21225SOL    HW165875   8.396   4.398   0.579 -0.2706  1.3592 -0.4950
21225SOL    HW265876   8.499   4.419   0.470 -0.1375 -0.5002 -0.7576
21226SOL     OW65877   4.469   8.867   2.344  0.1990  0.6452 -0.2248
21226SOL    HW165878   4.444   8.810   2.417 -1.0100  1.3705 -0.0478
21226SOL    HW265879   4.564   8.857   2.337  0.0666 -1.1671 -0.0079
21227SOL     OW65880   2.981   1.763   6.095  0.5440 -0.4573 -0.0892
21227SOL    HW165881   3.022   1.840   6.057  0.4183 -0.4962 -0.3024
21227SOL    HW265882   2.895   1.793   6.125 -0.9002 -1.2171 -3.1130
21228SOL     OW65883   6.996   0.635   2.739  0.2269  0.1275 -0.5265
21228SOL    HW165884   6.970   0.632   2.831 -0.0582 -1.0196 -0.6307
21228SOL    HW265885   7.089   0.614   2.739  0.7991  2.4081 -0.3205
21229SOL     OW65886   2.143   8.262   0.068 -0.3251 -0.2352 -0.3051
21229SOL    HW165887   2.100   8.338   0.029 -0.0506  0.0974  0.0318
21229SOL    HW265888   2.096   8.187   0.032  1.2059 -0.0774 -2.9063
21230SOL     OW65889   9.162   5.344   4.668 -0.3785 -0.0094 -0.0637
21230SOL    HW165890   9.205   5.331   4.583 -1.0688  1.5354 -0.6742
21230SOL    HW265891   9.069   5.326   4.651 -0.7755  1.8718 -0.0576
21231SOL     OW65892   1.138   2.913   6.161 -0.1857 -0.5470  0.1230
21231SOL    HW165893   1.061   2.941   6.212  0.1329 -0.4996  0.5857
21231SOL    HW265894   1.189   2.860   6.222  0.3205 -0.2974 -0.0758
21232SOL     OW65895   7.941   0.716   3.321 -0.4365  0.4123 -0.5477
21232SOL    HW165896   8.035   0.730   3.310 -0.2681 -1.1744 -1.4249
21232SOL    HW265897   7.912   0.678   3.238 -1.0774 -2.6421  0.9167
21233SOL     OW65898   8.287   7.346   1.625  0.1563  0.2429 -0.0214
21233SOL    HW165899   8.259   7.405   1.695  0.2348 -0.3067  0.4843
21233SOL    HW265900   8.339   7.279   1.671 -0.5452 -0.6254 -0.4864
21234SOL     OW65901   3.218   0.500   8.838 -0.1418 -0.3114 -0.1650
21234SOL    HW165902   3.184   0.427   8.889 -0.9568 -0.1883 -0.5269
21234SOL    HW265903   3.183   0.578   8.881 -1.0514 -0.2137 -1.0481
21235SOL     OW65904   1.964   2.866   6.011 -0.6254 -0.1518  0.4853
21235SOL    HW165905   1.952   2.939   6.072  0.6135  1.1037 -0.6986
21235SOL    HW265906   1.962   2.788   6.066  2.1399  0.9968  2.4274
21236SOL     OW65907   3.651   9.447   9.358  0.3204 -0.2719 -0.3538
21236SOL    HW165908   3.629   9.390   9.431  1.7236  0.2884  0.5537
21236SOL    HW265909   3.604   9.529   9.376  0.1463 -0.3512 -0.4404
21237SOL     OW65910   6.188   8.843   3.232 -0.1324 -0.5783 -0.0839
21237SOL    HW165911   6.216   8.853   3.141 -0.2963  1.5314  0.0305
21237SOL    HW265912   6.259   8.884   3.283 -1.8333  1.9382  0.4193
21238SOL     OW65913   8.808   1.021   2.760 -0.2596  0.6031 -0.1919
21238SOL    HW165914   8.803   1.058   2.672 -1.5392  2.4255  0.5877
21238SOL    HW265915   8.764   1.085   2.816  1.1453 -0.1507  1.9068
21239SOL     OW65916   4.454   8.337   5.300  0.0921 -0.0466 -0.1650
21239SOL    HW165917   4.441   8.277   5.373  0.8230  0.4467  0.3950
21239SOL    HW265918   4.534   8.306   5.257  0.5006  0.5500  0.1565
21240SOL     OW65919   6.163   2.712   7.066 -0.7890 -0.2434 -1.3164
21240SOL    HW165920   6.156   2.714   6.971 -0.3005 -1.7010 -1.4132
21240SOL    HW265921   6.257   2.715   7.083 -0.8874  0.3327 -0.8681
21241SOL     OW65922   5.804   1.851   2.520  0.1900 -0.0812  0.1358
21241SOL    HW165923   5.803   1.897   2.436 -0.5890  0.5978  0.5035
21241SOL    HW265924   5.796   1.759   2.497  0.4970  0.0597 -0.5540
21242SOL     OW65925   4.436   4.454   5.790  0.1145 -0.3160 -0.0758
21242SOL    HW165926   4.470   4.446   5.701 -1.7646 -0.8379 -0.8027
21242SOL    HW265927   4.381   4.532   5.788  0.5468  0.0248  0.8145
21243SOL     OW65928   7.632   6.017   7.560 -0.3438  0.4043  0.2623
21243SOL    HW165929   7.587   6.094   7.527 -1.7781  0.4053  2.0864
21243SOL    HW265930   7.687   5.988   7.487 -2.4072  1.1003 -1.6732
21244SOL     OW65931   2.214   7.719   0.836 -0.3642 -0.5060 -0.1341
21244SOL    HW165932   2.207   7.763   0.920  1.1262  0.8897 -0.6846
21244SOL    HW265933   2.186   7.629   0.853  0.4206 -0.4008  1.9778
21245SOL     OW65934   9.086   8.786   3.525  0.1508  0.4171  0.5454
21245SOL    HW165935   9.106   8.703   3.569 -1.0902 -0.3999 -0.3456
21245SOL    HW265936   9.003   8.814   3.564  0.1983  0.8500  0.3310
21246SOL     OW65937   6.433   6.542   5.278  0.0456  0.2320  0.1582
21246SOL    HW165938   6.526   6.536   5.255 -0.3904 -0.9969 -1.4850
21246SOL    HW265939   6.392   6.582   5.201 -0.7582  1.0253  0.9848
21247SOL     OW65940   1.355   8.137   4.628 -0.1580 -0.6199 -1.0560
21247SOL    HW165941   1.301   8.215   4.613  0.5671  0.6965  2.2686
21247SOL    HW265942   1.297   8.063   4.611 -0.7471  0.4717 -4.7816
21248SOL     OW65943   6.415   7.987   0.373 -0.7438 -0.2013 -0.3701
21248SOL    HW165944   6.397   7.893   0.377  1.8402 -0.7207  1.4434
21248SOL    HW265945   6.332   8.027   0.400 -1.4216 -2.0428  0.5300
21249SOL     OW65946   1.558   6.911   6.767 -0.3372 -0.5899  0.0895
21249SOL    HW165947   1.467   6.937   6.784  0.1332  0.3489  1.3060
21249SOL    HW265948   1.588   6.871   6.848  0.6436  0.0370  0.0543
21250SOL     OW65949   7.195   7.669   4.722 -0.2057 -0.4198 -0.1750
21250SOL    HW165950   7.120   7.610   4.723 -0.5498  0.0170  0.8426
21250SOL    HW265951   7.162   7.749   4.682 -0.0920 -0.4638 -0.3584
21251SOL     OW65952   2.594   7.054   0.862  0.4356  0.6962  0.1397
21251SOL    HW165953   2.524   7.112   0.831 -1.0386 -1.0550  0.0154
21251SOL    HW265954   2.644   7.033   0.783  1.2504  2.0750  0.2516
21252SOL     OW65955   3.941   7.543   3.510  0.6692 -0.8349  0.8240
21252SOL    HW165956   3.970   7.569   3.423 -0.1686 -2.3762  0.0457
21252SOL    HW265957   3.851   7.578   3.516  0.0996 -2.1763  0.3717
21253SOL     OW65958   2.668   7.998   9.555 -0.1963  0.1880 -0.5191
21253SOL    HW165959   2.651   8.000   9.649  0.1319 -1.8045 -0.3759
21253SOL    HW265960   2.760   7.973   9.547 -0.1333  0.6463 -1.3860
21254SOL     OW65961   2.152   1.984   7.018  0.3203 -0.1287  0.7241
21254SOL    HW165962   2.218   1.972   6.950  0.8369 -2.1292  1.5140
21254SOL    HW265963   2.079   2.029   6.974  1.6664  0.9634 -0.4643
21255SOL     OW65964   7.618   2.665   0.996  0.3632 -0.1008 -0.2528
21255SOL    HW165965   7.669   2.744   0.979 -0.8157  0.7156 -0.0948
21255SOL    HW265966   7.680   2.604   1.036  1.5886  0.2862 -1.4819
21256SOL     OW65967   3.904   6.376   0.181 -0.7876 -0.3086 -0.1792
21256SOL    HW165968   3.850   6.416   0.113 -0.5894  1.5339  0.6987
21256SOL    HW265969   3.978   6.339   0.133 -0.9361  0.4647 -1.0384
21257SOL     OW65970   2.034   1.426   9.363  0.6092 -0.1700 -0.2916
21257SOL    HW165971   2.050   1.500   9.304 -0.5818  0.1835 -0.1926
21257SOL    HW265972   2.032   1.466   9.450 -1.4905 -0.0619 -0.3568
21258SOL     OW65973   8.461   1.821   5.742  0.2417  0.4998 -0.3045
21258SOL    HW165974   8.494   1.908   5.720  0.5054  1.2868  2.7049
21258SOL    HW265975   8.368   1.834   5.758  0.3323  0.3200  0.4217
21259SOL     OW65976   1.047   8.680   4.934  0.0503  0.0408  0.4248
21259SOL    HW165977   1.073   8.657   4.845  1.1629 -0.4003  0.8567
21259SOL    HW265978   0.970   8.625   4.951 -1.2940  1.4017 -0.8739
21260SOL     OW65979   3.654   1.060   1.658 -0.4096 -0.2630  0.5397
21260SOL    HW165980   3.567   1.028   1.679 -0.1445 -2.7629 -1.6080
21260SOL    HW265981   3.712   1.015   1.720 -0.3416 -1.6593 -0.4881
21261SOL     OW65982   3.156   2.300   3.774 -0.0863  0.2476 -0.4000
21261SOL    HW165983   3.085   2.360   3.752 -0.0089  0.3872 -0.2693
21261SOL    HW265984   3.147   2.228   3.711  0.0561  0.5824 -0.8160
21262SOL     OW65985   2.009   4.721   9.521 -0.5222 -0.4375  0.1554
21262SOL    HW165986   2.047   4.790   9.467 -0.4929 -0.2136  0.4589
21262SOL    HW265987   2.084   4.675   9.557 -0.5153 -1.5808 -1.2193
21263SOL     OW65988   4.979   8.302   2.885 -0.6163 -0.2477  0.5483
21263SOL    HW165989   4.915   8.373   2.877 -1.9944 -1.5545 -0.7860
21263SOL    HW265990   5.026   8.303   2.802  0.5957  0.1792  1.2083
21264SOL     OW65991   4.430   7.467   8.186 -0.0713  0.3532 -0.4360
21264SOL    HW165992   4.430   7.491   8.279  0.8355  1.9111 -0.8030
21264SOL    HW265993   4.340   7.441   8.168 -0.2254 -0.1386  0.9148
21265SOL     OW65994   6.378   3.855   2.654  0.0796 -0.3711 -0.5393
21265SOL    HW165995   6.350   3.878   2.742  0.7235 -2.1453  0.1936
21265SOL    HW265996   6.469   3.884   2.650  0.0060 -0.1614 -0.6612
21266SOL     OW65997   9.049   5.948   1.109  0.0025 -0.2038 -0.0082
21266SOL    HW165998   9.065   5.857   1.134  1.7350 -0.0567 -0.4254
21266SOL    HW265999   9.106   5.999   1.168  1.0060  0.4112 -1.4570
21267SOL     OW66000   1.838   5.025   7.510 -0.5995  0.2487  0.3442
21267SOL    HW166001   1.828   4.936   7.543  0.6810 -0.8136 -1.8859
21267SOL    HW266002   1.880   5.073   7.582  0.3382 -1.4212  0.9562
21268SOL     OW66003   4.122   8.848   7.424  0.6398 -0.4982  0.7591
21268SOL    HW166004   4.142   8.755   7.433  1.5201 -0.3300  0.6425
21268SOL    HW266005   4.107   8.861   7.330 -1.7660 -0.9454  1.0314
21269SOL     OW66006   3.833   8.761   4.365 -0.3900  0.1391  0.1341
21269SOL    HW166007   3.815   8.854   4.353 -0.2796  0.3268  1.3072
21269SOL    HW266008   3.908   8.758   4.424 -0.7758 -0.6929  0.6003
21270SOL     OW66009   3.925   0.228   1.321 -0.2502  0.1334 -0.6576
21270SOL    HW166010   3.923   0.139   1.288  0.9496 -0.0369 -0.3324
21270SOL    HW266011   3.956   0.219   1.411  1.1068  0.9613 -1.0101
21271SOL     OW66012   9.078   0.033   4.277  0.2352  0.3083  0.4243
21271SOL    HW166013   9.172   0.017   4.286 -0.2081 -2.2315  1.5530
21271SOL    HW266014   9.038  -0.022   4.344 -2.0729  1.6162  0.2413
21272SOL     OW66015   2.317   2.180   3.862  0.5689 -0.2959 -0.1273
21272SOL    HW166016   2.229   2.213   3.845  0.1799 -1.0647  0.3380
21272SOL    HW266017   2.369   2.258   3.882  0.0062  0.1630 -0.4445
21273SOL     OW66018   0.243   7.918   9.322 -0.4720 -0.1961  0.0895
21273SOL    HW166019   0.211   7.838   9.365 -0.3321 -0.8983 -1.0658
21273SOL    HW266020   0.296   7.961   9.389 -0.7515 -0.9451  0.8192
21274SOL     OW66021   8.426   8.932   4.265  0.2278 -0.0747  0.2237
21274SOL    HW166022   8.378   8.849   4.273  0.6940 -1.0251 -4.2327
21274SOL    HW266023   8.366   8.989   4.217  2.0281  0.0072 -2.0767
21275SOL     OW66024   6.313   9.344   1.014  0.1458 -0.8254 -0.3759
21275SOL    HW166025   6.333   9.419   0.959  1.6492  0.4419  1.7424
21275SOL    HW266026   6.268   9.382   1.090  1.0153 -2.0178  0.7782
21276SOL     OW66027   2.135   4.327   0.625  0.6108  0.0152  0.7259
21276SOL    HW166028   2.183   4.333   0.707  0.0602  1.5932  0.9723
21276SOL    HW266029   2.045   4.307   0.651  0.5147  0.1083  0.4762
21277SOL     OW66030   7.927   0.487   2.210 -0.2354  0.6075 -0.5186
21277SOL    HW166031   7.927   0.483   2.305  1.1977 -3.7383 -0.4613
21277SOL    HW266032   8.020   0.491   2.186 -0.0008 -4.1616 -1.4401
21278SOL     OW66033   6.117   2.976   5.309  0.2998 -0.1519  0.2564
21278SOL    HW166034   6.048   2.965   5.244  0.9840 -2.3385 -0.1776
21278SOL    HW266035   6.071   2.998   5.389 -0.8625 -0.9560 -0.1614
21279SOL     OW66036   0.141   8.990   0.310 -0.0874  0.2033 -0.1575
21279SOL    HW166037   0.172   8.962   0.397  0.2056  0.3915 -0.2007
21279SOL    HW266038   0.065   9.045   0.328 -0.7814 -0.7527 -0.0770
21280SOL     OW66039   2.359   7.649   9.037  0.0511 -0.4639 -0.0449
21280SOL    HW166040   2.362   7.692   9.122 -0.0728  0.9511 -0.7176
21280SOL    HW266041   2.273   7.608   9.033  0.9013 -2.5000  1.3888
21281SOL     OW66042   1.135   3.498   1.157  0.0803  0.2928  0.2635
21281SOL    HW166043   1.199   3.484   1.086 -1.9778 -0.1417 -1.6121
21281SOL    HW266044   1.145   3.591   1.179  0.4575  0.5699 -0.9556
21282SOL     OW66045   1.722   5.272   8.291 -0.0537 -0.5195  0.2270
21282SOL    HW166046   1.810   5.279   8.328 -0.0043 -0.1065  0.0373
21282SOL    HW266047   1.695   5.182   8.310  0.9998 -1.1370 -1.0534
21283SOL     OW66048   3.624   9.005   6.316 -0.1231  0.2376  0.0613
21283SOL    HW166049   3.706   9.027   6.272 -0.4176 -0.0747 -0.6694
21283SOL    HW266050   3.640   8.920   6.356 -0.0660  0.2195  0.0002
21284SOL     OW66051   4.356   7.519   6.515  0.2124  0.0359  0.7092
21284SOL    HW166052   4.434   7.563   6.483 -0.6121  0.5607 -0.6619
21284SOL    HW266053   4.385   7.472   6.593  2.0026 -0.2649 -0.1006
21285SOL     OW66054   6.707   2.662   6.119  0.1085 -0.0276  0.2511
21285SOL    HW166055   6.623   2.650   6.075 -0.4683  0.8526  1.0717
21285SOL    HW266056   6.738   2.573   6.137 -0.0381 -0.3829 -1.1535
21286SOL     OW66057   6.714   8.137   6.189  0.2855 -0.2723 -0.1297
21286SOL    HW166058   6.747   8.213   6.142  0.4033 -1.5083 -2.1698
21286SOL    HW266059   6.735   8.062   6.132 -2.1036 -1.5591  0.5310
21287SOL     OW66060   3.997   1.858   0.163 -0.1285 -0.4009 -0.1627
21287SOL    HW166061   3.931   1.911   0.118  1.2594  0.4069 -1.3653
21287SOL    HW266062   3.989   1.771   0.123  0.5096  0.0893 -1.4372
21288SOL     OW66063   8.942   7.661   5.017 -0.0298  0.1796 -0.1227
21288SOL    HW166064   8.967   7.694   4.931  2.0253 -0.2986  0.2481
21288SOL    HW266065   8.846   7.659   5.015 -0.0211 -0.4736 -2.6330
21289SOL     OW66066   8.899   7.770   5.422  0.2453 -0.8607  0.0205
21289SOL    HW166067   8.982   7.722   5.419  0.1086 -1.0436 -1.8157
21289SOL    HW266068   8.837   7.713   5.376  0.1820  1.1992 -2.6959
21290SOL     OW66069   0.879   7.472   5.037  0.6020 -0.3006  0.4148
21290SOL    HW166070   0.925   7.398   5.077 -1.8104 -0.5358  3.0808
21290SOL    HW266071   0.844   7.521   5.111 -1.7737  0.9123 -1.3724
21291SOL     OW66072   1.878   4.347   5.632 -0.2829  0.0085 -0.4437
21291SOL    HW166073   1.837   4.402   5.565 -0.6937 -0.0616 -0.2510
21291SOL    HW266074   1.809   4.287   5.659 -0.3446  0.5091  0.5601
21292SOL     OW66075   8.376   6.744   6.617  0.1231  0.2011 -0.5664
21292SOL    HW166076   8.404   6.781   6.701  1.4778  0.5600 -1.1392
21292SOL    HW266077   8.281   6.746   6.620  0.1369 -0.0351  1.0637
21293SOL     OW66078   5.061   2.956   7.816  0.0256 -0.1996  0.1471
21293SOL    HW166079   5.051   2.898   7.740  2.2919 -1.3760  0.6649
21293SOL    HW266080   5.013   2.912   7.886  0.9493 -1.0199  0.2912
21294SOL     OW66081   4.626   0.170   3.931  0.4799 -0.0200 -0.2339
21294SOL    HW166082   4.571   0.207   3.861 -0.8499 -0.5118  0.4975
21294SOL    HW266083   4.647   0.245   3.987 -2.3960 -0.2345  1.3761
21295SOL     OW66084   3.837   1.602   7.755 -0.1894 -0.2748  0.2080
21295SOL    HW166085   3.931   1.615   7.740 -0.0453  1.2514  2.0489
21295SOL    HW266086   3.832   1.569   7.844 -1.3500 -1.8441 -0.4032
21296SOL     OW66087   4.930   7.123   5.294 -0.7808 -0.1751 -0.0860
21296SOL    HW166088   5.011   7.124   5.345 -0.5122 -0.4208 -0.5039
21296SOL    HW266089   4.943   7.056   5.228 -0.9956  0.3604 -0.6863
21297SOL     OW66090   8.278   9.100   2.301  0.1463 -0.4395 -0.5915
21297SOL    HW166091   8.247   9.135   2.217  0.5066 -0.8913 -0.9189
21297SOL    HW266092   8.280   9.176   2.359  2.3037  0.4286 -1.6817
21298SOL     OW66093   3.227   8.369   8.904  0.2820  0.1577  0.3440
21298SOL    HW166094   3.134   8.349   8.903  0.1373  0.6241 -1.9892
21298SOL    HW266095   3.270   8.284   8.903 -0.1321 -0.0560  0.5074
21299SOL     OW66096   6.971   8.520   5.438 -0.0632 -0.6694  0.2695
21299SOL    HW166097   7.013   8.604   5.458 -1.6971  0.2066  0.2526
21299SOL    HW266098   7.006   8.459   5.504  0.8263  0.1240  0.5579
21300SOL     OW66099   6.284   2.062   3.244  0.0659  0.4625  0.3677
21300SOL    HW166100   6.318   2.078   3.332  1.9746 -0.3175 -0.1935
21300SOL    HW266101   6.293   2.146   3.200  2.0773  0.0955 -0.0013
21301SOL     OW66102   1.825   8.619   1.283  0.0116  0.1430  0.2756
21301SOL    HW166103   1.838   8.682   1.212 -0.8264 -0.2931 -0.2827
21301SOL    HW266104   1.853   8.665   1.362  0.9973  0.6202 -0.3387
21302SOL     OW66105   7.918   2.361   2.972 -0.6484  0.4828  0.6736
21302SOL    HW166106   8.014   2.359   2.971 -0.6223 -1.9391 -0.0730
21302SOL    HW266107   7.896   2.450   2.997  1.7968  1.1383  0.7824
21303SOL     OW66108   9.234   3.223   3.653  0.7203 -0.2680 -0.1168
21303SOL    HW166109   9.198   3.305   3.687 -0.1575 -0.3349 -0.8397
21303SOL    HW266110   9.296   3.195   3.720 -0.3804  0.0044  1.0779
21304SOL     OW66111   8.698   0.858   4.810 -0.2563  0.3060  0.4391
21304SOL    HW166112   8.764   0.928   4.809  0.0189  0.0665  1.3872
21304SOL    HW266113   8.749   0.777   4.813 -0.5721  0.0430 -0.7794
21305SOL     OW66114   3.719   7.054   0.478  0.0262 -0.4800  0.1829
21305SOL    HW166115   3.670   7.111   0.537  1.3085  1.9825 -1.0165
21305SOL    HW266116   3.662   6.978   0.467 -1.0957 -0.1998  3.0312
21306SOL     OW66117   5.813   4.342   8.746 -0.0170  0.0556  0.0242
21306SOL    HW166118   5.878   4.289   8.793 -1.8404 -2.0427  0.3088
21306SOL    HW266119   5.849   4.351   8.658  0.7397 -0.9325  0.2137
21307SOL     OW66120   6.452   8.918   8.409  0.0349 -0.1766  0.1215
21307SOL    HW166121   6.365   8.914   8.369  0.3759 -0.1370 -0.6475
21307SOL    HW266122   6.462   9.010   8.435 -0.2720 -0.2467  0.4982
21308SOL     OW66123   3.010   2.331   6.591 -0.1879  0.1762 -0.2927
21308SOL    HW166124   2.938   2.313   6.653 -0.5473  2.9038  0.2132
21308SOL    HW266125   3.089   2.309   6.640 -0.5899 -1.2231 -0.2306
21309SOL     OW66126   2.575   4.471   1.082  0.2815 -0.0593  0.1740
21309SOL    HW166127   2.597   4.388   1.123  1.4785  0.6705  1.0969
21309SOL    HW266128   2.507   4.450   1.018  0.3736 -1.6843  0.5791
21310SOL     OW66129   9.419   8.484   7.296  0.6550 -0.3613 -0.4458
21310SOL    HW166130   9.341   8.451   7.340  1.9498 -2.3944  0.4728
21310SOL    HW266131   9.461   8.540   7.361  0.2187  0.3819 -0.7882
21311SOL     OW66132   7.735   9.452   4.749 -0.4911 -0.0474 -0.3419
21311SOL    HW166133   7.707   9.543   4.739  2.5839  1.0369 -0.1085
21311SOL    HW266134   7.773   9.449   4.837  1.7888 -0.8118 -1.2988
21312SOL     OW66135   0.704   4.457   0.437 -0.0253 -0.0051 -0.0356
21312SOL    HW166136   0.656   4.404   0.501 -0.1584 -0.8254 -0.7888
21312SOL    HW266137   0.751   4.522   0.490  1.5077 -1.9239  1.1037
21313SOL     OW66138   6.885   0.309   9.322  0.0547 -0.8665 -0.1091
21313SOL    HW166139   6.895   0.216   9.340  1.6973 -1.4153 -3.0394
21313SOL    HW266140   6.961   0.350   9.363 -2.0079 -0.2618  3.4722
21314SOL     OW66141   7.462   1.562   9.204  0.2956 -0.6776 -0.7247
21314SOL    HW166142   7.517   1.594   9.132  0.9786 -1.1992 -0.4519
21314SOL    HW266143   7.459   1.467   9.191 -1.5620 -0.5637 -1.4265
21315SOL     OW66144   7.404   2.345   1.903  0.0700  0.4555 -0.5259
21315SOL    HW166145   7.432   2.429   1.938 -1.5355  0.4939  0.7646
21315SOL    HW266146   7.364   2.300   1.977  2.9268 -2.4697 -0.5120
21316SOL     OW66147   5.683   6.197   5.594 -0.3452  0.2165  0.0725
21316SOL    HW166148   5.622   6.170   5.526 -1.1604 -3.1175  1.9033
21316SOL    HW266149   5.710   6.115   5.636  2.1098  1.9103  2.0983
21317SOL     OW66150   7.839   1.448   1.636  0.2063  0.1893 -0.4706
21317SOL    HW166151   7.840   1.502   1.715 -0.0863 -0.3989 -0.0539
21317SOL    HW266152   7.867   1.361   1.667  0.1231 -0.0354 -1.0222
21318SOL     OW66153   2.351   2.326   5.408  0.4255 -0.6380  0.3067
21318SOL    HW166154   2.348   2.234   5.434 -0.2569 -0.9360 -0.7963
21318SOL    HW266155   2.282   2.368   5.458 -1.1623 -1.2914 -1.2469
21319SOL     OW66156   3.231   4.144   9.321 -0.2418 -0.1492  0.0629
21319SOL    HW166157   3.242   4.088   9.244 -2.3489 -1.0293  0.3340
21319SOL    HW266158   3.203   4.084   9.390 -0.7420  0.9777  0.8623
21320SOL     OW66159   6.223   6.877   7.866 -0.1340 -0.0652 -0.5785
21320SOL    HW166160   6.170   6.878   7.787 -1.0577  1.7216  0.0007
21320SOL    HW266161   6.221   6.787   7.896 -0.9390 -0.4778 -1.8116
21321SOL     OW66162   5.815   2.541   8.169 -0.8034 -0.3773 -0.0465
21321SOL    HW166163   5.740   2.579   8.215 -0.5678  0.7980 -0.5755
21321SOL    HW266164   5.796   2.555   8.076 -0.5903 -1.3707 -0.2478
21322SOL     OW66165   0.896   8.569   8.452 -0.3261  0.3367  0.3207
21322SOL    HW166166   0.819   8.592   8.401 -0.2250  0.4294  0.2096
21322SOL    HW266167   0.909   8.476   8.435  0.6022  0.6931 -1.0383
21323SOL     OW66168   6.609   0.906   2.516  0.6950  0.1314 -0.0030
21323SOL    HW166169   6.669   0.950   2.576  2.5446 -2.2548  0.0702
21323SOL    HW266170   6.641   0.930   2.428  0.0350  1.0019 -0.0178
21324SOL     OW66171   3.683   1.009   8.889 -0.7028 -0.2542  0.6267
21324SOL    HW166172   3.589   1.005   8.909 -0.9241 -0.6460 -0.4119
21324SOL    HW266173   3.688   0.991   8.795  0.2740  1.4629  0.3153
21325SOL     OW66174   8.998   4.875   7.045  0.0121  0.7750 -0.0795
21325SOL    HW166175   9.051   4.844   6.972 -1.5057  0.4452 -1.0868
21325SOL    HW266176   9.008   4.970   7.044 -0.3699  0.8066 -1.0182
21326SOL     OW66177   4.954   4.241   6.495 -0.4663 -0.1558 -0.2755
21326SOL    HW166178   4.891   4.171   6.478  0.2445 -1.1567  1.0474
21326SOL    HW266179   5.033   4.195   6.525  0.5045  1.1365 -0.7813
21327SOL     OW66180   0.426   2.052   1.557  0.3756  0.3262 -0.1048
21327SOL    HW166181   0.340   2.011   1.560  1.3019 -1.6953  1.0632
21327SOL    HW266182   0.419   2.118   1.489 -1.5725 -1.0238 -1.3207
21328SOL     OW66183   7.828   9.297   9.420  0.3422  0.2611 -0.1623
21328SOL    HW166184   7.809   9.228   9.484 -0.4980  2.1774  1.7859
21328SOL    HW266185   7.907   9.268   9.376 -0.6270 -2.4905 -0.2933
21329SOL     OW66186   1.282   5.090   3.338  0.2196  0.1318  0.5011
21329SOL    HW166187   1.316   5.178   3.356  1.8502 -0.4778  0.5365
21329SOL    HW266188   1.346   5.051   3.278 -0.6505 -0.9271  0.2267
21330SOL     OW66189   0.256   2.031   6.946 -0.0991 -0.0378  0.8773
21330SOL    HW166190   0.209   2.112   6.963 -3.0034 -1.6223  1.1202
21330SOL    HW266191   0.338   2.058   6.904 -2.8342  2.8928 -3.3394
21331SOL     OW66192   0.034   7.100   6.237  0.2730  0.3014  0.1347
21331SOL    HW166193  -0.003   7.171   6.185 -0.2014  0.1791  0.2968
21331SOL    HW266194  -0.041   7.062   6.283  0.3480 -1.0038 -0.7806
21332SOL     OW66195   6.026   5.205   1.202 -0.0812  0.0003 -0.1783
21332SOL    HW166196   6.105   5.183   1.250  0.4365 -0.2213 -1.1123
21332SOL    HW266197   6.020   5.301   1.208 -0.1861 -0.0490  0.5669
21333SOL     OW66198   6.136   5.817   0.965  0.0892 -0.1427  0.0422
21333SOL    HW166199   6.133   5.722   0.978  1.2417 -0.3996 -1.2655
21333SOL    HW266200   6.183   5.850   1.041  1.8185 -0.9340 -0.6213
21334SOL     OW66201   7.104   6.268   4.528 -0.1935 -0.5513 -0.0501
21334SOL    HW166202   7.172   6.287   4.463  0.5239  1.2642  1.1783
21334SOL    HW266203   7.094   6.172   4.524 -0.0302 -0.5496 -2.6372
21335SOL     OW66204   5.724   0.928   8.931 -0.1138 -0.5020 -0.2564
21335SOL    HW166205   5.647   0.916   8.988 -0.5900 -1.4442 -1.0781
21335SOL    HW266206   5.785   0.860   8.959  1.7620  2.0283  2.4325
21336SOL     OW66207   7.171   2.133   1.357 -0.0034  0.4996  0.0700
21336SOL    HW166208   7.150   2.082   1.436 -0.1762 -0.5901 -0.6464
21336SOL    HW266209   7.088   2.175   1.333 -0.5633 -1.0273 -0.8083
21337SOL     OW66210   2.070   2.636   4.220  1.0854 -0.8284  0.4050
21337SOL    HW166211   2.071   2.599   4.131  0.7361  1.1930 -0.4978
21337SOL    HW266212   2.161   2.659   4.238  1.0155 -0.3409  0.1545
21338SOL     OW66213   3.306   4.969   0.730  0.2397 -0.4835  0.0340
21338SOL    HW166214   3.327   5.038   0.794  0.1773  1.3387 -1.8261
21338SOL    HW266215   3.389   4.923   0.717  0.7046  0.3501  0.0156
21339SOL     OW66216   8.713   0.408   8.956 -0.7221 -0.2939 -0.4971
21339SOL    HW166217   8.715   0.431   9.049  2.3963  1.2727 -0.8014
21339SOL    HW266218   8.652   0.470   8.917 -0.7953  0.1426  0.2862
21340SOL     OW66219   3.267   8.490   5.069 -0.4414  0.3536  0.2060
21340SOL    HW166220   3.272   8.574   5.024 -0.0052 -0.1408 -0.6883
21340SOL    HW266221   3.199   8.442   5.021  2.4101 -1.5129 -2.3072
21341SOL     OW66222   1.334   2.564   0.822 -0.0630  0.2894  0.4532
21341SOL    HW166223   1.315   2.636   0.883 -2.0989 -0.5960  0.9585
21341SOL    HW266224   1.366   2.493   0.877  1.6463  0.6561 -0.0084
21342SOL     OW66225   0.083   2.844   6.824  0.3178  0.0028 -0.1681
21342SOL    HW166226   0.074   2.936   6.851  0.0528 -0.5356  1.7278
21342SOL    HW266227   0.001   2.803   6.852  0.4350 -0.8256 -0.9982
21343SOL     OW66228   5.226   1.915   9.319 -0.3072  0.4554 -0.2093
21343SOL    HW166229   5.222   1.929   9.414 -0.0387 -0.9375  0.0274
21343SOL    HW266230   5.262   1.827   9.309 -1.2088  0.2065 -1.5844
21344SOL     OW66231   8.486   5.913   8.689 -0.1129  0.4369 -0.0767
21344SOL    HW166232   8.511   6.003   8.670 -3.5513  1.5888  0.1240
21344SOL    HW266233   8.552   5.860   8.644  1.4399  3.0318 -1.0918
21345SOL     OW66234   4.441   7.561   7.900  0.0935 -0.2542 -0.5170
21345SOL    HW166235   4.455   7.584   7.991 -2.0929 -0.6451 -0.0114
21345SOL    HW266236   4.454   7.466   7.897  1.1854 -0.1092 -0.8668
21346SOL     OW66237   6.431   4.060   3.401 -0.0470 -0.6543 -0.5266
21346SOL    HW166238   6.412   4.073   3.308 -0.7456 -0.0434 -0.3130
21346SOL    HW266239   6.351   4.087   3.446 -0.3253 -2.5341  0.1822
21347SOL     OW66240   3.313   8.766   7.250  0.2763 -0.1879 -0.3288
21347SOL    HW166241   3.314   8.834   7.183 -0.9772 -0.4944 -0.6810
21347SOL    HW266242   3.261   8.804   7.321  1.0192 -0.1325  0.2021
21348SOL     OW66243   5.843   2.610   3.867  0.1560  0.2659  0.0984
21348SOL    HW166244   5.896   2.689   3.866  0.8777 -0.2027 -1.1530
21348SOL    HW266245   5.883   2.555   3.933  1.4655 -0.2056 -1.0385
21349SOL     OW66246   1.348   2.083   7.181  0.3107  0.0757  0.0416
21349SOL    HW166247   1.425   2.136   7.202 -0.4195 -0.0410  3.5124
21349SOL    HW266248   1.293   2.141   7.127  1.0588  1.6174  0.8590
21350SOL     OW66249   3.517   2.495   0.280  0.0262  0.4468  0.8794
21350SOL    HW166250   3.442   2.538   0.321  0.0669  0.2547  1.1591
21350SOL    HW266251   3.537   2.421   0.338 -1.2981 -1.1824 -0.6265
21351SOL     OW66252   4.416   3.443   7.086 -0.0768  0.2346  0.9840
21351SOL    HW166253   4.475   3.466   7.014 -0.3343  0.7035  0.9200
21351SOL    HW266254   4.427   3.348   7.096  1.5623  0.4599  1.7388
21352SOL     OW66255   6.597   0.074   8.594 -0.0825  0.5316  0.4236
21352SOL    HW166256   6.657   0.131   8.546  2.3266 -2.5236 -0.5895
21352SOL    HW266257   6.523   0.063   8.535  0.0523  1.5144  0.0509
21353SOL     OW66258   4.578   2.890   1.630 -0.3768  0.6454 -0.3832
21353SOL    HW166259   4.646   2.869   1.695  0.0304  1.2497 -0.6025
21353SOL    HW266260   4.500   2.908   1.682 -0.6399 -0.9701 -0.1697
21354SOL     OW66261   7.831   5.370   6.573  0.0984 -0.0771 -0.1340
21354SOL    HW166262   7.897   5.302   6.570  0.0976 -0.2552  2.4013
21354SOL    HW266263   7.880   5.452   6.567  0.2806 -0.2344 -0.9464
21355SOL     OW66264   2.237   3.513   6.328 -0.0541  0.3677  0.0501
21355SOL    HW166265   2.193   3.581   6.277 -1.0224  0.1070  0.4978
21355SOL    HW266266   2.308   3.482   6.272 -1.3245 -0.1894 -1.3235
21356SOL     OW66267   3.266   0.808   4.678 -0.8041 -0.1884  0.1284
21356SOL    HW166268   3.194   0.755   4.711 -0.5747 -1.1511 -0.8697
21356SOL    HW266269   3.305   0.755   4.608  0.2737  0.7217  0.0142
21357SOL     OW66270   8.205   1.735   1.653  0.2469  0.4599  0.0756
21357SOL    HW166271   8.288   1.756   1.695  0.0916 -0.3357  0.8226
21357SOL    HW266272   8.139   1.778   1.707 -0.0347 -1.3992  1.3161
21358SOL     OW66273   0.680   1.872   7.054  0.0308  0.3407  0.1723
21358SOL    HW166274   0.668   1.845   6.963  2.6829  2.5872 -0.9800
21358SOL    HW266275   0.683   1.789   7.103 -2.3299 -0.8862 -1.5592
21359SOL     OW66276   9.440   4.752   0.225  0.2241 -0.2458  0.8045
21359SOL    HW166277   9.441   4.683   0.158  0.6813  0.0904  0.4574
21359SOL    HW266278   9.496   4.821   0.189  0.5434 -0.0926  1.5775
21360SOL     OW66279   0.752   9.419   6.166  0.4348  0.2307 -0.2702
21360SOL    HW166280   0.762   9.324   6.162  0.7342  0.1579  1.4881
21360SOL    HW266281   0.838   9.451   6.190 -0.0221  0.8130  0.6414
21361SOL     OW66282   7.467   8.838   5.948 -0.2501 -0.3530 -0.2758
21361SOL    HW166283   7.480   8.764   6.006 -0.1854 -0.5214 -0.5046
21361SOL    HW266284   7.519   8.909   5.987  0.9603 -0.8726 -0.9024
21362SOL     OW66285   6.525   8.657   9.041  0.7511 -0.3752  0.1775
21362SOL    HW166286   6.452   8.606   9.075  0.8065  1.5608  3.8234
21362SOL    HW266287   6.487   8.743   9.022  1.4911 -0.3345 -1.2140
21363SOL     OW66288   4.963   1.467   5.335 -0.0189  0.2658 -0.1803
21363SOL    HW166289   5.057   1.462   5.351 -0.1146  0.2870  0.4044
21363SOL    HW266290   4.926   1.500   5.417 -0.7739 -1.8299  0.3768
21364SOL     OW66291   2.426   3.633   5.332  0.3840 -0.8672  0.0995
21364SOL    HW166292   2.489   3.704   5.320 -0.0878 -0.5235 -0.4438
21364SOL    HW266293   2.462   3.560   5.282  1.0665 -1.1450  0.9777
21365SOL     OW66294   2.729   5.668   1.293  0.1994 -0.2008 -0.2998
21365SOL    HW166295   2.813   5.704   1.264  0.8545  0.1244  1.8249
21365SOL    HW266296   2.680   5.744   1.325  0.2183 -0.7449  1.0573
21366SOL     OW66297   4.189   2.052   3.823 -1.2138  0.4990  0.3765
21366SOL    HW166298   4.163   2.134   3.781 -0.7361  0.3406 -0.2264
21366SOL    HW266299   4.140   1.984   3.777  0.7806  0.1027 -1.3129
21367SOL     OW66300   6.117   2.511   6.281 -0.3647  0.6584 -0.5909
21367SOL    HW166301   6.141   2.588   6.333  0.9098  1.3423 -2.0987
21367SOL    HW266302   6.044   2.540   6.227 -0.3955  0.5649 -0.5996
21368SOL     OW66303   8.405   5.739   9.384  0.0072  0.6335  0.4169
21368SOL    HW166304   8.482   5.705   9.430  1.8072  0.0667 -2.7472
21368SOL    HW266305   8.396   5.829   9.416  1.6584  0.5380  1.2723
21369SOL     OW66306   4.365   2.493   4.215  0.3370 -0.1792  0.6891
21369SOL    HW166307   4.377   2.587   4.209  0.5311 -0.1840  0.9768
21369SOL    HW266308   4.385   2.472   4.307  1.4161 -0.6583  0.3565
21370SOL     OW66309   7.801   5.641   6.785  0.5124  0.1849  0.4236
21370SOL    HW166310   7.883   5.690   6.779 -0.2862  1.6232  0.6910
21370SOL    HW266311   7.767   5.641   6.695  0.6846 -0.2270  0.3538
21371SOL     OW66312   1.765   1.894   6.799  0.0302 -0.4507 -0.5635
21371SOL    HW166313   1.716   1.860   6.874 -0.6377 -2.6091 -1.8868
21371SOL    HW266314   1.755   1.989   6.804 -2.1771 -0.6976  0.6226
21372SOL     OW66315   8.118   5.391   2.662  0.4124 -0.0452  0.3866
21372SOL    HW166316   8.161   5.411   2.579  1.9716  0.5654  1.3085
21372SOL    HW266317   8.177   5.329   2.705  1.1225  1.8175  2.2618
21373SOL     OW66318   9.131   1.574   2.749  0.1815 -0.6422 -0.8977
21373SOL    HW166319   9.212   1.589   2.799  0.2160  0.6679 -1.3000
21373SOL    HW266320   9.101   1.488   2.777  0.4898 -0.1838  0.9804
21374SOL     OW66321   3.830   4.829   3.196 -0.1654 -0.1305 -0.1100
21374SOL    HW166322   3.897   4.796   3.137 -0.8138 -1.9618  0.1063
21374SOL    HW266323   3.858   4.799   3.283  0.4771  2.0283  0.4923
21375SOL     OW66324   3.576   9.071   4.917  0.2092  0.5680  0.9218
21375SOL    HW166325   3.593   9.038   4.829 -2.2715  1.1581  0.1569
21375SOL    HW266326   3.635   9.146   4.926 -0.2358  1.1452 -0.6573
21376SOL     OW66327   3.148   8.021   0.495  0.0318 -0.1580  0.1124
21376SOL    HW166328   3.180   8.075   0.568  1.1539 -1.5071  0.6711
21376SOL    HW266329   3.073   7.974   0.532 -1.6606  1.7720 -0.7053
21377SOL     OW66330   5.841   5.414   4.346  0.1328 -0.4686 -1.0803
21377SOL    HW166331   5.772   5.454   4.293  1.3265  0.0349 -2.3146
21377SOL    HW266332   5.916   5.473   4.336  0.6922 -0.8851  0.4027
21378SOL     OW66333   2.272   2.526   0.180 -0.4772 -0.0255  0.1707
21378SOL    HW166334   2.306   2.454   0.127 -1.4629  0.7678 -1.6461
21378SOL    HW266335   2.300   2.605   0.134 -1.7328  0.6901  0.5773
21379SOL     OW66336   3.429   5.639   8.628  0.0703 -0.3200  0.4354
21379SOL    HW166337   3.344   5.594   8.627 -0.5254  0.7637  0.4947
21379SOL    HW266338   3.438   5.670   8.718 -1.3081  2.8418 -0.3771
21380SOL     OW66339   8.467   8.147   4.021 -0.1031 -0.0922 -0.1661
21380SOL    HW166340   8.536   8.182   4.077 -1.0814  0.4067  0.7712
21380SOL    HW266341   8.450   8.216   3.957 -0.6572  0.3735  0.4568
21381SOL     OW66342   5.746   8.269   1.866 -0.2124 -0.4769 -0.2228
21381SOL    HW166343   5.685   8.197   1.844  0.4120 -1.0632 -0.0718
21381SOL    HW266344   5.809   8.229   1.925  0.4379  0.0788 -0.5328
21382SOL     OW66345   0.310   7.963   7.553  0.0141 -0.7207  0.1741
21382SOL    HW166346   0.272   8.031   7.609  0.8247  1.2976 -1.6280
21382SOL    HW266347   0.402   7.960   7.578  0.1766 -0.4885 -0.3960
21383SOL     OW66348   5.735   9.123   2.765 -0.1077  0.3913  0.1596
21383SOL    HW166349   5.793   9.152   2.835 -0.3531 -0.1719  0.6090
21383SOL    HW266350   5.745   9.188   2.696  2.7880 -0.8522 -0.7422
21384SOL     OW66351   0.666   6.071   8.186 -0.1911  0.1905  0.4236
21384SOL    HW166352   0.701   5.999   8.132 -0.1521 -0.6569  1.5367
21384SOL    HW266353   0.571   6.061   8.181 -0.1718 -0.4605  1.2434
21385SOL     OW66354   7.336   0.964   7.714  0.1378  0.0131  0.0744
21385SOL    HW166355   7.403   0.897   7.727 -0.6338 -0.6399  0.7486
21385SOL    HW266356   7.259   0.915   7.685 -0.8678  0.4192  1.9600
21386SOL     OW66357   3.744   0.454   4.167  0.2253 -0.0738 -0.1890
21386SOL    HW166358   3.686   0.524   4.198 -1.1310 -1.6298  0.9864
21386SOL    HW266359   3.832   0.485   4.187 -0.4186  0.7100  1.6533
21387SOL     OW66360   6.097   8.015   7.075  0.5801 -0.4805  0.0912
21387SOL    HW166361   6.071   8.090   7.129 -0.2660 -1.5906  1.2763
21387SOL    HW266362   6.178   8.043   7.033 -0.3703  1.5833 -0.5326
21388SOL     OW66363   9.148   1.406   3.750  0.7598 -0.5194 -0.2215
21388SOL    HW166364   9.186   1.418   3.837 -0.6181  2.1805  0.1136
21388SOL    HW266365   9.064   1.362   3.767 -1.2842  3.1416  0.4643
21389SOL     OW66366   6.126   4.406   4.516 -0.0004  0.1736 -0.5303
21389SOL    HW166367   6.053   4.435   4.571 -0.0526  0.0500 -0.5342
21389SOL    HW266368   6.131   4.311   4.531  1.4907  0.4524  1.0884
21390SOL     OW66369   2.523   7.686   5.311 -0.1526 -0.4398 -0.1375
21390SOL    HW166370   2.563   7.600   5.326  1.4709  0.0526 -1.3822
21390SOL    HW266371   2.450   7.668   5.251 -1.6742 -1.2876  1.8435
21391SOL     OW66372   7.941   1.032   1.901  0.5657  0.0249 -0.0379
21391SOL    HW166373   7.977   0.953   1.940  1.2511  0.8245  1.0250
21391SOL    HW266374   7.978   1.103   1.953  0.5301  1.0882 -1.4037
21392SOL     OW66375   0.513   4.967   3.219  0.2533 -0.1906  0.4563
21392SOL    HW166376   0.421   4.950   3.202 -0.2332  0.6107  2.1135
21392SOL    HW266377   0.514   5.042   3.279  2.0015  0.2390 -0.0432
21393SOL     OW66378   7.071   5.490   1.546  0.0941  0.5209 -0.3140
21393SOL    HW166379   7.060   5.580   1.578  0.5221  1.3805 -2.3807
21393SOL    HW266380   7.078   5.500   1.451 -1.7815 -1.9005 -0.8010
21394SOL     OW66381   8.008   2.848   7.502  0.5409 -0.0905  0.2751
21394SOL    HW166382   7.947   2.868   7.572  2.1964  1.7656  1.2809
21394SOL    HW266383   8.070   2.786   7.541  0.8313  0.0837  0.0955
21395SOL     OW66384   8.466   2.446   4.562  0.2579 -0.3701 -0.1429
21395SOL    HW166385   8.450   2.540   4.565  2.0339 -0.0347 -0.2088
21395SOL    HW266386   8.482   2.422   4.653  1.2482 -0.3008 -0.2805
21396SOL     OW66387   2.268   5.763   1.725 -0.5624  0.0375  0.2832
21396SOL    HW166388   2.239   5.680   1.686  0.7776  0.1142 -0.9163
21396SOL    HW266389   2.297   5.816   1.651  1.1774  0.5398  1.2768
21397SOL     OW66390   1.998   6.374   7.772 -0.4777 -0.5791 -0.0691
21397SOL    HW166391   1.931   6.372   7.840  1.1007 -1.3374  1.5595
21397SOL    HW266392   2.069   6.320   7.807  0.4485 -0.9218 -2.2993
21398SOL     OW66393   6.423   3.695   5.038  0.3463 -0.2448  0.2369
21398SOL    HW166394   6.330   3.711   5.055  0.5369  1.3968 -0.0638
21398SOL    HW266395   6.443   3.613   5.084 -1.4809 -1.1976 -0.5869
21399SOL     OW66396   6.056   1.027   4.674 -0.0956  0.5813  0.1915
21399SOL    HW166397   6.102   0.985   4.601  2.4946  0.0369  1.9835
21399SOL    HW266398   5.971   0.983   4.677  0.8077 -1.3710 -0.8195
21400SOL     OW66399   2.585   1.260   4.054 -0.0050 -0.0743  0.0456
21400SOL    HW166400   2.605   1.167   4.059  0.2086  0.0037  0.7780
21400SOL    HW266401   2.644   1.301   4.118  0.4393  0.6466 -0.8024
21401SOL     OW66402   8.328   5.838   1.299  0.2200  0.1015 -0.3475
21401SOL    HW166403   8.239   5.872   1.301  1.0805  2.6062 -0.9886
21401SOL    HW266404   8.379   5.901   1.349  1.5287 -1.7679  0.8035
21402SOL     OW66405   0.622   5.810   6.570 -0.0533 -0.3832 -0.0764
21402SOL    HW166406   0.656   5.885   6.619  0.9459 -0.4205 -0.6878
21402SOL    HW266407   0.695   5.783   6.514 -1.0272 -0.6027 -1.2791
21403SOL     OW66408   5.986   1.801   3.452 -0.3151 -0.1128  0.0085
21403SOL    HW166409   5.914   1.746   3.484  0.2275 -0.1066  1.3382
21403SOL    HW266410   6.008   1.857   3.527  0.7535  0.2094 -0.5202
21404SOL     OW66411   2.822   7.462   1.506 -0.4641 -0.7465 -0.5007
21404SOL    HW166412   2.865   7.547   1.521 -0.9727 -0.3307 -1.3278
21404SOL    HW266413   2.764   7.477   1.432  0.8335 -2.3264 -1.9063
21405SOL     OW66414   1.300   6.580   4.970  0.2053 -0.0763  0.2555
21405SOL    HW166415   1.265   6.645   4.909  0.6386 -1.3599 -1.3951
21405SOL    HW266416   1.231   6.571   5.037  0.5989  2.8885  1.2129
21406SOL     OW66417   6.152   8.885   8.016 -0.2029 -0.1278  0.9225
21406SOL    HW166418   6.192   8.843   7.940  1.5199  0.8396  1.2465
21406SOL    HW266419   6.078   8.933   7.980 -1.8683 -2.8339  0.4554
21407SOL     OW66420   8.510   8.028   3.044 -0.4922 -0.0973 -0.3090
21407SOL    HW166421   8.574   8.093   3.074 -0.2274  0.1245 -1.3271
21407SOL    HW266422   8.510   8.036   2.949 -1.7860 -0.3428 -0.3481
21408SOL     OW66423   1.638   4.395   8.451 -0.0079 -0.9377  0.3669
21408SOL    HW166424   1.645   4.364   8.541 -0.9195  0.2484  0.8723
21408SOL    HW266425   1.575   4.467   8.455  0.9464  0.0377 -0.9802
21409SOL     OW66426   9.146   6.395   0.082  0.2214  0.1390  0.2286
21409SOL    HW166427   9.084   6.333   0.045  2.2042 -0.7485 -1.8047
21409SOL    HW266428   9.102   6.480   0.074 -1.1110 -0.5684 -0.2460
21410SOL     OW66429   7.543   9.109   1.656  0.0284 -0.1236  0.0517
21410SOL    HW166430   7.582   9.196   1.643 -0.4816  0.4824  2.2090
21410SOL    HW266431   7.574   9.081   1.742 -0.5598 -1.6875 -0.2124
21411SOL     OW66432   2.728   2.176   8.340 -0.0509 -0.1583 -0.0975
21411SOL    HW166433   2.643   2.176   8.296 -0.4480  2.3504  0.5785
21411SOL    HW266434   2.724   2.101   8.399 -1.0524 -1.1670 -1.3664
21412SOL     OW66435   2.393   2.185   2.464  0.0516  0.1155  0.6345
21412SOL    HW166436   2.436   2.267   2.442  1.4609 -0.8958 -0.5982
21412SOL    HW266437   2.313   2.185   2.411 -0.8649  1.4146  1.9393
21413SOL     OW66438   5.220   5.701   0.896 -0.0617 -0.4708  0.3202
21413SOL    HW166439   5.142   5.651   0.921 -0.3879 -0.4381 -0.5738
21413SOL    HW266440   5.185   5.778   0.850  0.4128  0.7798  1.9495
21414SOL     OW66441   2.697   6.258   2.266 -0.9735  0.0244 -0.1622
21414SOL    HW166442   2.748   6.249   2.346  0.7283  1.4694 -1.0230
21414SOL    HW266443   2.670   6.169   2.244  0.4166 -0.6687  0.8180
21415SOL     OW66444   6.730   7.091   3.165  0.3411  0.3748 -0.2192
21415SOL    HW166445   6.763   7.131   3.084 -1.5528  1.7677 -0.3830
21415SOL    HW266446   6.649   7.048   3.139  0.4513 -0.4049  0.6908
21416SOL     OW66447   1.046   1.129   4.043  0.0684  0.1246  0.1208
21416SOL    HW166448   1.058   1.036   4.060  1.9202 -0.2525 -2.5539
21416SOL    HW266449   1.121   1.153   3.988 -1.4857  2.6940 -1.0730
21417SOL     OW66450   4.341   8.061   1.106 -0.1883 -0.4846  0.2257
21417SOL    HW166451   4.306   7.994   1.164  2.3240 -1.5200  0.6892
21417SOL    HW266452   4.426   8.083   1.144  0.8524 -0.0561 -2.1712
21418SOL     OW66453   2.361   4.468   0.913 -0.1216 -0.8927  0.0303
21418SOL    HW166454   2.267   4.455   0.904 -0.2960 -0.6662  1.3939
21418SOL    HW266455   2.392   4.483   0.823 -1.2448 -1.8119 -0.5320
21419SOL     OW66456   0.973   6.395   2.250  0.0934  0.0809 -0.1829
21419SOL    HW166457   0.879   6.383   2.236  0.0285 -0.9588  1.0049
21419SOL    HW266458   0.989   6.359   2.337  1.4259  1.1633  0.0441
21420SOL     OW66459   8.653   0.756   1.407 -0.0672  0.0746  0.0561
21420SOL    HW166460   8.717   0.765   1.337  0.9139  1.3509  1.0825
21420SOL    HW266461   8.609   0.673   1.388  2.6118 -1.4086 -0.0945
21421SOL     OW66462   8.962   8.726   2.802 -0.2905 -0.1615 -0.4039
21421SOL    HW166463   9.049   8.727   2.762 -0.1083 -2.9292 -0.2750
21421SOL    HW266464   8.939   8.819   2.813  1.5663  0.6553 -2.6770
21422SOL     OW66465   3.441   6.019   4.438  0.2908 -0.2450  0.6927
21422SOL    HW166466   3.441   6.056   4.349 -0.3516  2.1681  1.6260
21422SOL    HW266467   3.505   6.071   4.486  0.7586 -1.6429  1.6328
21423SOL     OW66468   5.397   3.048   4.195 -0.1344  0.3828  0.0689
21423SOL    HW166469   5.450   3.000   4.259 -0.9298 -0.6739 -0.0449
21423SOL    HW266470   5.411   3.140   4.218  0.3827  0.0613  1.1303
21424SOL     OW66471   1.239   0.356   1.531 -0.2843  0.0408  0.1817
21424SOL    HW166472   1.171   0.319   1.473  0.7752 -0.8917 -0.5049
21424SOL    HW266473   1.244   0.295   1.604 -1.7100  1.2861  1.3845
21425SOL     OW66474   7.528   0.628   4.330 -0.0932  0.0670  0.5282
21425SOL    HW166475   7.572   0.709   4.356  1.0090 -0.6851  1.1188
21425SOL    HW266476   7.439   0.655   4.308  0.8616  1.8338 -1.6371
21426SOL     OW66477   5.934   7.916   3.289 -0.2593 -0.6579 -0.3803
21426SOL    HW166478   5.985   7.997   3.300 -1.0628 -0.0411 -1.0608
21426SOL    HW266479   5.889   7.906   3.373 -1.2355  0.3863 -0.7526
21427SOL     OW66480   1.378   7.081   4.995  0.2538  0.6264  0.4626
21427SOL    HW166481   1.390   7.082   4.900  0.0810  0.8495  0.4442
21427SOL    HW266482   1.426   7.003   5.024  2.3511  1.8235  0.4556
21428SOL     OW66483   7.559   3.570   3.651 -0.1181 -0.6353 -0.2297
21428SOL    HW166484   7.544   3.483   3.613 -0.8519  0.0081 -1.4700
21428SOL    HW266485   7.475   3.595   3.689 -0.0551 -0.2548 -0.3368
21429SOL     OW66486   1.638   6.630   7.107  0.1373 -0.0958 -0.2081
21429SOL    HW166487   1.623   6.536   7.096 -0.4839 -0.0395  0.1199
21429SOL    HW266488   1.558   6.670   7.075  0.6192  0.3570 -0.8662
21430SOL     OW66489   0.363   3.250   3.315 -0.1046  0.2579  0.2309
21430SOL    HW166490   0.456   3.228   3.320 -0.2941 -1.3521 -1.9594
21430SOL    HW266491   0.318   3.176   3.357 -0.4472  0.5587  0.4040
21431SOL     OW66492   1.200   5.028   5.230 -0.2710 -0.1101  0.8561
21431SOL    HW166493   1.134   5.096   5.216 -0.5043 -0.5746 -0.4565
21431SOL    HW266494   1.239   5.014   5.143  0.1858 -1.2161  1.2212
21432SOL     OW66495   4.107   2.674   9.136 -0.0437 -0.3498 -0.8522
21432SOL    HW166496   4.202   2.671   9.131  0.0070  0.8313 -0.7650
21432SOL    HW266497   4.082   2.751   9.086 -0.9390 -0.5066 -0.6739
21433SOL     OW66498   2.977   8.360   5.292 -0.3931  0.2706 -0.4044
21433SOL    HW166499   3.009   8.441   5.331  1.3858  0.9079 -2.9609
21433SOL    HW266500   3.024   8.291   5.339 -0.6868  0.7882  0.6800
21434SOL     OW66501   1.534   1.055   6.052  0.4052  0.6045 -0.2819
21434SOL    HW166502   1.561   1.016   6.135 -0.6236 -0.6918 -0.5273
21434SOL    HW266503   1.457   1.107   6.074  0.1868  0.3349 -0.4079
21435SOL     OW66504   3.406   8.088   8.983  0.6333  0.2327 -0.1279
21435SOL    HW166505   3.393   8.110   9.075  1.8592  0.2347  0.0559
21435SOL    HW266506   3.330   8.034   8.961 -0.2128  1.0950  0.5790
21436SOL     OW66507   0.968   1.208   4.629  0.6393 -0.2525 -0.0570
21436SOL    HW166508   0.963   1.249   4.542  0.6752 -1.2771 -0.5581
21436SOL    HW266509   0.903   1.255   4.681  2.1648  1.9090  0.0474
21437SOL     OW66510   1.175   3.783   6.730  0.0469 -0.0923  0.1597
21437SOL    HW166511   1.251   3.726   6.742 -0.1434 -0.7006 -1.2850
21437SOL    HW266512   1.198   3.836   6.653 -0.5131  0.5349  0.4159
21438SOL     OW66513   4.058   1.379   2.862  0.5025  0.1453 -0.2496
21438SOL    HW166514   4.067   1.463   2.817  0.7121 -0.4166 -1.2731
21438SOL    HW266515   3.968   1.380   2.897  1.3041  1.8642  2.0044
21439SOL     OW66516   0.343   6.890   7.294 -0.2267 -0.3045  0.3658
21439SOL    HW166517   0.373   6.845   7.373  0.7702 -0.2736  0.0148
21439SOL    HW266518   0.306   6.973   7.327  0.2476 -0.2573  0.7933
21440SOL     OW66519   6.344   6.010   2.559 -0.6271 -0.2257  0.1185
21440SOL    HW166520   6.396   5.930   2.556  1.4306  1.0107  0.4373
21440SOL    HW266521   6.254   5.981   2.547 -0.2967 -2.9007  2.9410
21441SOL     OW66522   2.497   8.528   1.196  0.6227 -0.0389 -0.1150
21441SOL    HW166523   2.534   8.597   1.142 -0.3195  0.4690 -0.1303
21441SOL    HW266524   2.419   8.500   1.149  1.3559 -1.6272 -0.4765
21442SOL     OW66525   0.640   2.760   3.978 -0.1651 -1.0401  0.0892
21442SOL    HW166526   0.607   2.670   3.973  1.0279 -1.4675 -0.4932
21442SOL    HW266527   0.723   2.752   4.027 -0.5857 -0.0898  0.9973
21443SOL     OW66528   8.257   2.872   7.854 -0.0361  0.0817 -0.1271
21443SOL    HW166529   8.311   2.823   7.916  0.6124  0.5177 -0.3422
21443SOL    HW266530   8.244   2.813   7.780 -1.1383 -0.5917  0.5680
21444SOL     OW66531   7.239   4.776   3.362 -0.1745 -0.1492  0.3057
21444SOL    HW166532   7.264   4.862   3.396 -2.2310  0.9003 -0.6565
21444SOL    HW266533   7.284   4.714   3.419  1.2000  1.5437  1.1643
21445SOL     OW66534   7.050   0.153   7.145  0.1523 -0.3314  0.1565
21445SOL    HW166535   7.124   0.183   7.092 -0.3995  1.1683  0.1949
21445SOL    HW266536   6.993   0.106   7.084  0.1126  0.3307 -0.3163
21446SOL     OW66537   8.111   8.939   5.944 -0.0533 -0.6719 -0.2191
21446SOL    HW166538   8.032   8.899   5.908 -1.8808  1.3497  1.2963
21446SOL    HW266539   8.082   8.983   6.024  2.3029  1.3939 -0.3618
21447SOL     OW66540   2.890   6.918   3.701  0.0432 -0.5056  0.7462
21447SOL    HW166541   2.888   6.866   3.620 -3.0925  1.9986 -1.0006
21447SOL    HW266542   2.967   6.973   3.692  1.8301 -2.7478  1.3365
21448SOL     OW66543   5.378   6.932   0.368 -0.0771 -0.6131 -0.0100
21448SOL    HW166544   5.283   6.936   0.378 -0.0427  1.6204 -0.0468
21448SOL    HW266545   5.392   6.910   0.276 -0.5289 -1.8501  0.2022
21449SOL     OW66546   5.847   7.453   2.224 -0.6438  0.4070  0.0903
21449SOL    HW166547   5.833   7.370   2.269 -0.7414  0.3187 -0.1016
21449SOL    HW266548   5.843   7.431   2.131  2.1838  0.0863 -0.0455
21450SOL     OW66549   6.869   4.787   2.950  0.2021  0.1383  0.1624
21450SOL    HW166550   6.889   4.879   2.964 -1.1417  0.5880 -0.6893
21450SOL    HW266551   6.928   4.758   2.881  0.1301  0.5653 -0.0769
21451SOL     OW66552   8.764   7.844   4.588  0.2171 -0.1561 -0.3923
21451SOL    HW166553   8.695   7.838   4.654 -1.3977  1.1030 -1.8597
21451SOL    HW266554   8.806   7.928   4.604  1.7210 -1.0800  0.7251
21452SOL     OW66555   6.610   0.676   3.919 -0.1418 -0.4821  0.3828
21452SOL    HW166556   6.548   0.624   3.971  0.8205 -1.4509  0.5967
21452SOL    HW266557   6.646   0.615   3.855 -0.0711  0.2965 -0.3443
21453SOL     OW66558   0.538   9.571   1.017 -0.4248 -0.0318 -0.3402
21453SOL    HW166559   0.610   9.570   0.953 -0.9777  2.5517 -1.1181
21453SOL    HW266560   0.539   9.659   1.053 -1.4714 -0.7962  1.7361
21454SOL     OW66561   3.757   6.486   4.350 -0.2454 -0.7381 -0.3420
21454SOL    HW166562   3.709   6.556   4.394 -0.2489 -2.0515  1.8595
21454SOL    HW266563   3.840   6.481   4.396  0.4423 -1.0872 -1.5921
21455SOL     OW66564   0.417   2.272   5.753  0.0763 -0.2629  0.0099
21455SOL    HW166565   0.475   2.341   5.786  0.0886  0.6299 -1.7592
21455SOL    HW266566   0.339   2.319   5.724 -0.1175 -1.0644 -0.7751
21456SOL     OW66567   8.748   8.416   3.962 -0.5066  0.1987  0.3049
21456SOL    HW166568   8.738   8.367   4.044 -1.4362 -0.9878 -0.4828
21456SOL    HW266569   8.709   8.360   3.895 -1.5121  1.9691 -0.6814
21457SOL     OW66570   6.710   0.836   4.461 -0.1528  0.6463 -0.1547
21457SOL    HW166571   6.664   0.815   4.541  0.8139 -0.0328  0.2437
21457SOL    HW266572   6.802   0.841   4.487  0.2881 -0.4850 -1.3757
21458SOL     OW66573   5.129   8.050   8.092 -0.6872 -0.2949 -0.3679
21458SOL    HW166574   5.224   8.062   8.097 -0.6890 -0.6430  0.9688
21458SOL    HW266575   5.117   7.963   8.055 -0.4540 -0.5936  0.2377
21459SOL     OW66576   2.660   2.476   8.781  0.4574  0.0408  1.3625
21459SOL    HW166577   2.713   2.554   8.798  0.7711  0.3397 -0.7823
21459SOL    HW266578   2.670   2.460   8.687 -2.8028 -0.2315  0.9723
21460SOL     OW66579   1.392   7.559   1.813 -0.3010 -0.5524 -0.1226
21460SOL    HW166580   1.411   7.562   1.907 -3.8991  2.1870  0.7125
21460SOL    HW266581   1.368   7.468   1.797 -1.0329 -0.7850  1.9736
21461SOL     OW66582   0.114   3.311   4.917  0.0690 -0.4039  0.0690
21461SOL    HW166583   0.167   3.379   4.958 -0.4591  1.2185 -1.8272
21461SOL    HW266584   0.040   3.357   4.879 -1.4170 -2.3196  0.4654
21462SOL     OW66585   1.587   1.584   7.240 -1.1305 -0.3970  0.0320
21462SOL    HW166586   1.604   1.613   7.150 -2.4116 -1.5094 -0.6078
21462SOL    HW266587   1.647   1.635   7.294 -0.3053  0.2570 -1.4624
21463SOL     OW66588   2.458   5.057   8.489  0.1196 -0.1568  0.1467
21463SOL    HW166589   2.525   4.988   8.479  0.1140 -0.1825  0.2829
21463SOL    HW266590   2.485   5.105   8.567  0.5195  0.4425 -0.3569
21464SOL     OW66591   2.237   9.259   9.517  0.1098  0.1112 -0.0915
21464SOL    HW166592   2.186   9.316   9.575  0.8841  1.7804 -0.9932
21464SOL    HW266593   2.190   9.262   9.434 -0.9423 -2.1996  0.3396
21465SOL     OW66594   4.615   6.843   5.208  0.2426  0.1495 -0.1146
21465SOL    HW166595   4.572   6.758   5.211 -0.3579  0.4597  0.2099
21465SOL    HW266596   4.687   6.831   5.147  0.2092 -0.6125 -0.0174
21466SOL     OW66597   7.397   7.174   7.605 -0.6363  0.0135  0.4407
21466SOL    HW166598   7.434   7.156   7.691 -1.4137 -0.3179  0.7163
21466SOL    HW266599   7.473   7.190   7.549 -0.1865  2.9501  1.7316
21467SOL     OW66600   9.334   0.868   9.157  0.8006  0.5505 -0.2303
21467SOL    HW166601   9.267   0.855   9.224 -0.2088  1.4057 -1.0328
21467SOL    HW266602   9.410   0.899   9.206  0.5816 -0.3050  0.6909
21468SOL     OW66603   4.203   6.550   7.094  0.0209 -0.2803  0.4197
21468SOL    HW166604   4.266   6.478   7.086  0.9044  0.6054 -1.0849
21468SOL    HW266605   4.234   6.616   7.032 -0.9423  1.2829  1.5280
21469SOL     OW66606   6.845   4.013   8.864 -0.1794 -0.3544  0.8339
21469SOL    HW166607   6.778   3.946   8.851  1.1623 -1.4494 -0.6856
21469SOL    HW266608   6.803   4.094   8.835 -0.0316 -1.4446 -2.9566
21470SOL     OW66609   2.073   8.428   7.400  0.0434 -0.3484  0.1935
21470SOL    HW166610   2.085   8.495   7.468 -0.5922  0.0332 -0.0558
21470SOL    HW266611   2.037   8.353   7.447  1.2411 -0.7245  0.5668
21471SOL     OW66612   5.138   7.824   5.541  0.2050 -0.2040  0.2853
21471SOL    HW166613   5.093   7.805   5.458 -1.2782  1.1588  0.7313
21471SOL    HW266614   5.199   7.895   5.520  2.2805 -2.0538 -0.3199
21472SOL     OW66615   1.829   8.889   0.731 -0.2065  0.2182 -0.0012
21472SOL    HW166616   1.776   8.815   0.701 -1.7333  0.6900  1.3835
21472SOL    HW266617   1.768   8.942   0.782  1.6607  0.6959  1.8248
21473SOL     OW66618   6.614   0.226   2.403  0.5115 -0.5458 -0.4509
21473SOL    HW166619   6.709   0.233   2.415  0.2789  0.2192  1.2479
21473SOL    HW266620   6.577   0.288   2.467 -1.1808 -2.1232  0.1975
21474SOL     OW66621   7.697   5.966   8.431  0.1937  0.8013  0.4812
21474SOL    HW166622   7.666   5.900   8.491 -0.3852  2.6053  2.2653
21474SOL    HW266623   7.635   5.965   8.358 -0.1669 -0.1471  0.8009
21475SOL     OW66624   8.233   3.196   2.144 -0.3192 -0.7931 -0.4077
21475SOL    HW166625   8.203   3.284   2.167 -0.4542 -0.8538 -0.3458
21475SOL    HW266626   8.325   3.195   2.169 -0.6091 -1.0536  0.7305
21476SOL     OW66627   7.910   4.144   9.272 -0.1898  0.0583  0.0846
21476SOL    HW166628   7.951   4.139   9.359 -0.0365  1.1093  0.0883
21476SOL    HW266629   7.979   4.180   9.216 -1.1476  2.1444  0.1467
21477SOL     OW66630   8.412   4.291   1.794 -0.0038  0.2377  0.0664
21477SOL    HW166631   8.357   4.357   1.752  0.4622 -0.6353 -2.0278
21477SOL    HW266632   8.371   4.207   1.773  2.1385 -0.4528 -1.7196
21478SOL     OW66633   2.467   9.357   2.323 -0.0168 -0.2951  0.1648
21478SOL    HW166634   2.388   9.402   2.355  1.1402  2.8908 -1.0361
21478SOL    HW266635   2.452   9.346   2.229  1.1418  0.9211 -0.1940
21479SOL     OW66636   5.382   0.540   9.052  0.6194 -0.2484 -0.4393
21479SOL    HW166637   5.402   0.447   9.047  0.5522 -0.2571 -0.5463
21479SOL    HW266638   5.433   0.580   8.981  1.1222 -0.1209 -0.0099
21480SOL     OW66639   0.755   1.640   8.598  0.4271 -0.0715 -0.1917
21480SOL    HW166640   0.739   1.701   8.670 -0.9792  1.1961 -1.5008
21480SOL    HW266641   0.668   1.608   8.574  0.4640  1.5590 -2.9721
21481SOL     OW66642   3.912   2.226   6.793 -0.1382  0.6530 -0.1325
21481SOL    HW166643   3.831   2.176   6.784 -0.0610  0.7161 -1.2229
21481SOL    HW266644   3.980   2.160   6.797 -0.0947  0.6422 -0.9326
21482SOL     OW66645   0.351   5.686   8.470  0.5271  0.2505 -0.0988
21482SOL    HW166646   0.325   5.596   8.490  0.7479 -0.1584 -1.5330
21482SOL    HW266647   0.431   5.678   8.419  0.5209  1.2629 -0.2982
21483SOL     OW66648   8.022   9.216   3.290  0.5908 -0.7381  0.7441
21483SOL    HW166649   7.996   9.308   3.284  0.7046 -0.7283  0.3152
21483SOL    HW266650   7.972   9.182   3.364  0.8205 -0.2443  1.1373
21484SOL     OW66651   0.406   2.519   7.832  0.4010  0.1177  0.1323
21484SOL    HW166652   0.314   2.522   7.804  0.1338  1.9612  1.0052
21484SOL    HW266653   0.427   2.611   7.850  2.0317 -0.4352  1.1801
21485SOL     OW66654   0.375   7.196   8.087  0.2113  0.2769 -0.0767
21485SOL    HW166655   0.460   7.168   8.051 -1.1164 -2.1428 -1.6150
21485SOL    HW266656   0.350   7.124   8.146 -1.7695 -0.2387 -1.4465
21486SOL     OW66657   8.393   8.002   8.069 -0.1019 -0.2554 -0.0171
21486SOL    HW166658   8.421   8.090   8.091 -2.4597  1.0236 -1.5974
21486SOL    HW266659   8.396   7.954   8.151  0.2777  1.5866  1.1027
21487SOL     OW66660   7.536   2.899   6.073  0.7302  0.5362 -0.0554
21487SOL    HW166661   7.590   2.964   6.028  0.0955  1.2390  0.1915
21487SOL    HW266662   7.454   2.944   6.092  0.4156 -0.2254  0.4460
21488SOL     OW66663   0.297   5.183   3.962 -0.2624  0.0985 -0.7190
21488SOL    HW166664   0.363   5.253   3.958  0.3044 -0.4482 -0.9540
21488SOL    HW266665   0.346   5.102   3.948 -0.8656 -0.3833 -0.0960
21489SOL     OW66666   3.834   1.908   8.489 -0.1970  0.2904  0.3732
21489SOL    HW166667   3.743   1.900   8.462  0.3959  0.4883 -1.8859
21489SOL    HW266668   3.881   1.935   8.410  2.0184 -0.9406  1.1677
21490SOL     OW66669   8.839   6.813   3.192 -0.0562 -0.1755 -0.5904
21490SOL    HW166670   8.907   6.827   3.257  0.1754  0.0610 -0.8821
21490SOL    HW266671   8.761   6.790   3.243 -0.4739  2.1614 -0.0736
21491SOL     OW66672   6.573   7.529   9.017  0.7672 -0.2352  0.1234
21491SOL    HW166673   6.487   7.507   9.054  0.8115 -0.2017  0.2449
21491SOL    HW266674   6.584   7.467   8.944 -0.6735  1.6279 -1.8026
21492SOL     OW66675   7.587   8.360   7.836  0.1290  0.0434  0.2025
21492SOL    HW166676   7.567   8.272   7.868 -1.4305  0.1403 -0.3915
21492SOL    HW266677   7.580   8.416   7.914  1.5156 -0.3887  0.6576
21493SOL     OW66678   0.645   6.493   0.838 -0.5148 -0.0503 -0.3168
21493SOL    HW166679   0.616   6.466   0.925 -1.5523 -1.5972 -1.0880
21493SOL    HW266680   0.630   6.416   0.783  1.5780  0.3594 -1.5642
21494SOL     OW66681   5.277   3.735   8.168  0.0522 -0.9316 -0.0922
21494SOL    HW166682   5.280   3.729   8.263  0.1382  0.9322  0.0637
21494SOL    HW266683   5.368   3.751   8.142 -0.3618  1.9277 -0.1319
21495SOL     OW66684   8.986   5.390   1.994 -0.1214  0.0743 -0.0250
21495SOL    HW166685   8.965   5.425   1.907  0.6873 -2.0549 -1.1404
21495SOL    HW266686   9.077   5.361   1.987 -0.2193 -0.6414  1.3611
21496SOL     OW66687   7.083   4.057   4.933 -0.0318 -0.7191  0.1422
21496SOL    HW166688   7.065   4.075   4.841  0.4315  1.5195  0.4230
21496SOL    HW266689   7.164   4.005   4.933  0.2230 -0.3302 -0.7049
21497SOL     OW66690   0.503   5.558   9.043 -0.1956  0.2300 -0.0513
21497SOL    HW166691   0.556   5.479   9.043 -0.9005 -0.2526 -0.9518
21497SOL    HW266692   0.451   5.553   9.124  0.9757  0.6295  0.7558
21498SOL     OW66693   2.085   4.744   7.092  0.2118 -0.1705  0.5284
21498SOL    HW166694   2.066   4.749   6.998  2.6519  0.7278  0.0029
21498SOL    HW266695   2.020   4.800   7.132  0.2635  0.9626 -0.8673
21499SOL     OW66696   6.287   7.833   8.531  1.0822  0.0867  0.1909
21499SOL    HW166697   6.290   7.917   8.486 -0.5387  0.3127  0.4409
21499SOL    HW266698   6.199   7.829   8.568  1.7589 -0.8974  1.7923
21500SOL     OW66699   4.300   8.786   1.633  0.3811  0.0338 -0.8027
21500SOL    HW166700   4.376   8.783   1.575 -0.4976  1.2686 -2.1050
21500SOL    HW266701   4.242   8.851   1.593 -0.0375  1.3861  1.8038
21501SOL     OW66702   5.163   9.211   1.080 -0.0575 -0.2008 -0.0988
21501SOL    HW166703   5.123   9.185   0.997  0.6136 -0.5082 -0.3287
21501SOL    HW266704   5.203   9.131   1.113  0.3705  0.1088  0.1308
21502SOL     OW66705   5.007   8.919   0.010 -0.0607  0.0987 -0.1320
21502SOL    HW166706   4.930   8.875   0.044 -1.4198 -0.9713 -4.0908
21502SOL    HW266707   4.975   8.971  -0.065  2.5967  2.2434  0.0365
21503SOL     OW66708   1.817   1.758   9.465 -0.3916 -0.5623 -0.2114
21503SOL    HW166709   1.906   1.786   9.442  0.2394 -2.5585 -0.4019
21503SOL    HW266710   1.808   1.781   9.558  0.0255  0.3450 -0.3861
21504SOL     OW66711   6.252   6.251   6.353  0.3164  0.5034 -0.0403
21504SOL    HW166712   6.208   6.335   6.362  0.0318  0.3754 -0.2058
21504SOL    HW266713   6.287   6.232   6.440 -0.0261  0.5702  0.1128
21505SOL     OW66714   1.272   1.622   4.979  0.4490  0.3456 -0.2206
21505SOL    HW166715   1.266   1.712   4.947  1.3083  0.1979 -0.8284
21505SOL    HW266716   1.320   1.629   5.062  0.8253  0.4104 -0.4431
21506SOL     OW66717   4.728   6.758   0.196 -0.7906 -0.1852  0.1412
21506SOL    HW166718   4.803   6.733   0.249 -2.1112 -2.1776  1.1685
21506SOL    HW266719   4.755   6.840   0.153  1.1677  0.2555  2.0659
21507SOL     OW66720   6.314   5.935   1.626 -0.4749 -0.3254  0.4291
21507SOL    HW166721   6.314   5.993   1.702 -2.1802 -0.5529  0.6289
21507SOL    HW266722   6.407   5.918   1.609 -0.0456 -1.5119  3.3969
21508SOL     OW66723   8.306   3.173   4.613 -0.3875 -0.1413  1.0067
21508SOL    HW166724   8.358   3.156   4.692 -0.0677  2.9646  1.5964
21508SOL    HW266725   8.366   3.155   4.540  0.0128 -0.9641  1.5254
21509SOL     OW66726   1.282   6.437   3.215 -0.0766 -0.1777 -0.1263
21509SOL    HW166727   1.297   6.505   3.281 -0.5216 -1.5694  1.4652
21509SOL    HW266728   1.354   6.448   3.153  0.3070  1.2190  0.5220
21510SOL     OW66729   2.746   4.666   1.443 -0.1329 -0.4985 -0.4536
21510SOL    HW166730   2.814   4.660   1.509  0.7190  2.1411 -0.9579
21510SOL    HW266731   2.782   4.620   1.367  0.7577  0.1242 -0.4298
21511SOL     OW66732   1.269   1.967   3.161 -0.8085 -0.5910 -0.4107
21511SOL    HW166733   1.175   1.984   3.157 -0.4311  2.0659 -0.4418
21511SOL    HW266734   1.290   1.927   3.077 -1.9041 -1.1898 -0.4133
21512SOL     OW66735   6.542   7.000   0.023 -0.4560  0.1697  0.1932
21512SOL    HW166736   6.604   7.071   0.036 -1.5261  1.2479 -0.4513
21512SOL    HW266737   6.562   6.966  -0.064 -0.1619 -0.1159  0.3684
21513SOL     OW66738   1.997   8.642   3.590 -0.3358 -0.7426  0.2862
21513SOL    HW166739   1.965   8.663   3.678 -1.0418  0.3444 -0.2112
21513SOL    HW266740   1.959   8.556   3.571 -0.0618 -1.0546  1.0837
21514SOL     OW66741   5.703   2.935   2.693 -0.0409  0.1831  0.3346
21514SOL    HW166742   5.771   2.953   2.627  0.2636  0.8549  0.8205
21514SOL    HW266743   5.662   3.020   2.708 -2.9632 -0.6400 -2.0374
21515SOL     OW66744   2.299   1.728   6.043  0.0215  0.3050 -0.5202
21515SOL    HW166745   2.210   1.747   6.075 -0.8743 -0.1139 -2.5743
21515SOL    HW266746   2.340   1.679   6.114 -1.9106 -0.7909 -0.0808
21516SOL     OW66747   3.363   8.996   7.094  0.1702 -0.3793  0.1302
21516SOL    HW166748   3.346   9.007   7.001 -0.8904  0.1539  0.3734
21516SOL    HW266749   3.284   9.030   7.137  1.0506  0.3200  1.2493
21517SOL     OW66750   4.741   4.976   1.812 -0.2940  0.7881  0.1232
21517SOL    HW166751   4.652   4.972   1.846 -0.1946  0.6576  0.3647
21517SOL    HW266752   4.729   4.991   1.718 -0.5787  0.2604  0.0715
21518SOL     OW66753   1.747   5.393   3.345  0.3631  0.2532  0.0079
21518SOL    HW166754   1.799   5.470   3.323  1.0607 -0.5579 -1.2891
21518SOL    HW266755   1.675   5.394   3.281  0.7855 -0.5567 -0.4894
21519SOL     OW66756   9.206   1.045   2.131  0.1625  0.1855  0.0990
21519SOL    HW166757   9.270   1.025   2.062  0.3032 -1.4178  0.6522
21519SOL    HW266758   9.243   1.005   2.210 -0.0310  1.9349  1.1199
21520SOL     OW66759   4.601   1.141   4.347  0.2236 -0.4615 -0.3464
21520SOL    HW166760   4.531   1.162   4.285  0.1287  2.0856  0.5391
21520SOL    HW266761   4.604   1.215   4.406  0.8041 -2.4666  2.3275
21521SOL     OW66762   3.062   7.872   7.696  0.0205 -0.1579  0.2968
21521SOL    HW166763   3.103   7.865   7.610  1.3855  0.0606  0.9168
21521SOL    HW266764   3.130   7.847   7.758 -1.2331 -1.2647  1.2864
21522SOL     OW66765   1.430   3.636   3.903  0.6288 -0.1160 -0.5572
21522SOL    HW166766   1.391   3.716   3.868  3.2076  1.1220 -0.8999
21522SOL    HW266767   1.504   3.619   3.845  3.3118  0.3317  2.4349
21523SOL     OW66768   9.173   1.064   0.594 -0.3298  0.5463 -0.2674
21523SOL    HW166769   9.097   1.013   0.624 -1.3814  0.9590 -2.0467
21523SOL    HW266770   9.245   1.002   0.591 -0.9437 -0.1948  0.1461
21524SOL     OW66771   0.053   4.780   3.095 -0.2623 -0.0386 -0.4211
21524SOL    HW166772   0.044   4.866   3.055 -1.7326  0.7574  1.4609
21524SOL    HW266773   0.125   4.790   3.158 -0.3963 -0.1871 -0.2412
21525SOL     OW66774   1.938   7.314   9.548  0.4346  0.0034 -0.4600
21525SOL    HW166775   2.018   7.367   9.550  0.0458  0.7284 -1.8085
21525SOL    HW266776   1.893   7.344   9.468 -1.8324  0.5969  0.9554
21526SOL     OW66777   3.897   8.298   4.981 -0.3558  0.2894 -0.1689
21526SOL    HW166778   3.832   8.283   4.912  0.3593  0.3832 -0.8726
21526SOL    HW266779   3.981   8.294   4.936  0.1763 -0.5932  0.8597
21527SOL     OW66780   4.727   4.963   4.664 -0.7381  0.3836  0.0989
21527SOL    HW166781   4.784   4.887   4.674 -0.2190  0.6779 -0.5205
21527SOL    HW266782   4.704   4.989   4.753 -0.7205 -0.3431  0.3228
21528SOL     OW66783   8.825   8.123   2.148  0.3048 -0.1556  0.3824
21528SOL    HW166784   8.885   8.164   2.086 -0.5374  0.0986 -0.2829
21528SOL    HW266785   8.782   8.053   2.098 -0.1150 -0.1871  0.7751
21529SOL     OW66786   1.701   3.546   0.045 -0.4073 -0.6164  0.3606
21529SOL    HW166787   1.668   3.457   0.051 -1.9601 -0.0077  1.6000
21529SOL    HW266788   1.646   3.588  -0.022 -0.8543 -0.1366  1.0146
21530SOL     OW66789   7.067   8.366   8.834 -0.0607 -0.0493 -0.1709
21530SOL    HW166790   7.020   8.432   8.782  0.9922  1.6259  0.8972
21530SOL    HW266791   7.015   8.358   8.914 -0.5045 -1.0141 -0.5342
21531SOL     OW66792   6.618   7.007   3.420  0.4348 -0.3115 -0.1548
21531SOL    HW166793   6.607   6.916   3.393 -0.7559 -0.0695 -0.5672
21531SOL    HW266794   6.644   7.053   3.340 -0.1835 -0.0923 -0.2366
21532SOL     OW66795   7.031   0.861   2.110  0.1658 -0.3551 -0.0402
21532SOL    HW166796   7.070   0.892   2.191  0.9862 -3.0338  0.7114
21532SOL    HW266797   7.091   0.891   2.041  1.1856 -0.6700  0.6819
21533SOL     OW66798   4.144   5.498   1.996 -0.2329  0.0153  0.1715
21533SOL    HW166799   4.074   5.451   1.950  0.2406 -0.3626 -0.1854
21533SOL    HW266800   4.103   5.533   2.074 -0.6229 -0.9802  0.4324
21534SOL     OW66801   2.940   5.847   9.245 -0.0821  0.3388  0.2705
21534SOL    HW166802   2.926   5.831   9.338 -0.7477 -0.8280 -0.0146
21534SOL    HW266803   2.853   5.840   9.206  0.4693 -1.3188 -0.7369
21535SOL     OW66804   4.548   4.836   7.733  0.1008 -0.1159 -0.4486
21535SOL    HW166805   4.546   4.923   7.693  0.9909 -0.0593 -0.3841
21535SOL    HW266806   4.545   4.776   7.658 -1.1817 -0.0535 -0.4709
21536SOL     OW66807   4.049   6.390   5.725 -0.3023  0.5975 -0.2103
21536SOL    HW166808   4.089   6.447   5.790 -0.4686  0.4024  0.0640
21536SOL    HW266809   4.002   6.449   5.666 -0.7396  0.7228  0.2564
21537SOL     OW66810   4.434   4.593   2.342 -0.1540  0.1722  0.1405
21537SOL    HW166811   4.362   4.603   2.403  0.5901  0.4373  0.9936
21537SOL    HW266812   4.510   4.574   2.397 -0.0196 -2.8029 -0.8583
21538SOL     OW66813   4.032   2.432   2.844 -0.9743 -0.1260 -0.9613
21538SOL    HW166814   4.077   2.515   2.861  0.5528 -0.9075 -0.9674
21538SOL    HW266815   3.963   2.428   2.910  0.1407  0.2882  0.2595
21539SOL     OW66816   1.258   0.547   4.773 -0.0710 -0.1399  0.7983
21539SOL    HW166817   1.237   0.459   4.744 -2.1801 -0.0880  1.9508
21539SOL    HW266818   1.224   0.604   4.704 -1.0898 -0.1736  1.2487
21540SOL     OW66819   1.752   7.334   0.759 -0.4417  0.2645  0.2311
21540SOL    HW166820   1.761   7.306   0.668 -2.9920  0.0758 -0.0298
21540SOL    HW266821   1.714   7.421   0.754 -0.5005  0.3014  1.1184
21541SOL     OW66822   1.417   8.287   9.310 -0.0116 -1.1026 -0.3432
21541SOL    HW166823   1.336   8.321   9.270  0.0472 -0.8364 -0.2362
21541SOL    HW266824   1.408   8.308   9.403  1.2945  1.2122 -0.6680
21542SOL     OW66825   0.944   2.858   7.195 -0.2052  0.5247  0.2692
21542SOL    HW166826   1.025   2.901   7.221 -0.2886  0.4495  0.6594
21542SOL    HW266827   0.949   2.771   7.235  0.1137  0.0391 -0.7714
21543SOL     OW66828   8.892   9.078   5.555  0.0499  0.2722 -0.3416
21543SOL    HW166829   8.851   9.147   5.607  0.6108 -0.2857  0.8807
21543SOL    HW266830   8.820   9.041   5.504 -0.6908  0.2935  0.6492
21544SOL     OW66831   5.911   6.465   2.623  0.3611  0.2663  0.4786
21544SOL    HW166832   6.004   6.482   2.610  0.9942 -0.9420  2.8648
21544SOL    HW266833   5.873   6.470   2.535  2.5749  1.2303 -0.4962
21545SOL     OW66834   7.945   1.200   1.687  0.4656  0.1441 -0.0550
21545SOL    HW166835   8.005   1.175   1.617  0.9240  1.0672 -0.0128
21545SOL    HW266836   7.970   1.147   1.762 -0.6901 -1.6159 -0.8413
21546SOL     OW66837   5.217   5.359   0.486  0.3350  0.8829 -0.0341
21546SOL    HW166838   5.139   5.414   0.487 -0.5473 -0.2937  1.8596
21546SOL    HW266839   5.286   5.414   0.521 -0.7067  0.6450  2.5992
21547SOL     OW66840   3.528   8.776   8.216  0.6792 -0.3399 -0.2934
21547SOL    HW166841   3.469   8.702   8.229 -0.9198  0.8528 -0.4632
21547SOL    HW266842   3.547   8.808   8.304  0.4341 -0.2525 -0.2713
21548SOL     OW66843   5.452   7.936   6.985  0.2650 -0.2645  0.5426
21548SOL    HW166844   5.527   7.926   6.926  0.4853  2.9834  0.0955
21548SOL    HW266845   5.487   7.919   7.072  1.1284 -0.4183  0.1692
21549SOL     OW66846   1.557   9.070   1.411 -0.1805 -0.0860 -0.0466
21549SOL    HW166847   1.478   9.124   1.416 -1.3356 -1.6254 -0.5928
21549SOL    HW266848   1.539   8.998   1.472  1.1074 -0.1133  0.3166
21550SOL     OW66849   6.838   8.176   4.909  0.6779 -0.1533 -0.2726
21550SOL    HW166850   6.839   8.272   4.916  0.5755 -0.0047 -2.0601
21550SOL    HW266851   6.876   8.157   4.823  1.7999 -1.7928  0.5195
21551SOL     OW66852   5.935   3.251   2.501  0.3047  0.6978 -0.5674
21551SOL    HW166853   5.918   3.331   2.550  0.0685  0.6241 -0.5234
21551SOL    HW266854   5.868   3.250   2.432  0.9988  1.0954 -1.2656
21552SOL     OW66855   0.711   6.992   9.001  0.5172 -0.8723  0.0645
21552SOL    HW166856   0.787   6.942   8.971  0.3147 -0.0905 -1.8581
21552SOL    HW266857   0.636   6.949   8.960  0.0954 -0.4758  0.4089
21553SOL     OW66858   3.258   3.093   7.196 -0.2486  0.2408  0.1243
21553SOL    HW166859   3.302   3.087   7.281  0.0513  1.6413  0.0979
21553SOL    HW266860   3.191   3.025   7.198 -0.3587  0.3685  1.5576
21554SOL     OW66861   1.443   2.521   5.129 -0.4270  0.3267  0.0490
21554SOL    HW166862   1.447   2.508   5.035 -0.6153  1.1521 -0.0848
21554SOL    HW266863   1.508   2.589   5.146 -1.1886  0.9949  0.3497
21555SOL     OW66864   2.664   9.497   4.617 -0.4594  0.2990  0.0564
21555SOL    HW166865   2.597   9.514   4.551 -0.7913 -0.6020  0.1473
21555SOL    HW266866   2.687   9.405   4.605  1.0801  0.6994 -0.2516
21556SOL     OW66867   6.649   8.816   5.481 -0.4329  0.1813 -0.3991
21556SOL    HW166868   6.564   8.801   5.439 -0.2412  0.9787 -1.1089
21556SOL    HW266869   6.645   8.906   5.512 -0.7544 -0.5525  1.7974
21557SOL     OW66870   4.703   6.977   9.199 -0.2160 -0.5048  0.4264
21557SOL    HW166871   4.789   6.946   9.228  0.4176 -0.0204 -0.8499
21557SOL    HW266872   4.723   7.047   9.136 -1.5486 -0.4656  0.0208
21558SOL     OW66873   6.198   3.107   9.074  0.5831  0.5744 -0.2100
21558SOL    HW166874   6.200   3.164   9.151  2.1543 -1.0102  1.0169
21558SOL    HW266875   6.139   3.151   9.013 -0.8257  1.8339  1.9318
21559SOL     OW66876   3.185   9.201   6.208  0.1435  0.2599  0.3010
21559SOL    HW166877   3.239   9.273   6.241  1.9432 -0.5008 -0.8662
21559SOL    HW266878   3.149   9.233   6.126  0.6938 -0.0522 -0.0647
21560SOL     OW66879   7.899   4.214   3.975  1.0717 -0.7871  0.2210
21560SOL    HW166880   7.819   4.162   3.964  1.2503 -0.8281 -1.0191
21560SOL    HW266881   7.952   4.164   4.037 -1.4082  1.1079  4.2286
21561SOL     OW66882   1.907   0.608   8.248 -0.5287 -0.2143 -0.3755
21561SOL    HW166883   1.827   0.641   8.207 -0.9888  0.8409  1.2863
21561SOL    HW266884   1.977   0.662   8.212 -0.5387 -1.0350 -1.7141
21562SOL     OW66885   3.469   9.537   9.072  0.2372 -0.2389 -0.5615
21562SOL    HW166886   3.391   9.549   9.019  0.1268  0.6203 -0.2257
21562SOL    HW266887   3.533   9.497   9.013  0.1280  0.7097 -1.3552
21563SOL     OW66888   7.183   0.447   4.481  0.0217 -0.1664  0.1707
21563SOL    HW166889   7.176   0.542   4.478 -0.6188 -0.2307 -0.4996
21563SOL    HW266890   7.277   0.430   4.483  0.2453  0.4119 -2.5034
21564SOL     OW66891   2.974   5.911   2.567  0.0210  0.1627  0.2496
21564SOL    HW166892   2.956   5.990   2.619 -0.8279  0.3376 -0.2934
21564SOL    HW266893   3.067   5.919   2.545 -0.1261  1.1802 -0.0663
21565SOL     OW66894   3.601   1.839   4.320 -0.3100  0.3483  0.0231
21565SOL    HW166895   3.567   1.925   4.295 -0.8643  0.5787  1.5076
21565SOL    HW266896   3.602   1.790   4.238 -3.5002  0.5862 -0.2770
21566SOL     OW66897   3.922   3.165   6.551  0.2334  0.2250 -0.0536
21566SOL    HW166898   3.938   3.155   6.457  3.1184  0.4140  0.3249
21566SOL    HW266899   4.002   3.135   6.592 -1.5209 -1.3129  2.4990
21567SOL     OW66900   7.380   8.549   5.843  0.0912  0.3695 -0.1460
21567SOL    HW166901   7.465   8.535   5.885  0.4092  2.1965 -0.1043
21567SOL    HW266902   7.379   8.642   5.821 -0.2644 -0.3866 -3.8353
21568SOL     OW66903   0.557   1.492   8.455 -0.7404  0.1795  0.4226
21568SOL    HW166904   0.583   1.547   8.381  0.1377  0.4227  0.8995
21568SOL    HW266905   0.599   1.407   8.437 -2.1742 -0.4055 -0.3643
21569SOL     OW66906   5.164   4.251   6.043  0.4734 -0.1343 -0.1456
21569SOL    HW166907   5.104   4.180   6.021 -0.5733  0.9959 -1.0286
21569SOL    HW266908   5.171   4.304   5.964  0.5963  1.2094  0.7208
21570SOL     OW66909   3.364   6.956   0.805  0.0169 -0.0082  0.3338
21570SOL    HW166910   3.313   6.962   0.886  1.5673 -1.2355  1.4542
21570SOL    HW266911   3.371   6.862   0.788  0.3563  0.2120 -0.8321
21571SOL     OW66912   2.017   6.540   4.956 -0.2528  0.3793  0.4445
21571SOL    HW166913   1.973   6.622   4.933  0.2475  0.6167  0.3190
21571SOL    HW266914   2.060   6.558   5.039 -1.9185 -0.4304  1.5436
21572SOL     OW66915   7.375   3.438   7.731  0.1696  0.0086 -0.1783
21572SOL    HW166916   7.305   3.378   7.704  0.2182 -0.7108  1.2046
21572SOL    HW266917   7.341   3.480   7.810  0.6165  0.9333 -0.4695
21573SOL     OW66918   7.198   4.335   5.368  0.4615  0.0869 -0.0558
21573SOL    HW166919   7.235   4.361   5.284 -0.9315 -2.3104 -1.4965
21573SOL    HW266920   7.171   4.244   5.356 -0.4163 -0.1265  2.7820
21574SOL     OW66921   4.964   6.452   2.382  0.5759  0.3887  0.0621
21574SOL    HW166922   4.889   6.505   2.410  2.3355  2.6045  0.8925
21574SOL    HW266923   5.022   6.514   2.338  1.8562 -1.2920 -0.7149
21575SOL     OW66924   5.506   7.099   0.978  0.1223 -0.6191 -0.2470
21575SOL    HW166925   5.502   7.028   0.914 -1.6884 -1.3863  0.6226
21575SOL    HW266926   5.599   7.116   0.990  0.5354 -1.2756 -2.1579
21576SOL     OW66927   4.996   2.080   3.380 -0.7934  0.2558 -0.2043
21576SOL    HW166928   4.993   2.024   3.458 -0.2934  0.6325  0.0876
21576SOL    HW266929   4.926   2.046   3.324  0.1028 -1.2759 -0.4555
21577SOL     OW66930   0.466   8.687   2.339  0.0034  0.7326 -0.2158
21577SOL    HW166931   0.447   8.630   2.414 -0.0740  2.1796  0.8932
21577SOL    HW266932   0.385   8.735   2.324  0.4568  1.4880 -0.2942
21578SOL     OW66933   3.254   8.160   1.763 -0.6586  0.3836 -0.1141
21578SOL    HW166934   3.329   8.144   1.706  0.0989  0.5158  0.8242
21578SOL    HW266935   3.179   8.167   1.703  0.0170 -0.0826 -1.0338
21579SOL     OW66936   1.463   8.054   4.392 -0.4462  0.5717 -0.4369
21579SOL    HW166937   1.471   8.089   4.481  1.0366  0.3871 -0.4647
21579SOL    HW266938   1.545   8.007   4.378 -0.7082  0.5097 -1.8722
21580SOL     OW66939   0.749   3.492   5.426  0.0326 -0.5223  0.2640
21580SOL    HW166940   0.807   3.565   5.404 -0.1714 -1.0506 -2.3657
21580SOL    HW266941   0.739   3.497   5.521  2.3154  1.1125  0.5017
21581SOL     OW66942   2.580   4.047   7.136  0.2866  0.1906 -0.1034
21581SOL    HW166943   2.566   3.967   7.086  1.1037 -0.1587  0.2096
21581SOL    HW266944   2.641   4.022   7.206  1.2519  1.2679 -0.5173
21582SOL     OW66945   2.316   0.615   5.644 -0.5015 -0.4115 -0.2575
21582SOL    HW166946   2.262   0.611   5.565 -0.3961  1.0818 -0.4401
21582SOL    HW266947   2.404   0.635   5.612 -0.4081 -0.0458  0.2126
21583SOL     OW66948   0.032   1.082   6.643  0.8014  0.2842  0.2444
21583SOL    HW166949  -0.004   1.069   6.731 -1.2387  1.0633 -0.4115
21583SOL    HW266950  -0.037   1.128   6.595  2.7039  1.8832 -1.1473
21584SOL     OW66951   8.023   6.618   5.503 -0.6271 -0.3800 -0.0284
21584SOL    HW166952   8.064   6.630   5.589  1.0584  0.5405 -0.9194
21584SOL    HW266953   7.972   6.698   5.490  1.1112  0.6495 -0.8941
21585SOL     OW66954   7.027   4.281   4.318  0.1192  0.2045 -0.3652
21585SOL    HW166955   7.064   4.198   4.348  1.1745  0.7338 -0.1568
21585SOL    HW266956   7.057   4.345   4.383 -2.7585  0.3791  0.9236
21586SOL     OW66957   6.773   1.838   1.992  0.0957  0.3017  0.7477
21586SOL    HW166958   6.823   1.870   2.067 -0.1798  1.4226  0.4772
21586SOL    HW266959   6.736   1.755   2.022 -0.2884  0.8846  1.9815
21587SOL     OW66960   4.768   5.810   5.637  0.1124 -0.1374 -0.6318
21587SOL    HW166961   4.778   5.897   5.674  1.6971 -0.4351 -0.2556
21587SOL    HW266962   4.764   5.752   5.713  0.6971 -0.5114 -0.8709
21588SOL     OW66963   0.515   4.876   9.085  0.0647  0.4820 -0.0360
21588SOL    HW166964   0.456   4.803   9.067  1.6091 -0.6092 -0.7937
21588SOL    HW266965   0.601   4.846   9.056  1.3062  1.4780  2.3178
21589SOL     OW66966   1.655   9.511   0.025  0.1968  0.7546 -0.6889
21589SOL    HW166967   1.645   9.604   0.001  1.1593  1.0495  0.0033
21589SOL    HW266968   1.654   9.511   0.120  0.3356  0.0643 -0.6884
21590SOL     OW66969   6.142   5.336   6.783 -0.0489 -0.6061 -0.1592
21590SOL    HW166970   6.141   5.252   6.738  0.5793 -1.4020  1.2691
21590SOL    HW266971   6.235   5.357   6.792 -0.1922  0.8855 -1.6034
21591SOL     OW66972   3.047   1.733   8.665 -0.2057 -0.1395 -0.4948
21591SOL    HW166973   3.024   1.640   8.659 -0.0522 -0.2956  1.0021
21591SOL    HW266974   2.982   1.770   8.725 -0.8318  0.9381 -1.7842
21592SOL     OW66975   0.797   5.601   4.281 -0.1140  0.1845 -0.0238
21592SOL    HW166976   0.805   5.663   4.208  0.6957 -0.9144 -0.8925
21592SOL    HW266977   0.705   5.608   4.307  0.4129  3.4397  1.4727
21593SOL     OW66978   4.181   7.176   4.981  0.2162  0.5181  0.1571
21593SOL    HW166979   4.153   7.150   4.893  1.1355  1.4643 -0.4537
21593SOL    HW266980   4.269   7.212   4.968  0.6271  0.1052  1.5754
21594SOL     OW66981   7.614   6.137   8.705 -0.2816 -0.2243  0.0008
21594SOL    HW166982   7.602   6.204   8.637 -1.2435 -1.8413 -1.5293
21594SOL    HW266983   7.704   6.105   8.692 -1.0068 -1.7825 -1.8573
21595SOL     OW66984   5.820   8.252   1.461 -0.0786  0.0289  0.5556
21595SOL    HW166985   5.839   8.269   1.368  0.6632  1.7856  0.9928
21595SOL    HW266986   5.736   8.206   1.460  0.1616 -0.4551 -0.9989
21596SOL     OW66987   0.142   1.794   1.952  0.1598  0.5245 -1.0295
21596SOL    HW166988   0.132   1.827   2.041  0.2088 -1.2815 -0.3057
21596SOL    HW266989   0.054   1.765   1.928  0.2679  0.4402 -1.3263
21597SOL     OW66990   2.897   2.219   8.734 -0.0146  0.8136  0.0825
21597SOL    HW166991   2.982   2.194   8.770 -0.6229 -1.1763  0.2379
21597SOL    HW266992   2.855   2.269   8.804 -0.7543 -2.1032  1.9017
21598SOL     OW66993   9.199   2.118   7.982 -0.6662  0.3190  0.1084
21598SOL    HW166994   9.123   2.133   7.925 -0.7067 -0.1352  0.0373
21598SOL    HW266995   9.255   2.193   7.966 -1.3908  0.9873  0.6439
21599SOL     OW66996   9.086   0.493   6.933 -0.2677  0.0360  0.8113
21599SOL    HW166997   9.168   0.503   6.884 -0.6525  0.2501  0.2054
21599SOL    HW266998   9.100   0.543   7.014 -0.0805  0.7018  0.3712
21600SOL     OW66999   0.578   9.292   2.933 -0.6309  0.2031 -0.6766
21600SOL    HW167000   0.603   9.268   2.844 -1.7075  2.4976 -1.7038
21600SOL    HW267001   0.492   9.333   2.923  0.4565  3.1793  0.9400
21601SOL     OW67002   1.876   2.535   1.549 -0.5274  0.2251  0.5035
21601SOL    HW167003   1.904   2.517   1.639 -0.1026 -0.8136  0.1791
21601SOL    HW267004   1.842   2.451   1.517 -0.2215  0.4528 -0.4624
21602SOL     OW67005   2.835   6.015   3.879 -0.2523 -0.1156  0.5739
21602SOL    HW167006   2.850   6.108   3.863 -0.1886 -0.2526 -0.1791
21602SOL    HW267007   2.897   5.993   3.949  2.2058 -0.3484 -1.5426
21603SOL     OW67008   3.887   2.968   0.994  0.6902 -0.3136  0.1729
21603SOL    HW167009   3.935   2.886   0.980 -0.4380 -0.7523 -1.4535
21603SOL    HW267010   3.818   2.944   1.056  0.7274 -0.4481  0.1637
21604SOL     OW67011   0.906   9.109   0.747  0.0382  0.2787 -0.2143
21604SOL    HW167012   0.960   9.073   0.678  0.9607  0.7135  0.2562
21604SOL    HW267013   0.931   9.061   0.826  0.4715  1.1423  0.1975
21605SOL     OW67014   9.100   2.894   5.083 -0.2849  0.0816 -0.3217
21605SOL    HW167015   9.158   2.824   5.116 -0.4027 -0.2282 -0.7591
21605SOL    HW267016   9.086   2.951   5.158  1.9779  1.1150 -0.6073
21606SOL     OW67017   0.115   6.190   9.422  0.4229  0.1036 -0.2148
21606SOL    HW167018   0.103   6.103   9.384  0.7111 -0.3500  0.7021
21606SOL    HW267019   0.205   6.191   9.453  0.2441  0.5120  0.3175
21607SOL     OW67020   5.440   4.462   8.176 -0.5372  0.2348 -0.7704
21607SOL    HW167021   5.487   4.387   8.211 -0.6406 -0.1687 -1.4775
21607SOL    HW267022   5.375   4.425   8.116 -0.2761  0.8995 -1.4947
21608SOL     OW67023   3.383   3.797   1.379  0.2178 -0.6047 -0.1375
21608SOL    HW167024   3.454   3.738   1.354  0.8171  0.2164 -0.4101
21608SOL    HW267025   3.348   3.759   1.460  1.0142 -0.9868  0.0441
21609SOL     OW67026   0.892   1.475   4.761 -0.0080 -0.4456  0.1512
21609SOL    HW167027   0.822   1.418   4.794 -0.7728 -0.1946 -0.9564
21609SOL    HW267028   0.940   1.503   4.839 -1.2230 -0.5347  0.9563
21610SOL     OW67029   6.409   0.309   7.854  0.3008  0.2522 -0.0874
21610SOL    HW167030   6.461   0.235   7.885 -1.1650 -1.2359 -0.9927
21610SOL    HW267031   6.452   0.386   7.890  3.1053 -0.8612 -0.7818
21611SOL     OW67032   8.334   5.845   4.608  0.0712  0.4444  0.3078
21611SOL    HW167033   8.260   5.850   4.669  0.0649  0.8522  0.2662
21611SOL    HW267034   8.405   5.807   4.660 -0.3033 -0.4018  0.2154
21612SOL     OW67035   0.794   8.968   1.675  0.0831 -0.1156  0.4496
21612SOL    HW167036   0.770   9.060   1.676  3.5682  1.0575 -2.2749
21612SOL    HW267037   0.769   8.935   1.761 -0.2610  3.6281  1.9563
21613SOL     OW67038   0.790   9.251   0.955  0.1087 -0.0491 -0.2195
21613SOL    HW167039   0.831   9.232   1.040 -1.0123 -1.6054  0.0361
21613SOL    HW267040   0.837   9.196   0.893  1.7032  1.9584 -0.8739
21614SOL     OW67041   8.979   7.839   7.259  0.4688 -0.0882  0.2387
21614SOL    HW167042   8.940   7.926   7.245  0.3673 -0.2028 -0.2378
21614SOL    HW267043   8.904   7.783   7.281  0.2416 -0.4426 -1.2936
21615SOL     OW67044   3.155   5.554   2.200 -0.1360  0.4975  0.2484
21615SOL    HW167045   3.191   5.630   2.153  1.2042  0.1148  0.6175
21615SOL    HW267046   3.142   5.585   2.289 -0.2676  0.4891  0.2327
21616SOL     OW67047   9.151   2.086   0.277 -0.0950  0.3591  0.2332
21616SOL    HW167048   9.205   2.133   0.214  2.3425 -1.1711  1.0492
21616SOL    HW267049   9.090   2.035   0.224  1.1333 -0.0016 -0.8780
21617SOL     OW67050   5.152   2.421   4.301 -0.3176 -0.0040  0.1324
21617SOL    HW167051   5.203   2.362   4.246  0.4080 -0.3849  1.1901
21617SOL    HW267052   5.217   2.464   4.357 -0.7410  2.2633 -1.0004
21618SOL     OW67053   4.157   5.962   1.336 -0.1883 -0.3868  0.1005
21618SOL    HW167054   4.244   5.922   1.346  0.5384  1.3689  1.3345
21618SOL    HW267055   4.174   6.045   1.293 -1.4727 -0.6222 -0.9297
21619SOL     OW67056   6.525   5.838   2.256  0.1546 -0.2284  0.8270
21619SOL    HW167057   6.496   5.929   2.258 -1.0466 -0.3166 -3.3020
21619SOL    HW267058   6.620   5.843   2.252  0.1290  0.7960  1.1228
21620SOL     OW67059   5.568   7.680   7.866 -0.2176 -0.0176  0.6781
21620SOL    HW167060   5.543   7.759   7.914  2.4230  1.3533 -0.0477
21620SOL    HW267061   5.638   7.642   7.918 -0.2606 -0.9120  0.0939
21621SOL     OW67062   2.234   7.144   7.818  0.0227 -0.8024  0.1306
21621SOL    HW167063   2.208   7.117   7.730  1.0797 -2.2829  0.2528
21621SOL    HW267064   2.326   7.168   7.810  0.0980 -0.8468  0.8232
21622SOL     OW67065   4.307   5.326   3.399  0.4134  0.2231  0.3010
21622SOL    HW167066   4.308   5.239   3.359 -0.2467  0.0858  0.5711
21622SOL    HW267067   4.321   5.386   3.326  0.0948 -0.0702 -0.0100
21623SOL     OW67068   1.485   6.188   5.561 -0.3897 -0.1683  0.2667
21623SOL    HW167069   1.516   6.277   5.577  1.9166 -0.8542 -0.0492
21623SOL    HW267070   1.458   6.156   5.647  2.4025 -0.4031  1.1553
21624SOL     OW67071   8.325   4.092   5.438 -0.0186  0.0518 -0.0383
21624SOL    HW167072   8.241   4.109   5.479  0.8126  0.3331  1.6309
21624SOL    HW267073   8.323   3.999   5.416 -0.4391 -0.1397  0.7942
21625SOL     OW67074   3.403   8.310   1.920  0.2862  0.0650  0.1906
21625SOL    HW167075   3.344   8.244   1.886 -0.5587  0.5887  0.6123
21625SOL    HW267076   3.385   8.388   1.867 -1.4774  1.0686  2.1708
21626SOL     OW67077   9.361   6.461   2.531 -0.2923  0.0573  0.1467
21626SOL    HW167078   9.412   6.386   2.562  2.0432  1.2193 -0.6384
21626SOL    HW267079   9.326   6.500   2.611 -1.2142 -1.5863  0.6022
21627SOL     OW67080   3.016   9.349   7.845 -0.2811 -0.5547  0.3263
21627SOL    HW167081   3.028   9.351   7.940  1.2817 -0.3155  0.1566
21627SOL    HW267082   2.923   9.332   7.832 -0.6278  0.0535  1.8979
21628SOL     OW67083   6.629   4.166   3.576  0.2709 -0.0412  0.3354
21628SOL    HW167084   6.575   4.189   3.651 -1.0401 -0.0436 -0.5817
21628SOL    HW267085   6.567   4.143   3.507  1.4629 -1.2761 -0.3816
21629SOL     OW67086   7.104   4.160   0.953 -0.2719 -0.7534  0.4140
21629SOL    HW167087   7.067   4.083   0.998  1.2718 -1.7048  0.1112
21629SOL    HW267088   7.180   4.126   0.906  0.3127  0.9439  0.0854
21630SOL     OW67089   2.698   9.016   5.940 -0.5084  0.2604  0.3859
21630SOL    HW167090   2.630   8.949   5.934 -0.4657  0.3200 -1.1263
21630SOL    HW267091   2.747   8.993   6.020 -1.6530 -0.3700  0.9334
21631SOL     OW67092   8.487   6.220   1.233 -0.2284 -0.1891  0.8398
21631SOL    HW167093   8.507   6.158   1.303 -1.2833  0.0668  1.3802
21631SOL    HW267094   8.452   6.166   1.162 -0.9448 -0.2481  1.2305
21632SOL     OW67095   0.994   1.702   7.187  0.0033 -0.2161 -0.0216
21632SOL    HW167096   0.908   1.659   7.193  0.3658 -0.8919  0.4396
21632SOL    HW267097   0.993   1.745   7.102 -0.2850 -1.3348 -0.6015
21633SOL     OW67098   3.961   4.206   0.150  0.4796 -0.6343 -0.0692
21633SOL    HW167099   3.975   4.168   0.063  1.4726 -1.9391  0.6258
21633SOL    HW267100   3.994   4.140   0.211 -2.8387 -1.0313  1.4991
21634SOL     OW67101   6.928   5.502   4.262 -0.3561 -0.5028  0.0256
21634SOL    HW167102   6.952   5.421   4.306 -0.6621  0.3748  1.8932
21634SOL    HW267103   7.010   5.552   4.258 -0.1539 -0.9059 -1.1754
21635SOL     OW67104   0.620   7.510   8.719 -0.1378 -0.2344  0.9467
21635SOL    HW167105   0.569   7.586   8.691  0.3990  0.2953  1.3880
21635SOL    HW267106   0.675   7.542   8.790  1.2749 -0.6203  0.0849
21636SOL     OW67107   9.133   9.299   0.251 -0.6405 -0.3550 -0.3769
21636SOL    HW167108   9.175   9.343   0.324 -1.0336 -0.4247 -0.1036
21636SOL    HW267109   9.052   9.348   0.236 -0.4112 -0.1482 -0.9724
21637SOL     OW67110   3.969   2.951   5.911 -0.0443  0.1874  0.1833
21637SOL    HW167111   3.919   2.870   5.923  0.2180 -0.1360 -0.8257
21637SOL    HW267112   4.032   2.951   5.984  0.1782 -0.6956  0.0052
21638SOL     OW67113   6.926   1.136   0.188 -0.7115  0.2457  0.1627
21638SOL    HW167114   6.965   1.067   0.134  1.1277  2.4333 -1.4960
21638SOL    HW267115   6.980   1.136   0.268  0.2195  0.6505 -0.4433
21639SOL     OW67116   0.729   1.312   1.382 -0.3936  0.3680  0.0623
21639SOL    HW167117   0.805   1.365   1.360 -0.0201 -0.5293 -0.8868
21639SOL    HW267118   0.655   1.372   1.377  0.1040  0.9561 -0.3029
21640SOL     OW67119   1.038   0.023   5.592  0.1599 -0.1531 -0.4242
21640SOL    HW167120   0.985  -0.053   5.616 -1.0719  1.2242  1.5169
21640SOL    HW267121   0.979   0.098   5.601  2.2548  1.4336  1.4779
21641SOL     OW67122   2.906   2.686   7.414 -0.6258  0.0575  0.6122
21641SOL    HW167123   2.933   2.595   7.414 -2.2630 -0.4932 -1.1562
21641SOL    HW267124   2.980   2.733   7.454  1.0340 -1.8135 -0.0709
21642SOL     OW67125   7.128   2.082   1.655  0.0425 -0.4402 -0.1952
21642SOL    HW167126   7.094   2.171   1.665  0.6865  0.0384 -1.7781
21642SOL    HW267127   7.090   2.033   1.727  0.3798  1.3274  1.2639
21643SOL     OW67128   7.462   7.707   1.627  0.1238  0.1901  0.0780
21643SOL    HW167129   7.376   7.668   1.643 -0.3308  0.5537 -1.3953
21643SOL    HW267130   7.507   7.699   1.712 -1.0144 -0.8216  0.6270
21644SOL     OW67131   2.181   1.862   3.567 -0.7302 -0.0906  1.0101
21644SOL    HW167132   2.095   1.889   3.601 -0.4978  0.9280  0.8160
21644SOL    HW267133   2.241   1.931   3.596 -0.4032  0.4833 -0.8872
21645SOL     OW67134   8.929   8.399   1.308  0.4740  0.3731  0.1838
21645SOL    HW167135   8.841   8.364   1.326  0.0256  1.5955  0.4309
21645SOL    HW267136   8.985   8.321   1.309 -0.7632 -0.5999 -1.2152
21646SOL     OW67137   8.988   4.993   1.225  0.5826 -0.2075 -0.1149
21646SOL    HW167138   8.893   4.989   1.234  0.5296 -0.1175 -0.6008
21646SOL    HW267139   9.021   4.934   1.293  0.2123  0.3834  0.6020
21647SOL     OW67140   0.068   1.164   1.919  0.4707 -0.2611  0.2763
21647SOL    HW167141   0.089   1.242   1.970 -1.7976 -0.2424  1.3034
21647SOL    HW267142   0.021   1.197   1.843 -1.9220 -0.6131  1.4986
21648SOL     OW67143   8.163   3.662   2.537  0.3060 -0.4625  0.1299
21648SOL    HW167144   8.079   3.617   2.548  0.0854 -0.2728 -0.7400
21648SOL    HW267145   8.148   3.724   2.466  0.5842  1.0658  1.3554
21649SOL     OW67146   4.248   5.934   1.924  0.1087  0.4925 -0.0630
21649SOL    HW167147   4.308   5.970   1.858 -0.9173  1.0929 -0.6967
21649SOL    HW267148   4.210   5.857   1.882  0.3672  0.1560  0.3114
21650SOL     OW67149   2.521   1.388   1.634 -0.1457  0.4763 -0.1297
21650SOL    HW167150   2.556   1.302   1.610 -0.1411  1.0940 -2.5820
21650SOL    HW267151   2.518   1.387   1.730  0.7301 -1.8907 -0.0691
21651SOL     OW67152   3.204   4.637   7.222 -0.1558  0.2088  0.2513
21651SOL    HW167153   3.128   4.587   7.251 -0.3330  0.5667  0.4149
21651SOL    HW267154   3.188   4.726   7.254  0.6550  0.1426  0.8914
21652SOL     OW67155   3.167   3.733   6.508 -0.3343 -0.0554 -0.2797
21652SOL    HW167156   3.142   3.772   6.425  0.3451  1.0606  0.0224
21652SOL    HW267157   3.236   3.790   6.542 -0.5390 -0.5396  1.0107
21653SOL     OW67158   2.584   4.258   1.754  0.4829  1.2299 -0.0769
21653SOL    HW167159   2.574   4.188   1.819 -0.0009  0.6907 -0.7130
21653SOL    HW267160   2.551   4.336   1.798 -0.6166  0.7082  0.0493
21654SOL     OW67161   4.048   4.268   1.880 -0.0448  0.1002 -0.0871
21654SOL    HW167162   3.989   4.289   1.808  0.7974  0.7893 -0.5969
21654SOL    HW267163   4.107   4.202   1.844 -0.1115 -0.1325  0.2251
21655SOL     OW67164   6.424   7.243   0.787  0.0540 -0.0854  0.3257
21655SOL    HW167165   6.332   7.270   0.795 -0.5312 -1.5351 -0.9853
21655SOL    HW267166   6.456   7.289   0.710 -0.0868 -0.8729 -0.2095
21656SOL     OW67167   8.298   3.302   7.768  0.3556  0.3374 -0.3732
21656SOL    HW167168   8.345   3.362   7.826 -0.8143  1.5085 -0.5834
21656SOL    HW267169   8.325   3.328   7.680 -1.1264  1.4576 -0.5280
21657SOL     OW67170   6.895   2.271   0.042 -0.2688  0.4699  0.0534
21657SOL    HW167171   6.870   2.356   0.005 -1.4438  0.3009  0.4038
21657SOL    HW267172   6.816   2.242   0.088  0.1869 -0.7314  0.0894
21658SOL     OW67173   7.977   1.443   4.103 -0.0610  0.0373 -0.1918
21658SOL    HW167174   7.887   1.412   4.092  0.0308 -0.4522  0.4049
21658SOL    HW267175   8.002   1.475   4.016 -0.7672  0.0654 -0.3898
21659SOL     OW67176   3.075   3.507   1.215 -0.0505 -0.0398 -0.1909
21659SOL    HW167177   3.031   3.573   1.268 -1.5169  1.2777 -2.8292
21659SOL    HW267178   3.153   3.551   1.182  0.9135 -0.8852  0.8916
21660SOL     OW67179   1.612   1.896   6.092 -0.2854  0.1402 -0.0686
21660SOL    HW167180   1.517   1.895   6.102 -0.1623  0.3642  1.3331
21660SOL    HW267181   1.631   1.982   6.054 -0.4650  1.2753  2.2281
21661SOL     OW67182   6.153   3.547   0.040  0.3398  0.2785  0.6265
21661SOL    HW167183   6.133   3.637   0.065  2.9625  1.2072 -0.2150
21661SOL    HW267184   6.096   3.530  -0.035  0.1192  1.4172  0.5130
21662SOL     OW67185   7.778   6.369   5.750  0.4337  0.2095  0.1552
21662SOL    HW167186   7.780   6.354   5.656 -1.5588  1.2689 -0.1076
21662SOL    HW267187   7.718   6.303   5.784  1.1338 -0.1626  0.6970
21663SOL     OW67188   2.778   7.671   0.439  0.1336  0.2423 -0.3226
21663SOL    HW167189   2.691   7.670   0.399  0.8231  1.5307 -1.9825
21663SOL    HW267190   2.811   7.582   0.425 -0.0328  0.3916 -1.7893
21664SOL     OW67191   8.152   9.171   2.892  0.2899  0.0411  0.4457
21664SOL    HW167192   8.221   9.169   2.959  1.0705 -1.2548 -0.3365
21664SOL    HW267193   8.118   9.081   2.891 -1.2406  0.5888  0.6100
21665SOL     OW67194   7.026   0.412   5.291  0.4551 -0.3396  0.0769
21665SOL    HW167195   6.959   0.455   5.345  0.8602 -0.1137  0.4119
21665SOL    HW267196   7.105   0.417   5.345  1.5318  2.2175 -1.5529
21666SOL     OW67197   1.160   4.262   6.459 -0.0764  0.0036  0.2631
21666SOL    HW167198   1.212   4.193   6.419 -0.0014  0.2223 -0.0213
21666SOL    HW267199   1.222   4.309   6.516 -0.3257 -0.6881  1.1256
21667SOL     OW67200   7.685   1.037   0.925  0.0787 -0.2684  0.2817
21667SOL    HW167201   7.683   0.967   0.860  2.9455  1.3619 -1.7947
21667SOL    HW267202   7.774   1.034   0.960  0.1976  2.1206  0.3252
21668SOL     OW67203   6.857   2.402   3.225  0.0902 -0.0805  0.0984
21668SOL    HW167204   6.814   2.482   3.195 -0.6063 -0.9722 -1.4233
21668SOL    HW267205   6.785   2.342   3.244  0.6149 -0.6752  0.2453
21669SOL     OW67206   1.774   3.123   1.002 -0.2435 -0.1377 -0.0440
21669SOL    HW167207   1.774   3.037   1.044  0.0158 -0.0304  0.1762
21669SOL    HW267208   1.708   3.173   1.050 -1.0500 -0.4922 -0.7535
21670SOL     OW67209   6.481   4.915   5.588 -0.2071 -0.0884  0.0104
21670SOL    HW167210   6.451   4.927   5.678 -1.2344 -1.9116 -0.0388
21670SOL    HW267211   6.462   4.998   5.545 -0.4179  0.5413  1.2749
21671SOL     OW67212   5.182   5.149   0.149  0.2095  0.0800 -0.4765
21671SOL    HW167213   5.212   5.238   0.133 -0.4920  0.5056  0.4702
21671SOL    HW267214   5.209   5.100   0.071  3.3472  0.4046  0.2594
21672SOL     OW67215   5.894   2.001   0.244  1.2059  0.3854  0.2683
21672SOL    HW167216   5.969   2.045   0.205  0.5893  1.6318  0.4419
21672SOL    HW267217   5.819   2.059   0.225  0.2018 -1.0234 -0.2795
21673SOL     OW67218   0.024   7.667   4.349  0.0349  0.2229  0.0627
21673SOL    HW167219   0.045   7.759   4.331  1.3859 -0.0604  0.1029
21673SOL    HW267220  -0.059   7.671   4.397  0.5227  1.4892  0.8622
21674SOL     OW67221   1.398   5.956   5.425 -0.0760  0.1379  0.4520
21674SOL    HW167222   1.438   6.038   5.454  0.3033  0.5382 -1.1107
21674SOL    HW267223   1.443   5.888   5.476  2.4982  0.5829 -1.0556
21675SOL     OW67224   9.126   6.283   9.358  0.1366  0.3545 -0.2275
21675SOL    HW167225   9.219   6.266   9.366  0.1277  0.7643  0.9153
21675SOL    HW267226   9.120   6.378   9.347 -0.2593  0.7602  2.7481
21676SOL     OW67227   5.090   2.411   5.863  0.4915 -0.6128 -0.2087
21676SOL    HW167228   5.005   2.445   5.888  0.3256 -1.4305  0.3836
21676SOL    HW267229   5.138   2.487   5.830 -0.8324 -0.3429 -1.6060
21677SOL     OW67230   9.281   4.126   4.635  0.5259 -0.5708 -0.1750
21677SOL    HW167231   9.229   4.129   4.716 -0.4960  1.2902 -0.8208
21677SOL    HW267232   9.331   4.207   4.636 -0.3788  0.0676 -1.9128
21678SOL     OW67233   1.937   5.494   2.847 -0.0947  0.0566  0.0710
21678SOL    HW167234   1.977   5.421   2.800  0.4737  1.0829 -1.0763
21678SOL    HW267235   2.007   5.529   2.902 -0.8236 -1.3033  1.9737
21679SOL     OW67236   9.056   0.295   1.302 -0.1176 -0.1883 -0.0029
21679SOL    HW167237   9.143   0.308   1.265  0.1390  0.8326  0.9278
21679SOL    HW267238   8.997   0.332   1.237  0.2064  0.0308 -0.1732
21680SOL     OW67239   5.982   9.413   6.824 -0.2846 -0.4994  0.1870
21680SOL    HW167240   6.051   9.357   6.858  0.0635 -1.3111 -1.7470
21680SOL    HW267241   5.995   9.414   6.729  0.1098  3.3677  0.1203
21681SOL     OW67242   0.269   0.177   3.179  0.2369  0.6545  0.0301
21681SOL    HW167243   0.356   0.172   3.219 -0.0047 -0.9009  0.4073
21681SOL    HW267244   0.285   0.169   3.085  0.4228 -1.0331  0.1819
21682SOL     OW67245   1.324   8.373   7.117 -0.2964 -0.4151  0.1856
21682SOL    HW167246   1.337   8.365   7.211  1.6089  1.9839  0.2369
21682SOL    HW267247   1.234   8.403   7.107  0.7257  3.7881  1.7080
21683SOL     OW67248   3.950   7.570   3.948  0.0516 -0.1834 -0.1585
21683SOL    HW167249   3.874   7.601   3.899  0.0648  0.7847  0.3972
21683SOL    HW267250   3.999   7.650   3.968  0.5026 -0.6496  0.6482
21684SOL     OW67251   5.949   1.917   5.324 -0.1428  0.3910  0.1705
21684SOL    HW167252   5.905   1.851   5.271 -0.4124  1.2029 -0.6468
21684SOL    HW267253   5.892   1.994   5.319  2.0191  2.0211 -2.2068
21685SOL     OW67254   1.918   4.182   7.064  0.2766  0.2453 -0.3514
21685SOL    HW167255   1.985   4.114   7.069  1.9662  1.7735 -0.9005
21685SOL    HW267256   1.883   4.174   6.975 -1.4569 -1.5568  0.4337
21686SOL     OW67257   7.325   4.712   7.243 -0.1906 -0.0388  0.0523
21686SOL    HW167258   7.369   4.630   7.223  1.2484  0.7133 -0.0290
21686SOL    HW267259   7.321   4.759   7.160  0.4065  0.6124  0.3803
21687SOL     OW67260   8.204   2.955   6.946 -0.3024 -0.0150  0.5458
21687SOL    HW167261   8.150   3.030   6.923 -1.9977 -1.4559 -0.4959
21687SOL    HW267262   8.169   2.925   7.030  1.2305  1.0861  1.6158
21688SOL     OW67263   1.256   7.741   8.835  0.0804 -0.2297  0.3584
21688SOL    HW167264   1.336   7.755   8.785 -0.3650  0.5438 -0.1547
21688SOL    HW267265   1.234   7.649   8.821  1.2412 -0.6373  1.0643
21689SOL     OW67266   7.019   3.027   4.400  0.1224 -0.2374  0.1377
21689SOL    HW167267   6.930   3.031   4.433 -0.1517 -0.5281 -0.5497
21689SOL    HW267268   7.068   3.089   4.454 -0.9749  1.6379 -0.9250
21690SOL     OW67269   4.126   8.320   7.106  0.0942  0.2354 -0.4233
21690SOL    HW167270   4.140   8.227   7.122  0.5450  0.8446  3.6244
21690SOL    HW267271   4.196   8.344   7.045  0.6803 -1.8209 -0.6265
21691SOL     OW67272   6.443   7.224   9.216  0.9279  0.0581 -0.4870
21691SOL    HW167273   6.534   7.203   9.237  0.2905 -0.4313  2.1768
21691SOL    HW267274   6.393   7.188   9.289 -1.2307  2.1433 -0.8252
21692SOL     OW67275   5.751   0.622   3.403  0.3310  0.0864  0.5380
21692SOL    HW167276   5.819   0.671   3.449 -0.4264  2.4053 -0.6548
21692SOL    HW267277   5.684   0.605   3.469  0.7689  0.3450  1.0537
21693SOL     OW67278   1.227   9.164   0.202  0.9562  0.0273  0.3761
21693SOL    HW167279   1.166   9.196   0.268  2.3903  0.7443  1.4122
21693SOL    HW267280   1.201   9.208   0.121 -2.7310 -3.0941 -0.4001
21694SOL     OW67281   2.409   8.212   2.223  0.4368  0.0706  0.3736
21694SOL    HW167282   2.443   8.124   2.210 -0.9145 -0.3597 -0.4186
21694SOL    HW267283   2.427   8.258   2.141  0.7412  0.3949  0.6203
21695SOL     OW67284   5.633   4.391   0.798 -0.1074  0.0243  0.4702
21695SOL    HW167285   5.627   4.368   0.891  0.4090 -0.4932  0.3739
21695SOL    HW267286   5.557   4.448   0.783 -0.3955 -0.1830  1.1210
21696SOL     OW67287   4.054   2.151   8.142 -0.3810 -0.1018 -0.3668
21696SOL    HW167288   4.127   2.122   8.197 -1.5736  1.5004  2.2853
21696SOL    HW267289   4.069   2.245   8.132 -1.2065 -0.0503 -1.1956
21697SOL     OW67290   0.246   4.245   9.059  0.1513 -0.1755  0.7701
21697SOL    HW167291   0.180   4.227   8.991  1.6179  0.5828 -0.9220
21697SOL    HW267292   0.279   4.158   9.084 -1.2477 -0.5465  1.4510
21698SOL     OW67293   2.700   7.382   2.444 -0.2679  0.1091  0.0829
21698SOL    HW167294   2.726   7.291   2.432  0.0038  0.2284 -0.2514
21698SOL    HW267295   2.779   7.426   2.476 -0.3260  0.2792 -0.0064
21699SOL     OW67296   7.627   5.230   5.389  0.1999 -0.4847 -0.0219
21699SOL    HW167297   7.537   5.251   5.415  0.5947  0.2681  0.8005
21699SOL    HW267298   7.622   5.214   5.295 -0.6012  0.6984 -0.2064
21700SOL     OW67299   1.572   3.747   0.867 -0.2014  0.2493 -0.1919
21700SOL    HW167300   1.485   3.736   0.828 -0.0306  0.8425 -0.7648
21700SOL    HW267301   1.624   3.786   0.797  0.4273  0.2435  0.2702
21701SOL     OW67302   8.280   1.236   2.386  0.6077 -0.7695 -0.5748
21701SOL    HW167303   8.219   1.256   2.457  0.2632 -2.0693 -0.4804
21701SOL    HW267304   8.288   1.318   2.337  1.0232  0.2171  1.0754
21702SOL     OW67305   0.429   9.486   7.165 -0.5477 -0.5306 -0.0430
21702SOL    HW167306   0.361   9.494   7.098 -1.3535 -0.2552  0.7724
21702SOL    HW267307   0.380   9.467   7.246  0.0519  2.6594  1.1903
21703SOL     OW67308   4.353   1.732   0.321 -0.2394  0.1579  0.2439
21703SOL    HW167309   4.409   1.800   0.285 -4.4652  2.5811 -2.6148
21703SOL    HW267310   4.338   1.672   0.248 -2.2400  0.2845  0.5016
21704SOL     OW67311   7.394   8.122   7.937  0.0411 -0.1142  0.0806
21704SOL    HW167312   7.382   8.140   8.030 -0.4844 -0.6850  0.1302
21704SOL    HW267313   7.305   8.104   7.905  0.3902 -1.4837 -0.1886
21705SOL     OW67314   4.896   3.962   3.474  0.4048 -0.3842  0.0974
21705SOL    HW167315   4.870   3.870   3.465 -0.7364  0.0969 -2.7019
21705SOL    HW267316   4.919   3.989   3.385 -2.3041  2.8573  0.1919
21706SOL     OW67317   0.186   1.934   4.138 -0.4948  0.3228  0.1809
21706SOL    HW167318   0.260   1.958   4.194 -0.4289  0.1390  0.1736
21706SOL    HW267319   0.192   1.994   4.063 -0.9248  0.9621  0.6504
21707SOL     OW67320   6.599   9.497   7.415 -0.0441  0.3178 -0.7371
21707SOL    HW167321   6.590   9.458   7.502  1.4758  1.0834 -0.1977
21707SOL    HW267322   6.513   9.485   7.375 -0.7226 -0.2434  0.7831
21708SOL     OW67323   8.435   7.042   4.138 -0.0272 -0.6315  0.6124
21708SOL    HW167324   8.355   7.035   4.086 -1.2570 -1.3089  2.4849
21708SOL    HW267325   8.435   7.132   4.170 -0.1048 -0.6660  0.7096
21709SOL     OW67326   0.545   5.508   0.788  0.0050  0.3348  0.0348
21709SOL    HW167327   0.506   5.424   0.763 -1.2158  0.6930  0.6272
21709SOL    HW267328   0.614   5.486   0.849 -2.0368 -0.1522  2.3131
21710SOL     OW67329   6.311   2.074   6.245  0.1855  0.4875 -0.4336
21710SOL    HW167330   6.270   2.054   6.161 -2.0024 -0.1737  0.7106
21710SOL    HW267331   6.376   2.004   6.257  0.8313  0.8366 -1.7326
21711SOL     OW67332   9.288   6.051   2.657 -0.8159  0.1731 -0.5716
21711SOL    HW167333   9.277   6.146   2.659 -0.6578  0.1879 -0.4086
21711SOL    HW267334   9.258   6.026   2.569 -1.8384  0.2505 -0.2586
21712SOL     OW67335   0.318   9.451   2.871 -0.2269 -0.0407 -0.0991
21712SOL    HW167336   0.272   9.393   2.811  1.0543 -0.4187 -0.7452
21712SOL    HW267337   0.323   9.535   2.825 -0.0192 -0.0847 -0.1588
21713SOL     OW67338   9.496   3.279   4.059 -0.1699  0.4745 -0.2719
21713SOL    HW167339   9.445   3.260   3.980  0.0439 -1.3493 -0.0266
21713SOL    HW267340   9.572   3.328   4.028 -0.0512 -0.2854 -1.2334
21714SOL     OW67341   2.312   4.519   2.791  0.0005 -0.1569  0.3882
21714SOL    HW167342   2.387   4.576   2.774 -1.1184  0.9807 -0.9826
21714SOL    HW267343   2.256   4.569   2.850 -0.3404 -0.3937  0.2718
21715SOL     OW67344   0.870   9.175   0.211 -0.0550  0.0522  0.3767
21715SOL    HW167345   0.806   9.160   0.280 -1.2488  0.1123 -0.6756
21715SOL    HW267346   0.872   9.270   0.201  0.9088  0.1115  1.0333
21716SOL     OW67347   1.865   2.556   1.138  0.3679  0.3776 -0.3777
21716SOL    HW167348   1.846   2.572   1.046  1.9149 -2.8820 -1.4159
21716SOL    HW267349   1.783   2.575   1.184 -1.1140 -0.0053 -2.7187
21717SOL     OW67350   7.289   8.164   6.610 -0.1788 -0.1640 -0.1280
21717SOL    HW167351   7.288   8.083   6.662 -0.9556 -0.7857 -1.0722
21717SOL    HW267352   7.197   8.182   6.593 -0.0263  1.0847  0.2876
21718SOL     OW67353   2.601   4.496   3.332  0.0710  0.1255  0.2866
21718SOL    HW167354   2.583   4.445   3.411  0.3554  0.9351  0.8914
21718SOL    HW267355   2.692   4.524   3.341  0.1386  0.1380 -0.3783
21719SOL     OW67356   5.766   5.199   4.491  0.5335  0.1210 -0.9151
21719SOL    HW167357   5.797   5.282   4.453  0.0713  0.0830 -1.3818
21719SOL    HW267358   5.671   5.204   4.486  0.5127 -0.7155 -1.5475
21720SOL     OW67359   8.346   1.258   3.132 -0.1485 -0.0045  0.1336
21720SOL    HW167360   8.274   1.216   3.180  0.6417 -1.9661 -0.3370
21720SOL    HW267361   8.413   1.274   3.198  1.2468 -3.3859 -0.3090
21721SOL     OW67362   3.036   1.238   6.822 -0.0339 -0.0710  0.0181
21721SOL    HW167363   2.971   1.197   6.766 -1.7233 -0.2867  2.0070
21721SOL    HW267364   3.119   1.197   6.798 -0.8039 -0.6701 -1.7505
21722SOL     OW67365   1.156   8.056   8.196 -0.8393  0.1259 -0.0884
21722SOL    HW167366   1.065   8.028   8.190 -0.9414  0.1790  1.1041
21722SOL    HW267367   1.199   7.987   8.247 -0.6266  1.0319  0.9780
21723SOL     OW67368   9.268   6.687   4.469  0.1752 -0.1712  0.1765
21723SOL    HW167369   9.226   6.701   4.554 -0.4930 -0.2175 -0.1334
21723SOL    HW267370   9.201   6.641   4.417 -0.8158  2.8370 -1.5176
21724SOL     OW67371   3.990   1.583   1.137 -0.2487  0.6062  0.2565
21724SOL    HW167372   3.985   1.653   1.072 -1.0358 -0.5468 -0.9761
21724SOL    HW267373   3.902   1.545   1.137 -0.0916  0.1941  1.5871
21725SOL     OW67374   0.882   6.153   5.976  0.2334 -0.0700  0.1767
21725SOL    HW167375   0.868   6.206   5.898  1.7594  0.5198  0.2696
21725SOL    HW267376   0.810   6.090   5.975  1.2812 -1.4595 -2.8739
21726SOL     OW67377   6.875   7.623   7.051  0.2377  0.4486  0.0619
21726SOL    HW167378   6.966   7.618   7.079  0.2895  0.8383 -0.0311
21726SOL    HW267379   6.878   7.610   6.956 -0.1464 -3.2264  0.4053
21727SOL     OW67380   1.266   1.210   8.534 -0.0857 -0.4469  0.5815
21727SOL    HW167381   1.243   1.122   8.564 -0.7801 -0.3397  0.3819
21727SOL    HW267382   1.331   1.240   8.596 -1.0046 -0.4911  1.5972
21728SOL     OW67383   2.264   3.563   2.427 -0.5224 -0.7202 -0.2058
21728SOL    HW167384   2.263   3.631   2.495  2.8312 -1.1625  0.4640
21728SOL    HW267385   2.210   3.493   2.463  0.2344 -0.4724  1.5378
21729SOL     OW67386   3.964   8.829   7.655 -0.0716 -0.4243 -0.5268
21729SOL    HW167387   3.978   8.921   7.680 -1.1343 -0.3922  0.0108
21729SOL    HW267388   4.014   8.819   7.574 -0.5014  0.8424 -0.9817
21730SOL     OW67389   3.997   8.465   0.927  0.2754  0.4336 -0.8069
21730SOL    HW167390   4.042   8.479   1.010  0.5570  0.0690 -0.8941
21730SOL    HW267391   4.062   8.489   0.860 -0.0069  0.8893 -0.9184
21731SOL     OW67392   2.064   1.729   4.791  0.1740  0.5106  0.1199
21731SOL    HW167393   1.973   1.707   4.775  0.6513 -2.2759  0.7940
21731SOL    HW267394   2.061   1.798   4.857 -1.4364  1.3676 -0.8050
21732SOL     OW67395   6.059   9.029   6.608 -0.3738  0.0250 -0.2632
21732SOL    HW167396   6.102   9.017   6.524  0.7108 -0.3454  0.3222
21732SOL    HW267397   6.128   9.011   6.673 -0.9194  1.2746  0.6950
21733SOL     OW67398   9.012   8.300   6.239  0.3144 -0.7122  0.5458
21733SOL    HW167399   8.953   8.320   6.166  0.8654 -1.0130  0.0098
21733SOL    HW267400   9.005   8.376   6.297 -1.1111 -1.0398  0.8426
21734SOL     OW67401   9.222   2.465   8.200  0.0802  1.1598 -0.0501
21734SOL    HW167402   9.293   2.484   8.261  0.2982  1.5733 -0.4295
21734SOL    HW267403   9.223   2.369   8.192  0.2784  1.1264  0.3138
21735SOL     OW67404   4.614   5.721   1.124  0.3942  0.3095  0.1981
21735SOL    HW167405   4.574   5.770   1.052 -0.3652 -0.3910  0.1203
21735SOL    HW267406   4.605   5.777   1.201 -0.6123  0.2320  0.1446
21736SOL     OW67407   4.324   5.203   0.360  0.1433  0.3350 -0.2611
21736SOL    HW167408   4.229   5.215   0.361  0.3291  2.1189 -0.7600
21736SOL    HW267409   4.357   5.277   0.310  1.7257 -1.0100 -1.3299
21737SOL     OW67410   2.345   7.682   3.835 -0.1546  0.3550  0.2692
21737SOL    HW167411   2.304   7.732   3.906 -0.1018 -1.9326  2.0182
21737SOL    HW267412   2.350   7.592   3.868  3.0114 -0.1799 -1.2704
21738SOL     OW67413   3.891   1.117   7.580 -0.0283 -0.8282  0.1058
21738SOL    HW167414   3.896   1.091   7.672  1.2402 -2.5791 -0.4051
21738SOL    HW267415   3.982   1.136   7.556 -0.6189  1.9979 -0.1971
21739SOL     OW67416   2.913   2.673   1.092  0.0656  0.3341 -0.3138
21739SOL    HW167417   2.857   2.696   1.166  1.5126  2.2781  0.2776
21739SOL    HW267418   3.001   2.668   1.129  0.6436 -0.0600 -1.6598
21740SOL     OW67419   0.735   4.320   5.013  0.3622  0.2057  0.3982
21740SOL    HW167420   0.823   4.335   4.977  0.2731 -1.3702 -0.5926
21740SOL    HW267421   0.750   4.273   5.095  0.4535 -1.6117 -0.6093
21741SOL     OW67422   1.879   6.410   0.090  0.0404  0.5372 -0.6495
21741SOL    HW167423   1.844   6.360   0.016 -1.1025  0.8060 -0.2954
21741SOL    HW267424   1.865   6.353   0.166 -0.2622  0.9452 -0.4019
21742SOL     OW67425   5.843   6.630   4.233  0.3293 -0.3199 -0.2938
21742SOL    HW167426   5.891   6.630   4.150 -0.4187  0.8675 -0.7473
21742SOL    HW267427   5.770   6.690   4.219 -0.3403 -0.8029  0.9301
21743SOL     OW67428   0.498   6.746   7.502 -0.1811  0.1365 -0.1081
21743SOL    HW167429   0.473   6.777   7.590 -0.4556  0.3513 -0.2609
21743SOL    HW267430   0.524   6.655   7.516  0.9278  0.5069  0.3983
21744SOL     OW67431   2.638   0.224   7.129  0.2000  0.5900  0.1472
21744SOL    HW167432   2.547   0.229   7.102  0.7782  1.5287 -1.7800
21744SOL    HW267433   2.634   0.208   7.224 -1.9373 -1.2032 -0.1548
21745SOL     OW67434   3.974   0.377   9.265  0.6092 -0.3002  0.1846
21745SOL    HW167435   3.912   0.305   9.258  1.1494 -0.8373  0.8421
21745SOL    HW267436   3.955   0.417   9.350 -2.4680  2.9808 -1.7128
21746SOL     OW67437   1.630   5.907   1.056  0.3068 -0.6125  0.1505
21746SOL    HW167438   1.670   5.987   1.021 -0.0607 -1.1952 -1.7099
21746SOL    HW267439   1.566   5.882   0.990 -0.0584 -2.0920  1.0286
21747SOL     OW67440   6.074   6.953   4.357 -0.2839  0.0862  0.3181
21747SOL    HW167441   6.123   6.906   4.290 -0.9609 -0.9815  0.5362
21747SOL    HW267442   5.983   6.949   4.327 -0.5584 -0.1951  1.1589
21748SOL     OW67443   7.241   3.302   5.709 -0.1719  0.3548  0.0887
21748SOL    HW167444   7.234   3.369   5.640 -0.2739 -0.9900 -1.2743
21748SOL    HW267445   7.326   3.262   5.695 -0.7559 -0.8551 -0.1597
21749SOL     OW67446   0.298   7.545   4.051  0.2628  0.2336 -0.3599
21749SOL    HW167447   0.276   7.542   3.958 -0.1376  0.3749 -0.2713
21749SOL    HW267448   0.318   7.637   4.068 -0.6814  0.3965 -0.0799
21750SOL     OW67449   5.339   1.860   2.690 -0.4577 -0.1718  0.3724
21750SOL    HW167450   5.381   1.936   2.651  1.3289 -0.3337  1.8706
21750SOL    HW267451   5.271   1.835   2.627 -0.4051  2.0172 -0.6231
21751SOL     OW67452   2.767   9.548   7.335  0.0020 -0.2722  0.5066
21751SOL    HW167453   2.822   9.588   7.403 -2.7799  0.4020  2.5323
21751SOL    HW267454   2.734   9.622   7.284 -1.3649 -0.3552  1.2290
21752SOL     OW67455   3.430   5.675   1.484 -0.0385 -0.6694 -0.4539
21752SOL    HW167456   3.501   5.721   1.529 -2.3713  0.9436  1.8331
21752SOL    HW267457   3.409   5.601   1.540 -0.8046 -0.5419 -0.5599
21753SOL     OW67458   8.143   0.168   4.316  0.1027  0.2469 -0.0057
21753SOL    HW167459   8.157   0.237   4.381  2.7485 -0.2346  0.0212
21753SOL    HW267460   8.086   0.105   4.359  0.1494  0.9321  1.0857
21754SOL     OW67461   0.738   8.566   8.698 -0.0754 -0.0680  0.2364
21754SOL    HW167462   0.662   8.508   8.683 -0.1318  0.2797 -0.9396
21754SOL    HW267463   0.786   8.563   8.616 -0.2823  1.8588 -0.0058
21755SOL     OW67464   6.854   7.462   3.681 -0.4130 -0.0899  0.6305
21755SOL    HW167465   6.788   7.531   3.694 -2.2511 -1.3143 -1.5225
21755SOL    HW267466   6.869   7.428   3.769 -3.4182 -0.3363  1.1802
21756SOL     OW67467   4.870   7.920   1.550  0.4458  0.1755  0.2811
21756SOL    HW167468   4.791   7.866   1.558 -0.6703  0.9669 -3.4911
21756SOL    HW267469   4.837   8.010   1.550  1.5115  0.5730 -0.0099
21757SOL     OW67470   6.013   4.339   1.325  0.1983  0.3963  0.3366
21757SOL    HW167471   5.948   4.269   1.322  0.5063  0.1234  0.0550
21757SOL    HW267472   6.093   4.300   1.291  0.5206  0.7256  0.7105
21758SOL     OW67473   3.846   3.739   0.465  0.5293 -0.2881 -0.9437
21758SOL    HW167474   3.758   3.772   0.483  1.4179  1.5233  0.4890
21758SOL    HW267475   3.860   3.757   0.372 -0.3512  0.0653 -1.0147
21759SOL     OW67476   8.444   8.658   0.155  0.0812 -0.2724 -0.2434
21759SOL    HW167477   8.526   8.647   0.202 -0.5980 -1.8749  0.6548
21759SOL    HW267478   8.427   8.572   0.116 -1.3295 -0.0806 -0.1190
21760SOL     OW67479   6.273   4.244   7.975  0.5829 -0.1195 -0.2061
21760SOL    HW167480   6.238   4.332   7.984  1.7438  0.3061  0.2870
21760SOL    HW267481   6.215   4.202   7.911 -0.6691  0.6174  0.3884
21761SOL     OW67482   8.463   3.081   4.814  0.7087 -0.0711 -0.4905
21761SOL    HW167483   8.479   3.030   4.894 -1.2903 -0.5376 -0.3238
21761SOL    HW267484   8.496   3.025   4.744 -0.2701 -1.0742 -0.1978
21762SOL     OW67485   4.512   3.375   5.289 -0.1127  0.6073 -0.0445
21762SOL    HW167486   4.559   3.321   5.353 -0.1340 -0.0936 -0.6122
21762SOL    HW267487   4.576   3.390   5.219 -1.1021 -1.5336 -1.5086
21763SOL     OW67488   8.719   8.217   3.790 -0.2654  0.0192 -0.0985
21763SOL    HW167489   8.645   8.166   3.756 -1.3633  1.4060  0.1024
21763SOL    HW267490   8.789   8.204   3.726 -0.7681 -1.1048 -0.4392
21764SOL     OW67491   0.223   5.610   2.830 -0.5447  0.5412  0.0915
21764SOL    HW167492   0.304   5.559   2.836  0.6542  2.3874  0.5542
21764SOL    HW267493   0.193   5.618   2.920 -1.7031 -0.7777 -0.1511
21765SOL     OW67494   4.733   3.089   4.364 -0.2821  0.2675  0.3110
21765SOL    HW167495   4.731   2.997   4.389 -1.2229  0.4925  1.1463
21765SOL    HW267496   4.825   3.114   4.372 -0.0647 -0.5216  0.3636
21766SOL     OW67497   1.537   8.005   3.572  0.1078  0.2540  0.0914
21766SOL    HW167498   1.525   8.085   3.624 -0.2545 -0.3149  0.9154
21766SOL    HW267499   1.623   7.972   3.599 -0.8497 -1.0269  1.7674
21767SOL     OW67500   6.516   0.835   0.340 -0.1847 -0.5803 -0.1678
21767SOL    HW167501   6.452   0.876   0.397  0.0580 -0.8122  0.2821
21767SOL    HW267502   6.519   0.743   0.369 -0.0082 -0.6835 -0.5052
21768SOL     OW67503   5.234   6.242   9.417 -0.1343 -0.1180 -0.0550
21768SOL    HW167504   5.218   6.163   9.365  0.3644 -0.0522 -0.3120
21768SOL    HW267505   5.319   6.225   9.459  0.5015  0.7264 -0.9541
21769SOL     OW67506   6.258   5.436   1.324 -0.5257  0.0909  0.7303
21769SOL    HW167507   6.171   5.475   1.336 -0.2507  1.3850 -0.9593
21769SOL    HW267508   6.263   5.367   1.390 -3.2823 -0.7979  0.1539
21770SOL     OW67509   7.518   8.000   1.674  0.2251 -0.4630 -0.4275
21770SOL    HW167510   7.501   7.919   1.626  2.0019 -0.6143 -0.8712
21770SOL    HW267511   7.605   7.987   1.713 -0.4636  0.3039  1.4925
21771SOL     OW67512   5.139   8.832   8.092 -0.0006 -0.1305  0.5795
21771SOL    HW167513   5.203   8.798   8.029 -0.3600 -1.4057  0.8616
21771SOL    HW267514   5.057   8.836   8.042 -0.1720 -0.6378  0.8134
21772SOL     OW67515   6.526   4.490   8.065  0.1131 -0.2551 -0.0511
21772SOL    HW167516   6.592   4.430   8.100 -0.8579 -1.0571  0.4465
21772SOL    HW267517   6.509   4.457   7.977  0.3339 -0.0698 -0.1664
21773SOL     OW67518   4.956   5.949   2.296 -0.1489 -0.2465 -0.0764
21773SOL    HW167519   4.997   5.982   2.216 -1.6625  0.4647 -0.5973
21773SOL    HW267520   4.883   5.896   2.265 -2.2826  1.9964  0.7438
21774SOL     OW67521   1.870   2.414   9.459  0.1296 -0.1021 -0.3984
21774SOL    HW167522   1.898   2.356   9.388 -2.0132 -3.7682  1.4416
21774SOL    HW267523   1.936   2.401   9.528 -0.0397  0.0840 -0.1978
21775SOL     OW67524   1.781   7.879   3.147  0.2937 -0.1607 -0.5522
21775SOL    HW167525   1.766   7.960   3.097  1.4330  0.2999 -0.1840
21775SOL    HW267526   1.876   7.865   3.142  0.4085 -0.2396  1.2834
21776SOL     OW67527   2.870   9.408   4.927  0.4643 -0.0906  0.3199
21776SOL    HW167528   2.898   9.350   4.998 -0.9740  1.9598  2.7519
21776SOL    HW267529   2.897   9.495   4.956 -1.0764  0.9375 -1.1756
21777SOL     OW67530   8.118   8.234   7.290 -0.1078 -0.1792 -0.3415
21777SOL    HW167531   8.055   8.162   7.296  0.8516 -1.1550 -1.4803
21777SOL    HW267532   8.182   8.205   7.225  0.8300  1.3160 -0.1399
21778SOL     OW67533   8.548   4.426   4.773 -0.3043  0.6690  0.3053
21778SOL    HW167534   8.483   4.484   4.734 -0.3371  0.0139 -0.6332
21778SOL    HW267535   8.585   4.377   4.700  0.0088 -0.2158  1.0285
21779SOL     OW67536   2.573   3.819   4.697 -0.2624  0.0180 -0.6174
21779SOL    HW167537   2.509   3.884   4.726  1.4997  1.4764  0.1279
21779SOL    HW267538   2.647   3.870   4.664  1.0140 -1.6124 -0.4010
21780SOL     OW67539   0.843   6.130   9.521 -0.3326  0.3000 -0.1731
21780SOL    HW167540   0.803   6.050   9.486 -1.7997  0.2009  1.5616
21780SOL    HW267541   0.909   6.099   9.584 -1.0105  0.4167  0.6169
21781SOL     OW67542   6.987   1.115   0.830  0.6771 -0.2080  0.7201
21781SOL    HW167543   6.951   1.195   0.792 -0.4207 -1.0217 -0.0183
21781SOL    HW267544   7.079   1.115   0.805  0.6637  0.7817  0.6631
21782SOL     OW67545   3.220   9.415   0.371 -0.0091  0.7523 -0.0247
21782SOL    HW167546   3.253   9.379   0.289 -0.8520 -1.5882  0.6106
21782SOL    HW267547   3.125   9.414   0.362 -0.1112  0.6124  0.9343
21783SOL     OW67548   0.575   3.172   2.772 -0.6261 -0.7128 -0.4660
21783SOL    HW167549   0.501   3.152   2.829  0.4787 -1.0895  0.8949
21783SOL    HW267550   0.563   3.115   2.697 -1.3068 -1.3420  0.0982
21784SOL     OW67551   3.125   7.382   5.621  0.0213  0.4121  0.7147
21784SOL    HW167552   3.185   7.343   5.685  1.0569 -2.0859 -1.5493
21784SOL    HW267553   3.082   7.307   5.580 -0.5810  1.8596 -1.5088
21785SOL     OW67554   6.796   5.331   9.116  0.0098  0.3137 -0.1750
21785SOL    HW167555   6.861   5.333   9.186 -0.8395  0.6091  0.6296
21785SOL    HW267556   6.790   5.238   9.092 -1.8657 -0.3409  2.3110
21786SOL     OW67557   2.495   6.701   5.537 -0.5556  0.5315  0.3178
21786SOL    HW167558   2.412   6.746   5.524 -1.6244 -1.7864 -1.8476
21786SOL    HW267559   2.473   6.621   5.585 -0.3623 -1.7961 -3.0931
21787SOL     OW67560   7.627   3.584   7.759 -0.2778 -0.0255  0.2501
21787SOL    HW167561   7.549   3.531   7.741  0.7295 -1.4839 -0.0118
21787SOL    HW267562   7.640   3.575   7.854 -0.6014  0.5201  0.3572
21788SOL     OW67563   5.719   2.431   9.324  0.4857 -0.2696 -0.0241
21788SOL    HW167564   5.765   2.515   9.318  0.9646 -0.4405  1.0442
21788SOL    HW267565   5.627   2.455   9.332  0.5874  0.1413 -0.0375
21789SOL     OW67566   7.460   5.817   0.669  0.1569  0.3607  0.0579
21789SOL    HW167567   7.531   5.814   0.733 -0.5694  0.2821  0.8820
21789SOL    HW267568   7.488   5.759   0.598 -0.2926 -1.9325  1.6558
21790SOL     OW67569   2.023   2.433   9.118  0.3095  0.3236  0.3340
21790SOL    HW167570   2.066   2.518   9.126  1.4559 -0.2381  0.3237
21790SOL    HW267571   1.941   2.452   9.071 -0.7078  1.7933  2.4966
21791SOL     OW67572   9.110   4.041   3.694  0.1248 -0.1231 -0.0137
21791SOL    HW167573   9.089   3.969   3.753 -0.7484 -1.2118 -1.5724
21791SOL    HW267574   9.035   4.046   3.634 -0.1630  2.5533  0.4507
21792SOL     OW67575   5.597   0.601   8.896  0.3993  0.1978  0.3889
21792SOL    HW167576   5.592   0.683   8.847 -0.9668 -0.2863 -0.3241
21792SOL    HW267577   5.625   0.536   8.832 -2.1031 -0.5866 -0.0237
21793SOL     OW67578   3.517   6.981   2.600 -0.2681  0.1856  0.3222
21793SOL    HW167579   3.496   7.059   2.652  1.1036  0.2000  0.8919
21793SOL    HW267580   3.494   6.907   2.656 -1.1300  0.1579 -0.0409
21794SOL     OW67581   9.026   8.810   5.948 -0.2981 -0.2370  0.0794
21794SOL    HW167582   9.011   8.852   5.863 -0.9094  0.4686  0.5265
21794SOL    HW267583   9.105   8.853   5.981 -0.1978 -0.3427 -0.0203
21795SOL     OW67584   7.105   7.616   1.282 -0.1625 -0.6669  0.3332
21795SOL    HW167585   7.019   7.658   1.270  0.3565 -0.0595 -1.6978
21795SOL    HW267586   7.150   7.671   1.345 -0.2647  0.6903 -0.7292
21796SOL     OW67587   9.194   3.630   2.978  0.2274 -0.4706 -0.3983
21796SOL    HW167588   9.264   3.687   3.011  0.1485 -1.0430  0.7936
21796SOL    HW267589   9.115   3.662   3.022 -0.2651  0.0533 -1.5977
21797SOL     OW67590   5.812   5.607   8.727 -0.1357 -0.9612 -0.4659
21797SOL    HW167591   5.791   5.627   8.635 -1.7834  1.5187  0.3328
21797SOL    HW267592   5.760   5.529   8.746  0.1060 -1.4187 -1.6094
21798SOL     OW67593   4.779   8.673   0.285  0.1972 -0.0555 -0.1343
21798SOL    HW167594   4.785   8.721   0.203  0.9561 -1.9003 -1.2125
21798SOL    HW267595   4.705   8.613   0.272  0.9574 -1.0716  0.1040
21799SOL     OW67596   3.131   8.335   3.870 -0.0560 -0.1810  1.0273
21799SOL    HW167597   3.183   8.363   3.946  2.7084 -2.8050  0.3186
21799SOL    HW267598   3.181   8.364   3.795  0.0333 -2.0690  0.2955
21800SOL     OW67599   5.979   1.117   6.683 -0.2120 -0.2440  0.1929
21800SOL    HW167600   5.972   1.025   6.658  1.5683 -0.8075  1.5518
21800SOL    HW267601   6.072   1.137   6.675 -0.3379  0.9746  1.4182
21801SOL     OW67602   7.375   4.351   4.912  0.0198 -0.4088  0.1010
21801SOL    HW167603   7.428   4.361   4.992 -0.1347  0.8580  0.0685
21801SOL    HW267604   7.437   4.318   4.847  0.7909  1.0421  0.0651
21802SOL     OW67605   8.525   7.501   1.768 -0.3535 -0.6469  0.2679
21802SOL    HW167606   8.569   7.538   1.692  0.4430 -0.1340  0.9669
21802SOL    HW267607   8.511   7.409   1.744 -1.4380 -0.1709 -1.0673
21803SOL     OW67608   5.676   8.643   9.041 -0.2839 -0.2323  0.5486
21803SOL    HW167609   5.601   8.670   8.987  0.1366  0.7872  0.4488
21803SOL    HW267610   5.715   8.725   9.070  1.2699 -0.7245 -0.0496
21804SOL     OW67611   5.094   6.218   8.726  0.1814 -0.3069 -0.2394
21804SOL    HW167612   5.024   6.243   8.665  0.2523 -1.1389 -0.6766
21804SOL    HW267613   5.156   6.167   8.673  0.1123 -1.2742  0.5645
21805SOL     OW67614   6.017   5.440   9.481  0.1280  0.2831 -0.0637
21805SOL    HW167615   5.944   5.404   9.431 -1.6525  2.3289  0.9279
21805SOL    HW267616   5.981   5.458   9.568  2.2692 -0.1425  0.9966
21806SOL     OW67617   1.582   0.061   3.027  0.3025 -0.2379  0.1913
21806SOL    HW167618   1.637   0.053   2.949 -1.0664  0.1175 -0.8333
21806SOL    HW267619   1.517   0.127   3.004 -2.1218 -2.4117  0.4035
21807SOL     OW67620   0.556   9.014   9.496 -0.3972  0.0713 -0.2087
21807SOL    HW167621   0.508   9.074   9.554  0.3031  1.4613 -1.0121
21807SOL    HW267622   0.504   8.934   9.495 -1.1517  0.5203  1.2229
21808SOL     OW67623   8.495   1.035   1.732  0.0904 -0.1687  0.3785
21808SOL    HW167624   8.529   0.950   1.703 -0.6440 -0.3475  0.0227
21808SOL    HW267625   8.416   1.014   1.781 -1.7428  0.4234 -2.1255
21809SOL     OW67626   8.054   9.143   4.876  0.5858 -0.0382 -0.0259
21809SOL    HW167627   8.143   9.126   4.844  0.9646  0.2891  0.8143
21809SOL    HW267628   8.037   9.235   4.855 -0.3473 -0.6131 -1.9835
21810SOL     OW67629   4.902   0.763   0.194  0.6706  0.1783  0.3744
21810SOL    HW167630   4.960   0.696   0.229  0.8849 -0.1218 -0.5351
21810SOL    HW267631   4.934   0.780   0.106 -0.0040  0.7415  0.2227
21811SOL     OW67632   1.527   7.869   8.202 -0.2538  0.6500  0.2034
21811SOL    HW167633   1.442   7.868   8.158 -0.3554  0.3193  0.4057
21811SOL    HW267634   1.572   7.792   8.168 -1.1176 -0.8388  2.1965
21812SOL     OW67635   2.541   4.507   7.786 -0.6033 -0.6767 -0.5247
21812SOL    HW167636   2.477   4.457   7.836 -0.3423  0.3115  0.8520
21812SOL    HW267637   2.535   4.472   7.697 -0.8702 -2.7059  0.2379
21813SOL     OW67638   0.255   0.718   6.811 -0.0663  0.3180  0.7473
21813SOL    HW167639   0.176   0.739   6.762 -0.2498 -1.1337  0.3785
21813SOL    HW267640   0.291   0.803   6.837 -0.6550  1.0685 -0.8031
21814SOL     OW67641   0.912   2.179   1.044 -0.3634  0.0845 -0.4168
21814SOL    HW167642   0.960   2.152   0.966  1.1150  0.9550  0.1357
21814SOL    HW267643   0.968   2.150   1.117 -2.3843 -1.9977  0.4117
21815SOL     OW67644   6.620   4.174   7.770 -0.1109  0.1336 -0.2048
21815SOL    HW167645   6.617   4.095   7.716  0.5098 -0.8312  1.0976
21815SOL    HW267646   6.713   4.190   7.784  0.0587 -2.9856  4.9985
21816SOL     OW67647   3.807   7.885   5.591 -0.2293 -0.3017  0.4500
21816SOL    HW167648   3.756   7.903   5.670 -1.0345 -0.9532  0.0971
21816SOL    HW267649   3.883   7.836   5.623 -0.6443 -0.7245  0.8079
21817SOL     OW67650   0.632   1.624   4.681  0.4812  0.2812 -0.1017
21817SOL    HW167651   0.707   1.568   4.698  0.3613 -0.1075 -0.8192
21817SOL    HW267652   0.577   1.574   4.621 -0.4164  0.5131  0.5081
21818SOL     OW67653   9.317   9.020   2.963  0.4950 -0.1416  0.7230
21818SOL    HW167654   9.410   9.009   2.980  0.6256  0.4041  0.3870
21818SOL    HW267655   9.278   8.935   2.985  1.0622 -0.3621  0.8934
21819SOL     OW67656   8.675   2.974   8.315 -0.1390 -0.0958 -0.5239
21819SOL    HW167657   8.743   2.982   8.248  0.2139 -1.9625 -0.4443
21819SOL    HW267658   8.624   2.898   8.288 -1.0693  0.1789  0.4062
21820SOL     OW67659   6.306   7.343   3.759 -0.3761  0.0801 -0.2098
21820SOL    HW167660   6.284   7.257   3.795 -2.5157  0.1649 -1.1093
21820SOL    HW267661   6.348   7.324   3.675  1.0517 -0.0758  0.5179
21821SOL     OW67662   7.124   8.262   1.723  0.3680 -0.0463  0.0029
21821SOL    HW167663   7.150   8.170   1.723  0.7228  0.0008  2.1430
21821SOL    HW267664   7.193   8.306   1.673  0.4679 -0.8650 -0.6035
21822SOL     OW67665   2.638   0.271   1.003  0.0804 -0.2127  0.4279
21822SOL    HW167666   2.676   0.358   1.004  0.6958 -0.4565 -0.2856
21822SOL    HW267667   2.643   0.240   1.093 -0.7145  0.7186  0.8027
21823SOL     OW67668   5.048   1.021   8.795 -0.0171  0.1075  0.5306
21823SOL    HW167669   4.954   1.031   8.809 -0.4857 -1.7814 -0.8853
21823SOL    HW267670   5.063   0.927   8.792  2.2853  0.3096  2.6659
21824SOL     OW67671   3.897   5.152   1.225  0.7760  0.6569 -0.0365
21824SOL    HW167672   3.921   5.192   1.308  1.2948  1.4115 -0.5417
21824SOL    HW267673   3.965   5.181   1.164  1.6029 -1.5598 -0.2749
21825SOL     OW67674   2.077   3.122   1.697  0.0365  0.3677  0.5624
21825SOL    HW167675   2.055   3.113   1.790  0.0149 -0.8453  0.4445
21825SOL    HW267676   2.027   3.053   1.653 -0.1205  1.0619 -0.3914
21826SOL     OW67677   6.338   6.459   0.873 -0.1112  0.0698  0.4371
21826SOL    HW167678   6.372   6.380   0.831 -1.2280 -1.1610  1.7203
21826SOL    HW267679   6.262   6.484   0.820  0.5399  0.5899 -0.2605
21827SOL     OW67680   2.148   6.931   6.835  0.8756 -0.1105 -0.3212
21827SOL    HW167681   2.211   6.972   6.894  1.0792 -0.6760 -0.1351
21827SOL    HW267682   2.086   7.001   6.813  1.3117  0.3328 -0.1504
21828SOL     OW67683   2.511   9.453   8.242  0.2885  0.7151  0.0676
21828SOL    HW167684   2.492   9.534   8.195  0.3518  1.1831  0.8257
21828SOL    HW267685   2.454   9.387   8.202  1.0962  0.8454 -1.3661
21829SOL     OW67686   5.273   3.632   5.621  0.4681 -0.0389 -0.2292
21829SOL    HW167687   5.234   3.677   5.696 -0.3603  0.9807 -1.2270
21829SOL    HW267688   5.199   3.613   5.564  0.9630 -1.6937 -0.3593
21830SOL     OW67689   7.949   3.283   2.345 -0.6728  0.2609  0.1446
21830SOL    HW167690   7.940   3.272   2.251  0.0830 -0.0669  0.1056
21830SOL    HW267691   7.870   3.242   2.382 -0.8801  0.2300 -0.3275
21831SOL     OW67692   5.429   0.706   7.695 -0.0271 -0.1137  0.1965
21831SOL    HW167693   5.380   0.762   7.755 -0.2629 -0.2472  0.1283
21831SOL    HW267694   5.372   0.697   7.618  0.3414  0.1873 -0.1138
21832SOL     OW67695   5.057   6.984   7.557  0.3355 -0.6049 -0.2517
21832SOL    HW167696   4.976   6.959   7.513  0.8563 -0.6968 -1.1858
21832SOL    HW267697   5.071   6.915   7.621 -1.0301  0.1209  0.8920
21833SOL     OW67698   9.485   2.058   1.209 -0.0925 -0.4585  0.0931
21833SOL    HW167699   9.445   2.085   1.127  0.9493 -0.6451 -0.5060
21833SOL    HW267700   9.494   2.138   1.260  1.1129  0.0286 -0.8340
21834SOL     OW67701   6.412   7.673   3.723 -1.2716 -0.5649  0.0265
21834SOL    HW167702   6.430   7.765   3.746 -1.9608 -0.8852  1.9958
21834SOL    HW267703   6.317   7.665   3.727 -1.2581 -1.2410 -0.7343
21835SOL     OW67704   9.295   4.787   3.088 -0.2217 -0.1153  0.2117
21835SOL    HW167705   9.333   4.704   3.118  0.9535 -0.1024 -1.0873
21835SOL    HW267706   9.267   4.831   3.168  0.3090 -1.2083  1.0364
21836SOL     OW67707   4.802   3.514   2.865 -0.1114 -0.3412 -0.1011
21836SOL    HW167708   4.797   3.424   2.897  1.5166 -0.0500  1.0422
21836SOL    HW267709   4.765   3.567   2.935 -1.1009 -0.0780 -0.7867
21837SOL     OW67710   8.581   5.801   6.470 -0.1284 -0.2049  0.4362
21837SOL    HW167711   8.517   5.840   6.529  1.4656 -0.7751  2.6495
21837SOL    HW267712   8.538   5.721   6.439 -1.2659  0.4686  0.2164
21838SOL     OW67713   7.823   1.656   1.865 -0.1031  0.2450 -0.1751
21838SOL    HW167714   7.849   1.728   1.807 -0.2239 -0.2591 -0.8729
21838SOL    HW267715   7.905   1.622   1.899  0.1353 -0.7349 -1.6327
21839SOL     OW67716   6.627   5.815   2.745  0.0225 -0.2260  0.5457
21839SOL    HW167717   6.600   5.772   2.664 -1.5120  0.1842  0.8075
21839SOL    HW267718   6.602   5.907   2.733  0.2898 -0.0513  1.2681
21840SOL     OW67719   9.479   6.769   5.731 -0.4805 -0.2828  1.0246
21840SOL    HW167720   9.485   6.851   5.682  1.1872 -1.1079 -0.2718
21840SOL    HW267721   9.387   6.744   5.726 -0.9898  1.3938  1.3015
21841SOL     OW67722   7.686   4.557   6.916  0.2151 -0.0493 -0.0850
21841SOL    HW167723   7.690   4.568   6.821  1.4080 -0.3591 -0.0816
21841SOL    HW267724   7.701   4.645   6.951  1.5153 -0.2047 -0.1820
21842SOL     OW67725   6.210   0.559   8.324 -0.0504  0.2359  0.5176
21842SOL    HW167726   6.150   0.558   8.249 -0.4668  0.3329  0.8475
21842SOL    HW267727   6.193   0.477   8.370 -0.4513  0.5892  1.0173
21843SOL     OW67728   6.043   5.334   2.537 -0.0717  0.0389  0.3999
21843SOL    HW167729   5.968   5.391   2.517  0.2974  0.3788 -0.0340
21843SOL    HW267730   6.023   5.299   2.624 -0.1918  1.0226  0.7821
21844SOL     OW67731   6.754   4.192   5.241  0.0827  0.1274 -0.8278
21844SOL    HW167732   6.778   4.123   5.179 -0.5633  0.6637 -1.7091
21844SOL    HW267733   6.770   4.273   5.193 -1.9334  0.5334 -0.8883
21845SOL     OW67734   2.253   8.677   5.668 -0.4384 -0.4053  0.1409
21845SOL    HW167735   2.298   8.651   5.587 -0.5209  0.2858 -0.1381
21845SOL    HW267736   2.188   8.742   5.639 -0.9035 -0.6223  0.6820
21846SOL     OW67737   4.932   4.048   8.817  0.1602  0.5869  0.3819
21846SOL    HW167738   5.027   4.054   8.808  0.6621 -1.2751  3.2165
21846SOL    HW267739   4.912   4.102   8.894 -0.9260  0.0088  0.5191
21847SOL     OW67740   5.638   2.515   3.694  0.0621  0.0738 -0.0404
21847SOL    HW167741   5.718   2.546   3.737  0.7045 -2.8587  1.1129
21847SOL    HW267742   5.664   2.503   3.603  0.2773  1.1096 -0.1379
21848SOL     OW67743   7.528   6.823   4.729 -0.0732 -0.0288 -0.1098
21848SOL    HW167744   7.567   6.898   4.773 -0.3778  0.0664  0.0054
21848SOL    HW267745   7.585   6.806   4.654 -0.8393  1.2777 -1.0293
21849SOL     OW67746   9.137   2.178   3.680  0.3994  0.4380 -0.0304
21849SOL    HW167747   9.230   2.196   3.695  0.7258 -0.6631 -0.6317
21849SOL    HW267748   9.130   2.165   3.586 -0.3546  0.4290  0.0254
21850SOL     OW67749   4.797   4.551   8.852 -0.4951  0.1449  0.1610
21850SOL    HW167750   4.852   4.606   8.795 -0.1109  0.3756  0.7372
21850SOL    HW267751   4.795   4.599   8.935 -1.2981 -0.0353  0.2509
21851SOL     OW67752   4.665   0.366   7.568  0.3980 -0.4118  0.3359
21851SOL    HW167753   4.728   0.297   7.545  3.5706  2.1945  0.4864
21851SOL    HW267754   4.689   0.440   7.512 -1.3066  1.3450  1.7860
21852SOL     OW67755   1.685   3.487   8.777 -0.2080  0.0809  0.1222
21852SOL    HW167756   1.720   3.561   8.827  0.9054 -0.3442 -0.0106
21852SOL    HW267757   1.732   3.490   8.694  0.0794 -0.9636  0.2350
21853SOL     OW67758   2.225   5.123   8.801  0.0218  0.0267  0.1974
21853SOL    HW167759   2.211   5.210   8.840  1.1511  0.2328  0.1612
21853SOL    HW267760   2.161   5.118   8.730 -1.3299  0.0844  1.3546
21854SOL     OW67761   9.436   2.615   0.921 -0.1162 -0.5372  0.1034
21854SOL    HW167762   9.405   2.695   0.878  1.2285  0.0717  0.2053
21854SOL    HW267763   9.356   2.567   0.943 -0.9538  0.6991 -0.1057
21855SOL     OW67764   8.975   1.779   3.073  0.2747  0.0789 -0.2893
21855SOL    HW167765   8.906   1.713   3.081 -0.6788  1.0656 -0.2242
21855SOL    HW267766   9.056   1.730   3.091 -0.3399 -1.1918 -0.8230
21856SOL     OW67767   3.445   0.312   2.853  0.1566 -0.3068 -0.1865
21856SOL    HW167768   3.353   0.338   2.844  0.2364 -0.3710 -1.2953
21856SOL    HW267769   3.449   0.224   2.815  0.9848  0.3484 -1.6988
21857SOL     OW67770   8.065   7.158   2.685 -0.2357  0.3828 -0.1086
21857SOL    HW167771   8.091   7.070   2.710 -1.4213 -0.4616 -1.6585
21857SOL    HW267772   7.970   7.160   2.698 -0.2950  1.2494 -0.6045
21858SOL     OW67773   4.184   3.403   1.736 -0.8665  0.1093  0.3003
21858SOL    HW167774   4.156   3.483   1.692 -0.0319  0.2221 -0.0333
21858SOL    HW267775   4.116   3.339   1.714 -0.3260  0.0729 -1.4473
21859SOL     OW67776   2.360   2.684   4.184  0.7144  0.6206  0.2998
21859SOL    HW167777   2.305   2.750   4.141 -0.3220 -0.6107 -0.3373
21859SOL    HW267778   2.442   2.685   4.134  0.0419  0.1929 -0.8519
21860SOL     OW67779   5.360   0.889   0.464  0.1944  0.1393 -0.0352
21860SOL    HW167780   5.353   0.814   0.404  1.4502 -0.8584  1.0048
21860SOL    HW267781   5.272   0.902   0.498 -0.1870 -0.3724 -0.8135
21861SOL     OW67782   3.659   1.165   8.030  0.3584 -0.2125 -0.5577
21861SOL    HW167783   3.591   1.198   8.088  0.6348 -0.5704 -0.0195
21861SOL    HW267784   3.730   1.139   8.089  0.6762 -0.5095 -1.0636
21862SOL     OW67785   5.467   9.023   1.401  0.3637  0.0705 -0.1052
21862SOL    HW167786   5.383   8.988   1.431  0.2825 -0.5091 -0.9401
21862SOL    HW267787   5.524   9.020   1.477  0.0226 -0.8623  0.1261
21863SOL     OW67788   0.906   8.648   0.328  0.0174 -0.8240  0.3608
21863SOL    HW167789   0.999   8.639   0.351 -0.3191 -0.8684  1.7769
21863SOL    HW267790   0.881   8.562   0.295  0.4819 -0.8067 -0.0494
21864SOL     OW67791   0.645   7.441   7.044  0.3739  0.4961  0.0339
21864SOL    HW167792   0.738   7.464   7.050  0.6066 -0.5944  1.0706
21864SOL    HW267793   0.605   7.488   7.117  0.4306 -0.3894  0.6520
21865SOL     OW67794   4.640   5.162   8.006  0.5999 -0.8374 -0.1642
21865SOL    HW167795   4.656   5.069   7.993 -0.7056 -0.7139 -4.6755
21865SOL    HW267796   4.680   5.204   7.930 -2.1232  1.7534 -0.3691
21866SOL     OW67797   1.072   8.736   1.651  0.2024  0.1285  0.4400
21866SOL    HW167798   1.097   8.824   1.622 -1.2659 -0.0096 -1.4474
21866SOL    HW267799   1.012   8.705   1.583 -1.0126 -1.4932  2.1730
21867SOL     OW67800   7.854   3.724   4.852  0.2496  0.2732 -0.1334
21867SOL    HW167801   7.939   3.680   4.854 -0.4693 -1.1735  1.8282
21867SOL    HW267802   7.823   3.719   4.943 -0.7146  3.2688 -0.1767
21868SOL     OW67803   3.588   2.065   5.843  0.1760  0.3977 -0.0425
21868SOL    HW167804   3.554   2.128   5.906 -0.3406  1.1602 -1.0616
21868SOL    HW267805   3.606   1.986   5.895  1.0566  1.4342  1.2872
21869SOL     OW67806   9.319   4.451   6.804 -0.6598 -0.4230  0.2074
21869SOL    HW167807   9.259   4.524   6.792  0.5744  0.5942 -0.0958
21869SOL    HW267808   9.314   4.401   6.723  0.2581  0.7259 -0.5861
21870SOL     OW67809   9.557   5.490   4.012  0.1887  0.2573  0.6701
21870SOL    HW167810   9.491   5.525   4.072  0.3822  0.0226  1.0235
21870SOL    HW267811   9.599   5.419   4.061  1.1395  0.8202  0.7045
21871SOL     OW67812   9.464   6.990   8.841 -0.1414  0.3358  0.0977
21871SOL    HW167813   9.512   7.054   8.894 -0.6019  0.5424  0.2655
21871SOL    HW267814   9.433   7.039   8.765 -0.2695  0.2503  0.0945
21872SOL     OW67815   4.808   8.775   5.916 -0.1051 -0.4153  0.3160
21872SOL    HW167816   4.883   8.731   5.957 -0.3599  0.3159  1.6219
21872SOL    HW267817   4.846   8.824   5.843  0.5895 -0.5837  0.5527
21873SOL     OW67818   8.109   4.910   8.606 -0.2696 -0.2497  0.3238
21873SOL    HW167819   8.115   4.938   8.697  0.9766  0.9926 -0.0937
21873SOL    HW267820   8.039   4.964   8.570 -2.4702 -2.4621  1.0765
21874SOL     OW67821   7.661   3.146   0.313 -0.4250 -0.2777 -0.1601
21874SOL    HW167822   7.717   3.119   0.385 -0.7370  1.6348  0.8591
21874SOL    HW267823   7.595   3.202   0.353 -1.1291  0.1475 -1.8130
21875SOL     OW67824   7.343   2.190   6.094 -0.2191  0.1206  0.7201
21875SOL    HW167825   7.258   2.227   6.118 -0.9345 -0.3162 -0.9940
21875SOL    HW267826   7.397   2.265   6.073 -0.2361  0.3894  1.5971
21876SOL     OW67827   2.310   3.326   6.803 -0.0947  0.4371 -0.1019
21876SOL    HW167828   2.292   3.382   6.727  1.4722 -1.9811 -2.4519
21876SOL    HW267829   2.235   3.268   6.809 -1.1013  1.8094  1.5019
21877SOL     OW67830   6.822   5.922   6.764 -0.4098 -0.3392 -0.1030
21877SOL    HW167831   6.762   5.850   6.783  2.0657 -2.6495 -0.5297
21877SOL    HW267832   6.879   5.926   6.841 -2.5059  3.6135  1.5695
21878SOL     OW67833   9.278   0.655   3.199  0.3032 -0.2486  0.1814
21878SOL    HW167834   9.215   0.703   3.146 -0.4874 -0.8736  0.5369
21878SOL    HW267835   9.226   0.614   3.268  1.2151 -0.0937  0.9802
21879SOL     OW67836   2.317   6.410   0.782  0.3051  0.0875 -0.3180
21879SOL    HW167837   2.332   6.329   0.831  0.5864 -0.4899 -1.3250
21879SOL    HW267838   2.316   6.479   0.849 -0.8666 -0.8374  0.6596
21880SOL     OW67839   2.935   7.666   4.297  0.2732  0.1923 -0.0057
21880SOL    HW167840   2.935   7.748   4.347 -0.3590 -0.1555  0.5854
21880SOL    HW267841   3.018   7.624   4.320 -0.2796 -0.2505  1.2579
21881SOL     OW67842   9.204   1.035   8.285 -0.4437 -0.3704  0.4877
21881SOL    HW167843   9.244   1.063   8.202  0.6223 -1.2632  0.6791
21881SOL    HW267844   9.176   0.945   8.268 -0.6881 -0.3815  0.9404
21882SOL     OW67845   9.009   1.647   4.593 -0.1338  0.3180 -0.0856
21882SOL    HW167846   9.102   1.672   4.594 -0.0592  0.3667 -2.5962
21882SOL    HW267847   8.967   1.711   4.651  0.9498  2.4257 -1.4972
21883SOL     OW67848   2.902   5.823   0.659 -0.3441  0.2934 -0.0590
21883SOL    HW167849   2.835   5.776   0.709 -1.7165  1.1406 -1.0155
21883SOL    HW267850   2.957   5.865   0.725 -0.1089 -1.2653  0.7711
21884SOL     OW67851   3.710   6.837   1.298  0.0147  0.0684  0.1633
21884SOL    HW167852   3.754   6.756   1.271  0.7823  0.3045  0.6743
21884SOL    HW267853   3.746   6.905   1.241 -1.5165 -0.1154 -1.0949
21885SOL     OW67854   4.744   0.686   1.987  0.7687  0.0350  0.3009
21885SOL    HW167855   4.831   0.652   2.005  0.2468 -1.3597  0.3289
21885SOL    HW267856   4.710   0.629   1.918 -0.0984  0.5714  0.2772
21886SOL     OW67857   5.650   4.157   7.424  0.3043 -0.7597  0.5357
21886SOL    HW167858   5.735   4.197   7.410 -0.0698  0.4830  1.6382
21886SOL    HW267859   5.660   4.067   7.392  1.8816 -0.5042  0.2492
21887SOL     OW67860   3.289   9.433   6.295  0.0393  0.2734  0.1895
21887SOL    HW167861   3.313   9.491   6.223  1.6105  0.1869  0.6058
21887SOL    HW267862   3.262   9.492   6.365  4.8681  0.9767  1.8678
21888SOL     OW67863   4.557   5.799   1.853  0.6212 -0.0339  0.0745
21888SOL    HW167864   4.553   5.831   1.944  1.2430 -0.9180  0.4261
21888SOL    HW267865   4.489   5.732   1.849 -1.9234  2.4011 -1.1587
21889SOL     OW67866   3.087   1.087   0.667 -0.0065  0.1177 -0.4528
21889SOL    HW167867   2.999   1.048   0.675  0.6094 -1.1482  0.4574
21889SOL    HW267868   3.101   1.095   0.573 -0.4390 -1.2614 -0.6533
21890SOL     OW67869   0.885   5.943   0.637  0.0503 -0.1788 -0.1568
21890SOL    HW167870   0.870   6.019   0.694 -0.8888 -0.8787  0.5659
21890SOL    HW267871   0.804   5.891   0.645  1.0788 -1.7919  0.2266
21891SOL     OW67872   6.719   6.789   4.034  0.4311 -0.3843 -0.0559
21891SOL    HW167873   6.749   6.839   4.110 -1.1951  0.3616  0.1470
21891SOL    HW267874   6.631   6.760   4.059 -0.5308  0.6834 -2.0143
21892SOL     OW67875   3.278   8.494   2.678 -0.6483 -0.5970 -0.5640
21892SOL    HW167876   3.211   8.429   2.659 -0.3991 -1.1084  0.2370
21892SOL    HW267877   3.330   8.455   2.749 -0.1891  0.2608 -0.4088
21893SOL     OW67878   3.362   0.450   1.243 -0.0216 -0.6327  0.3269
21893SOL    HW167879   3.400   0.452   1.331  0.3703 -0.1384  0.1501
21893SOL    HW267880   3.431   0.413   1.188 -0.2654 -0.9404  0.2262
21894SOL     OW67881   0.827   5.020   1.143  0.0046 -0.2408  0.6823
21894SOL    HW167882   0.778   4.961   1.086  1.8831 -1.7229  0.4756
21894SOL    HW267883   0.913   4.979   1.150  1.9374  3.2175 -0.6130
21895SOL     OW67884   7.132   7.410   0.854 -0.1642 -0.4530 -0.3721
21895SOL    HW167885   7.098   7.499   0.858 -3.4008 -1.5658  0.0046
21895SOL    HW267886   7.202   7.408   0.918 -0.9123  1.4864  0.5823
21896SOL     OW67887   8.019   5.185   8.475 -0.0974 -0.0271 -0.4352
21896SOL    HW167888   7.963   5.244   8.424 -2.0637 -1.5394 -0.1063
21896SOL    HW267889   8.025   5.106   8.422 -0.7477 -0.9818  0.8525
21897SOL     OW67890   0.898   6.841   6.206 -0.3074  0.4700  0.0249
21897SOL    HW167891   0.880   6.748   6.189  0.0351  0.8452 -2.8040
21897SOL    HW267892   0.991   6.843   6.228 -0.2026  0.1765 -0.3693
21898SOL     OW67893   0.594   8.468   4.801 -0.1505  0.1228 -0.3050
21898SOL    HW167894   0.643   8.498   4.725 -1.4886  2.4013 -0.3356
21898SOL    HW267895   0.594   8.372   4.793  1.1628  0.2300 -2.2320
21899SOL     OW67896   0.096   6.769   1.634 -0.4344  0.1177 -0.2764
21899SOL    HW167897   0.046   6.735   1.560 -0.8348 -0.3232  0.1868
21899SOL    HW267898   0.041   6.752   1.710  0.9815 -1.6062  0.4345
21900SOL     OW67899   5.084   7.804   7.973 -0.5713  0.0985  0.0179
21900SOL    HW167900   5.075   7.788   7.879  0.8727  1.1839 -0.3353
21900SOL    HW267901   5.152   7.743   8.001 -0.6758  0.0992  0.2710
21901SOL     OW67902   9.410   2.536   9.508 -0.5806 -0.2181 -0.6643
21901SOL    HW167903   9.487   2.504   9.555 -0.4151 -1.5530 -1.7788
21901SOL    HW267904   9.338   2.522   9.570 -0.3178 -1.6663 -0.6345
21902SOL     OW67905   1.176   0.770   5.342 -0.3956  0.4186 -0.5372
21902SOL    HW167906   1.254   0.720   5.322 -0.0961  0.5803  0.1938
21902SOL    HW267907   1.143   0.732   5.424 -0.2520  1.3019 -0.0565
21903SOL     OW67908   6.199   8.986   5.343 -0.5696 -0.4231  0.1864
21903SOL    HW167909   6.124   8.954   5.394 -1.0567  0.0479 -0.2163
21903SOL    HW267910   6.181   8.959   5.253 -1.1823  1.2307 -0.2376
21904SOL     OW67911   7.642   5.909   7.096 -0.1329  0.2304 -0.4943
21904SOL    HW167912   7.647   5.994   7.139  0.5995  1.5709 -3.0008
21904SOL    HW267913   7.734   5.884   7.080 -0.2638 -1.7302  1.3321
21905SOL     OW67914   4.377   4.025   0.904  0.1438 -0.0312  0.0378
21905SOL    HW167915   4.296   4.069   0.931  0.3629  0.1172  0.4654
21905SOL    HW267916   4.441   4.050   0.970  0.5252 -0.2052 -0.2586
21906SOL     OW67917   7.289   3.003   6.139  0.2382  0.5950  0.5059
21906SOL    HW167918   7.261   2.939   6.204  0.2687  1.1517  1.0769
21906SOL    HW267919   7.241   2.979   6.060  2.0512 -1.6326 -0.0399
21907SOL     OW67920   8.017   2.407   4.473  0.5379  0.2802 -0.0940
21907SOL    HW167921   8.028   2.450   4.557 -0.7861 -1.5102  1.0523
21907SOL    HW267922   8.073   2.329   4.478  1.8866  1.0793 -1.6246
21908SOL     OW67923   5.186   9.560   3.552 -0.1466 -0.0507 -0.6131
21908SOL    HW167924   5.135   9.516   3.484 -1.8073  0.6469  0.1169
21908SOL    HW267925   5.131   9.555   3.630  1.7024 -0.8167  0.7082
21909SOL     OW67926   7.569   4.601   3.319  0.2452 -0.4364  0.2437
21909SOL    HW167927   7.518   4.614   3.399  2.3758 -1.3524  1.8607
21909SOL    HW267928   7.567   4.687   3.276 -0.1559  0.3800  1.7762
21910SOL     OW67929   0.902   5.262   3.112 -0.0290  0.4139  0.5602
21910SOL    HW167930   0.877   5.219   3.030 -3.2674  0.5351  1.3472
21910SOL    HW267931   0.951   5.339   3.084  0.2487 -0.3368 -1.1628
21911SOL     OW67932   8.444   8.457   9.058 -0.2272  0.2692  0.0374
21911SOL    HW167933   8.390   8.507   8.996 -4.1542 -1.0656  1.9919
21911SOL    HW267934   8.436   8.505   9.141  0.4291 -0.7615  0.7232
21912SOL     OW67935   0.800   2.964   0.006  0.0101 -0.3690 -0.0801
21912SOL    HW167936   0.805   2.983   0.099  1.7216  1.5840 -0.5109
21912SOL    HW267937   0.874   2.907  -0.011 -0.2222 -0.6141 -0.2854
21913SOL     OW67938   7.078   5.820   5.873 -0.0772  0.1191 -0.5990
21913SOL    HW167939   7.075   5.754   5.803 -0.5043 -0.3505 -0.1383
21913SOL    HW267940   7.120   5.896   5.832  0.5032 -0.4669 -1.1122
21914SOL     OW67941   6.051   5.130   2.040  0.2168  0.2652 -0.0300
21914SOL    HW167942   5.984   5.166   2.098 -1.2377 -0.4548 -1.1910
21914SOL    HW267943   6.102   5.072   2.095 -1.0929 -0.3488  0.5868
21915SOL     OW67944   0.451   0.406   2.902  0.4377 -0.2553  0.2944
21915SOL    HW167945   0.485   0.412   2.992  1.7840  2.2788 -0.2866
21915SOL    HW267946   0.493   0.328   2.866  2.6707  0.6230  0.8287
21916SOL     OW67947   2.950   0.925   1.140 -0.1693  0.3992  0.0899
21916SOL    HW167948   2.988   0.882   1.063  0.4161  0.7182  0.1979
21916SOL    HW267949   3.025   0.958   1.189 -0.5566  0.5090  0.6206
21917SOL     OW67950   6.902   3.925   6.951  0.1349 -0.0086  0.4505
21917SOL    HW167951   6.967   3.865   6.914 -0.9104 -1.0648  0.2895
21917SOL    HW267952   6.835   3.933   6.883 -0.0485  0.8638  0.7191
21918SOL     OW67953   5.494   3.974   9.480  0.4643  0.2203 -0.2643
21918SOL    HW167954   5.528   3.890   9.449 -0.3331  0.3317 -1.5274
21918SOL    HW267955   5.550   3.997   9.554  2.8839  0.2298 -2.0041
21919SOL     OW67956   8.871   4.376   0.129 -0.1266 -0.3732 -0.3725
21919SOL    HW167957   8.836   4.328   0.203 -1.2759  0.0787 -0.6121
21919SOL    HW267958   8.878   4.310   0.059  0.2149 -0.6207 -0.1128
21920SOL     OW67959   6.448   8.060   4.542 -0.0647 -0.1527 -0.3853
21920SOL    HW167960   6.391   8.001   4.591 -0.1084 -0.7060 -1.0874
21920SOL    HW267961   6.397   8.140   4.532  0.1880  0.2116  1.0131
21921SOL     OW67962   1.530   7.570   8.478  0.1735  0.2826  0.1325
21921SOL    HW167963   1.608   7.598   8.429  0.3275 -2.7929 -1.6263
21921SOL    HW267964   1.457   7.587   8.418 -0.0668 -0.2476  0.2725
21922SOL     OW67965   9.209   8.058   1.578 -0.6785  0.0842 -0.6732
21922SOL    HW167966   9.147   7.998   1.618 -0.3197 -0.9390 -1.6011
21922SOL    HW267967   9.278   8.069   1.644  0.1560 -1.9672 -1.1162
21923SOL     OW67968   3.239   7.002   0.027  0.5353  0.2544 -0.2752
21923SOL    HW167969   3.194   7.063   0.086 -1.1869 -0.5533 -0.6887
21923SOL    HW267970   3.310   6.965   0.080 -0.5491  0.0383  1.0990
21924SOL     OW67971   2.524   7.683   0.368  0.2027 -0.3093  0.3527
21924SOL    HW167972   2.505   7.682   0.274 -0.1002 -1.2774  0.4183
21924SOL    HW267973   2.459   7.625   0.407  0.5177 -0.1559  1.1268
21925SOL     OW67974   7.398   1.351   8.675  0.3392 -0.3185  0.0740
21925SOL    HW167975   7.379   1.342   8.582 -2.1935  1.4675  0.2991
21925SOL    HW267976   7.316   1.327   8.718  1.3809 -0.8676  1.8774
21926SOL     OW67977   0.428   6.801   1.831 -0.1139  0.1272 -0.0349
21926SOL    HW167978   0.496   6.785   1.897 -0.1190  2.7752  0.7147
21926SOL    HW267979   0.351   6.827   1.882 -0.4068  1.2751 -1.0216
21927SOL     OW67980   3.909   7.306   0.680 -0.2983 -0.2200 -0.5640
21927SOL    HW167981   3.899   7.303   0.585 -0.2302 -2.0552 -0.5572
21927SOL    HW267982   3.895   7.215   0.708 -2.4067  0.6162  1.4179
21928SOL     OW67983   1.132   9.078   6.635 -0.0204  0.3431 -0.1540
21928SOL    HW167984   1.042   9.049   6.618  0.5733 -0.8697 -1.4115
21928SOL    HW267985   1.123   9.148   6.700 -1.7669 -0.6525  0.7540
21929SOL     OW67986   2.479   5.454   7.253  0.2405  0.2560  0.5428
21929SOL    HW167987   2.542   5.492   7.192 -2.6688  0.3606 -2.6950
21929SOL    HW267988   2.523   5.377   7.287  2.2683  0.4964 -1.2840
21930SOL     OW67989   2.175   0.390   1.696 -0.1594 -0.0231 -0.1101
21930SOL    HW167990   2.259   0.431   1.719 -0.8084  1.1091  0.3120
21930SOL    HW267991   2.180   0.377   1.601 -0.3652  2.0970 -0.4485
21931SOL     OW67992   8.427   9.075   8.073  0.1822  0.4089  0.1672
21931SOL    HW167993   8.482   9.050   7.998 -0.2965  0.4985 -0.2168
21931SOL    HW267994   8.478   9.143   8.117  0.2430  0.7208 -0.3717
21932SOL     OW67995   3.322   2.515   2.624 -0.1311 -0.1632 -0.4251
21932SOL    HW167996   3.247   2.515   2.564 -0.5608 -1.6110  0.0558
21932SOL    HW267997   3.298   2.451   2.691  0.9475  0.3954  0.5206
21933SOL     OW67998   5.586   7.521   3.574  0.5835  0.2218 -0.0776
21933SOL    HW167999   5.524   7.591   3.551  1.0497  0.6335 -0.0797
21933SOL    HW268000   5.532   7.457   3.621 -0.4210 -0.6853 -2.3107
21934SOL     OW68001   7.251   6.321   6.934  0.1550  0.4801  0.0641
21934SOL    HW168002   7.191   6.293   7.004  1.4101  0.4419  1.1627
21934SOL    HW268003   7.237   6.257   6.864 -0.0941 -0.3513  0.8537
21935SOL     OW68004   0.963   3.176   0.957 -0.1015  0.2218  0.1529
21935SOL    HW168005   0.920   3.162   0.873  0.7350 -1.3189 -0.0510
21935SOL    HW268006   1.057   3.172   0.938  0.1060  0.3401  1.0784
21936SOL     OW68007   8.571   4.738   7.169 -0.2835  0.0629 -0.1123
21936SOL    HW168008   8.477   4.730   7.188 -0.3000 -0.6178 -0.4721
21936SOL    HW268009   8.602   4.648   7.163  0.3797  0.2882 -0.0913
21937SOL     OW68010   9.328   6.808   7.907  0.1963  0.3691 -0.1763
21937SOL    HW168011   9.330   6.903   7.913 -1.1836  0.3936  0.3467
21937SOL    HW268012   9.361   6.788   7.820 -0.6681  1.4116 -0.7608
21938SOL     OW68013   4.236   9.179   9.092 -0.0012  0.2247  0.4235
21938SOL    HW168014   4.295   9.223   9.030 -0.4944 -0.0683 -0.2688
21938SOL    HW268015   4.148   9.199   9.060 -0.2571 -0.1199  0.8995
21939SOL     OW68016   6.398   0.922   1.040 -0.7521  0.1384 -0.1481
21939SOL    HW168017   6.359   0.941   0.956 -1.1433  0.1596  0.0382
21939SOL    HW268018   6.462   0.853   1.022 -1.2974 -0.3190 -0.3502
21940SOL     OW68019   7.427   8.719   7.255  0.7568 -0.6348 -0.0121
21940SOL    HW168020   7.386   8.751   7.175 -0.2840 -1.0270  0.3526
21940SOL    HW268021   7.462   8.798   7.297 -2.4127  0.2729  1.2466
21941SOL     OW68022   7.788   7.828   1.604 -0.0623 -0.1431 -0.2313
21941SOL    HW168023   7.748   7.794   1.524  0.2021  1.1263 -0.9367
21941SOL    HW268024   7.861   7.769   1.622 -0.6126 -0.9035 -0.4642
21942SOL     OW68025   1.928   0.681   6.536 -0.0251  0.5072  0.1063
21942SOL    HW168026   1.932   0.654   6.444  0.1281  1.1987 -0.1009
21942SOL    HW268027   2.004   0.739   6.547  2.1879 -2.4199  1.6617
21943SOL     OW68028   7.188   7.227   2.358 -0.0548  0.2138 -0.2580
21943SOL    HW168029   7.128   7.285   2.313 -1.2862  0.2170  1.3094
21943SOL    HW268030   7.275   7.252   2.325 -0.8496  0.3354 -2.4151
21944SOL     OW68031   3.782   9.224   2.859  0.1516 -0.6129  0.1800
21944SOL    HW168032   3.799   9.212   2.765 -1.2942  2.5451 -0.6100
21944SOL    HW268033   3.860   9.188   2.902  0.4159 -3.0766 -2.0947
21945SOL     OW68034   7.427   1.330   7.547 -0.3589 -0.0122  0.5711
21945SOL    HW168035   7.506   1.359   7.594  0.1534 -0.5917  0.0847
21945SOL    HW268036   7.461   1.290   7.466 -1.0209 -1.9656  1.2004
21946SOL     OW68037   3.128   7.232   1.493  0.3651  0.0215  0.3164
21946SOL    HW168038   3.034   7.241   1.508  0.2832 -1.1838  0.6707
21946SOL    HW268039   3.160   7.322   1.484 -0.8558  0.4325 -0.0891
21947SOL     OW68040   6.703   5.967   0.349  0.5019 -0.0073 -0.2363
21947SOL    HW168041   6.642   5.960   0.276  1.0234 -0.5555 -0.6236
21947SOL    HW268042   6.651   5.944   0.426 -0.3245  1.5820 -0.2756
21948SOL     OW68043   7.070   5.728   0.416  0.2639  0.8089  0.4377
21948SOL    HW168044   7.124   5.648   0.409 -0.7528 -0.1191  2.3985
21948SOL    HW268045   7.036   5.726   0.506 -0.4899  3.0305  0.2555
21949SOL     OW68046   7.750   7.940   5.345  0.2479  0.1025  0.4295
21949SOL    HW168047   7.726   8.012   5.403  0.2825  1.3110 -0.9964
21949SOL    HW268048   7.818   7.892   5.392 -1.1553 -0.1960  2.2420
21950SOL     OW68049   7.597   6.826   5.613 -0.2613  0.6082 -0.3013
21950SOL    HW168050   7.638   6.841   5.528  0.5257  1.5753  0.2355
21950SOL    HW268051   7.546   6.906   5.629 -0.3670  0.4502  0.1595
21951SOL     OW68052   0.872   5.648   7.078 -0.6171  0.1484 -0.1113
21951SOL    HW168053   0.913   5.658   7.163  2.4083 -2.2325 -1.1254
21951SOL    HW268054   0.868   5.737   7.043  1.3834  0.7945  1.1275
21952SOL     OW68055   6.801   4.171   8.538  0.1084 -0.2579  0.4187
21952SOL    HW168056   6.859   4.098   8.517 -0.8128 -0.6642 -0.8593
21952SOL    HW268057   6.802   4.176   8.634  1.4765 -0.8591  0.4535
21953SOL     OW68058   6.454   8.914   4.268  0.4938 -0.3450 -0.1749
21953SOL    HW168059   6.387   8.914   4.337 -0.3864 -2.2890 -0.9546
21953SOL    HW268060   6.516   8.847   4.296  0.5778 -0.5554 -0.8567
21954SOL     OW68061   4.977   5.940   6.257 -0.0037  0.1472  0.2344
21954SOL    HW168062   5.072   5.954   6.252 -0.1028  0.9853  0.5437
21954SOL    HW268063   4.962   5.859   6.207  0.5381  1.4117 -2.0903
21955SOL     OW68064   7.475   0.290   1.979 -0.0697  0.1405 -0.3961
21955SOL    HW168065   7.557   0.316   1.936  0.9972 -1.9951  0.1785
21955SOL    HW268066   7.494   0.299   2.073 -0.9899  0.9395 -0.2781
21956SOL     OW68067   5.707   8.536   1.926 -0.6523 -0.6512  0.1641
21956SOL    HW168068   5.682   8.574   1.842 -1.1084  0.0766  0.6149
21956SOL    HW268069   5.739   8.448   1.904  0.8924  0.1331 -0.9711
21957SOL     OW68070   1.426   0.411   7.400 -0.3545  0.5734  0.1100
21957SOL    HW168071   1.398   0.336   7.347  0.9876  0.4895 -0.5303
21957SOL    HW268072   1.370   0.408   7.477 -0.2974 -1.1432  0.1308
21958SOL     OW68073   7.203   8.058   1.446  0.2919 -0.5150 -0.1960
21958SOL    HW168074   7.276   8.010   1.407 -0.2580 -1.4386 -0.1220
21958SOL    HW268075   7.205   8.034   1.538  1.1114  1.0494  0.2346
21959SOL     OW68076   0.238   1.903   0.788 -0.6200  0.7571  0.1638
21959SOL    HW168077   0.267   1.980   0.738  1.4169 -0.4558 -0.6615
21959SOL    HW268078   0.275   1.916   0.875  0.4422  0.3664 -0.2088
21960SOL     OW68079   8.028   4.617   8.890  0.3082 -0.4008  0.2494
21960SOL    HW168080   8.121   4.601   8.905  0.3232 -0.5657 -0.0139
21960SOL    HW268081   7.982   4.551   8.942  0.3635 -1.1334 -0.6008
21961SOL     OW68082   1.015   8.251   0.633  0.3482 -0.3669  0.1501
21961SOL    HW168083   1.053   8.200   0.705 -0.0425 -0.2463  0.4397
21961SOL    HW268084   1.016   8.341   0.664  0.1497 -0.3189  0.0180
21962SOL     OW68085   9.447   3.199   7.653 -0.6637 -0.1730 -0.6446
21962SOL    HW168086   9.431   3.155   7.736 -0.7344 -0.2366 -0.6924
21962SOL    HW268087   9.435   3.292   7.673 -0.1349 -0.1397 -0.4535
21963SOL     OW68088   2.279   2.308   7.532  0.6280 -0.2759  0.1205
21963SOL    HW168089   2.252   2.388   7.576  0.5564 -0.3592  0.2266
21963SOL    HW268090   2.204   2.249   7.538 -0.9798  1.0605 -3.5620
21964SOL     OW68091   6.387   6.265   1.528 -0.9061 -0.0825  0.2590
21964SOL    HW168092   6.303   6.260   1.572 -0.9079 -1.5005  0.1422
21964SOL    HW268093   6.383   6.345   1.476 -1.4543  0.8479  1.6715
21965SOL     OW68094   0.807   5.781   4.067  0.2353  0.0454  0.1534
21965SOL    HW168095   0.870   5.850   4.089 -1.7020  1.5179  1.5511
21965SOL    HW268096   0.723   5.827   4.061 -1.3418 -2.3017  2.1569
21966SOL     OW68097   2.117   7.113   8.522  0.2978 -0.1143  0.3932
21966SOL    HW168098   2.091   7.129   8.432 -1.1742 -1.6456  0.5017
21966SOL    HW268099   2.109   7.198   8.565 -0.9046  0.2208 -0.4581
21967SOL     OW68100   6.026   5.073   9.095 -0.1588  0.2179  0.2964
21967SOL    HW168101   6.050   5.085   9.186  0.8197  0.0912  0.0648
21967SOL    HW268102   6.108   5.080   9.047 -0.6335  0.1094 -0.5615
21968SOL     OW68103   7.137   2.644   7.228  0.0407  0.9778 -0.0777
21968SOL    HW168104   7.118   2.658   7.321 -1.8709  1.5311 -0.4850
21968SOL    HW268105   7.061   2.682   7.183  0.5538  0.0369 -1.8325
21969SOL     OW68106   2.839   8.848   5.379  0.0122  0.3883 -0.0945
21969SOL    HW168107   2.841   8.757   5.407  1.0113 -0.8569 -3.6246
21969SOL    HW268108   2.758   8.883   5.415  0.0918 -1.5656  2.1782
21970SOL     OW68109   3.880   4.612   8.484  0.1212  0.0193 -0.0533
21970SOL    HW168110   3.869   4.581   8.394 -1.4134  1.5234 -0.4458
21970SOL    HW268111   3.922   4.697   8.475 -2.8678  1.6921  0.3067
21971SOL     OW68112   7.119   5.347   5.067  0.3285 -0.0090 -0.3952
21971SOL    HW168113   7.171   5.415   5.023 -1.7092  1.3859 -0.7598
21971SOL    HW268114   7.029   5.365   5.041 -0.3501 -2.5736 -0.0717
21972SOL     OW68115   8.801   7.966   7.669 -0.2517 -0.2139  0.3246
21972SOL    HW168116   8.717   7.958   7.625 -0.8097 -0.7615  1.4397
21972SOL    HW268117   8.786   8.030   7.739  0.4426  0.1645  0.1458
21973SOL     OW68118   1.242   4.335   0.367  0.0887  0.1607  0.3496
21973SOL    HW168119   1.220   4.362   0.456  1.8474  0.8659  0.6188
21973SOL    HW268120   1.164   4.354   0.316 -1.4965 -1.5925  1.9593
21974SOL     OW68121   1.269   4.940   2.491 -0.6124 -0.2420  0.3971
21974SOL    HW168122   1.204   4.900   2.549 -1.1779  0.3572  0.1799
21974SOL    HW268123   1.349   4.889   2.507 -1.1122 -0.9431  0.7082
21975SOL     OW68124   2.358   0.751   6.264 -0.4795 -0.0281 -0.2736
21975SOL    HW168125   2.305   0.830   6.276  1.7767  1.2105  3.3183
21975SOL    HW268126   2.427   0.778   6.203 -1.4724 -0.3228 -1.5798
21976SOL     OW68127   9.243   4.327   3.226  0.3888  0.0120 -0.1000
21976SOL    HW168128   9.164   4.346   3.175  1.4142  0.8258 -1.4411
21976SOL    HW268129   9.247   4.231   3.230 -2.7696 -0.1845  3.4285
21977SOL     OW68130   4.141   7.583   2.899 -0.7834  0.1612  0.6003
21977SOL    HW168131   4.122   7.662   2.950  1.0586  0.9405  0.1668
21977SOL    HW268132   4.232   7.594   2.871 -0.7476 -1.7417 -0.1761
21978SOL     OW68133   8.642   0.607   7.084  0.2372 -0.0156 -0.0011
21978SOL    HW168134   8.735   0.587   7.095  0.4531  0.2867 -1.1543
21978SOL    HW268135   8.615   0.642   7.169  2.3187  4.2474 -0.7986
21979SOL     OW68136   2.912   3.107   8.518 -0.2913 -0.4029  0.2839
21979SOL    HW168137   2.834   3.051   8.509 -0.8485  0.5478 -1.3054
21979SOL    HW268138   2.978   3.050   8.558 -1.4305 -1.5962  0.5416
21980SOL     OW68139   3.045   1.130   9.257  0.2770 -0.5020  0.3155
21980SOL    HW168140   3.087   1.082   9.328  0.1218  0.6461  1.2082
21980SOL    HW268141   2.984   1.189   9.300 -1.2291 -1.1146 -0.8834
21981SOL     OW68142   7.934   8.159   3.102 -0.5610  0.2331  0.1218
21981SOL    HW168143   7.907   8.247   3.074 -0.7302  0.2200  0.2455
21981SOL    HW268144   7.876   8.139   3.175 -2.2635 -1.0241 -1.4785
21982SOL     OW68145   7.409   1.722   5.067 -0.4913 -0.0107 -0.0131
21982SOL    HW168146   7.411   1.746   4.974 -0.7672 -3.0256 -0.9064
21982SOL    HW268147   7.381   1.630   5.067  0.8281 -0.5239  2.9669
21983SOL     OW68148   4.407   2.350   7.059 -0.4853  0.2924 -0.0066
21983SOL    HW168149   4.431   2.388   6.974  1.5012 -2.3620 -0.7482
21983SOL    HW268150   4.491   2.334   7.103 -1.2037 -2.3261  0.5890
21984SOL     OW68151   4.641   3.729   1.935  0.4806 -0.3545  0.3734
21984SOL    HW168152   4.704   3.658   1.922  0.5663 -0.2695  0.3169
21984SOL    HW268153   4.557   3.692   1.912  0.7054 -0.0257 -1.0789
21985SOL     OW68154   6.573   8.166   4.826  0.0672  0.0822 -0.8868
21985SOL    HW168155   6.604   8.112   4.753 -0.6061 -0.1873 -0.9813
21985SOL    HW268156   6.648   8.171   4.885 -0.5233 -3.0015  0.3184
21986SOL     OW68157   6.417   0.483   4.014  0.3045  0.2321  0.3053
21986SOL    HW168158   6.452   0.395   3.998 -0.0102  0.1713 -0.0477
21986SOL    HW268159   6.334   0.468   4.059  1.1065  0.3959  1.9225
21987SOL     OW68160   7.870   2.038   5.511  0.6700 -0.1380  0.5553
21987SOL    HW168161   7.932   2.049   5.439 -0.5188  1.4076 -0.3012
21987SOL    HW268162   7.909   1.970   5.566  1.8594 -0.9992 -1.2607
21988SOL     OW68163   2.728   8.639   7.752 -0.0190  0.3638 -0.4835
21988SOL    HW168164   2.727   8.544   7.765 -1.4889  0.1360 -2.0049
21988SOL    HW268165   2.821   8.662   7.756  0.4545 -1.2843 -1.1268
21989SOL     OW68166   2.756   9.539   0.668 -0.3512  0.1142 -0.2258
21989SOL    HW168167   2.814   9.598   0.619 -1.4245 -0.8177 -2.7770
21989SOL    HW268168   2.674   9.587   0.676 -0.3710  0.0210  0.1861
21990SOL     OW68169   3.850   0.674   0.719  0.1389  0.1402  0.1924
21990SOL    HW168170   3.774   0.701   0.771 -0.7315 -1.1002 -0.3921
21990SOL    HW268171   3.925   0.693   0.776 -0.6833  0.2518  1.2838
21991SOL     OW68172   4.108   6.342   2.690  0.6501 -0.4859  0.2379
21991SOL    HW168173   4.091   6.401   2.616  1.4653 -1.7236 -0.9938
21991SOL    HW268174   4.168   6.390   2.746 -2.2454  1.6739  1.7184
21992SOL     OW68175   7.419   2.608   3.139  0.1462 -0.1117  0.5958
21992SOL    HW168176   7.335   2.591   3.181 -0.5728  0.0324 -0.7111
21992SOL    HW268177   7.444   2.695   3.169 -1.2032  0.7137 -0.5455
21993SOL     OW68178   5.847   6.690   1.791 -0.2449  0.4728 -0.3208
21993SOL    HW168179   5.854   6.704   1.697 -3.0482 -0.0938 -0.7026
21993SOL    HW268180   5.904   6.615   1.809  0.5892  0.8081 -1.4793
21994SOL     OW68181   1.413   1.446   0.882 -0.5799  0.0391 -0.2177
21994SOL    HW168182   1.393   1.356   0.906 -3.0967  0.8024  0.9506
21994SOL    HW268183   1.425   1.444   0.787 -1.6231 -1.3687 -0.3450
21995SOL     OW68184   5.384   7.686   0.425 -0.9679  0.6420  0.0779
21995SOL    HW168185   5.315   7.620   0.426  0.5646 -1.0327 -0.8144
21995SOL    HW268186   5.384   7.719   0.335  0.6396 -0.8032 -0.5077
21996SOL     OW68187   8.478   8.900   4.818 -0.1814 -0.3504 -0.2392
21996SOL    HW168188   8.469   8.855   4.735  0.7379 -1.4165  0.2097
21996SOL    HW268189   8.573   8.902   4.834 -0.2129  1.4622 -0.0766
21997SOL     OW68190   5.576   3.058   5.577 -0.5808  0.0363  0.0582
21997SOL    HW168191   5.570   2.968   5.544 -1.4970  0.0901  0.0361
21997SOL    HW268192   5.621   3.106   5.508  1.3545 -0.7077  0.7453
21998SOL     OW68193   2.295   6.500   7.823  0.5729 -0.0004 -0.0977
21998SOL    HW168194   2.239   6.564   7.867  1.9553  0.3362  1.3079
21998SOL    HW268195   2.276   6.510   7.730  0.3452  2.0959  0.1280
21999SOL     OW68196   4.147   4.421   5.914 -0.4642  0.1759  0.0930
21999SOL    HW168197   4.087   4.346   5.909 -0.4103  0.1147  0.3913
21999SOL    HW268198   4.167   4.430   6.007  0.7758 -0.4360 -0.0858
22000SOL     OW68199   9.138   7.374   1.595  0.0648 -1.1549  0.3041
22000SOL    HW168200   9.079   7.329   1.535  0.7405 -1.3467 -0.2339
22000SOL    HW268201   9.220   7.382   1.546  0.1667  0.0509  0.6529
22001SOL     OW68202   8.476   5.207   9.560 -0.0358 -0.7637 -0.0656
22001SOL    HW168203   8.534   5.131   9.550 -0.1126 -1.0353  1.3385
22001SOL    HW268204   8.531   5.273   9.604  0.4862  0.5844 -2.5375
22002SOL     OW68205   8.033   5.507   5.478 -0.3983  0.0437 -0.2758
22002SOL    HW168206   7.961   5.521   5.416  0.1795 -0.3460 -1.0597
22002SOL    HW268207   8.073   5.594   5.488 -1.0210  0.2797  0.2332
22003SOL     OW68208   1.424   0.214   3.683 -0.4637 -0.5417  0.0926
22003SOL    HW168209   1.414   0.275   3.756 -2.8776 -0.0965 -0.5414
22003SOL    HW268210   1.503   0.164   3.704  0.8422  1.8594  1.3050
22004SOL     OW68211   3.703   4.013   0.420 -0.3990  0.1440 -0.3953
22004SOL    HW168212   3.688   4.020   0.515  1.4573 -1.0754  0.0441
22004SOL    HW268213   3.723   4.102   0.392  0.8912  0.2559  0.7587
22005SOL     OW68214   7.685   8.856   2.707  0.3536 -0.4435  0.7568
22005SOL    HW168215   7.685   8.909   2.787 -2.7396 -0.5149  0.9243
22005SOL    HW268216   7.695   8.766   2.739  0.7368 -0.3448  0.9180
22006SOL     OW68217   2.893   1.721   2.736 -0.1175 -0.5750  0.0301
22006SOL    HW168218   2.879   1.627   2.727 -0.4645 -0.5294  0.0791
22006SOL    HW268219   2.910   1.752   2.647  2.3964 -1.0444  0.2577
22007SOL     OW68220   3.536   4.910   6.829  0.3663  0.2951  0.3167
22007SOL    HW168221   3.494   4.826   6.851  1.4621 -0.6928 -1.1656
22007SOL    HW268222   3.511   4.926   6.739  1.3268  0.8301  0.1372
22008SOL     OW68223   5.070   1.736   5.827  0.1638 -0.3212  0.1184
22008SOL    HW168224   5.012   1.806   5.795 -0.0093 -0.6748 -0.3458
22008SOL    HW268225   5.011   1.663   5.846  0.6007 -1.2130 -1.8169
22009SOL     OW68226   0.598   9.307   7.579 -0.0173 -0.3533 -0.1524
22009SOL    HW168227   0.639   9.289   7.495 -0.7225 -0.4549 -0.4830
22009SOL    HW268228   0.549   9.388   7.565  1.9505  1.1078  0.9130
22010SOL     OW68229   8.569   7.806   0.319  0.2946 -0.2263 -0.1829
22010SOL    HW168230   8.555   7.891   0.279 -1.1733  0.8283  2.2986
22010SOL    HW268231   8.485   7.761   0.311  0.0129 -0.0632  1.3638
22011SOL     OW68232   9.339   4.376   4.131  0.1562  0.1548  0.1938
22011SOL    HW168233   9.412   4.418   4.085 -0.9446 -0.0609 -1.8748
22011SOL    HW268234   9.273   4.445   4.138 -0.0265 -0.0672  0.6603
22012SOL     OW68235   6.860   7.917   7.275  0.2473 -0.1856  0.2343
22012SOL    HW168236   6.823   7.838   7.236 -0.9382 -0.4950  1.8952
22012SOL    HW268237   6.947   7.890   7.306  1.0033 -0.0609 -1.6566
22013SOL     OW68238   2.444   3.246   2.896  0.2872  0.5732 -0.2702
22013SOL    HW168239   2.539   3.237   2.894  0.1351 -1.0005 -1.3243
22013SOL    HW268240   2.418   3.206   2.980  0.4024 -0.8511 -0.8895
22014SOL     OW68241   1.464   7.360   1.545 -0.8514 -0.2488 -0.6748
22014SOL    HW168242   1.437   7.451   1.541 -0.4610 -0.0973  0.0505
22014SOL    HW268243   1.520   7.354   1.622  0.7981 -0.6473 -1.8490
22015SOL     OW68244   4.456   3.527   3.651 -0.3753  0.2792 -0.5532
22015SOL    HW168245   4.458   3.495   3.741  0.6236  2.7874  0.3947
22015SOL    HW268246   4.363   3.527   3.628 -0.8548  1.2992  1.1743
22016SOL     OW68247   8.182   7.331   2.849 -0.4624 -0.8937 -0.6888
22016SOL    HW168248   8.178   7.287   2.934  0.9634 -1.3924 -0.8603
22016SOL    HW268249   8.140   7.271   2.789 -0.6740 -0.9365 -0.5006
22017SOL     OW68250   8.907   1.341   1.986  0.9210 -0.5839  0.4696
22017SOL    HW168251   8.972   1.299   1.929 -0.2927 -0.6814 -0.8784
22017SOL    HW268252   8.960   1.394   2.046  2.2313  0.5666 -1.5667
22018SOL     OW68253   8.502   1.182   6.107  0.1669 -0.5708  0.3992
22018SOL    HW168254   8.415   1.210   6.076 -0.4127 -1.8487  0.8052
22018SOL    HW268255   8.489   1.092   6.136  1.3936 -0.4152  1.4981
22019SOL     OW68256   2.524   2.242   3.352  0.6260  0.5501  0.0836
22019SOL    HW168257   2.607   2.202   3.326  0.0986  0.1041 -0.9978
22019SOL    HW268258   2.459   2.204   3.292 -0.6039 -0.1685  1.7762
22020SOL     OW68259   2.971   0.723   2.860  0.0088 -0.3316 -0.0687
22020SOL    HW168260   3.002   0.676   2.782  0.4916  1.6176 -1.1065
22020SOL    HW268261   2.995   0.666   2.933  0.8350 -1.5510 -1.2383
22021SOL     OW68262   4.401   6.935   8.847 -0.3265  0.3700 -0.2291
22021SOL    HW168263   4.442   6.978   8.772 -1.3561  0.2622 -0.8687
22021SOL    HW268264   4.385   7.006   8.910  0.9085  0.4002  0.0960
22022SOL     OW68265   1.601   3.052   3.242 -0.1683 -0.1393  0.1070
22022SOL    HW168266   1.578   3.139   3.207  0.0533  0.6514  1.8123
22022SOL    HW268267   1.612   2.997   3.165  1.0046  1.6797 -1.0997
22023SOL     OW68268   4.626   0.957   1.400 -0.0910 -0.1663  0.4010
22023SOL    HW168269   4.573   1.000   1.468 -1.2643  1.8368 -1.6295
22023SOL    HW268270   4.567   0.893   1.361 -1.2085  2.1080 -1.9036
22024SOL     OW68271   8.707   3.702   0.830  0.3793  0.0387  0.1918
22024SOL    HW168272   8.676   3.757   0.758  2.7597  3.9458  1.7912
22024SOL    HW268273   8.678   3.749   0.909  2.2988 -1.1957  1.7193
22025SOL     OW68274   7.249   8.075   7.326 -0.2964 -0.0998 -0.1994
22025SOL    HW168275   7.239   8.018   7.250 -1.1057 -0.6985  0.3456
22025SOL    HW268276   7.318   8.137   7.300 -0.4426 -0.3952 -1.3502
22026SOL     OW68277   8.152   3.530   1.887 -0.3779 -0.8121 -0.3247
22026SOL    HW168278   8.230   3.485   1.919  0.0485 -0.1449 -0.4032
22026SOL    HW268279   8.079   3.478   1.920  0.0698 -0.7383  0.8321
22027SOL     OW68280   5.852   7.949   9.004  0.1015  1.2013 -0.3351
22027SOL    HW168281   5.927   8.009   9.015 -0.1462  1.3342  0.7803
22027SOL    HW268282   5.805   7.984   8.929  1.2155  1.0529 -1.1304
22028SOL     OW68283   4.635   9.100   1.844 -0.0182 -0.0519  0.0646
22028SOL    HW168284   4.557   9.156   1.843 -0.3787 -0.5246  1.1489
22028SOL    HW268285   4.638   9.063   1.755 -0.8025  0.2747 -0.1097
22029SOL     OW68286   4.663   9.164   1.379  0.5207  0.1124 -0.2061
22029SOL    HW168287   4.639   9.219   1.304  2.5866 -0.8666 -1.6563
22029SOL    HW268288   4.664   9.075   1.344  2.2002 -0.2867  0.7930
22030SOL     OW68289   5.306   4.556   2.721 -0.1642 -0.7628  0.0803
22030SOL    HW168290   5.330   4.643   2.753 -0.7352 -0.3999 -0.4312
22030SOL    HW268291   5.212   4.548   2.740  0.0346 -1.5788  0.7927
22031SOL     OW68292   0.314   3.769   7.051  0.3355 -0.2201 -0.3987
22031SOL    HW168293   0.239   3.801   7.100  0.8148 -1.8660  1.5757
22031SOL    HW268294   0.353   3.847   7.011 -1.1672  0.9391  0.3205
22032SOL     OW68295   1.408   6.160   9.334 -0.8051  0.3302 -0.0228
22032SOL    HW168296   1.319   6.127   9.322 -0.2385 -0.7592 -1.5206
22032SOL    HW268297   1.464   6.085   9.314  0.4630  1.1621  0.3269
22033SOL     OW68298   2.180   4.410   6.898  0.0886 -0.1730 -0.6410
22033SOL    HW168299   2.216   4.335   6.945 -1.1657  0.0326  0.7599
22033SOL    HW268300   2.254   4.469   6.886  1.2026 -1.7846 -2.1996
22034SOL     OW68301   4.644   5.358   3.652  0.3593 -0.2829  0.1765
22034SOL    HW168302   4.625   5.450   3.634 -0.3179 -0.0172  2.0342
22034SOL    HW268303   4.619   5.346   3.743 -1.0591 -2.7323 -0.4686
22035SOL     OW68304   6.362   0.901   5.841 -0.4741 -0.3984 -0.0683
22035SOL    HW168305   6.405   0.817   5.861  0.4858 -0.0578 -0.6123
22035SOL    HW268306   6.339   0.894   5.749 -0.8931 -0.2744  0.0272
22036SOL     OW68307   0.332   2.999   7.590  0.0715  0.3254  0.7577
22036SOL    HW168308   0.381   2.916   7.593  0.6224  0.6585  1.2233
22036SOL    HW268309   0.319   3.015   7.496 -0.2352 -0.3979  0.6694
22037SOL     OW68310   6.840   4.605   0.614  0.3385 -0.3643  0.7788
22037SOL    HW168311   6.844   4.556   0.696 -0.8975 -1.4928  0.2032
22037SOL    HW268312   6.892   4.553   0.553  0.0813 -0.2756  0.4833
22038SOL     OW68313   4.955   5.915   4.889  0.2828 -0.5345 -0.7345
22038SOL    HW168314   4.874   5.897   4.841  0.5550 -0.5033 -1.2060
22038SOL    HW268315   4.954   5.852   4.961 -0.8557  0.3865  0.1054
22039SOL     OW68316   4.947   6.271   1.255  0.5790 -0.8098 -0.0933
22039SOL    HW168317   4.959   6.196   1.198  1.0102  0.2218 -1.4109
22039SOL    HW268318   5.034   6.311   1.260  0.3100 -0.2758  0.4125
22040SOL     OW68319   6.630   2.347   6.625 -0.1665  0.1413  0.1870
22040SOL    HW168320   6.563   2.409   6.597 -1.9018 -1.0944  1.3871
22040SOL    HW268321   6.618   2.271   6.569  1.3830  0.5055 -0.7041
22041SOL     OW68322   3.209   4.030   5.480 -0.2813  0.6711 -0.5713
22041SOL    HW168323   3.138   3.977   5.444 -0.0855 -0.0822  0.1364
22041SOL    HW268324   3.165   4.097   5.532 -0.5034  0.8237 -0.9515
22042SOL     OW68325   0.516   1.220   0.893 -0.2784 -0.1975 -0.2597
22042SOL    HW168326   0.573   1.202   0.968  1.4981 -1.4920 -1.8406
22042SOL    HW268327   0.574   1.256   0.827 -1.8112  0.8789 -1.0706
22043SOL     OW68328   3.241   4.750   2.000 -0.3263 -0.1274 -0.0917
22043SOL    HW168329   3.195   4.754   2.084 -1.6969  2.0404 -0.8686
22043SOL    HW268330   3.188   4.691   1.946  0.8061 -1.8992  0.6188
22044SOL     OW68331   0.451   8.046   2.901  0.7753  0.4714  0.0866
22044SOL    HW168332   0.379   7.990   2.930 -0.0552  1.4524 -0.0144
22044SOL    HW268333   0.418   8.086   2.820  1.0178  1.7203  0.5808
22045SOL     OW68334   1.428   5.856   6.963 -0.4334  0.7009 -0.6292
22045SOL    HW168335   1.367   5.800   7.011 -1.8822  2.0787 -0.7722
22045SOL    HW268336   1.493   5.796   6.928  0.1003 -0.4902  2.1644
22046SOL     OW68337   5.845   4.236   6.045 -0.9268  0.1572 -0.2385
22046SOL    HW168338   5.791   4.158   6.029 -0.2904 -0.6179  1.2188
22046SOL    HW268339   5.784   4.298   6.086 -1.2141  0.0668 -0.5247
22047SOL     OW68340   3.136   7.866   7.416  0.5345  0.0298 -0.3734
22047SOL    HW168341   3.077   7.817   7.358  2.9694  0.2146 -3.2175
22047SOL    HW268342   3.223   7.845   7.384  1.9324  1.9255  1.9072
22048SOL     OW68343   0.530   5.680   1.173 -0.1872 -0.5136  0.3217
22048SOL    HW168344   0.600   5.732   1.213 -0.5262 -0.0105  0.2875
22048SOL    HW268345   0.459   5.684   1.238  0.5049 -2.7253  1.2892
22049SOL     OW68346   6.555   3.812   3.244 -0.2297  0.0286 -0.2746
22049SOL    HW168347   6.537   3.826   3.337  1.3309  0.6545 -0.0339
22049SOL    HW268348   6.609   3.887   3.219 -1.4471  0.4027 -1.9519
22050SOL     OW68349   6.728   8.805   2.071 -0.3216  0.1649 -0.0816
22050SOL    HW168350   6.666   8.774   2.004 -0.4480 -0.8245  0.4707
22050SOL    HW268351   6.798   8.739   2.070 -0.6645 -0.2511  1.2324
22051SOL     OW68352   9.213   1.111   3.871  0.4084  0.6078 -0.0151
22051SOL    HW168353   9.134   1.156   3.899  0.4026  0.0043  0.9814
22051SOL    HW268354   9.282   1.144   3.930  0.5130 -0.2574  0.3570
22052SOL     OW68355   4.477   1.577   8.767 -0.2384 -0.4921  0.1934
22052SOL    HW168356   4.537   1.651   8.778 -0.8432  0.1282 -0.5520
22052SOL    HW268357   4.396   1.605   8.810 -0.7575 -0.3465 -0.8392
22053SOL     OW68358   7.546   5.554   1.600 -0.4263 -0.1546 -0.0066
22053SOL    HW168359   7.537   5.465   1.635 -0.1484 -0.3231 -0.3555
22053SOL    HW268360   7.501   5.551   1.515 -2.7048  0.7258  1.0863
22054SOL     OW68361   3.820   0.199   2.895  0.0252  0.2199 -0.3109
22054SOL    HW168362   3.772   0.185   2.977 -0.1505  0.7553 -0.3192
22054SOL    HW268363   3.785   0.281   2.860 -1.6481 -1.1857 -2.1540
22055SOL     OW68364   4.553   2.729   6.784 -0.0045  0.5160  0.1671
22055SOL    HW168365   4.473   2.686   6.755  0.5314 -0.6677  0.3799
22055SOL    HW268366   4.606   2.658   6.823  0.6294  1.4806  1.1254
22056SOL     OW68367   7.837   6.286   6.165 -0.1720 -0.2787 -0.0928
22056SOL    HW168368   7.884   6.365   6.138 -1.7752  1.2983  1.5133
22056SOL    HW268369   7.835   6.290   6.260 -2.1074 -1.1448 -0.0472
22057SOL     OW68370   7.809   8.917   5.914  0.0782  0.0288 -0.2042
22057SOL    HW168371   7.773   8.899   6.001  1.6333  1.2199  0.7489
22057SOL    HW268372   7.747   8.980   5.875 -1.0985 -1.1827 -0.3498
22058SOL     OW68373   2.813   6.776   2.689  0.1356  0.4910  0.1636
22058SOL    HW168374   2.867   6.807   2.617 -1.9224  1.7739 -0.9135
22058SOL    HW268375   2.836   6.834   2.762  1.4914 -0.1639  0.2996
22059SOL     OW68376   5.437   6.286   5.797  0.8067 -0.1709 -0.7370
22059SOL    HW168377   5.461   6.200   5.832 -0.3431 -0.4759 -0.6356
22059SOL    HW268378   5.343   6.293   5.815  0.9272  1.2213 -0.5157
22060SOL     OW68379   1.160   7.250   5.696 -0.0288  0.2070 -0.4539
22060SOL    HW168380   1.200   7.224   5.779 -0.3265  2.1665  0.3579
22060SOL    HW268381   1.077   7.203   5.693  0.3935 -0.5805 -0.0891
22061SOL     OW68382   5.692   5.441   7.390 -0.2750  0.0725  0.7747
22061SOL    HW168383   5.647   5.525   7.402 -0.4984 -0.1872  1.8217
22061SOL    HW268384   5.647   5.400   7.316  0.2448  1.1284 -0.1612
22062SOL     OW68385   5.022   9.363   6.672  0.2597 -0.0649 -0.7802
22062SOL    HW168386   5.042   9.449   6.636  0.9930  0.0169 -0.1837
22062SOL    HW268387   4.934   9.343   6.638 -0.7451  1.7454  0.5828
22063SOL     OW68388   2.181   4.352   3.100  0.0108 -0.0068 -0.2071
22063SOL    HW168389   2.248   4.289   3.073 -3.2957 -3.9573 -0.2276
22063SOL    HW268390   2.185   4.352   3.195 -0.5984 -1.0909 -0.1697
22064SOL     OW68391   1.561   0.677   4.818  0.1366  0.1099  1.1170
22064SOL    HW168392   1.604   0.690   4.734  3.0875 -2.2127  2.0831
22064SOL    HW268393   1.630   0.688   4.883 -1.0779 -2.0578  2.9362
22065SOL     OW68394   3.299   1.418   8.741 -0.4477 -0.8452  0.4545
22065SOL    HW168395   3.288   1.345   8.801 -1.2267  0.3055  1.7746
22065SOL    HW268396   3.324   1.492   8.797 -2.6588  0.6429 -0.3852
22066SOL     OW68397   7.560   5.010   4.299  0.0552  0.0032  1.0177
22066SOL    HW168398   7.518   5.074   4.242  0.5446  0.2284  0.9026
22066SOL    HW268399   7.539   5.038   4.388 -1.0356 -0.5674  0.9577
22067SOL     OW68400   8.057   7.210   5.775  0.3866  0.5508 -0.5716
22067SOL    HW168401   7.962   7.198   5.778  0.4220 -0.1731 -1.6517
22067SOL    HW268402   8.071   7.275   5.705  0.7853 -1.2950 -2.3132
22068SOL     OW68403   5.161   4.076   6.641 -0.1822 -0.0038  0.4030
22068SOL    HW168404   5.252   4.099   6.663 -0.6285  2.2586  0.1508
22068SOL    HW268405   5.168   3.990   6.600  2.1377  0.8817 -1.3006
22069SOL     OW68406   5.139   2.197   9.572 -0.2308 -0.6834  0.1509
22069SOL    HW168407   5.157   2.268   9.511  1.1074  0.2665  1.5867
22069SOL    HW268408   5.082   2.138   9.524  0.8812 -0.0497 -2.0802
22070SOL     OW68409   8.785   3.152   0.386  0.2050 -0.3535 -0.1459
22070SOL    HW168410   8.703   3.103   0.378 -0.0648 -0.2284  1.5524
22070SOL    HW268411   8.764   3.225   0.445  1.3651  0.0859 -0.2511
22071SOL     OW68412   0.848   3.748   8.808  0.0798 -0.8058  0.3354
22071SOL    HW168413   0.922   3.753   8.868  0.5803 -0.4510 -0.2957
22071SOL    HW268414   0.812   3.836   8.807  0.4977 -0.6301 -0.3913
22072SOL     OW68415   8.027   7.123   6.642 -0.3034  0.0912 -0.0055
22072SOL    HW168416   7.964   7.063   6.603  0.2802 -0.5227 -0.0223
22072SOL    HW268417   8.112   7.082   6.626  0.0288  0.3940  0.9064
22073SOL     OW68418   5.244   3.107   0.595  0.0972 -0.3108  0.2816
22073SOL    HW168419   5.221   3.032   0.650 -1.3705 -1.7282 -2.1248
22073SOL    HW268420   5.160   3.145   0.570  0.6963  0.2154 -1.0289
22074SOL     OW68421   3.126   1.393   5.609  0.0832  0.1057 -0.5945
22074SOL    HW168422   3.054   1.449   5.637  0.8211  0.4047  0.7820
22074SOL    HW268423   3.146   1.423   5.520 -1.9557 -0.4957 -1.3179
22075SOL     OW68424   0.834   0.377   8.028  0.2739  0.2810  0.1621
22075SOL    HW168425   0.851   0.459   8.074  0.3716  0.1332  0.3909
22075SOL    HW268426   0.876   0.310   8.082  2.9900  0.3743 -1.6300
22076SOL     OW68427   2.731   4.681   0.993 -0.7379  0.3140  0.0727
22076SOL    HW168428   2.724   4.752   1.058  0.1387 -0.9895  1.6741
22076SOL    HW268429   2.680   4.609   1.030 -0.1577 -0.4899 -0.6456
22077SOL     OW68430   0.481   2.367   5.470  0.4031  0.1963 -0.1945
22077SOL    HW168431   0.389   2.338   5.468  0.4444 -0.2632  2.0937
22077SOL    HW268432   0.481   2.445   5.524  1.5263 -0.6646  1.1362
22078SOL     OW68433   6.937   7.433   8.199  0.2387  0.4663 -0.0416
22078SOL    HW168434   6.903   7.481   8.275  0.3833  0.2787  0.1439
22078SOL    HW268435   7.029   7.418   8.221  0.3936  0.8006 -0.4511
22079SOL     OW68436   1.258   6.190   3.008  0.0041 -0.5284 -0.3218
22079SOL    HW168437   1.331   6.141   2.972  0.4812  0.4832 -0.7885
22079SOL    HW268438   1.237   6.146   3.090  1.9542 -0.1060  0.4552
22080SOL     OW68439   3.058   0.031   4.936  0.2967  0.4335  0.1826
22080SOL    HW168440   3.128   0.069   4.884  0.1163  0.6047  0.0666
22080SOL    HW268441   3.093  -0.054   4.965  0.5075  0.4693  0.0320
22081SOL     OW68442   6.005   4.010   9.171  0.2665  0.0488  0.1494
22081SOL    HW168443   6.094   3.975   9.166  0.3954  0.3982 -0.0215
22081SOL    HW268444   5.996   4.039   9.261 -0.1190 -1.1413  0.5147
22082SOL     OW68445   2.676   4.556   6.972 -0.4054 -0.7323 -0.0024
22082SOL    HW168446   2.710   4.584   6.887 -0.4064  1.2369  0.5848
22082SOL    HW268447   2.582   4.570   6.966 -0.3519 -0.0897  0.4621
22083SOL     OW68448   0.319   7.103   8.982  0.1601 -0.2113 -0.5193
22083SOL    HW168449   0.331   7.031   8.920  0.3615 -0.0984 -0.6133
22083SOL    HW268450   0.382   7.169   8.954 -0.7383  0.4310 -1.0594
22084SOL     OW68451   1.568   2.282   1.427 -0.0404  0.7391 -0.7877
22084SOL    HW168452   1.559   2.209   1.365 -0.2446  0.1989 -0.1322
22084SOL    HW268453   1.660   2.280   1.453 -0.0450  0.7169 -0.7728
22085SOL     OW68454   7.033   9.125   5.880  0.2394  0.3005  0.0680
22085SOL    HW168455   7.011   9.155   5.792 -1.0019 -1.9491 -0.4634
22085SOL    HW268456   7.119   9.085   5.871 -0.1971 -0.5767 -0.3141
22086SOL     OW68457   5.213   4.010   8.526 -0.2912  0.2272 -0.3188
22086SOL    HW168458   5.278   4.051   8.469 -0.0567 -1.0914 -1.0127
22086SOL    HW268459   5.234   4.043   8.614  1.0639  0.1248 -0.5924
22087SOL     OW68460   4.943   9.518   8.777  0.0615 -0.1119 -0.4239
22087SOL    HW168461   4.993   9.592   8.742 -1.2498  1.2230  0.4443
22087SOL    HW268462   4.937   9.535   8.871 -1.6422 -0.4373 -0.4409
22088SOL     OW68463   2.988   3.454   5.754 -0.9411 -0.0885  0.4267
22088SOL    HW168464   3.067   3.410   5.787  0.4497  1.9213 -0.0879
22088SOL    HW268465   2.927   3.449   5.828 -0.1472 -1.1655  1.0550
22089SOL     OW68466   5.520   5.935   7.193  0.1518  0.5545 -0.1843
22089SOL    HW168467   5.574   5.872   7.240 -2.4738 -0.3238  1.9169
22089SOL    HW268468   5.510   6.009   7.253  0.4042  1.4842 -1.2389
22090SOL     OW68469   8.267   3.968   4.388  0.0174 -0.0753  0.0364
22090SOL    HW168470   8.227   4.026   4.452 -0.4430  0.3966 -0.6587
22090SOL    HW268471   8.197   3.908   4.362  1.0927 -2.6392  2.5582
22091SOL     OW68472   7.643   4.425   5.697  0.6128  0.0769  0.2434
22091SOL    HW168473   7.599   4.397   5.617 -0.9969  1.0615  0.7503
22091SOL    HW268474   7.656   4.344   5.747 -1.3011 -0.1889  0.3849
22092SOL     OW68475   3.797   6.634   0.995 -0.4231  0.0193 -0.1454
22092SOL    HW168476   3.861   6.676   0.938 -1.4411  1.4346 -0.2831
22092SOL    HW268477   3.848   6.570   1.045  0.6267 -0.7247 -2.0792
22093SOL     OW68478   9.472   4.003   7.024 -0.2465 -0.1209  0.0994
22093SOL    HW168479   9.421   3.951   6.962  1.0626 -0.4621 -0.7244
22093SOL    HW268480   9.406   4.043   7.081 -1.3826 -1.2063 -0.3971
22094SOL     OW68481   7.660   1.730   4.409 -0.4613 -0.5883 -0.2637
22094SOL    HW168482   7.660   1.824   4.391 -0.7760  0.1292  2.8368
22094SOL    HW268483   7.750   1.703   4.394  0.2940  0.8593  1.2711
22095SOL     OW68484   4.849   5.490   2.716  0.5025  1.2393  0.6352
22095SOL    HW168485   4.859   5.397   2.696 -3.5635  0.8649 -0.4180
22095SOL    HW268486   4.910   5.534   2.657  1.6819 -0.6663  0.3440
22096SOL     OW68487   8.587   6.781   3.049 -0.2042 -0.4597 -0.7383
22096SOL    HW168488   8.678   6.804   3.032 -0.5541  1.1851 -0.5847
22096SOL    HW268489   8.590   6.728   3.128  0.6150 -0.2927 -0.6503
22097SOL     OW68490   4.276   1.831   4.361 -0.2123 -0.0306 -0.2421
22097SOL    HW168491   4.201   1.807   4.415 -1.5687  3.4213 -0.3396
22097SOL    HW268492   4.252   1.803   4.273  0.1784 -1.9428  0.2169
22098SOL     OW68493   3.810   5.080   6.537 -0.1865 -0.2776 -0.2350
22098SOL    HW168494   3.739   5.110   6.481  0.2501  0.5064 -0.3874
22098SOL    HW268495   3.807   5.138   6.613 -0.8846 -1.4402  0.6599
22099SOL     OW68496   2.922   2.091   3.192  0.3836 -0.2758  0.3211
22099SOL    HW168497   2.952   2.016   3.140  0.6285 -0.1427  0.2724
22099SOL    HW268498   2.991   2.156   3.183 -0.3685  0.4114 -0.5837
22100SOL     OW68499   5.255   3.363   3.985 -0.4345  0.7133 -0.3459
22100SOL    HW168500   5.211   3.417   4.051 -0.4145 -0.8969  1.0395
22100SOL    HW268501   5.224   3.274   4.002  0.7059  0.0539 -1.5762
22101SOL     OW68502   3.399   5.643   9.221 -0.3500 -0.4008 -0.5744
22101SOL    HW168503   3.446   5.592   9.286  1.0603  0.0509 -1.2050
22101SOL    HW268504   3.387   5.584   9.147 -1.2231 -0.6579 -0.2453
22102SOL     OW68505   2.520   6.951   6.255  0.5435 -0.2302  0.5795
22102SOL    HW168506   2.531   7.008   6.179 -1.3999 -0.3555  0.1487
22102SOL    HW268507   2.518   7.010   6.330 -2.7194  0.5365  0.0399
22103SOL     OW68508   7.134   8.324   6.249  0.2309 -0.1197 -0.0487
22103SOL    HW168509   7.166   8.362   6.331 -0.9445  0.0082  0.3598
22103SOL    HW268510   7.208   8.332   6.189  0.6706  0.9866  0.6141
22104SOL     OW68511   0.884   0.698   0.517  0.5835  0.0782 -0.3574
22104SOL    HW168512   0.963   0.648   0.497  0.8024  0.3881 -0.2632
22104SOL    HW268513   0.869   0.752   0.439  1.6407  1.5543  0.4150
22105SOL     OW68514   3.776   8.930   7.048 -0.1421 -0.3896 -0.0469
22105SOL    HW168515   3.731   9.010   7.023 -0.1268 -0.6113 -0.8193
22105SOL    HW268516   3.727   8.860   7.004  1.6061 -0.5491 -1.8960
22106SOL     OW68517   7.863   6.195   2.835  0.0548 -0.0615  0.0644
22106SOL    HW168518   7.867   6.123   2.898 -1.0904 -0.3357 -0.1586
22106SOL    HW268519   7.781   6.239   2.854  0.1003  0.3589 -0.6912
22107SOL     OW68520   2.919   8.349   4.626  0.8194 -0.2247 -0.2822
22107SOL    HW168521   3.007   8.341   4.590  0.5733 -1.8679 -0.6128
22107SOL    HW268522   2.909   8.274   4.684 -0.6419 -0.5463 -0.8882
22108SOL     OW68523   6.309   4.569   4.354 -0.2442 -0.2025 -0.0809
22108SOL    HW168524   6.249   4.514   4.405 -0.8592  1.1176  0.6644
22108SOL    HW268525   6.390   4.518   4.349 -0.3287 -0.5931  1.8155
22109SOL     OW68526   9.555   3.077   7.167  0.6368 -0.2648  0.7385
22109SOL    HW168527   9.502   3.156   7.155 -1.1452 -1.3055  1.3999
22109SOL    HW268528   9.622   3.083   7.099 -1.6375  0.0849 -1.6776
22110SOL     OW68529   2.294   5.697   0.421 -0.4299 -0.2702  0.3359
22110SOL    HW168530   2.213   5.672   0.377  0.3396 -3.7513  0.5695
22110SOL    HW268531   2.275   5.687   0.515  0.1094 -0.7472  0.4073
22111SOL     OW68532   3.578   1.308   4.032  0.3871  0.0735  0.0613
22111SOL    HW168533   3.504   1.248   4.031  0.7748 -0.3971 -0.3629
22111SOL    HW268534   3.565   1.359   4.112 -0.0967 -0.3699  0.2757
22112SOL     OW68535   6.802   3.443   4.350  0.3819 -0.0337  0.0939
22112SOL    HW168536   6.758   3.420   4.432 -0.5676  0.2297 -0.3260
22112SOL    HW268537   6.858   3.368   4.330 -3.5131 -2.7571 -1.8875
22113SOL     OW68538   4.464   2.647   9.153  0.0133  0.1916 -0.1145
22113SOL    HW168539   4.516   2.680   9.080  0.7517  1.3536  0.8932
22113SOL    HW268540   4.526   2.599   9.207 -0.6729 -1.3021 -0.5686
22114SOL     OW68541   8.191   6.914   4.857  0.7328  0.3645 -0.3433
22114SOL    HW168542   8.183   6.844   4.792  3.0390 -0.1338 -0.1867
22114SOL    HW268543   8.177   6.870   4.941  0.9523  0.3306 -0.3229
22115SOL     OW68544   3.499   1.465   2.650 -0.5561 -0.7506  0.1970
22115SOL    HW168545   3.455   1.513   2.720 -0.8598  0.8861 -1.0632
22115SOL    HW268546   3.437   1.467   2.577  0.0525 -1.7842 -0.3768
22116SOL     OW68547   9.252   0.065   0.262  0.3780  0.3746  0.0190
22116SOL    HW168548   9.178   0.027   0.216  0.8909 -1.0422  0.3235
22116SOL    HW268549   9.216   0.094   0.346 -0.6802  3.4589 -1.3500
22117SOL     OW68550   5.754   9.176   3.771  0.1385  0.2000  0.0616
22117SOL    HW168551   5.778   9.085   3.786 -1.3556 -0.0687  1.0351
22117SOL    HW268552   5.706   9.175   3.689  0.8779  0.2792 -0.3872
22118SOL     OW68553   4.789   0.817   0.457  0.3799 -0.4108  0.0190
22118SOL    HW168554   4.832   0.797   0.374  0.5376 -0.4530  0.1124
22118SOL    HW268555   4.772   0.911   0.452  0.4265 -0.4055 -0.0428
22119SOL     OW68556   8.838   4.263   3.238  0.1218 -0.1219  0.0356
22119SOL    HW168557   8.873   4.346   3.269  0.4024  0.2620 -1.2282
22119SOL    HW268558   8.761   4.287   3.186 -1.4503 -0.8757  1.8820
22120SOL     OW68559   1.699   4.603   2.769 -0.2130  0.3586 -0.0391
22120SOL    HW168560   1.702   4.662   2.845  0.3981 -0.0805  0.2872
22120SOL    HW268561   1.632   4.641   2.713 -0.2180  1.0620  0.4180
22121SOL     OW68562   3.978   1.908   8.259  0.3639 -0.7407  0.0018
22121SOL    HW168563   4.009   1.986   8.213  0.9218 -1.3315 -0.6315
22121SOL    HW268564   4.055   1.854   8.269 -0.3204 -1.9644 -1.0561
22122SOL     OW68565   0.334   3.774   3.001  0.3953 -0.3672  0.2543
22122SOL    HW168566   0.429   3.784   3.001  0.3517  0.2097  0.8837
22122SOL    HW268567   0.301   3.863   2.991 -0.0987 -0.7389 -1.6541
22123SOL     OW68568   3.095   0.141   5.975  0.4630 -0.1165 -0.2176
22123SOL    HW168569   3.153   0.125   5.901 -0.8548  1.8615 -1.7943
22123SOL    HW268570   3.117   0.229   6.005  1.0014 -0.8976  1.8334
22124SOL     OW68571   8.215   4.305   3.483  0.9191  0.2704 -0.1231
22124SOL    HW168572   8.246   4.271   3.568  0.8578  0.3283 -0.0771
22124SOL    HW268573   8.188   4.395   3.502 -0.3351 -0.1239  0.0836
22125SOL     OW68574   9.273   3.831   1.901  0.3576  0.0604 -0.0794
22125SOL    HW168575   9.329   3.796   1.832  0.5714  1.6981 -0.7811
22125SOL    HW268576   9.242   3.915   1.866 -0.7819  0.1997  1.1899
22126SOL     OW68577   0.957   0.405   4.903 -0.0197 -0.0988  0.3066
22126SOL    HW168578   0.994   0.450   4.828  1.1634 -0.0062  0.9206
22126SOL    HW268579   0.889   0.465   4.936  1.0167  0.9114  0.6653
22127SOL     OW68580   1.740   6.112   2.974  0.3291 -0.3038  0.2947
22127SOL    HW168581   1.740   6.117   3.070  0.8174 -0.8396  0.3324
22127SOL    HW268582   1.817   6.059   2.953  0.5399  0.2659 -0.4205
22128SOL     OW68583   8.364   8.840   7.678  0.2125 -0.3286 -0.2969
22128SOL    HW168584   8.455   8.838   7.708  0.2471  0.1688 -0.3658
22128SOL    HW268585   8.339   8.933   7.680 -0.2015 -0.4282 -0.5545
22129SOL     OW68586   5.516   5.671   5.637  0.3424 -0.3268  0.1653
22129SOL    HW168587   5.470   5.608   5.693 -0.8077  0.7444  0.4818
22129SOL    HW268588   5.447   5.712   5.585  0.6198  2.6090  1.9018
22130SOL     OW68589   7.235   7.205   4.331 -0.2983 -0.0553 -0.1483
22130SOL    HW168590   7.306   7.201   4.396 -0.3322 -0.0267 -0.1097
22130SOL    HW268591   7.267   7.152   4.258 -0.5836 -0.7259  0.2025
22131SOL     OW68592   9.545   2.088   2.712 -0.0863  0.0428 -0.2138
22131SOL    HW168593   9.593   2.028   2.768 -0.8083  0.7606  1.2212
22131SOL    HW268594   9.527   2.164   2.767 -2.9367 -0.2296 -0.6168
22132SOL     OW68595   6.609   4.947   4.099 -0.1183  0.2035  0.0205
22132SOL    HW168596   6.518   4.948   4.069  0.3092 -0.3088 -1.3876
22132SOL    HW268597   6.605   4.912   4.188 -1.2887  0.0517 -0.0790
22133SOL     OW68598   5.534   4.695   0.350  0.1801 -0.1894  0.5948
22133SOL    HW168599   5.450   4.741   0.357  0.6448  0.6804  0.6311
22133SOL    HW268600   5.554   4.668   0.439  1.8845  3.2215  1.4317
22134SOL     OW68601   6.402   4.660   8.581 -0.0462  0.3190 -0.2317
22134SOL    HW168602   6.474   4.600   8.602 -2.2369 -1.3978  3.2251
22134SOL    HW268603   6.327   4.604   8.565 -2.0783  1.9549  2.6616
22135SOL     OW68604   1.657   4.224   7.169 -0.0507  0.0736 -0.5290
22135SOL    HW168605   1.610   4.147   7.139 -2.1503  1.6809 -1.5561
22135SOL    HW268606   1.677   4.205   7.261 -1.9858 -1.0319 -0.2889
22136SOL     OW68607   3.486   8.932   2.533 -0.3680  0.5418 -0.4552
22136SOL    HW168608   3.408   8.983   2.515 -1.3106 -0.7793 -0.2644
22136SOL    HW268609   3.550   8.962   2.468 -0.8969  1.8805 -0.3857
22137SOL     OW68610   8.202   3.474   3.814 -0.3953 -0.4302  0.0319
22137SOL    HW168611   8.110   3.447   3.814 -0.2837 -0.8544 -0.7241
22137SOL    HW268612   8.202   3.560   3.856 -0.8082 -1.4236  2.1441
22138SOL     OW68613   1.820   6.604   8.991  0.4396  0.1197 -0.2928
22138SOL    HW168614   1.798   6.512   9.008  2.0372 -0.4385 -1.1004
22138SOL    HW268615   1.809   6.614   8.896  3.3523 -0.1641 -0.7370
22139SOL     OW68616   1.818   3.218   5.010 -0.3276  0.3016 -0.4350
22139SOL    HW168617   1.875   3.143   5.030  0.2968  1.3759  2.3171
22139SOL    HW268618   1.876   3.280   4.967  0.7573  1.3934  2.3610
22140SOL     OW68619   3.072   9.245   2.943 -0.1175  0.4291 -0.2919
22140SOL    HW168620   3.000   9.184   2.962  1.4712 -2.6151 -2.9260
22140SOL    HW268621   3.148   9.207   2.986  0.9985  0.2221 -2.3116
22141SOL     OW68622   1.374   4.677   1.668  0.0776  0.3861 -0.8378
22141SOL    HW168623   1.318   4.706   1.596 -1.6959 -0.8955 -0.0595
22141SOL    HW268624   1.316   4.678   1.745  1.6802  0.8769  0.4207
22142SOL     OW68625   8.797   6.478   1.490 -0.0666 -0.2914 -0.0786
22142SOL    HW168626   8.753   6.506   1.410  0.6957 -0.3689 -0.5377
22142SOL    HW268627   8.734   6.495   1.560 -0.3540  0.7555 -0.5739
22143SOL     OW68628   3.367   9.063   1.032  0.5533 -0.0768 -0.1779
22143SOL    HW168629   3.279   9.048   1.067  0.8453  1.0713  1.1046
22143SOL    HW268630   3.373   9.158   1.022  1.7109 -0.1244 -0.0813
22144SOL     OW68631   2.042   5.140   7.196 -0.4261  0.1695  0.3354
22144SOL    HW168632   2.016   5.215   7.248  0.3362  1.2181 -0.7370
22144SOL    HW268633   2.138   5.142   7.196 -0.3330 -1.7092  1.5305
22145SOL     OW68634   6.917   7.392   4.273  0.2817 -0.4365  0.4112
22145SOL    HW168635   6.908   7.369   4.181 -2.0904 -0.2661  0.5356
22145SOL    HW268636   7.008   7.420   4.282  0.4304  0.0747 -1.9939
22146SOL     OW68637   1.482   6.460   3.036 -0.1144 -0.1463  0.1101
22146SOL    HW168638   1.498   6.395   2.968  4.1240 -0.3875  1.0465
22146SOL    HW268639   1.473   6.543   2.988  1.9729 -0.4363 -0.9071
22147SOL     OW68640   9.037   4.589   5.630 -0.4068 -0.1011 -0.5707
22147SOL    HW168641   9.124   4.570   5.666 -0.1200  1.9767 -0.0066
22147SOL    HW268642   8.977   4.569   5.701 -0.1305  0.9056 -0.0346
22148SOL     OW68643   5.332   5.280   8.980 -0.5755 -0.1361  0.2175
22148SOL    HW168644   5.400   5.256   9.043 -0.9552  0.2660  0.7875
22148SOL    HW268645   5.318   5.201   8.928 -0.2751 -0.4801  0.6549
22149SOL     OW68646   2.075   6.088   2.342  0.2791  0.0947 -0.9443
22149SOL    HW168647   2.092   6.001   2.377  0.9282  0.2390 -0.8893
22149SOL    HW268648   2.090   6.148   2.416  0.2437  0.2839 -1.0878
22150SOL     OW68649   8.393   3.670   1.497  0.6339  0.5487 -0.1702
22150SOL    HW168650   8.399   3.576   1.514  1.4563  0.8719  1.5580
22150SOL    HW268651   8.483   3.702   1.503  0.1470  1.7694  1.5387
22151SOL     OW68652   7.927   8.950   1.938 -0.4951  0.0950 -1.0020
22151SOL    HW168653   8.002   8.920   1.989 -0.8120  1.7682  0.5601
22151SOL    HW268654   7.882   8.870   1.912  0.6998 -0.8702 -0.2066
22152SOL     OW68655   3.001   7.219   0.559 -0.1555  0.7216  0.6727
22152SOL    HW168656   3.065   7.185   0.622 -0.1220  2.2738  1.5430
22152SOL    HW268657   3.013   7.165   0.481  2.5563  1.2348  0.6219
22153SOL     OW68658   2.209   5.729   3.402 -0.4603  0.1843 -0.3191
22153SOL    HW168659   2.217   5.762   3.313 -0.1295 -1.1698 -0.8289
22153SOL    HW268660   2.262   5.649   3.402 -0.1844  0.3361  1.1869
22154SOL     OW68661   7.018   4.006   0.414 -0.0340  0.3340  0.2158
22154SOL    HW168662   7.021   3.925   0.363 -0.5246 -0.6211  1.6281
22154SOL    HW268663   7.068   3.986   0.493 -0.4792  1.2749  0.7478
22155SOL     OW68664   8.045   2.704   2.741 -0.2727  0.1961 -0.1034
22155SOL    HW168665   8.024   2.740   2.827  1.8340  0.9038  0.1801
22155SOL    HW268666   8.070   2.613   2.758 -1.3903 -0.1527 -0.2239
22156SOL     OW68667   9.322   4.197   4.903  0.6535 -0.4538 -0.2506
22156SOL    HW168668   9.287   4.259   4.966 -0.2200 -0.2922 -0.8796
22156SOL    HW268669   9.407   4.170   4.940  0.4301  0.0875  0.6785
22157SOL     OW68670   8.738   9.285   2.840  0.2765  0.5642  0.5582
22157SOL    HW168671   8.714   9.230   2.915 -0.8160  0.0080 -0.1760
22157SOL    HW268672   8.709   9.235   2.764  1.5701  1.0202 -0.2664
22158SOL     OW68673   7.928   4.867   0.616  0.2951 -0.5343 -0.5352
22158SOL    HW168674   7.838   4.838   0.625 -0.2656  1.1656 -0.4389
22158SOL    HW268675   7.963   4.866   0.706 -0.2875  0.7617 -0.2677
22159SOL     OW68676   3.738   7.380   3.280 -0.0218 -0.4632 -0.1909
22159SOL    HW168677   3.729   7.409   3.189  1.6056 -0.3687 -0.3655
22159SOL    HW268678   3.734   7.461   3.332 -1.4597 -0.5674 -0.1145
22160SOL     OW68679   8.739   1.476   3.775 -0.3537  0.6116 -0.0268
22160SOL    HW168680   8.749   1.571   3.770  0.2285  0.5114 -0.8821
22160SOL    HW268681   8.758   1.455   3.866  1.9079  1.0581 -0.3291
22161SOL     OW68682   6.829   4.897   7.685  0.1298 -0.1998 -0.5683
22161SOL    HW168683   6.873   4.933   7.608  2.1069  0.0748  0.6368
22161SOL    HW268684   6.871   4.813   7.700  0.9900  0.4966  1.1781
22162SOL     OW68685   3.822   5.131   7.787 -0.2847 -0.1903  0.9247
22162SOL    HW168686   3.816   5.190   7.862 -1.1655  1.8681 -0.6541
22162SOL    HW268687   3.885   5.173   7.728 -2.2961  0.2667 -1.0526
22163SOL     OW68688   5.646   5.874   5.380 -0.4680  0.3828 -0.6941
22163SOL    HW168689   5.597   5.944   5.423  0.7741  1.4635 -0.9748
22163SOL    HW268690   5.580   5.827   5.328 -1.6307  0.2617  0.8325
22164SOL     OW68691   7.900   6.474   0.297  0.4579  0.2263 -0.0124
22164SOL    HW168692   7.884   6.516   0.382 -0.8874 -0.1020 -0.0776
22164SOL    HW268693   7.844   6.397   0.298  1.1791 -0.3259 -0.8207
22165SOL     OW68694   5.526   9.361   2.410  0.1562 -0.2686 -0.2463
22165SOL    HW168695   5.473   9.282   2.397 -0.5477  0.1262  0.1551
22165SOL    HW268696   5.504   9.390   2.498  1.6846 -0.5592  0.2493
22166SOL     OW68697   2.749   3.212   4.248  0.2562  0.4689 -0.2124
22166SOL    HW168698   2.701   3.290   4.276  0.7675  0.7222 -0.0317
22166SOL    HW268699   2.831   3.246   4.212  1.6206 -0.0836  2.1648
22167SOL     OW68700   4.930   4.617   5.138 -0.2795 -0.1106 -0.8119
22167SOL    HW168701   4.841   4.586   5.126 -1.2034  1.4219  1.3647
22167SOL    HW268702   4.942   4.619   5.233  3.4197 -3.7661 -0.8692
22168SOL     OW68703   4.664   8.603   1.551  0.4742 -0.6202  0.3452
22168SOL    HW168704   4.640   8.686   1.510 -0.5717 -0.6006  0.9620
22168SOL    HW268705   4.598   8.541   1.521  1.7794 -1.4682 -0.8417
22169SOL     OW68706   0.626   7.601   3.465 -0.7764 -0.0064  0.3722
22169SOL    HW168707   0.702   7.659   3.463 -0.7841  0.0358 -2.3715
22169SOL    HW268708   0.649   7.534   3.529  1.9051 -0.3614 -0.8399
22170SOL     OW68709   3.963   2.576   7.157  0.1671  0.2822  0.0977
22170SOL    HW168710   3.874   2.541   7.148 -0.4544  1.5051  0.9987
22170SOL    HW268711   4.020   2.506   7.128 -1.1277 -0.1244 -1.7044
22171SOL     OW68712   8.962   6.072   8.726 -0.0769 -0.5488  0.0468
22171SOL    HW168713   8.893   6.009   8.743 -1.1892  0.7167  0.3746
22171SOL    HW268714   9.005   6.084   8.811 -0.2905 -0.3754  0.1301
22172SOL     OW68715   5.695   8.530   3.274 -0.0234  0.5073 -0.3078
22172SOL    HW168716   5.633   8.595   3.307  0.6708  0.8414  0.3882
22172SOL    HW268717   5.741   8.499   3.353 -2.5752 -3.3318 -0.0385
22173SOL     OW68718   2.925   7.671   9.253  0.3165 -0.4555 -0.1750
22173SOL    HW168719   2.875   7.596   9.286  0.3462 -0.0216  0.8940
22173SOL    HW268720   2.858   7.736   9.229  0.3187 -0.5433 -0.4294
22174SOL     OW68721   8.744   9.015   9.376 -0.0475  0.3455 -0.2636
22174SOL    HW168722   8.758   8.979   9.289 -1.0115  1.6311 -0.9855
22174SOL    HW268723   8.650   9.032   9.380  0.3467  2.8113 -0.0151
22175SOL     OW68724   5.451   6.638   6.003  0.4735 -0.5554 -0.7413
22175SOL    HW168725   5.507   6.599   6.069 -0.6060 -0.9560 -0.0372
22175SOL    HW268726   5.456   6.578   5.928  1.3946 -0.2957 -0.9068
22176SOL     OW68727   4.127   1.824   1.760  0.6943 -0.4718 -0.4569
22176SOL    HW168728   4.070   1.752   1.788  0.0295  0.4437  0.6423
22176SOL    HW268729   4.077   1.869   1.691 -0.2663  0.7211  0.9534
22177SOL     OW68730   4.133   6.322   8.199  0.5321 -0.1655 -0.1306
22177SOL    HW168731   4.193   6.278   8.260  1.1326  2.9823  1.7926
22177SOL    HW268732   4.081   6.251   8.161  0.4371 -2.4757  3.7293
22178SOL     OW68733   7.323   6.311   2.473  0.2155 -0.0361 -0.1493
22178SOL    HW168734   7.369   6.263   2.404 -1.7728 -0.9204 -0.9266
22178SOL    HW268735   7.338   6.403   2.451  0.4392 -0.3071 -1.1998
22179SOL     OW68736   1.555   8.679   7.673  0.2947  0.3302 -0.0286
22179SOL    HW168737   1.610   8.707   7.746 -0.2703 -0.1256  0.5806
22179SOL    HW268738   1.531   8.589   7.694  0.9140 -0.1497 -1.2568
22180SOL     OW68739   8.838   3.439   7.990 -0.2181  0.1026 -0.5351
22180SOL    HW168740   8.855   3.378   7.918  1.0144 -0.9960  0.6398
22180SOL    HW268741   8.834   3.525   7.947  2.7411 -0.2248 -1.7175
22181SOL     OW68742   5.676   5.622   6.579 -0.0399  0.2402  0.4082
22181SOL    HW168743   5.587   5.601   6.551 -0.3197  0.8079  0.8691
22181SOL    HW268744   5.666   5.694   6.640  0.5797 -0.7907  1.7826
22182SOL     OW68745   6.316   7.032   5.016  0.3036  0.1778  0.3561
22182SOL    HW168746   6.234   7.052   4.971 -0.6751 -3.1055  0.4522
22182SOL    HW268747   6.357   6.964   4.963  2.3319  0.7917  1.0360
22183SOL     OW68748   5.932   8.115   6.397  0.0939 -0.0230 -0.1273
22183SOL    HW168749   5.884   8.185   6.353 -0.3690 -0.9034 -1.0943
22183SOL    HW268750   5.885   8.102   6.480 -1.9515 -1.4395 -1.4202
22184SOL     OW68751   7.506   8.707   3.056  0.1323 -0.3567  0.1897
22184SOL    HW168752   7.461   8.667   2.981  2.0434 -0.7871 -0.8015
22184SOL    HW268753   7.485   8.800   3.050  1.7911 -0.0370 -2.1475
22185SOL     OW68754   0.976   0.342   8.631 -0.9260  0.2178 -0.3311
22185SOL    HW168755   0.910   0.337   8.562  0.2625 -0.5283 -1.4585
22185SOL    HW268756   0.959   0.425   8.675 -2.7447 -0.0576 -0.4363
22186SOL     OW68757   9.068   6.870   9.357 -0.0704  0.5634 -0.9548
22186SOL    HW168758   9.044   6.912   9.274  2.2506 -1.9057 -3.0653
22186SOL    HW268759   9.144   6.919   9.388 -0.3743  0.9114 -0.7461
22187SOL     OW68760   8.813   4.335   7.586  0.4699  0.3488  0.1197
22187SOL    HW168761   8.736   4.300   7.631 -0.9164 -1.6212 -3.4009
22187SOL    HW268762   8.882   4.271   7.604  0.7102  0.9483  1.4576
22188SOL     OW68763   6.386   5.531   6.107 -0.2252  0.2270 -0.4063
22188SOL    HW168764   6.404   5.451   6.155 -0.8659  0.5603  0.4025
22188SOL    HW268765   6.460   5.588   6.128  1.2247 -0.7718 -2.4690
22189SOL     OW68766   1.048   0.459   5.709 -0.2279 -0.1422  0.2699
22189SOL    HW168767   0.955   0.476   5.727 -0.8532 -3.0125  0.2878
22189SOL    HW268768   1.093   0.492   5.787 -1.2218  1.2030  0.3125
22190SOL     OW68769   7.246   4.128   3.663 -0.0830  0.3363 -0.6004
22190SOL    HW168770   7.187   4.187   3.709  0.2401  2.0414 -2.2644
22190SOL    HW268771   7.235   4.149   3.571 -0.0678 -2.3548 -1.3035
22191SOL     OW68772   6.019   0.562   3.757  0.3666  0.2005  0.0501
22191SOL    HW168773   5.988   0.639   3.708  1.7763  0.2833 -0.7776
22191SOL    HW268774   6.095   0.593   3.805  0.6832 -0.5740  0.0617
22192SOL     OW68775   7.740   0.955   5.376 -0.0902  0.4566 -0.0413
22192SOL    HW168776   7.647   0.969   5.358 -0.0730 -1.0607 -1.5279
22192SOL    HW268777   7.746   0.957   5.472 -1.4207  1.8001  0.0498
22193SOL     OW68778   5.641   8.418   0.913 -0.0675 -0.0425 -0.3821
22193SOL    HW168779   5.614   8.467   0.835 -3.1931  0.0243  0.5721
22193SOL    HW268780   5.559   8.384   0.949  1.5689 -2.6510  1.2281
22194SOL     OW68781   6.083   2.295   3.369  0.2744 -0.2256  0.1047
22194SOL    HW168782   6.075   2.390   3.362 -0.9263 -0.2468  0.9012
22194SOL    HW268783   6.101   2.279   3.462  0.2802 -0.7808  0.0115
22195SOL     OW68784   1.127   6.970   3.860 -0.6123  0.2737  0.2307
22195SOL    HW168785   1.210   6.993   3.818 -0.0260 -2.3544 -0.2298
22195SOL    HW268786   1.150   6.957   3.952 -0.3170 -1.1744 -0.0286
22196SOL     OW68787   1.882   5.538   0.926 -0.1767  0.0365 -0.3221
22196SOL    HW168788   1.893   5.549   0.832  2.1367 -0.1973 -0.1315
22196SOL    HW268789   1.913   5.621   0.963 -0.3862 -0.1415  0.2576
22197SOL     OW68790   2.680   5.935   2.442  0.2394  0.1624  0.7995
22197SOL    HW168791   2.662   5.892   2.359 -0.4509 -0.3690  1.2079
22197SOL    HW268792   2.776   5.930   2.452  0.1958 -1.2179  0.7863
22198SOL     OW68793   7.300   1.999   2.024 -0.3752 -0.3433  0.3036
22198SOL    HW168794   7.212   2.031   2.002  0.3759  1.5398 -0.0745
22198SOL    HW268795   7.290   1.904   2.025 -2.0253 -0.2554 -1.4200
22199SOL     OW68796   0.596   3.799   7.938 -0.2581  0.2196  0.0608
22199SOL    HW168797   0.534   3.837   8.000  0.6884  0.1993  1.0651
22199SOL    HW268798   0.682   3.814   7.978  0.3382 -0.3882 -0.9394
22200SOL     OW68799   2.371   9.562   3.112 -0.2026 -0.0514  0.0474
22200SOL    HW168800   2.361   9.617   3.035  0.0825  0.5805  0.4547
22200SOL    HW268801   2.465   9.545   3.118 -0.2780 -0.5174 -0.0273
22201SOL     OW68802   1.629   2.083   8.113 -0.0527  0.1421 -0.1697
22201SOL    HW168803   1.581   2.162   8.087 -0.0182 -0.0249 -0.7607
22201SOL    HW268804   1.577   2.011   8.077  0.4418 -0.0582 -0.5011
22202SOL     OW68805   1.326   8.336   8.434  0.5636  0.3408 -0.3727
22202SOL    HW168806   1.275   8.396   8.488 -0.1945 -0.9807  0.4351
22202SOL    HW268807   1.367   8.276   8.496  3.6136  1.6580 -0.9522
22203SOL     OW68808   9.016   7.998   2.873  0.0480  0.6808 -0.1015
22203SOL    HW168809   9.045   8.063   2.808 -1.6252  0.6481 -0.9398
22203SOL    HW268810   9.013   8.046   2.955  0.1320  1.3093 -0.4576
22204SOL     OW68811   2.679   6.807   8.525 -0.1545  0.3512 -0.0729
22204SOL    HW168812   2.670   6.794   8.619 -0.5575  0.1438 -0.1396
22204SOL    HW268813   2.751   6.870   8.516  0.7150 -0.5725  0.3205
22205SOL     OW68814   8.169   0.498   2.130 -0.0621  0.4992 -0.5154
22205SOL    HW168815   8.208   0.417   2.098  0.9817  1.6474 -2.3554
22205SOL    HW268816   8.238   0.538   2.183 -0.5371  0.2583  0.3031
22206SOL     OW68817   9.047   4.429   1.255 -0.1080 -0.2241  0.3925
22206SOL    HW168818   9.079   4.349   1.297 -4.0203 -2.0547  0.3306
22206SOL    HW268819   9.075   4.422   1.164  0.7381 -0.8009  0.6905
22207SOL     OW68820   6.388   7.950   5.070 -0.1327 -0.4696  0.0509
22207SOL    HW168821   6.416   8.031   5.112  2.3928 -1.7921  1.1140
22207SOL    HW268822   6.302   7.931   5.108  0.6824  0.0456  2.3005
22208SOL     OW68823   3.969   6.141   0.438  0.0035 -0.8085 -0.0311
22208SOL    HW168824   4.041   6.122   0.378 -0.0245  0.7223 -0.5746
22208SOL    HW268825   4.013   6.164   0.520  0.1582  0.2032 -0.3851
22209SOL     OW68826   6.349   3.803   3.638  0.2570 -0.1417  0.2971
22209SOL    HW168827   6.439   3.816   3.608 -0.2591 -2.8032 -2.9635
22209SOL    HW268828   6.347   3.713   3.671 -1.4231 -0.5850 -0.8572
22210SOL     OW68829   3.860   0.106   9.219 -0.3077 -0.1253 -0.2734
22210SOL    HW168830   3.904   0.044   9.278  0.4305  0.5538 -0.1016
22210SOL    HW268831   3.888   0.080   9.131  0.0784  0.0217 -0.1945
22211SOL     OW68832   5.749   2.723   2.859  0.3799 -0.1506  0.2793
22211SOL    HW168833   5.819   2.754   2.916 -1.2888  1.8889  1.3956
22211SOL    HW268834   5.727   2.799   2.806  0.4481 -1.4056 -1.6147
22212SOL     OW68835   0.969   6.088   0.389 -0.5648  0.2030  0.0337
22212SOL    HW168836   1.017   6.157   0.435  2.1815  0.6388 -3.1452
22212SOL    HW268837   0.944   6.026   0.458  1.0178  2.0264  2.3963
22213SOL     OW68838   2.164   0.677   2.471 -0.2425 -0.0680 -0.7671
22213SOL    HW168839   2.134   0.756   2.516  1.2251 -0.1908  0.4902
22213SOL    HW268840   2.093   0.614   2.483 -0.4725  0.3553  0.1664
22214SOL     OW68841   5.254   2.436   7.295 -0.2935  0.2138 -0.4125
22214SOL    HW168842   5.222   2.521   7.266 -1.5387 -0.3274 -0.6787
22214SOL    HW268843   5.185   2.374   7.272 -1.2586 -0.3588  3.3019
22215SOL     OW68844   4.143   5.336   5.806  0.6101 -0.5513 -0.4440
22215SOL    HW168845   4.135   5.282   5.885  0.4382 -0.6518 -0.5298
22215SOL    HW268846   4.073   5.305   5.749  0.1373  0.1534 -0.2607
22216SOL     OW68847   3.164   2.161   8.517 -0.2430 -0.2724  0.1933
22216SOL    HW168848   3.211   2.136   8.438  0.4369  1.4178  0.0216
22216SOL    HW268849   3.083   2.200   8.485 -0.9637 -1.5183  0.4305
22217SOL     OW68850   8.674   5.070   3.123  0.2315 -0.0095  0.5349
22217SOL    HW168851   8.746   5.111   3.171  0.1010 -0.1686  0.8678
22217SOL    HW268852   8.607   5.138   3.116  0.7573  0.4258 -0.5472
22218SOL     OW68853   1.212   6.491   1.642  0.3207  0.0354  0.2381
22218SOL    HW168854   1.179   6.579   1.622 -0.3353 -0.7383 -2.4439
22218SOL    HW268855   1.307   6.501   1.647  0.2634  0.8536 -0.2319
22219SOL     OW68856   4.275   1.291   3.005 -0.4308  0.1999 -0.2098
22219SOL    HW168857   4.198   1.323   2.959 -1.1653 -0.8457  0.2399
22219SOL    HW268858   4.331   1.368   3.016 -0.9634  0.7827 -1.3954
22220SOL     OW68859   0.718   8.011   1.475 -0.2802 -0.0802  0.1931
22220SOL    HW168860   0.626   8.025   1.499 -0.8880 -1.6676 -1.0401
22220SOL    HW268861   0.715   7.948   1.403  1.6431  1.6903 -1.5967
22221SOL     OW68862   4.994   3.429   6.179 -0.5343 -0.1970  0.2320
22221SOL    HW168863   4.921   3.489   6.169  0.8272  1.4286 -0.5488
22221SOL    HW268864   5.072   3.482   6.158  0.6712 -2.4599 -1.5880
22222SOL     OW68865   1.621   9.413   1.919 -1.5326  0.2709  0.5638
22222SOL    HW168866   1.695   9.365   1.958 -1.1082 -0.5742 -1.2031
22222SOL    HW268867   1.631   9.502   1.953  0.1516  0.1094  0.6075
22223SOL     OW68868   2.931   6.591   7.504  0.4630  0.4291 -0.0167
22223SOL    HW168869   3.020   6.587   7.539  0.8315  0.6190 -0.8870
22223SOL    HW268870   2.906   6.683   7.510  1.1821  0.7891 -1.7313
22224SOL     OW68871   0.117   7.535   2.847  0.4132  0.1620  0.3674
22224SOL    HW168872   0.032   7.495   2.830  0.0254  1.0001  0.2539
22224SOL    HW268873   0.171   7.464   2.881  0.3678 -0.9431 -1.7193
22225SOL     OW68874   1.563   2.400   0.328 -0.6077  0.4681  0.0936
22225SOL    HW168875   1.492   2.340   0.347  0.9330 -1.1663  0.9735
22225SOL    HW268876   1.630   2.346   0.286 -0.3035  2.1909 -1.8325
22226SOL     OW68877   8.375   3.608   5.508 -0.0235 -0.1308  0.2826
22226SOL    HW168878   8.332   3.574   5.430 -1.1659 -1.4421  1.4305
22226SOL    HW268879   8.305   3.651   5.558  0.4900 -0.1012  1.0037
22227SOL     OW68880   5.465   5.269   6.477 -0.1489 -0.2988 -0.4264
22227SOL    HW168881   5.501   5.265   6.388 -0.0296  0.4308 -0.4134
22227SOL    HW268882   5.378   5.229   6.469 -0.0726 -0.3912 -0.8340
22228SOL     OW68883   0.883   5.716   6.509  0.2732  0.0817  0.6441
22228SOL    HW168884   0.936   5.772   6.452  1.7377 -0.2710  1.6113
22228SOL    HW268885   0.945   5.683   6.574 -0.9427 -1.1947  1.1899
22229SOL     OW68886   5.210   4.365   8.368  0.0929 -0.3364  0.5527
22229SOL    HW168887   5.281   4.304   8.348  1.1311  1.3241 -1.1805
22229SOL    HW268888   5.141   4.343   8.305  0.0944 -0.3237  0.5467
22230SOL     OW68889   8.765   5.304   9.020  0.0901  0.0025  0.1262
22230SOL    HW168890   8.801   5.216   9.016  0.6565  0.2424 -0.1070
22230SOL    HW268891   8.672   5.293   9.002  0.2729 -0.4787 -0.5347
22231SOL     OW68892   8.583   1.436   0.900 -0.1365  0.7308 -0.2342
22231SOL    HW168893   8.575   1.512   0.842  1.1945  0.0731 -1.3551
22231SOL    HW268894   8.494   1.401   0.907 -0.4882  1.4310 -1.0378
22232SOL     OW68895   3.676   0.403   2.734  0.6753 -0.3106  0.1097
22232SOL    HW168896   3.706   0.479   2.785  0.2687  0.3821 -0.6506
22232SOL    HW268897   3.593   0.379   2.774 -0.4826  1.2856 -1.2194
22233SOL     OW68898   5.450   3.467   5.500 -0.2937  0.5651 -0.2696
22233SOL    HW168899   5.387   3.527   5.539 -0.1896  0.6975 -0.3020
22233SOL    HW268900   5.526   3.523   5.479  1.0311 -0.0217  2.4061
22234SOL     OW68901   1.364   1.369   1.239 -0.3733 -0.7135 -0.1804
22234SOL    HW168902   1.298   1.369   1.169  1.8431 -1.2496 -2.4063
22234SOL    HW268903   1.439   1.324   1.201  2.0083  1.5604  1.5231
22235SOL     OW68904   8.876   5.937   5.795  0.6123  0.5779 -0.2262
22235SOL    HW168905   8.892   6.030   5.810  0.4704  0.7698 -1.2002
22235SOL    HW268906   8.961   5.895   5.808  0.4366  0.6614  1.4092
22236SOL     OW68907   0.130   1.448   4.005  0.3431 -0.0357  0.5974
22236SOL    HW168908   0.151   1.541   3.998  2.3661 -0.3832  1.3258
22236SOL    HW268909   0.078   1.441   4.085  2.0882  0.2424  1.8210
22237SOL     OW68910   1.069   3.155   4.263  0.1438 -0.1508  0.5884
22237SOL    HW168911   1.141   3.139   4.324 -1.6071  0.2049  2.9002
22237SOL    HW268912   1.021   3.072   4.261 -0.6085  0.2748  0.8356
22238SOL     OW68913   0.714   9.500   3.899 -0.3372 -0.2426 -0.5938
22238SOL    HW168914   0.632   9.547   3.886 -0.5850 -0.7292 -0.7715
22238SOL    HW268915   0.770   9.529   3.826  0.1078  1.0664  0.2256
22239SOL     OW68916   3.391   4.256   0.922 -0.1711 -0.2713 -0.0470
22239SOL    HW168917   3.348   4.181   0.881  0.2868 -1.1191  0.9903
22239SOL    HW268918   3.484   4.236   0.920 -0.1842 -0.9189  2.4128
22240SOL     OW68919   4.244   3.721   5.342  0.7504  0.1199  0.1733
22240SOL    HW168920   4.171   3.753   5.395  0.5449 -0.3331  0.1680
22240SOL    HW268921   4.297   3.668   5.402  1.0966  0.4710  0.1856
22241SOL     OW68922   4.926   3.546   3.227  0.2914 -0.1660 -0.2511
22241SOL    HW168923   4.881   3.616   3.179  1.2624 -0.1622 -1.1718
22241SOL    HW268924   4.914   3.468   3.173  0.6095 -0.3578 -0.0452
22242SOL     OW68925   3.763   7.757   8.881 -0.1243  0.0738  0.4127
22242SOL    HW168926   3.733   7.710   8.804 -2.1157 -0.5918  1.5333
22242SOL    HW268927   3.849   7.719   8.901 -0.0789 -0.5005 -0.8141
22243SOL     OW68928   0.400   2.219   2.000  0.0945 -0.0592  0.1901
22243SOL    HW168929   0.311   2.248   2.015  0.0665 -0.0830  0.0674
22243SOL    HW268930   0.434   2.278   1.933 -0.3004 -0.9552 -0.8204
22244SOL     OW68931   9.342   4.919   3.571  0.4572 -0.2973 -0.6066
22244SOL    HW168932   9.332   4.881   3.658  0.5045 -0.4485 -0.6660
22244SOL    HW268933   9.365   5.010   3.586  3.4523 -0.9876 -0.4149
22245SOL     OW68934   3.980   4.373   1.039  0.4098 -0.6346 -0.1066
22245SOL    HW168935   3.940   4.448   0.997  0.2865 -0.8656 -0.4004
22245SOL    HW268936   4.035   4.333   0.971  3.2617  1.1642  0.9442
22246SOL     OW68937   1.241   1.793   7.221  0.1817 -0.2399  0.3070
22246SOL    HW168938   1.169   1.730   7.228  0.2082 -0.1616  1.5796
22246SOL    HW268939   1.275   1.781   7.133 -0.7659 -0.9714  0.0254
22247SOL     OW68940   4.346   6.600   3.645  0.7990 -0.7617  0.3922
22247SOL    HW168941   4.438   6.594   3.671  1.4939 -0.1590 -1.7445
22247SOL    HW268942   4.344   6.566   3.555 -0.9000  0.1581  0.0460
22248SOL     OW68943   1.170   3.616   8.484  0.2529  0.3536 -0.7517
22248SOL    HW168944   1.132   3.537   8.523 -1.4777  1.7532  0.5420
22248SOL    HW268945   1.265   3.599   8.485  0.0851 -0.8711  1.4866
22249SOL     OW68946   7.472   4.283   6.199 -0.2300  0.6030  0.1520
22249SOL    HW168947   7.419   4.361   6.214 -0.0164  0.8296 -0.2590
22249SOL    HW268948   7.463   4.265   6.106 -4.1033 -2.6458  0.9157
22250SOL     OW68949   4.209   5.974   3.619 -0.1550 -0.5205  0.4426
22250SOL    HW168950   4.258   5.892   3.627 -0.1517 -0.4932  0.7117
22250SOL    HW268951   4.165   5.968   3.534  0.1573 -0.6304  0.2868
22251SOL     OW68952   8.663   0.759   5.332  0.2423  0.2979 -0.3565
22251SOL    HW168953   8.686   0.760   5.239 -0.2095 -0.7713 -0.4948
22251SOL    HW268954   8.717   0.828   5.371 -0.1044  1.2498 -1.5257
22252SOL     OW68955   6.618   6.592   6.287 -0.2781  0.3819 -0.1721
22252SOL    HW168956   6.571   6.676   6.290 -0.5754  0.2899 -1.6883
22252SOL    HW268957   6.572   6.542   6.220  0.4679 -0.6590  0.0846
22253SOL     OW68958   0.924   7.509   7.036  0.0348  0.3128  0.2940
22253SOL    HW168959   0.967   7.499   6.951 -0.2233 -0.2512  0.2266
22253SOL    HW268960   0.932   7.603   7.056 -1.2162  0.7477 -1.0565
22254SOL     OW68961   9.490   1.934   1.753 -0.9184  0.0932 -0.0310
22254SOL    HW168962   9.468   1.942   1.846  0.7232 -0.6297  0.4548
22254SOL    HW268963   9.473   2.021   1.717  0.9482  1.1927  1.5536
22255SOL     OW68964   8.112   1.429   8.358  0.0623 -0.1267  0.1241
22255SOL    HW168965   8.187   1.456   8.305 -1.2132 -1.3791 -2.4684
22255SOL    HW268966   8.146   1.356   8.411  0.7161 -0.6626 -1.0001
22256SOL     OW68967   8.975   7.238   3.638  0.3818 -0.4533 -1.0592
22256SOL    HW168968   8.906   7.273   3.694  1.3924  0.9793 -0.6699
22256SOL    HW268969   8.968   7.289   3.557  0.8866 -0.4062 -1.0746
22257SOL     OW68970   8.872   8.989   0.980  0.1584  0.0353  0.3002
22257SOL    HW168971   8.890   8.971   1.072  1.6745  0.8069  0.1930
22257SOL    HW268972   8.901   9.080   0.967 -0.5966  0.1441 -0.7985
22258SOL     OW68973   8.595   2.391   0.767 -0.7167 -0.5934 -0.0560
22258SOL    HW168974   8.547   2.459   0.719  1.5372  0.4383 -1.0228
22258SOL    HW268975   8.672   2.437   0.801 -0.3363 -2.1863  1.3422
22259SOL     OW68976   0.016   3.908   8.499 -0.0142  0.1737 -0.7057
22259SOL    HW168977   0.040   3.877   8.412 -0.1782  1.4951 -1.2551
22259SOL    HW268978   0.058   3.994   8.506 -1.1590  0.7097 -0.0618
22260SOL     OW68979   7.318   3.222   2.430 -0.6226  0.2105  0.0167
22260SOL    HW168980   7.279   3.169   2.360 -2.0915  1.6921 -0.3637
22260SOL    HW268981   7.289   3.180   2.511 -1.0699 -0.0657 -0.2781
22261SOL     OW68982   8.439   5.604   6.314 -0.0767  0.3107 -0.0782
22261SOL    HW168983   8.475   5.580   6.229  0.5251 -0.8504  0.4815
22261SOL    HW268984   8.347   5.577   6.310  0.4233 -1.5618  0.2966
22262SOL     OW68985   7.156   0.063   5.567  0.5047  0.2929  0.0271
22262SOL    HW168986   7.079   0.119   5.578 -1.2731 -1.9117 -0.4177
22262SOL    HW268987   7.200   0.098   5.490  0.3645  1.9973  0.6722
22263SOL     OW68988   9.140   2.788   3.446 -0.7179  0.2098 -0.1953
22263SOL    HW168989   9.189   2.788   3.364  0.0273  0.7603  0.2351
22263SOL    HW268990   9.107   2.877   3.454 -0.4752  0.2568  0.2860
22264SOL     OW68991   9.124   5.668   8.763 -0.1365  0.0708  0.6916
22264SOL    HW168992   9.198   5.727   8.756 -1.0468  1.1962  0.2149
22264SOL    HW268993   9.054   5.711   8.714 -0.8109 -1.4441  0.2570
22265SOL     OW68994   2.549   2.430   7.913 -0.3817  0.2750 -0.1018
22265SOL    HW168995   2.470   2.475   7.944  0.6638  1.5456  0.8757
22265SOL    HW268996   2.594   2.404   7.993  0.3040 -0.2390 -0.6419
22266SOL     OW68997   4.479   6.034   4.013  0.3041  0.9391  0.2081
22266SOL    HW168998   4.526   5.966   3.964 -1.2969 -1.5689  1.9473
22266SOL    HW268999   4.524   6.038   4.097 -0.5072  0.9589  0.6457
22267SOL     OW69000   7.045   1.702   7.439 -0.0879  0.0845  0.5726
22267SOL    HW169001   7.126   1.651   7.446 -0.0168  0.1239  0.1035
22267SOL    HW269002   7.068   1.790   7.469  0.2937  0.3468 -0.4416
22268SOL     OW69003   3.009   4.698   2.192  0.3290  0.1041  0.1085
22268SOL    HW169004   3.047   4.621   2.234  0.1079 -0.4102 -0.6351
22268SOL    HW269005   2.916   4.679   2.183  0.2615  0.4781 -0.0341
22269SOL     OW69006   8.716   4.354   5.147 -0.3877 -0.1910 -0.4872
22269SOL    HW169007   8.804   4.335   5.181 -0.4070  0.1080 -0.2649
22269SOL    HW269008   8.657   4.308   5.207 -0.4123  0.1780 -0.2243
22270SOL     OW69009   1.620   9.052   4.047  0.8346  0.0946 -0.5192
22270SOL    HW169010   1.639   8.968   4.089 -0.7533  0.0976  0.2896
22270SOL    HW269011   1.541   9.035   3.995  0.5046  1.0872 -0.3587
22271SOL     OW69012   0.038   1.645   3.770  0.4639  0.1068 -0.1561
22271SOL    HW169013  -0.035   1.694   3.733  0.9922  0.2215 -1.0899
22271SOL    HW269014   0.022   1.554   3.744 -1.0597 -0.4825  2.4412
22272SOL     OW69015   7.778   8.070   8.806  0.0110 -0.1638  0.3164
22272SOL    HW169016   7.759   7.976   8.802  2.2687 -0.7321  1.1630
22272SOL    HW269017   7.694   8.111   8.823 -0.8987 -2.1196  0.8287
22273SOL     OW69018   3.765   7.446   8.081 -0.3907  0.1270 -0.0188
22273SOL    HW169019   3.841   7.503   8.088  0.3333 -0.2653 -3.2867
22273SOL    HW269020   3.723   7.471   7.999 -1.2450 -2.5511 -0.5109
22274SOL     OW69021   4.645   9.101   4.364 -0.0746  0.2630  0.1935
22274SOL    HW169022   4.617   9.180   4.318 -0.3769  0.7969  1.2600
22274SOL    HW269023   4.587   9.032   4.332 -0.5405  0.7113  0.0670
22275SOL     OW69024   5.750   5.371   2.166 -0.0302 -0.1066 -0.2486
22275SOL    HW169025   5.759   5.372   2.071 -1.0073 -0.7002 -0.3567
22275SOL    HW269026   5.815   5.435   2.197 -1.0446  1.5536 -1.4246
22276SOL     OW69027   2.400   1.342   6.137  0.1323 -0.7733  0.2964
22276SOL    HW169028   2.332   1.370   6.075 -0.0181  0.6856  1.0733
22276SOL    HW269029   2.355   1.338   6.221  0.3014 -2.8775  0.3190
22277SOL     OW69030   3.508   6.462   8.791 -0.1914  0.1346  0.0928
22277SOL    HW169031   3.549   6.416   8.864  0.8173 -0.3379 -0.7484
22277SOL    HW269032   3.493   6.551   8.823 -0.3223 -0.2229  1.0623
22278SOL     OW69033   1.151   8.887   5.916 -0.1016 -0.0608  0.1502
22278SOL    HW169034   1.201   8.913   5.839  0.8404 -1.8075  0.1018
22278SOL    HW269035   1.169   8.954   5.981 -0.4448  1.1306 -0.9499
22279SOL     OW69036   2.722   7.537   4.890  0.2185  0.7417 -0.1777
22279SOL    HW169037   2.644   7.564   4.842  1.4961  1.1919 -2.0935
22279SOL    HW269038   2.753   7.618   4.932  0.5539  0.9317 -0.7767
22280SOL     OW69039   6.695   7.280   8.351  0.1287 -0.5301 -0.0127
22280SOL    HW169040   6.774   7.314   8.308  0.7890  0.0644  1.5794
22280SOL    HW269041   6.673   7.346   8.417 -1.4828 -0.8842 -0.1670
22281SOL     OW69042   4.390   3.879   4.687 -0.0123  0.0680  0.7622
22281SOL    HW169043   4.443   3.874   4.607 -1.7385  3.1435 -0.7383
22281SOL    HW269044   4.437   3.941   4.743 -0.8276  1.0734  0.3637
22282SOL     OW69045   3.177   5.544   1.431  0.1307  0.3580 -0.2339
22282SOL    HW169046   3.133   5.501   1.504 -1.7385  1.0316 -0.8972
22282SOL    HW269047   3.254   5.584   1.470  0.5237 -1.3842  0.8732
22283SOL     OW69048   5.297   3.795   7.466  0.0760 -0.5241 -0.4088
22283SOL    HW169049   5.384   3.832   7.477  0.5331 -0.7718 -2.7859
22283SOL    HW269050   5.298   3.715   7.518  0.4809  0.5670  1.3567
22284SOL     OW69051   1.306   7.673   8.322  0.0274 -0.3634  0.2396
22284SOL    HW169052   1.270   7.686   8.234 -1.3668  1.7265  1.0542
22284SOL    HW269053   1.263   7.739   8.376  0.3189 -2.0281  2.6750
22285SOL     OW69054   5.554   6.691   1.789  0.4290 -0.0947 -0.2402
22285SOL    HW169055   5.540   6.723   1.700  1.1993 -0.2084 -0.4061
22285SOL    HW269056   5.649   6.687   1.799  0.3596  0.1459  0.6725
22286SOL     OW69057   2.822   7.102   2.445  0.3266 -0.0853  0.0592
22286SOL    HW169058   2.884   7.046   2.493  0.4025 -0.3565 -0.3472
22286SOL    HW269059   2.833   7.076   2.353  1.7380  1.9146 -0.4062
22287SOL     OW69060   5.489   7.609   8.420  0.2184  0.2723  0.1354
22287SOL    HW169061   5.415   7.667   8.438 -0.2144 -0.4676  0.8033
22287SOL    HW269062   5.454   7.544   8.359  0.6325  0.5598 -0.4150
22288SOL     OW69063   2.541   1.594   7.633  0.1134  0.0085  0.5671
22288SOL    HW169064   2.559   1.501   7.637 -2.0461 -0.5390 -0.8548
22288SOL    HW269065   2.609   1.630   7.577  0.4726 -0.8493  0.4513
22289SOL     OW69066   7.229   5.698   6.091  0.0922  0.9686 -0.3412
22289SOL    HW169067   7.222   5.606   6.065  2.0606  0.8126 -0.4946
22289SOL    HW269068   7.169   5.744   6.032 -1.2277 -0.2464  0.0140
22290SOL     OW69069   4.547   8.457   1.895  0.5232  0.5019  0.0292
22290SOL    HW169070   4.597   8.446   1.813 -0.7559  1.6427 -0.9584
22290SOL    HW269071   4.503   8.541   1.884 -0.9709 -0.0883  1.2257
22291SOL     OW69072   8.064   4.796   2.681 -0.4786  0.1473  0.6814
22291SOL    HW169073   8.121   4.781   2.606  0.4131 -0.8480  1.5178
22291SOL    HW269074   8.082   4.886   2.707 -2.1536  1.1387 -1.3680
22292SOL     OW69075   6.934   4.755   3.284  0.2049  0.4234 -0.2174
22292SOL    HW169076   6.960   4.700   3.211 -2.0511  0.5812 -1.2222
22292SOL    HW269077   7.000   4.825   3.286  0.7731 -0.0462 -1.5571
22293SOL     OW69078   1.395   2.758   7.549 -0.1264 -0.0288  0.1558
22293SOL    HW169079   1.450   2.827   7.585  0.2464  0.6591 -1.6360
22293SOL    HW269080   1.313   2.765   7.597 -0.5224  2.4658 -0.7690
22294SOL     OW69081   1.985   5.436   3.865 -0.0689  0.5964  0.2459
22294SOL    HW169082   1.966   5.481   3.783  1.3508 -0.4808 -0.7336
22294SOL    HW269083   2.043   5.495   3.912  0.7973  0.3564 -0.4858
22295SOL     OW69084   8.761   3.963   3.018 -0.1520 -0.2748 -0.0716
22295SOL    HW169085   8.795   3.974   3.106  1.2954 -0.7362 -0.5534
22295SOL    HW269086   8.836   3.936   2.966 -0.5939  1.5283 -1.7760
22296SOL     OW69087   7.967   7.263   4.444 -0.4600 -0.0375  0.3970
22296SOL    HW169088   7.906   7.319   4.396  1.2751  1.4715 -0.1587
22296SOL    HW269089   7.984   7.311   4.525  0.5607 -0.0531  0.2024
22297SOL     OW69090   3.535   1.738   3.131  0.1299 -0.6529 -0.3892
22297SOL    HW169091   3.443   1.737   3.159  0.2569  1.9688  0.4466
22297SOL    HW269092   3.584   1.755   3.212  1.2103 -0.5043 -1.0523
22298SOL     OW69093   5.782   6.137   0.619 -0.0528  0.0253  0.3054
22298SOL    HW169094   5.862   6.129   0.670  0.5839 -1.0886 -0.7988
22298SOL    HW269095   5.787   6.065   0.556 -1.2479  0.7907 -0.7068
22299SOL     OW69096   7.032   5.619   8.948 -0.0898 -0.0145 -0.1439
22299SOL    HW169097   7.076   5.585   9.026  2.1523  0.9085 -0.9234
22299SOL    HW269098   6.980   5.545   8.915  0.2877 -0.9305  1.2449
22300SOL     OW69099   0.208   1.289   8.187  0.0068 -0.0588  0.0332
22300SOL    HW169100   0.241   1.378   8.197  3.2448 -1.1171 -0.0712
22300SOL    HW269101   0.217   1.250   8.274  0.0229 -0.7088 -0.2493
22301SOL     OW69102   3.188   6.493   4.010  0.5770 -0.8056 -0.2308
22301SOL    HW169103   3.137   6.414   3.990  0.7448 -0.9797  0.0319
22301SOL    HW269104   3.147   6.529   4.089  1.0433 -1.1051  0.1475
22302SOL     OW69105   0.072   1.027   9.132 -0.0433 -0.2315 -0.0314
22302SOL    HW169106   0.116   1.091   9.189  2.8941 -1.8155 -0.3399
22302SOL    HW269107   0.068   1.070   9.047 -1.6574  0.9613  0.5963
22303SOL     OW69108   0.905   0.191   0.024  0.6270  0.2549 -0.1356
22303SOL    HW169109   0.978   0.250   0.005  0.1981  0.6043 -0.7349
22303SOL    HW269110   0.866   0.226   0.104 -0.0811  1.2418 -0.8935
22304SOL     OW69111   3.859   6.662   9.403  0.0349 -0.0201 -0.0041
22304SOL    HW169112   3.826   6.583   9.362  0.9778 -0.6692  0.4559
22304SOL    HW269113   3.827   6.659   9.493  1.8829 -1.0651  0.6926
22305SOL     OW69114   0.027   5.982   1.583  0.3284  0.5762  0.1081
22305SOL    HW169115  -0.011   6.067   1.560  1.2958  2.0601  3.4734
22305SOL    HW269116   0.114   5.983   1.542  0.6254  1.5771  0.7234
22306SOL     OW69117   3.290   4.336   7.108 -0.2288  0.2749  0.0556
22306SOL    HW169118   3.324   4.246   7.111 -1.0656 -0.0281  0.9518
22306SOL    HW269119   3.211   4.334   7.161 -1.1638  1.1763 -1.2133
22307SOL     OW69120   6.113   6.655   8.922  0.2242 -0.3055  0.2739
22307SOL    HW169121   6.162   6.684   8.845 -0.1738 -0.1403  0.0793
22307SOL    HW269122   6.180   6.623   8.982  0.3730 -4.3181 -1.6767
22308SOL     OW69123   0.200   0.379   0.488  0.2020  0.4223  0.0640
22308SOL    HW169124   0.218   0.427   0.407  2.2139 -1.7653 -0.9186
22308SOL    HW269125   0.271   0.405   0.547  0.4091 -0.1537  0.0723
22309SOL     OW69126   3.742   2.024   6.664  0.0980 -0.3588 -0.4057
22309SOL    HW169127   3.650   1.998   6.672 -0.5743  1.2682 -2.0163
22309SOL    HW269128   3.787   1.944   6.639 -0.7769 -1.2878  0.8289
22310SOL     OW69129   0.221   8.113   1.928 -0.0843  0.0588  0.2976
22310SOL    HW169130   0.314   8.130   1.917 -0.1198  0.1535  0.1387
22310SOL    HW269131   0.180   8.199   1.919 -0.1855  0.0203  0.3843
22311SOL     OW69132   6.192   5.788   5.852  0.2232  0.6797 -0.8562
22311SOL    HW169133   6.150   5.722   5.908 -1.4997  1.4643 -1.1431
22311SOL    HW269134   6.282   5.757   5.842  0.4790  0.2502  1.9433
22312SOL     OW69135   7.483   8.909   2.531 -0.7332 -0.4511  0.1633
22312SOL    HW169136   7.472   9.004   2.540  0.0983 -0.3092 -0.2516
22312SOL    HW269137   7.528   8.883   2.610 -0.3844 -0.3981 -0.0161
22313SOL     OW69138   5.489   6.015   6.938  0.2928  0.1589  0.1176
22313SOL    HW169139   5.409   6.067   6.945 -1.0912 -1.6895 -1.1384
22313SOL    HW269140   5.492   5.965   7.020 -0.8413 -1.0453 -0.5353
22314SOL     OW69141   6.400   6.480   6.010 -0.5293 -0.3522  0.1219
22314SOL    HW169142   6.424   6.467   5.919  0.5854  0.7487  0.2277
22314SOL    HW269143   6.400   6.392   6.048  0.9785 -0.6289 -0.4730
22315SOL     OW69144   9.352   3.190   4.632  0.1889  0.3316 -0.2870
22315SOL    HW169145   9.285   3.238   4.583  1.1531  1.2974 -0.7041
22315SOL    HW269146   9.356   3.235   4.717 -0.2154 -0.2193  0.0377
22316SOL     OW69147   7.224   7.948   2.097 -0.2650  0.4634 -0.0863
22316SOL    HW169148   7.175   7.920   2.020  0.1012 -0.3636 -0.0290
22316SOL    HW269149   7.164   7.933   2.170 -0.9951  2.2048 -0.2818
22317SOL     OW69150   3.052   7.006   9.398  0.1017  0.5456 -0.4293
22317SOL    HW169151   2.974   6.996   9.454 -1.6649  0.1196 -2.7882
22317SOL    HW269152   3.125   7.005   9.459 -1.6005 -1.1062  1.7696
22318SOL     OW69153   2.458   4.806   7.773 -0.1753 -0.8951 -0.1946
22318SOL    HW169154   2.520   4.779   7.706  1.2858  0.6278  0.4828
22318SOL    HW269155   2.420   4.723   7.805  0.8950 -1.8017 -1.1966
22319SOL     OW69156   1.196   6.288   2.419  0.0760  0.0437  0.3467
22319SOL    HW169157   1.209   6.318   2.509  0.0712  2.0961 -0.2789
22319SOL    HW269158   1.245   6.351   2.366 -1.7582  0.2130 -1.2292
22320SOL     OW69159   2.987   7.393   6.487 -0.1984 -0.5806 -0.3073
22320SOL    HW169160   3.075   7.358   6.496 -0.0989 -0.0223  1.0250
22320SOL    HW269161   2.938   7.353   6.559 -0.8676 -0.3549 -0.6307
22321SOL     OW69162   8.980   8.383   3.409 -0.4401  0.0432 -0.2807
22321SOL    HW169163   9.075   8.386   3.397 -0.1556 -1.2016  1.3837
22321SOL    HW269164   8.964   8.436   3.487 -1.4124  2.0099 -1.7306
22322SOL     OW69165   4.107   3.327   8.311  0.1236 -0.2583  0.1996
22322SOL    HW169166   4.201   3.339   8.326  0.0848  0.8663 -0.3742
22322SOL    HW269167   4.102   3.257   8.247  0.5693 -0.3376  0.2437
22323SOL     OW69168   6.577   5.987   9.157  0.1376 -0.0051  0.1413
22323SOL    HW169169   6.531   5.921   9.104 -1.3521  0.3262  0.9605
22323SOL    HW269170   6.553   6.070   9.116  0.3363  0.1502  0.3439
22324SOL     OW69171   0.861   0.616   5.049  0.2453  0.1957  0.0879
22324SOL    HW169172   0.916   0.672   4.993  0.3567 -1.7209 -1.8201
22324SOL    HW269173   0.922   0.552   5.086 -0.1625  0.2253  0.8307
22325SOL     OW69174   0.658   3.513   5.718  0.3436 -0.0200  0.0057
22325SOL    HW169175   0.699   3.430   5.740 -1.0256 -0.3816  1.3832
22325SOL    HW269176   0.574   3.489   5.677  1.0844  0.7028 -2.0732
22326SOL     OW69177   2.757   1.883   7.304  0.6525  0.0085  0.1248
22326SOL    HW169178   2.770   1.976   7.322  1.0567 -0.3342  1.8299
22326SOL    HW269179   2.817   1.863   7.232 -1.9835  1.7732 -2.7576
22327SOL     OW69180   2.506   0.477   6.132  0.2138 -0.3679 -0.4915
22327SOL    HW169181   2.481   0.552   6.078  2.6652  0.7508 -0.2187
22327SOL    HW269182   2.567   0.427   6.076  1.2176 -0.2883  0.4928
22328SOL     OW69183   3.441   2.666   6.366 -0.1921 -0.4381 -0.0246
22328SOL    HW169184   3.425   2.743   6.421  4.1321  1.2082 -0.7215
22328SOL    HW269185   3.493   2.608   6.421  1.4917 -0.1747 -1.2447
22329SOL     OW69186   3.101   0.371   5.603  0.4607  0.6024 -0.0291
22329SOL    HW169187   3.101   0.308   5.530 -2.0828  1.5115 -0.9234
22329SOL    HW269188   3.103   0.317   5.682 -1.6393 -0.6708 -0.7678
22330SOL     OW69189   9.070   9.327   7.583 -0.6375  0.2079  0.4986
22330SOL    HW169190   9.132   9.333   7.509  0.2774 -0.9967  1.1249
22330SOL    HW269191   9.030   9.241   7.572 -0.9560  0.2874  1.0596
22331SOL     OW69192   7.996   3.281   8.083  0.2413 -0.3501 -0.0206
22331SOL    HW169193   8.071   3.333   8.056 -0.1570  0.8144  1.0182
22331SOL    HW269194   8.012   3.263   8.176 -1.4810  1.2874  0.6606
22332SOL     OW69195   0.858   3.514   8.027 -0.0817  0.4276  0.1644
22332SOL    HW169196   0.946   3.481   8.008 -1.1665 -2.3390 -0.4442
22332SOL    HW269197   0.815   3.521   7.942 -1.4450 -1.4603  0.6226
22333SOL     OW69198   4.835   0.790   8.782 -0.0821 -0.3395 -0.5690
22333SOL    HW169199   4.787   0.781   8.700  0.8119 -0.8982 -1.0443
22333SOL    HW269200   4.922   0.756   8.763 -0.3411 -2.0653  1.0516
22334SOL     OW69201   8.148   2.277   5.548  0.4453 -0.0448  0.3557
22334SOL    HW169202   8.191   2.361   5.532  1.2526 -0.7383 -1.4728
22334SOL    HW269203   8.104   2.257   5.465  1.1736 -1.9176  0.3730
22335SOL     OW69204   2.624   1.489   4.449  0.4776  0.1722  0.0539
22335SOL    HW169205   2.653   1.566   4.497  1.1134  1.1386 -1.7974
22335SOL    HW269206   2.534   1.510   4.424  0.6980  0.3802 -0.5700
22336SOL     OW69207   2.607   4.396   4.120 -0.1517  0.4158  0.1016
22336SOL    HW169208   2.585   4.303   4.127 -0.8919  0.3761 -2.0802
22336SOL    HW269209   2.691   4.397   4.074  1.0835  0.8168  2.2116
22337SOL     OW69210   6.461   3.805   6.134 -0.3428 -0.0696  0.2434
22337SOL    HW169211   6.454   3.899   6.116 -0.8279 -0.1634 -0.0869
22337SOL    HW269212   6.371   3.774   6.134 -0.3162 -0.2572  1.9603
22338SOL     OW69213   3.382   8.766   1.293 -0.3212  0.3055  0.0398
22338SOL    HW169214   3.362   8.682   1.252  0.8703 -0.2026  0.4608
22338SOL    HW269215   3.300   8.815   1.288 -0.6216 -0.3073 -1.5482
22339SOL     OW69216   0.868   2.867   4.937  0.1397  0.2192  0.1961
22339SOL    HW169217   0.863   2.786   4.886 -2.1279  0.8721 -0.7654
22339SOL    HW269218   0.864   2.838   5.028 -1.2394 -0.7790 -0.1463
22340SOL     OW69219   2.494   5.306   1.986  0.4960 -0.8476  0.0142
22340SOL    HW169220   2.518   5.337   1.899  1.0937 -1.5137 -0.0674
22340SOL    HW269221   2.496   5.384   2.042  0.6059 -0.5092 -0.4596
22341SOL     OW69222   8.797   8.541   4.513  0.0692 -0.4269 -0.0746
22341SOL    HW169223   8.774   8.589   4.593  2.7305 -1.2547  1.3153
22341SOL    HW269224   8.743   8.462   4.515  0.2987 -0.5633  1.0556
22342SOL     OW69225   8.528   9.167   3.795  0.3571  0.2471 -0.0306
22342SOL    HW169226   8.573   9.083   3.806 -1.0788 -0.6445 -0.7268
22342SOL    HW269227   8.532   9.208   3.882  0.7777 -0.6883  0.4041
22343SOL     OW69228   4.735   0.822   8.120  0.5177  0.1076  0.7027
22343SOL    HW169229   4.707   0.912   8.136 -1.0251 -0.3970  0.9658
22343SOL    HW269230   4.831   0.826   8.120  0.4660  1.8379  0.1131
22344SOL     OW69231   1.539   4.052   4.570 -0.3998 -0.1818 -0.4274
22344SOL    HW169232   1.510   4.121   4.630 -2.1547 -0.7346 -0.5570
22344SOL    HW269233   1.494   4.073   4.488 -0.3122 -1.0342 -0.6970
22345SOL     OW69234   4.174   4.756   6.420 -0.2673  0.3305 -0.0517
22345SOL    HW169235   4.228   4.731   6.496  0.9637  0.6978 -0.7775
22345SOL    HW269236   4.125   4.832   6.451 -2.0215 -1.2465  1.3015
22346SOL     OW69237   0.631   1.243   6.422  0.3635 -0.0037 -0.4422
22346SOL    HW169238   0.701   1.198   6.469 -0.2314 -0.5083 -0.0128
22346SOL    HW269239   0.627   1.329   6.463  0.2918 -0.2086 -0.0100
22347SOL     OW69240   5.636   3.022   8.717  0.3303  0.4468  0.3986
22347SOL    HW169241   5.557   3.037   8.769  1.2010  1.3070  1.5199
22347SOL    HW269242   5.607   2.966   8.644 -1.1134 -0.0008  1.2807
22348SOL     OW69243   2.191   1.223   8.971 -0.4373  0.0449 -0.5517
22348SOL    HW169244   2.182   1.140   8.924  0.6479 -0.5935  0.3041
22348SOL    HW269245   2.242   1.200   9.048 -2.5958  0.9565  1.2372
22349SOL     OW69246   0.834   0.247   2.302  0.4471 -0.1623 -0.2822
22349SOL    HW169247   0.747   0.287   2.296  0.6806  0.4621  0.3112
22349SOL    HW269248   0.893   0.312   2.263  0.9802  0.6229  1.6868
22350SOL     OW69249   3.296   2.079   6.517  0.0696  0.6467 -0.1427
22350SOL    HW169250   3.276   2.168   6.544  2.2674  1.1020  0.2057
22350SOL    HW269251   3.385   2.084   6.482  0.0697 -1.3250 -0.5530
22351SOL     OW69252   0.434   7.311   6.487  0.8152 -0.1138  0.2923
22351SOL    HW169253   0.362   7.265   6.531  0.8129  0.0396  0.4491
22351SOL    HW269254   0.433   7.399   6.524  1.1077 -0.1206  0.3222
22352SOL     OW69255   6.912   8.731   8.402 -0.1233  0.5482 -0.1717
22352SOL    HW169256   6.953   8.801   8.351 -0.1210 -0.5883 -1.8140
22352SOL    HW269257   6.897   8.661   8.339  2.1295 -1.9721  1.8286
22353SOL     OW69258   7.545   4.177   1.397  0.6439 -0.1053 -0.1313
22353SOL    HW169259   7.612   4.188   1.464  3.7122 -0.2817 -2.9099
22353SOL    HW269260   7.561   4.248   1.335 -0.8985 -0.9327 -1.5659
22354SOL     OW69261   3.795   3.193   8.829  0.2437 -0.0219  0.0138
22354SOL    HW169262   3.816   3.115   8.777  0.5546 -0.6925  1.0991
22354SOL    HW269263   3.869   3.252   8.814  0.6768 -0.4960  0.2188
22355SOL     OW69264   9.531   5.336   4.722 -0.0873  0.1141 -0.2062
22355SOL    HW169265   9.440   5.332   4.751 -0.8123  0.0486 -2.2736
22355SOL    HW269266   9.547   5.429   4.706  0.4951  0.2191  0.9375
22356SOL     OW69267   8.970   6.800   8.759 -0.0344 -0.0034 -0.4436
22356SOL    HW169268   8.966   6.836   8.670  2.4096 -1.2633 -1.1633
22356SOL    HW269269   9.061   6.769   8.768 -1.1124 -3.1518  1.1565
22357SOL     OW69270   0.438   4.666   8.563  0.2604 -0.1100  0.6396
22357SOL    HW169271   0.502   4.722   8.519  0.5269 -1.1718 -0.3798
22357SOL    HW269272   0.375   4.642   8.495  0.8072 -1.9732  0.7083
22358SOL     OW69273   1.754   6.133   4.324 -0.1042 -0.4013 -0.4166
22358SOL    HW169274   1.835   6.090   4.296 -1.0090 -0.7150 -2.7130
22358SOL    HW269275   1.685   6.067   4.308 -1.0353  0.4911 -0.2053
22359SOL     OW69276   7.454   2.013   0.325 -0.3532 -0.1823 -0.1759
22359SOL    HW169277   7.378   2.042   0.274 -0.2924  1.9222  0.8445
22359SOL    HW269278   7.447   2.060   0.408  1.1292 -1.3190  0.6507
22360SOL     OW69279   0.463   7.834   2.532  0.7542  0.7593  0.3481
22360SOL    HW169280   0.393   7.882   2.488  0.1329 -0.7192 -0.3111
22360SOL    HW269281   0.541   7.889   2.520  0.2904  1.0907 -1.3240
22361SOL     OW69282   4.759   1.227   2.167  0.3653  0.1856 -0.3330
22361SOL    HW169283   4.771   1.138   2.202  1.4266  0.5900  0.3960
22361SOL    HW269284   4.770   1.283   2.244 -0.3483  0.9440 -0.7862
22362SOL     OW69285   3.666   1.416   2.383  0.0019 -0.1722 -0.6785
22362SOL    HW169286   3.595   1.431   2.321  0.3395 -0.4280 -1.1357
22362SOL    HW269287   3.632   1.350   2.443 -1.2637  1.8914  0.9788
22363SOL     OW69288   6.583   6.924   7.666 -0.2471 -0.1135 -0.1421
22363SOL    HW169289   6.641   7.000   7.658 -1.5666  0.7731 -1.8624
22363SOL    HW269290   6.542   6.915   7.580 -0.2681 -2.7050  0.0529
22364SOL     OW69291   2.995   6.660   4.165  0.0275  0.5082 -0.1628
22364SOL    HW169292   2.928   6.698   4.222  0.2640  1.2737 -0.3860
22364SOL    HW269293   2.971   6.689   4.078 -0.7582 -1.2655 -0.5863
22365SOL     OW69294   2.530   2.294   7.665  0.3572 -0.6541 -0.4291
22365SOL    HW169295   2.434   2.299   7.664  0.4336  2.1360 -0.6628
22365SOL    HW269296   2.556   2.342   7.743  1.5900 -1.7522 -0.1276
22366SOL     OW69297   8.551   2.075   6.895  0.1155 -0.1012  0.5481
22366SOL    HW169298   8.602   2.107   6.821  0.4824 -2.4107 -0.2711
22366SOL    HW269299   8.469   2.125   6.891  1.5258  2.4230  0.8488
22367SOL     OW69300   2.471   6.709   6.438  0.6681  0.3232  0.2112
22367SOL    HW169301   2.540   6.742   6.496  0.8491  1.0908 -0.4234
22367SOL    HW269302   2.436   6.788   6.395  0.1468 -0.1729 -0.2924
22368SOL     OW69303   2.123   2.664   5.846  0.2231  0.5275  0.4327
22368SOL    HW169304   2.048   2.722   5.856 -1.0817 -0.7972 -1.0728
22368SOL    HW269305   2.085   2.577   5.832  2.0794 -0.7208  2.2945
22369SOL     OW69306   3.895   1.678   2.255 -1.1317 -0.1184  0.0371
22369SOL    HW169307   3.933   1.603   2.210  1.4288  0.6882  0.6406
22369SOL    HW269308   3.884   1.649   2.346  1.9902  0.7383  0.8278
22370SOL     OW69309   8.944   2.491   1.902 -0.2324 -0.5303 -0.3439
22370SOL    HW169310   8.925   2.580   1.933  0.3549 -0.0235 -1.4190
22370SOL    HW269311   8.948   2.499   1.807  2.5718 -1.1504 -0.3453
22371SOL     OW69312   6.486   6.044   4.287 -0.2819 -0.3660  0.5512
22371SOL    HW169313   6.494   6.100   4.210 -1.0966 -0.7504  0.1770
22371SOL    HW269314   6.392   6.028   4.295 -0.2969  0.2899  2.0722
22372SOL     OW69315   6.365   8.478   2.800  0.1507  0.1600 -0.0771
22372SOL    HW169316   6.319   8.457   2.881 -0.6402 -0.2996 -0.6296
22372SOL    HW269317   6.319   8.428   2.732 -0.1560  1.6721 -1.0434
22373SOL     OW69318   7.502   8.535   6.386  0.2339 -0.0124 -0.0964
22373SOL    HW169319   7.422   8.485   6.405 -1.2005  1.5017 -1.8488
22373SOL    HW269320   7.474   8.603   6.325  2.6174  1.4313  0.3146
22374SOL     OW69321   5.011   5.027   1.047  0.5437 -0.2281  0.8041
22374SOL    HW169322   5.043   5.116   1.036  1.7371 -0.3830  2.5947
22374SOL    HW269323   5.039   5.002   1.135 -0.2717 -2.1692  0.5679
22375SOL     OW69324   5.949   2.881   8.315  0.3431 -0.2091  0.6021
22375SOL    HW169325   5.956   2.976   8.324  0.3063 -0.1363 -0.0906
22375SOL    HW269326   5.924   2.868   8.223 -0.9509 -0.8313  1.0252
22376SOL     OW69327   0.584   4.363   6.022 -0.6626 -0.1757 -0.0765
22376SOL    HW169328   0.565   4.273   6.047  2.0285 -0.8807 -0.2611
22376SOL    HW269329   0.677   4.363   6.001 -0.5052  2.7259  0.1825
22377SOL     OW69330   8.758   1.126   6.487  0.3696 -0.8779  0.0281
22377SOL    HW169331   8.769   1.174   6.406  0.0791  0.7104  0.8944
22377SOL    HW269332   8.706   1.049   6.463  0.8752 -0.7979 -1.3951
22378SOL     OW69333   2.395   6.391   2.556  0.2816  0.0156  0.1933
22378SOL    HW169334   2.435   6.304   2.564 -2.1470 -1.2718 -0.7457
22378SOL    HW269335   2.420   6.421   2.469  0.1262 -0.2895  0.0418
22379SOL     OW69336   5.992   2.548   0.184 -0.2252  0.1307 -0.3592
22379SOL    HW169337   5.985   2.469   0.238  0.7136  0.8758  0.9095
22379SOL    HW269338   6.068   2.594   0.219  0.4087  0.6694 -2.3411
22380SOL     OW69339   8.824   2.894   6.549 -0.7213  0.1464  0.6120
22380SOL    HW169340   8.872   2.827   6.500  2.7775  2.9036 -0.1582
22380SOL    HW269341   8.846   2.877   6.641  1.3333  0.8877  0.3276
22381SOL     OW69342   0.723   0.169   1.474 -0.2723  0.0256 -0.0805
22381SOL    HW169343   0.645   0.225   1.481 -1.2535 -1.0729 -1.5806
22381SOL    HW269344   0.693   0.093   1.425  1.7848 -0.4036 -0.7590
22382SOL     OW69345   7.795   4.108   8.447 -0.2888  0.9573  0.4920
22382SOL    HW169346   7.722   4.064   8.403 -0.2142  0.5735  0.7529
22382SOL    HW269347   7.811   4.056   8.526  2.2115 -0.7756 -0.9898
22383SOL     OW69348   2.625   2.156   3.028  0.7293  0.2624  0.2253
22383SOL    HW169349   2.564   2.093   3.066  0.5855  0.3394  0.1214
22383SOL    HW269350   2.569   2.226   2.994  0.8691  0.2787  0.0318
22384SOL     OW69351   4.816   5.703   5.003  0.1014  0.2688 -0.3685
22384SOL    HW169352   4.781   5.757   4.932  0.0259  1.7203  0.7353
22384SOL    HW269353   4.769   5.732   5.081  0.7670 -0.7250  0.4330
22385SOL     OW69354   1.230   7.153   8.688  0.6383  0.7052 -0.1306
22385SOL    HW169355   1.262   7.240   8.667 -0.8607  1.7419  1.5536
22385SOL    HW269356   1.186   7.123   8.609  0.0722  2.0381 -0.3425
22386SOL     OW69357   6.378   2.491   4.434 -0.2130 -0.1142 -0.0370
22386SOL    HW169358   6.315   2.451   4.374  0.0430 -1.2189  0.4046
22386SOL    HW269359   6.463   2.457   4.406  0.0600  0.4543  0.0904
22387SOL     OW69360   3.197   8.277   4.592  0.7686 -0.4312 -0.1401
22387SOL    HW169361   3.220   8.272   4.685  1.8704 -1.6193 -0.4554
22387SOL    HW269362   3.213   8.188   4.559 -1.0486 -0.4302 -1.1445
22388SOL     OW69363   6.486   5.954   7.432  0.8036 -0.4048 -1.0188
22388SOL    HW169364   6.508   5.881   7.490 -0.0556 -1.0714 -1.5035
22388SOL    HW269365   6.567   5.972   7.385  1.8711  0.9374  1.1847
22389SOL     OW69366   0.652   1.444   5.804 -0.2621  0.2760  0.2854
22389SOL    HW169367   0.678   1.416   5.892  1.2255 -0.7342 -0.4315
22389SOL    HW269368   0.644   1.362   5.754 -0.1293  0.8752 -0.7547
22390SOL     OW69369   3.845   7.825   4.819  0.2184  0.1020  0.1057
22390SOL    HW169370   3.879   7.818   4.730 -0.1036  1.4565 -0.1481
22390SOL    HW269371   3.882   7.750   4.866 -0.4351 -1.2282 -1.4261
22391SOL     OW69372   6.781   2.792   0.043 -0.2921 -0.3583  0.4646
22391SOL    HW169373   6.817   2.881   0.045  0.1763 -0.4088 -1.9946
22391SOL    HW269374   6.695   2.800   0.084  0.3134  0.9104  1.5674
22392SOL     OW69375   3.990   9.335   8.384 -0.0397  0.7793  0.2724
22392SOL    HW169376   4.016   9.408   8.329  0.7618  0.4364  0.1758
22392SOL    HW269377   3.962   9.266   8.323  1.7014  0.0746  0.2163
22393SOL     OW69378   1.374   0.177   0.526 -0.4096  0.4293  0.5188
22393SOL    HW169379   1.284   0.186   0.558 -0.7390  1.3129 -0.5771
22393SOL    HW269380   1.407   0.097   0.568 -2.2966 -0.9045 -0.3721
22394SOL     OW69381   1.808   7.187   5.279  0.1319 -0.3049  0.2312
22394SOL    HW169382   1.894   7.158   5.309  0.3281 -1.9925 -1.7660
22394SOL    HW269383   1.824   7.274   5.241  1.0428 -0.7347 -0.4065
22395SOL     OW69384   0.979   9.269   9.145 -0.9500 -0.3362  0.1151
22395SOL    HW169385   1.019   9.353   9.169  0.0082 -0.6842 -0.2334
22395SOL    HW269386   1.047   9.204   9.161 -1.4959 -0.9879 -0.1659
22396SOL     OW69387   7.756   6.703   0.445 -0.3390 -0.1226 -0.2470
22396SOL    HW169388   7.774   6.785   0.492  0.3844 -0.2168 -0.3456
22396SOL    HW269389   7.803   6.713   0.362  2.1099 -1.7472  0.8374
22397SOL     OW69390   3.242   4.443   5.556  0.9530 -0.1771  0.2654
22397SOL    HW169391   3.316   4.504   5.551  0.7076  0.1924  1.0248
22397SOL    HW269392   3.182   4.471   5.487  0.6991  0.6405  0.8085
22398SOL     OW69393   7.991   9.455   7.074 -0.3712  0.2104 -0.1054
22398SOL    HW169394   8.026   9.371   7.101  2.8346  0.8107 -1.9500
22398SOL    HW269395   7.979   9.504   7.156  0.9015 -0.8833  0.7657
22399SOL     OW69396   8.323   1.331   3.939 -0.0024  0.0830  0.2877
22399SOL    HW169397   8.278   1.345   3.855  1.1315  1.4542 -0.1377
22399SOL    HW269398   8.410   1.299   3.914  0.0401 -0.3594  0.9843
22400SOL     OW69399   5.310   7.370   7.009  0.0173  0.2402 -0.3652
22400SOL    HW169400   5.348   7.330   7.087 -0.0046  2.8599  1.1148
22400SOL    HW269401   5.226   7.406   7.039 -0.9896 -0.5080 -2.1569
22401SOL     OW69402   2.157   6.469   3.253 -0.4253  0.3513 -0.0781
22401SOL    HW169403   2.179   6.522   3.177  1.6648 -1.6511 -1.0032
22401SOL    HW269404   2.111   6.529   3.312  1.7278  3.1901 -1.0273
22402SOL     OW69405   1.310   8.913   5.660 -1.0204  0.0123 -0.0270
22402SOL    HW169406   1.297   8.984   5.598 -0.2911 -0.1004 -0.3178
22402SOL    HW269407   1.363   8.849   5.613  0.8843  0.6198  1.1795
22403SOL     OW69408   3.916   3.479   8.517 -0.5722 -0.3109 -0.1793
22403SOL    HW169409   4.000   3.525   8.520 -1.1313  0.7379 -0.3544
22403SOL    HW269410   3.940   3.386   8.523  0.5627 -0.0043  0.3441
22404SOL     OW69411   0.565   8.193   5.444 -0.1870 -0.0161 -0.2369
22404SOL    HW169412   0.587   8.159   5.530 -1.1137 -0.9663 -0.3476
22404SOL    HW269413   0.499   8.132   5.411 -0.3956  0.7639 -1.3038
22405SOL     OW69414   8.520   1.708   9.134  0.1390 -0.3696  0.0671
22405SOL    HW169415   8.455   1.645   9.163  1.5113 -2.2004 -0.5958
22405SOL    HW269416   8.491   1.735   9.047 -0.7002  0.2926  0.5463
22406SOL     OW69417   6.699   2.228   7.304 -0.6848  0.3906 -0.4882
22406SOL    HW169418   6.691   2.318   7.336  0.0423  0.1262  0.5040
22406SOL    HW269419   6.659   2.174   7.373  0.0270 -0.1238 -0.4615
22407SOL     OW69420   3.998   1.826   5.881 -0.5500  0.3073  0.1132
22407SOL    HW169421   3.961   1.816   5.969  0.3198 -1.5094  0.3364
22407SOL    HW269422   4.031   1.915   5.878  1.2762 -0.1919  2.4291
22408SOL     OW69423   2.563   7.022   2.023 -0.3493 -0.6593 -0.5818
22408SOL    HW169424   2.556   7.024   2.118 -0.6350 -0.0556 -0.6150
22408SOL    HW269425   2.653   7.051   2.005 -0.2230 -0.9878 -0.4906
22409SOL     OW69426   7.944   7.001   2.994 -0.4050 -0.3686  0.5609
22409SOL    HW169427   7.894   7.074   2.958  0.5724  0.4091  0.7420
22409SOL    HW269428   7.981   6.957   2.917  1.5324  1.1841  0.5247
22410SOL     OW69429   6.481   3.396   1.203 -0.0510  0.1726 -0.3153
22410SOL    HW169430   6.475   3.315   1.254 -0.5845  1.2422  1.3963
22410SOL    HW269431   6.467   3.368   1.112 -0.4521 -1.6127  0.2550
22411SOL     OW69432   0.619   0.756   1.913 -0.3393  0.0783 -0.0499
22411SOL    HW169433   0.657   0.701   1.982 -0.8512 -1.6170 -1.0603
22411SOL    HW269434   0.589   0.835   1.959 -0.5745 -0.9521  1.6660
22412SOL     OW69435   5.463   7.786   3.817 -0.0857 -0.0073  0.0833
22412SOL    HW169436   5.509   7.707   3.789  2.7408  1.5708 -0.0522
22412SOL    HW269437   5.411   7.812   3.741 -2.1080 -2.3152  0.5270
22413SOL     OW69438   1.649   2.768   6.037 -0.5665 -0.3633  0.3931
22413SOL    HW169439   1.736   2.745   6.005  0.2311  0.5584  1.7873
22413SOL    HW269440   1.589   2.734   5.971  0.7270 -2.6534  0.2745
22414SOL     OW69441   4.750   2.210   5.511 -0.0652 -0.3966 -0.6166
22414SOL    HW169442   4.734   2.286   5.456  0.1979 -0.4608 -0.7835
22414SOL    HW269443   4.807   2.154   5.458 -0.7776 -1.0091 -0.7589
22415SOL     OW69444   5.446   8.848   4.518 -0.3210 -0.6774  0.5114
22415SOL    HW169445   5.430   8.878   4.607 -0.8880 -1.0544  0.5440
22415SOL    HW269446   5.440   8.753   4.523  1.1782 -0.8151  0.3606
22416SOL     OW69447   8.057   5.489   6.060 -0.4659 -0.2946  0.2406
22416SOL    HW169448   8.057   5.585   6.061  1.5723 -0.2125  2.7639
22416SOL    HW269449   8.087   5.465   5.972  1.9602  1.4894  0.5090
22417SOL     OW69450   1.191   7.418   0.563  0.1269  0.8733 -0.0947
22417SOL    HW169451   1.100   7.407   0.534  0.4532 -2.4934 -0.2864
22417SOL    HW269452   1.243   7.403   0.484  0.9033  2.1501  0.1525
22418SOL     OW69453   2.516   5.560   7.559 -0.8475 -0.6763 -0.2324
22418SOL    HW169454   2.489   5.582   7.470  0.1305 -0.6794 -0.5398
22418SOL    HW269455   2.581   5.626   7.582 -4.2400  2.2370  2.2527
22419SOL     OW69456   7.632   3.563   5.361 -0.0792  0.5476 -0.4656
22419SOL    HW169457   7.577   3.529   5.432 -0.7700  2.2969 -0.1138
22419SOL    HW269458   7.577   3.628   5.317  0.7728  0.3605 -1.8509
22420SOL     OW69459   4.878   5.248   5.073  0.2771  0.3785  0.2288
22420SOL    HW169460   4.813   5.252   5.142  0.4884  0.8753  0.4064
22420SOL    HW269461   4.950   5.196   5.110 -1.0380 -2.4332 -0.8593
22421SOL     OW69462   3.944   8.004   6.301 -0.0520  0.0073 -0.0655
22421SOL    HW169463   3.862   8.054   6.295 -0.5584 -0.6269  1.1283
22421SOL    HW269464   3.933   7.949   6.379  1.4194 -0.2701 -0.0147
22422SOL     OW69465   0.615   1.220   0.229  0.3749 -0.6231  0.6305
22422SOL    HW169466   0.648   1.277   0.298 -0.7833  2.7126 -1.3420
22422SOL    HW269467   0.523   1.205   0.253  0.0410  0.3321  0.0112
22423SOL     OW69468   8.343   8.020   5.861 -0.2742  0.0395  0.5233
22423SOL    HW169469   8.429   8.058   5.848  0.5758 -1.0916  2.3729
22423SOL    HW269470   8.361   7.928   5.883 -1.8374  0.0893  2.2385
22424SOL     OW69471   2.801   3.969   6.193 -0.2782 -0.2640 -0.0335
22424SOL    HW169472   2.720   4.010   6.225 -0.6383  1.0016 -2.3643
22424SOL    HW269473   2.773   3.884   6.161  0.0752 -1.5259  2.6824
22425SOL     OW69474   8.001   6.155   1.096  0.2112  0.6711 -0.2267
22425SOL    HW169475   8.008   6.075   1.044 -1.2428  1.5526 -1.8739
22425SOL    HW269476   8.067   6.214   1.059  2.8095 -0.3768  2.3745
22426SOL     OW69477   3.526   4.267   3.494  0.0953 -0.4527 -0.2290
22426SOL    HW169478   3.486   4.194   3.542 -0.8900 -0.4272 -0.9696
22426SOL    HW269479   3.607   4.286   3.542 -0.3284 -1.1111  0.7933
22427SOL     OW69480   8.913   3.222   1.297  0.4161  0.2492  0.0801
22427SOL    HW169481   8.917   3.300   1.353  2.0698  1.3685 -1.4760
22427SOL    HW269482   8.946   3.151   1.351  0.8240  1.0431  0.8985
22428SOL     OW69483   7.193   0.094   2.879 -0.1842  0.0535 -0.0217
22428SOL    HW169484   7.232   0.149   2.810 -0.7543  0.3249 -0.1343
22428SOL    HW269485   7.109   0.067   2.843 -1.4745  1.9208  1.3427
22429SOL     OW69486   0.922   3.670   4.780  0.2628  0.2363  0.4757
22429SOL    HW169487   0.922   3.681   4.875 -0.7069  1.9275  0.3240
22429SOL    HW269488   1.015   3.663   4.757  0.6161  1.4144  1.4228
22430SOL     OW69489   1.849   2.037   1.643 -0.5493  0.4164 -0.0183
22430SOL    HW169490   1.811   2.010   1.559 -0.2287 -1.4888  0.3919
22430SOL    HW269491   1.890   1.957   1.677 -0.2548  1.2665  1.7264
22431SOL     OW69492   4.104   4.374   7.445  0.6218 -0.1647 -0.3956
22431SOL    HW169493   4.185   4.349   7.400  1.0184  0.3847 -0.0045
22431SOL    HW269494   4.034   4.331   7.395  1.2030 -1.2257 -0.3128
22432SOL     OW69495   3.465   5.519   9.498  0.6781 -0.1846 -0.3007
22432SOL    HW169496   3.492   5.611   9.506  0.6851 -0.1759 -0.4246
22432SOL    HW269497   3.496   5.478   9.579 -0.1531  0.1249  0.1843
22433SOL     OW69498   7.767   5.902   7.364  0.2254  0.5696 -0.0323
22433SOL    HW169499   7.842   5.960   7.350 -0.4464  1.0012 -2.1849
22433SOL    HW269500   7.799   5.815   7.339  0.3698  0.5146  0.3308
22434SOL     OW69501   9.057   3.058   2.224  0.2008  0.6469 -0.6069
22434SOL    HW169502   9.086   3.128   2.166  0.2036  0.9185 -0.2792
22434SOL    HW269503   9.115   3.064   2.300 -0.0142  0.4993 -0.4308
22435SOL     OW69504   3.735   8.241   5.583 -0.4045  0.7015 -0.2258
22435SOL    HW169505   3.806   8.193   5.625  1.0211  1.0557 -2.1045
22435SOL    HW269506   3.658   8.187   5.597  0.0021  0.6865  2.5583
22436SOL     OW69507   5.982   4.657   3.330  0.4051 -0.2099 -0.0238
22436SOL    HW169508   5.952   4.575   3.291 -0.9231  0.1270  0.2466
22436SOL    HW269509   6.075   4.662   3.307  0.1862 -1.1251 -1.1914
22437SOL     OW69510   5.035   7.772   4.796 -0.5726  0.4067 -0.8829
22437SOL    HW169511   5.003   7.681   4.797  2.0068 -0.5826 -0.0255
22437SOL    HW269512   5.125   7.765   4.765 -0.5144  2.7863 -1.3953
22438SOL     OW69513   0.307   1.448   0.999 -0.3795 -0.5431  0.2256
22438SOL    HW169514   0.219   1.412   1.012 -1.7002  0.6337 -3.7864
22438SOL    HW269515   0.363   1.371   0.990 -1.3896 -1.3718  0.7650
22439SOL     OW69516   5.999   6.491   3.575  0.4929  0.2295  0.9647
22439SOL    HW169517   5.907   6.514   3.569  0.4722  0.9441  3.1492
22439SOL    HW269518   6.041   6.568   3.614  1.4783 -1.1266  2.7644
22440SOL     OW69519   5.103   0.423   7.297  0.1689 -0.4957 -0.0845
22440SOL    HW169520   5.172   0.371   7.256  1.2064  1.6637 -1.2155
22440SOL    HW269521   5.022   0.391   7.257  0.9335 -0.1959 -1.9615
22441SOL     OW69522   0.930   5.115   5.411 -0.2778 -0.3666 -0.0133
22441SOL    HW169523   0.934   5.158   5.325 -0.3108  0.1781  0.2539
22441SOL    HW269524   0.948   5.186   5.473 -0.1520 -0.7819  0.4232
22442SOL     OW69525   3.788   4.892   7.678 -0.5083  0.4660  0.5363
22442SOL    HW169526   3.800   4.986   7.676  0.5708  0.5771  4.0912
22442SOL    HW269527   3.872   4.856   7.651 -0.5495  0.5430  0.3041
22443SOL     OW69528   7.846   3.551   1.894 -0.4863 -0.1470 -0.0772
22443SOL    HW169529   7.854   3.533   1.987  0.7946 -1.8632 -0.4702
22443SOL    HW269530   7.828   3.645   1.889  1.6185  0.4451  1.8216
22444SOL     OW69531   7.757   3.543   2.156  0.0742 -0.5420  0.0209
22444SOL    HW169532   7.678   3.547   2.101  0.3553  2.9329 -0.3411
22444SOL    HW269533   7.725   3.563   2.244  0.3029 -0.9727  0.1988
22445SOL     OW69534   3.099   7.896   4.778  0.0490 -0.4115  0.2886
22445SOL    HW169535   3.135   7.904   4.866 -1.9866 -1.9007  1.3372
22445SOL    HW269536   3.074   7.804   4.770 -0.7785 -0.0812 -1.4482
22446SOL     OW69537   0.423   8.283   7.471 -0.0479 -0.3070 -0.1314
22446SOL    HW169538   0.467   8.205   7.435  3.1180  1.4213 -0.3528
22446SOL    HW269539   0.436   8.276   7.566  0.7367  0.1976 -0.1958
22447SOL     OW69540   7.022   2.319   1.748  0.3576 -0.1435 -0.4062
22447SOL    HW169541   7.044   2.410   1.764 -3.1472  0.7786 -0.0886
22447SOL    HW269542   7.020   2.279   1.835 -0.7520  0.1793 -0.2796
22448SOL     OW69543   8.596   5.772   3.879 -0.5627  0.0759 -0.5169
22448SOL    HW169544   8.595   5.867   3.865  0.6288  0.2471  0.3864
22448SOL    HW269545   8.503   5.747   3.880 -0.8599  1.0327 -1.9223
22449SOL     OW69546   3.911   6.761   0.670  0.0441 -0.0952  0.4640
22449SOL    HW169547   3.962   6.818   0.727 -1.2004  0.7166  0.8245
22449SOL    HW269548   3.976   6.714   0.619  1.1460  1.3538  0.4470
22450SOL     OW69549   6.972   6.976   4.041  0.3332 -0.0438 -0.3476
22450SOL    HW169550   7.002   6.891   4.009 -0.6401 -0.9554  1.0591
22450SOL    HW269551   6.907   7.004   3.977 -0.3327 -1.0250 -0.1272
22451SOL     OW69552   8.612   3.229   8.743 -0.0312  0.2823  0.2689
22451SOL    HW169553   8.654   3.206   8.660 -2.3945 -1.5665 -0.5004
22451SOL    HW269554   8.685   3.231   8.806  1.3797 -2.0566 -1.1124
22452SOL     OW69555   2.988   6.361   3.642  0.1265  0.1209  0.1814
22452SOL    HW169556   2.922   6.300   3.610  0.6723  0.1141 -0.9641
22452SOL    HW269557   2.999   6.337   3.734 -1.0030 -0.2818  0.2343
22453SOL     OW69558   7.014   1.140   6.115  0.0478  0.2153  0.0975
22453SOL    HW169559   7.046   1.050   6.124 -1.7664 -0.4591  0.1807
22453SOL    HW269560   6.990   1.147   6.023 -1.7342 -0.1137  0.4917
22454SOL     OW69561   6.023   6.422   7.200 -0.5086  0.2625 -0.2210
22454SOL    HW169562   6.110   6.381   7.199  0.2944  1.8283  0.7788
22454SOL    HW269563   5.969   6.363   7.252  0.2460 -0.2098  0.0394
22455SOL     OW69564   7.647   6.942   3.060 -0.2727 -0.3999 -0.0176
22455SOL    HW169565   7.734   6.943   3.100 -0.2737  0.4886 -0.0228
22455SOL    HW269566   7.614   7.031   3.072 -0.9510 -0.5754 -0.5193
22456SOL     OW69567   4.822   5.356   4.392 -0.8887 -0.3106  0.2720
22456SOL    HW169568   4.794   5.437   4.435 -1.0488  0.7911 -1.7764
22456SOL    HW269569   4.765   5.288   4.428 -2.9160  1.0463 -0.2285
22457SOL     OW69570   4.350   5.046   5.506 -0.5656 -0.2188 -0.1159
22457SOL    HW169571   4.366   4.955   5.482 -0.2221 -0.0632 -0.4799
22457SOL    HW269572   4.433   5.091   5.489 -0.7298  0.1602  0.0667
22458SOL     OW69573   6.616   8.084   0.528  0.7062 -0.3325 -0.4389
22458SOL    HW169574   6.550   8.061   0.464 -1.3544  0.1991  1.3684
22458SOL    HW269575   6.671   8.005   0.535  0.6403 -0.5887 -2.3649
22459SOL     OW69576   6.648   5.356   2.763  0.2708 -0.6567 -0.1251
22459SOL    HW169577   6.647   5.396   2.850  0.3831  0.9713 -0.8341
22459SOL    HW269578   6.721   5.398   2.718 -0.1401 -1.0536 -1.1985
22460SOL     OW69579   8.946   0.607   4.538  0.4826 -0.1539  0.3668
22460SOL    HW169580   8.940   0.634   4.446  2.3156 -3.4902 -0.8866
22460SOL    HW269581   8.888   0.531   4.544  0.7719 -0.2817  1.8708
22461SOL     OW69582   8.167   7.563   5.102  0.2636  0.6215  0.1746
22461SOL    HW169583   8.167   7.536   5.011 -1.6521 -1.6104  0.7335
22461SOL    HW269584   8.094   7.624   5.109 -1.5420 -1.4489  0.6709
22462SOL     OW69585   8.867   4.449   0.801  0.1006 -0.3432 -0.2017
22462SOL    HW169586   8.783   4.411   0.828 -1.0118  2.4227  0.5229
22462SOL    HW269587   8.921   4.446   0.880 -0.3998  0.6155  0.1864
22463SOL     OW69588   4.613   4.102   5.771 -0.0292 -0.5231 -0.2776
22463SOL    HW169589   4.638   4.092   5.863 -2.4499 -2.7916  0.2496
22463SOL    HW269590   4.690   4.143   5.730  1.4084 -0.1032  2.5664
22464SOL     OW69591   1.318   0.374   1.035 -0.0846 -0.4655  0.5605
22464SOL    HW169592   1.364   0.436   1.091 -0.2344  0.4727 -0.3271
22464SOL    HW269593   1.387   0.325   0.990  0.1329  1.2495 -1.1176
22465SOL     OW69594   8.602   3.992   4.864  0.0977  0.2477 -1.0200
22465SOL    HW169595   8.551   3.961   4.789 -0.3326  0.1417 -0.6895
22465SOL    HW269596   8.562   4.076   4.887 -1.8358 -1.1045  1.0053
22466SOL     OW69597   6.927   7.218   3.584 -0.5424  0.5841  0.2476
22466SOL    HW169598   6.880   7.299   3.602 -2.7877 -0.6618  0.3899
22466SOL    HW269599   6.985   7.207   3.659 -0.9250  1.5874  0.6998
22467SOL     OW69600   8.956   2.700   4.928  0.0112 -0.0728  0.2503
22467SOL    HW169601   8.867   2.724   4.901  0.0941 -1.3605 -1.2962
22467SOL    HW269602   8.986   2.774   4.981 -2.8863 -0.6720  3.0252
22468SOL     OW69603   1.951   1.338   4.133  0.6666  0.5119 -0.0406
22468SOL    HW169604   1.984   1.259   4.090  0.5882  0.2376  0.3950
22468SOL    HW269605   2.029   1.386   4.159  0.7907  1.9733 -2.7325
22469SOL     OW69606   8.725   9.541   2.900 -0.2643  0.1542  0.1946
22469SOL    HW169607   8.750   9.456   2.865  1.3999  1.0067 -0.8722
22469SOL    HW269608   8.678   9.522   2.981  0.9977 -1.7436  0.5426
22470SOL     OW69609   7.866   7.292   6.760 -0.2407 -0.0939  0.7093
22470SOL    HW169610   7.917   7.373   6.756 -1.3673  0.6395 -3.0349
22470SOL    HW269611   7.924   7.226   6.720 -1.0537  0.0500 -0.7626
22471SOL     OW69612   6.858   4.092   2.808  0.0010  0.0653  0.6102
22471SOL    HW169613   6.884   4.115   2.719 -0.6001 -1.0873  0.1179
22471SOL    HW269614   6.840   4.176   2.850  0.5774  0.6347 -0.2636
22472SOL     OW69615   1.246   5.514   4.243  0.1481  0.4965 -0.0650
22472SOL    HW169616   1.181   5.552   4.184  1.9687 -2.4751 -4.5920
22472SOL    HW269617   1.213   5.427   4.262  1.0704  0.2961  0.6927
22473SOL     OW69618   4.701   8.983   0.514  0.1787 -0.3026  0.2082
22473SOL    HW169619   4.649   8.906   0.535  0.0444 -0.1158  0.5666
22473SOL    HW269620   4.696   8.991   0.418 -1.5471  0.4846  0.3299
22474SOL     OW69621   2.342   6.274   7.354  0.7416 -0.4316  0.5350
22474SOL    HW169622   2.408   6.222   7.400  1.7942  0.6794  0.3406
22474SOL    HW269623   2.291   6.210   7.304 -0.4731 -1.6809  3.2103
22475SOL     OW69624   1.920   3.141   2.783  0.1472 -0.2445 -0.8082
22475SOL    HW169625   2.001   3.147   2.834  0.1173 -1.0523 -0.6533
22475SOL    HW269626   1.898   3.048   2.784 -0.1819 -0.1883 -1.7975
22476SOL     OW69627   0.078   4.481   4.874 -0.2892  0.0323 -0.0845
22476SOL    HW169628   0.128   4.439   4.804 -0.1868 -0.2924  0.1842
22476SOL    HW269629   0.131   4.558   4.898 -0.4437  0.2807 -0.5279
22477SOL     OW69630   0.661   7.059   3.600 -0.0319  0.4441  0.1051
22477SOL    HW169631   0.745   7.027   3.567 -0.8166 -1.1598 -0.4700
22477SOL    HW269632   0.596   7.000   3.561 -1.3344  0.9378  1.4309
22478SOL     OW69633   4.891   0.532   9.460 -0.1447 -0.4898 -0.2868
22478SOL    HW169634   4.895   0.459   9.521  1.4383  0.0092  0.2745
22478SOL    HW269635   4.976   0.576   9.470 -0.7024  0.8906 -1.2603
22479SOL     OW69636   4.356   4.916   0.126 -0.0290 -0.2234  0.6935
22479SOL    HW169637   4.353   4.978   0.053  0.7139 -0.7843  0.1742
22479SOL    HW269638   4.264   4.896   0.144 -0.2236 -2.3328 -2.0546
22480SOL     OW69639   9.085   4.655   3.459  0.0270  0.4645 -0.1117
22480SOL    HW169640   9.027   4.655   3.536 -0.6720 -0.9048 -0.6059
22480SOL    HW269641   9.147   4.583   3.476 -0.7318 -0.4909 -1.2292
22481SOL     OW69642   5.413   6.313   6.107 -0.1262  0.2158  0.2527
22481SOL    HW169643   5.384   6.298   6.197  1.4640  1.4259  1.0091
22481SOL    HW269644   5.385   6.235   6.059  2.0112 -2.1087  2.5316
22482SOL     OW69645   3.150   1.561   3.476 -0.1385 -0.2434  0.3293
22482SOL    HW169646   3.083   1.538   3.540  0.2588 -0.7140  0.5901
22482SOL    HW269647   3.177   1.477   3.438  0.9628 -0.1824  0.9146
22483SOL     OW69648   2.669   1.172   3.152 -0.3968  0.1132  0.5178
22483SOL    HW169649   2.627   1.087   3.162 -0.7617  0.0859 -1.0659
22483SOL    HW269650   2.602   1.227   3.112  0.8509  0.2336 -1.5219
22484SOL     OW69651   0.183   2.610   2.624 -0.4109 -0.4026  0.2532
22484SOL    HW169652   0.091   2.588   2.610 -0.2046 -0.7226 -0.6510
22484SOL    HW269653   0.183   2.704   2.641 -0.6249  0.2515 -2.8667
22485SOL     OW69654   2.751   8.028   6.076 -0.1348  0.6035  0.1090
22485SOL    HW169655   2.663   7.992   6.068  0.2298  0.0497 -2.3868
22485SOL    HW269656   2.760   8.050   6.168 -1.7168 -2.3158  1.1041
22486SOL     OW69657   8.094   2.719   3.205  0.3634  0.2654 -0.0664
22486SOL    HW169658   8.134   2.806   3.205 -0.2610  0.5624 -1.1193
22486SOL    HW269659   8.165   2.660   3.233  0.7908  1.0930  0.6354
22487SOL     OW69660   3.867   8.948   8.403  0.1830  1.3798  0.4901
22487SOL    HW169661   3.784   8.914   8.371  0.5432  0.0562  0.8922
22487SOL    HW269662   3.932   8.918   8.338  0.5097  1.2939  0.8521
22488SOL     OW69663   2.934   1.496   6.675  0.0070  0.4018  0.4708
22488SOL    HW169664   2.967   1.583   6.655 -1.6833  0.8422 -0.5780
22488SOL    HW269665   3.012   1.440   6.670  1.1964  1.8718  1.5617
22489SOL     OW69666   2.432   1.931   8.957 -0.2366  0.1477  0.1528
22489SOL    HW169667   2.464   1.841   8.947 -1.1219 -0.2106  0.4850
22489SOL    HW269668   2.368   1.941   8.887 -0.2883  0.4562  0.2451
22490SOL     OW69669   8.800   7.110   0.228  0.3395  0.3402  0.3274
22490SOL    HW169670   8.811   7.172   0.156 -0.4951  0.6853  0.4819
22490SOL    HW269671   8.707   7.089   0.228  0.5450 -0.6461  0.5065
22491SOL     OW69672   2.067   9.473   6.417 -0.0028 -0.5521  0.4533
22491SOL    HW169673   2.109   9.464   6.332 -0.7626 -0.7537  0.0926
22491SOL    HW269674   2.100   9.556   6.452 -1.4294  0.7200 -1.0381
22492SOL     OW69675   5.873   2.549   4.191 -0.4624 -0.0832 -0.1387
22492SOL    HW169676   5.847   2.636   4.219 -1.1777 -0.1539 -0.5624
22492SOL    HW269677   5.811   2.490   4.235 -0.3297 -0.3337 -0.2863
22493SOL     OW69678   2.548   7.580   8.054 -0.4765 -0.0523  0.0090
22493SOL    HW169679   2.625   7.577   7.998  0.6582 -0.2795  1.5029
22493SOL    HW269680   2.475   7.600   7.995  0.5826 -0.6683 -1.5713
22494SOL     OW69681   3.449   3.124   2.690  0.2938 -0.0769  0.1152
22494SOL    HW169682   3.528   3.074   2.712 -0.7999 -2.5583 -1.2425
22494SOL    HW269683   3.429   3.098   2.600 -2.1630  0.4164  0.4701
22495SOL     OW69684   2.814   1.913   1.021  0.5297 -0.1453  0.1205
22495SOL    HW169685   2.734   1.959   0.996 -0.3318 -1.4488  0.3914
22495SOL    HW269686   2.818   1.922   1.116  0.6326 -0.2119  0.1227
22496SOL     OW69687   7.935   9.180   2.385  0.1318 -0.8958  0.2692
22496SOL    HW169688   7.919   9.092   2.352  0.6751 -1.1987  0.7947
22496SOL    HW269689   7.892   9.182   2.470 -0.4266 -0.4351 -0.0138
22497SOL     OW69690   5.519   0.130   2.792 -0.3002 -0.4667 -0.5073
22497SOL    HW169691   5.588   0.072   2.761  0.1455  0.0993 -0.5994
22497SOL    HW269692   5.440   0.076   2.793  0.4655 -1.6507  1.2929
22498SOL     OW69693   4.588   3.533   5.714  0.7375  0.0107 -0.0795
22498SOL    HW169694   4.607   3.618   5.754  0.9650 -0.8086  1.6469
22498SOL    HW269695   4.664   3.479   5.736 -0.9328 -1.6768  2.0801
22499SOL     OW69696   0.465   4.290   2.774 -0.3963  0.1527 -0.2703
22499SOL    HW169697   0.508   4.209   2.747 -1.3488 -0.3888 -0.2017
22499SOL    HW269698   0.371   4.269   2.773 -0.6617  1.2710 -0.3200
22500SOL     OW69699   6.598   8.074   7.240  0.7201  0.0612  0.3489
22500SOL    HW169700   6.633   8.104   7.156  2.4643 -0.6490  0.7737
22500SOL    HW269701   6.666   8.015   7.275 -0.7877 -1.1458  1.3895
22501SOL     OW69702   2.070   9.292   2.755 -0.2353 -0.6696  0.7183
22501SOL    HW169703   2.043   9.337   2.835 -2.3897 -0.0825 -0.2644
22501SOL    HW269704   2.015   9.214   2.751 -1.1885  0.0290 -0.8479
22502SOL     OW69705   0.891   8.670   8.103 -0.1095  0.3116  0.3183
22502SOL    HW169706   0.967   8.622   8.137 -0.2756  0.9893  1.7036
22502SOL    HW269707   0.816   8.621   8.135 -0.3114 -0.5863 -1.3787
22503SOL     OW69708   7.310   7.184   8.636  0.3061  0.3634 -0.1086
22503SOL    HW169709   7.378   7.135   8.591 -0.5984 -1.8462  0.8006
22503SOL    HW269710   7.348   7.205   8.721 -0.2660 -1.4011  0.6380
22504SOL     OW69711   3.867   2.710   5.084  0.1584  0.4329 -0.2752
22504SOL    HW169712   3.950   2.661   5.083 -0.1320 -0.0658 -0.2869
22504SOL    HW269713   3.800   2.643   5.071 -0.1943  0.9370 -1.1167
22505SOL     OW69714   9.366   2.195   7.513  0.5508 -0.2054 -0.5023
22505SOL    HW169715   9.415   2.228   7.438 -0.4645 -0.0053 -1.1022
22505SOL    HW269716   9.300   2.137   7.475 -0.5664  0.5962  0.1303
22506SOL     OW69717   5.771   1.000   0.722 -0.2352  0.9813 -0.1837
22506SOL    HW169718   5.843   0.941   0.703 -1.2163 -0.4790  0.4644
22506SOL    HW269719   5.740   1.029   0.637  0.2442  0.5308 -0.5164
22507SOL     OW69720   1.597   1.293   6.339 -0.2275  0.1788  0.3388
22507SOL    HW169721   1.614   1.356   6.409 -1.5359 -1.4563  2.2451
22507SOL    HW269722   1.501   1.292   6.331 -0.2403 -1.5777  0.4092
22508SOL     OW69723   4.348   8.026   2.962  0.1646  0.2527 -0.1137
22508SOL    HW169724   4.332   8.028   2.868 -1.7580 -0.9776  0.1246
22508SOL    HW269725   4.376   8.115   2.984  0.5042  0.5937 -1.7972
22509SOL     OW69726   8.566   6.497   7.471  0.7703  0.0973  0.3072
22509SOL    HW169727   8.583   6.419   7.418  2.3410  0.1050  0.7578
22509SOL    HW269728   8.479   6.526   7.443  0.8493 -0.8612 -1.0370
22510SOL     OW69729   2.367   5.178   2.754 -0.0784 -0.0536  0.1681
22510SOL    HW169730   2.447   5.188   2.704  0.7458  1.6132  1.6914
22510SOL    HW269731   2.355   5.263   2.798 -2.8909 -0.1116 -0.2960
22511SOL     OW69732   8.726   7.843   4.318 -0.5975 -0.1569  0.4443
22511SOL    HW169733   8.807   7.877   4.279 -0.3866 -0.4866  0.5829
22511SOL    HW269734   8.750   7.824   4.409 -0.8056 -0.3514  0.4585
22512SOL     OW69735   5.561   4.419   4.388  0.3320  0.7204  0.1877
22512SOL    HW169736   5.647   4.449   4.416  0.6986  0.7429 -0.8932
22512SOL    HW269737   5.511   4.407   4.469  2.6231 -3.3685  1.2512
22513SOL     OW69738   1.271   4.317   4.536 -0.0880 -0.4136 -0.2077
22513SOL    HW169739   1.335   4.290   4.601 -0.0261 -2.2675 -0.9732
22513SOL    HW269740   1.202   4.360   4.586  0.3915 -0.9810  0.9592
22514SOL     OW69741   7.353   6.736   6.784  0.1249  0.0420 -0.7666
22514SOL    HW169742   7.367   6.729   6.878  1.4001 -0.5787 -0.9850
22514SOL    HW269743   7.399   6.816   6.758  0.3596 -0.1591 -0.9724
22515SOL     OW69744   0.388   5.502   2.503 -0.1232 -0.0635 -0.0910
22515SOL    HW169745   0.400   5.441   2.430  1.2004 -0.4558  0.4265
22515SOL    HW269746   0.300   5.484   2.536  0.4285 -2.0811  0.3768
22516SOL     OW69747   3.404   6.259   5.638 -0.4030 -0.6491  0.7656
22516SOL    HW169748   3.366   6.205   5.708 -0.7613  0.1842  1.2230
22516SOL    HW269749   3.329   6.292   5.589 -0.3499  1.3749  1.9469
22517SOL     OW69750   3.548   3.411   3.807  0.6911  0.1288  0.1502
22517SOL    HW169751   3.531   3.486   3.749 -1.4330 -0.0956  0.3994
22517SOL    HW269752   3.635   3.429   3.844  1.9052  0.5435 -2.6432
22518SOL     OW69753   8.716   0.489   1.887 -0.1003  0.8707 -0.3769
22518SOL    HW169754   8.791   0.548   1.899 -0.2853  1.0352 -0.0082
22518SOL    HW269755   8.664   0.531   1.819 -1.2691  2.2168  1.2623
22519SOL     OW69756   5.762   3.155   5.389  0.3479  0.1616 -0.3960
22519SOL    HW169757   5.794   3.079   5.342 -1.6194  0.6418 -2.7489
22519SOL    HW269758   5.841   3.205   5.412  1.6472 -2.3614  0.9658
22520SOL     OW69759   2.646   2.339   5.422  0.0412 -0.7158  0.0969
22520SOL    HW169760   2.565   2.345   5.372  1.2999 -1.4095 -2.1597
22520SOL    HW269761   2.638   2.259   5.473 -0.2844 -1.3231 -0.9005
22521SOL     OW69762   4.378   3.461   1.353 -0.0245 -0.0947 -0.2500
22521SOL    HW169763   4.450   3.479   1.413  0.2426  0.3134 -0.6886
22521SOL    HW269764   4.388   3.525   1.283  0.8899 -1.8201 -1.7843
22522SOL     OW69765   2.233   0.265   9.221 -0.2710  0.9797  0.5976
22522SOL    HW169766   2.245   0.334   9.156  1.2165 -0.9542 -1.3094
22522SOL    HW269767   2.318   0.222   9.228 -0.6597  0.4606  3.1145
22523SOL     OW69768   5.094   0.298   1.997  0.1436  0.2638 -0.0711
22523SOL    HW169769   5.116   0.271   1.908  1.7583  0.3325  0.2592
22523SOL    HW269770   5.041   0.226   2.032  0.9088 -0.5681 -0.5604
22524SOL     OW69771   2.285   2.787   4.609  0.1920 -0.2839  0.1652
22524SOL    HW169772   2.206   2.766   4.560  0.3526  0.6388 -0.5140
22524SOL    HW269773   2.302   2.880   4.589  0.2059  0.1507  2.0470
22525SOL     OW69774   3.215   1.402   6.036 -0.1935 -0.1334  0.1197
22525SOL    HW169775   3.171   1.471   5.987  2.1762  1.6735  0.3714
22525SOL    HW269776   3.177   1.407   6.124 -1.0954 -0.1843 -0.2615
22526SOL     OW69777   7.684   6.048   0.522 -0.4376  0.0357  0.6554
22526SOL    HW169778   7.681   6.131   0.475 -0.0345 -0.1620  0.2735
22526SOL    HW269779   7.593   6.019   0.526 -0.7153  0.9536  1.6238
22527SOL     OW69780   8.547   6.344   1.636 -0.0926  0.1294 -0.0478
22527SOL    HW169781   8.504   6.411   1.689  0.6979  1.5245 -1.1042
22527SOL    HW269782   8.482   6.322   1.569 -0.1165  0.3506 -0.1001
22528SOL     OW69783   4.742   8.138   0.161  0.4052  0.0219 -0.3553
22528SOL    HW169784   4.756   8.191   0.239 -0.5877  1.6800 -1.2545
22528SOL    HW269785   4.672   8.077   0.185  0.3813  0.2579  0.1745
22529SOL     OW69786   2.410   0.012   7.263 -0.0223  0.2974  0.2258
22529SOL    HW169787   2.444  -0.035   7.338 -1.8070  0.2107  1.0424
22529SOL    HW269788   2.455   0.096   7.264 -0.6102  0.6231  1.9268
22530SOL     OW69789   8.376   1.832   7.559  0.4115 -0.2235 -0.1122
22530SOL    HW169790   8.424   1.790   7.630  1.8662  0.5262 -0.6290
22530SOL    HW269791   8.436   1.896   7.522 -0.5518 -0.0956 -1.5761
22531SOL     OW69792   3.122   1.979   2.159 -0.5490 -0.3546 -0.1640
22531SOL    HW169793   3.171   2.054   2.125 -1.3315 -0.6539 -2.0598
22531SOL    HW269794   3.032   2.010   2.165 -0.8949 -1.1387 -1.0416
22532SOL     OW69795   4.366   5.004   7.399  0.3562  0.1376  0.6822
22532SOL    HW169796   4.334   5.013   7.309  2.2893 -0.4273 -0.1022
22532SOL    HW269797   4.286   4.995   7.452 -0.7928 -0.2041 -1.0388
22533SOL     OW69798   7.506   2.152   4.087 -0.1426 -0.0959 -0.3283
22533SOL    HW169799   7.479   2.178   3.999 -0.2323 -0.3867 -0.3877
22533SOL    HW269800   7.598   2.180   4.094 -0.6780  1.6443  0.1722
22534SOL     OW69801   4.951   9.216   9.499  0.3639 -0.3918 -1.0994
22534SOL    HW169802   4.870   9.266   9.494  0.9578  0.5781 -1.3046
22534SOL    HW269803   5.020   9.280   9.480  1.3092 -0.8357  0.6267
22535SOL     OW69804   3.387   8.920   8.623  0.5038  0.4632 -0.0592
22535SOL    HW169805   3.318   8.858   8.597  1.4495  0.0632 -1.8066
22535SOL    HW269806   3.436   8.874   8.691  1.2366 -0.8208 -1.3829
22536SOL     OW69807   4.848   6.659   4.757 -0.1588 -0.0731 -0.5303
22536SOL    HW169808   4.864   6.747   4.725  0.6960 -0.4526 -1.1999
22536SOL    HW269809   4.885   6.602   4.689 -0.0267 -0.9281  0.2432
22537SOL     OW69810   8.685   8.251   3.461  0.2111 -0.1208 -0.1868
22537SOL    HW169811   8.780   8.244   3.477 -0.1297 -1.0446  1.7937
22537SOL    HW269812   8.647   8.182   3.516 -1.6717  0.6838 -0.4164
22538SOL     OW69813   0.698   2.879   4.702  0.7640  0.3501 -0.6784
22538SOL    HW169814   0.767   2.856   4.763  0.6212  2.1551  0.2608
22538SOL    HW269815   0.677   2.970   4.723 -2.0796 -0.1872 -0.7246
22539SOL     OW69816   3.982   0.862   6.605  0.1498 -0.0380 -0.2776
22539SOL    HW169817   3.980   0.902   6.518  1.0485 -0.3425 -0.4551
22539SOL    HW269818   3.921   0.914   6.657 -0.4997  0.0672 -1.1205
22540SOL     OW69819   1.218   9.520   8.937 -0.1862 -0.6010  0.0496
22540SOL    HW169820   1.152   9.524   9.006  0.5008  0.4527  0.6772
22540SOL    HW269821   1.249   9.430   8.938  0.3878 -0.4161  1.7069
22541SOL     OW69822   9.504   4.839   7.969  0.0510  0.2884  0.5154
22541SOL    HW169823   9.495   4.906   7.901  0.7819 -0.3728 -0.2395
22541SOL    HW269824   9.581   4.866   8.019 -0.3264  0.6246  0.9299
22542SOL     OW69825   5.958   5.511   2.254  0.1773  0.2504  0.2578
22542SOL    HW169826   6.047   5.475   2.262  1.0231  2.2667  0.7328
22542SOL    HW269827   5.942   5.555   2.338  0.3900  3.2674 -1.1444
22543SOL     OW69828   8.320   7.525   6.432 -0.0821 -0.5272 -0.4469
22543SOL    HW169829   8.332   7.618   6.451 -1.7067 -0.3586 -0.1567
22543SOL    HW269830   8.403   7.484   6.460 -0.1083  0.5462  1.3586
22544SOL     OW69831   5.477   6.856   3.079 -0.1807  0.5238  0.5620
22544SOL    HW169832   5.535   6.815   3.142 -2.3257  0.3270  2.5322
22544SOL    HW269833   5.467   6.946   3.110 -0.6632  0.6586  0.0389
22545SOL     OW69834   5.296   5.859   1.819 -0.0196  0.1149 -0.1193
22545SOL    HW169835   5.339   5.929   1.770 -1.0050 -0.0565 -1.2862
22545SOL    HW269836   5.356   5.839   1.891  1.6804  0.1016 -1.4716
22546SOL     OW69837   6.222   3.818   9.211 -0.3377  0.0464  0.0412
22546SOL    HW169838   6.256   3.858   9.131  0.3195  0.5572  0.5643
22546SOL    HW269839   6.297   3.813   9.269 -0.8508 -0.1464  0.6981
22547SOL     OW69840   4.444   9.475   3.100  0.2907 -0.3138 -0.4589
22547SOL    HW169841   4.495   9.481   3.019  0.2979 -2.2836 -0.6551
22547SOL    HW269842   4.508   9.446   3.166  0.1936  0.8748  0.1758
22548SOL     OW69843   7.604   5.277   1.685 -0.1984 -0.2613  0.2727
22548SOL    HW169844   7.610   5.185   1.710  0.9196 -0.3761 -0.3630
22548SOL    HW269845   7.629   5.325   1.764 -1.6145 -0.4509  0.8700
22549SOL     OW69846   3.192   2.747   1.204 -0.2306  0.0325 -0.1340
22549SOL    HW169847   3.170   2.835   1.232  0.1666  0.9560 -2.5114
22549SOL    HW269848   3.230   2.706   1.282 -1.0623  1.6823  1.2104
22550SOL     OW69849   8.847   6.883   1.891  0.0539  0.3234  0.6245
22550SOL    HW169850   8.861   6.904   1.983  1.7480 -1.9638  0.9860
22550SOL    HW269851   8.904   6.944   1.843  0.3434  0.5157  1.2043
22551SOL     OW69852   0.359   8.585   1.842  0.7437  0.4080 -0.0806
22551SOL    HW169853   0.360   8.677   1.817  1.2919  0.1262 -1.1545
22551SOL    HW269854   0.446   8.552   1.819 -0.3732 -1.0903 -2.5676
22552SOL     OW69855   1.081   8.840   7.956  0.3012  0.3924  0.0150
22552SOL    HW169856   1.085   8.799   7.869  2.4588 -0.4911  0.4625
22552SOL    HW269857   1.004   8.801   7.998  0.0066 -0.1697 -1.0145
22553SOL     OW69858   4.095   4.533   3.465 -0.6369  0.4036 -0.0329
22553SOL    HW169859   4.066   4.442   3.459  1.6688 -0.4157  0.1327
22553SOL    HW269860   4.115   4.546   3.558 -2.5596  1.6798  0.2608
22554SOL     OW69861   6.165   4.787   2.162  0.4935  0.5541 -0.2245
22554SOL    HW169862   6.075   4.782   2.130 -0.3925  1.2446  1.9950
22554SOL    HW269863   6.178   4.879   2.185  0.9210  0.0721  1.6586
22555SOL     OW69864   0.804   2.196   7.464  0.0640  0.2127 -0.1091
22555SOL    HW169865   0.787   2.114   7.417 -1.8005  0.3949  0.1874
22555SOL    HW269866   0.761   2.185   7.548 -0.4947  1.6193 -0.1899
22556SOL     OW69867   5.732   5.147   1.805 -0.1693 -0.1394 -0.2459
22556SOL    HW169868   5.786   5.075   1.838 -0.0100 -0.1059 -0.4296
22556SOL    HW269869   5.712   5.123   1.715 -0.0647  0.0760 -0.3262
22557SOL     OW69870   6.861   1.027   5.402 -0.0244  0.5507 -0.6273
22557SOL    HW169871   6.790   1.004   5.341 -0.3580  2.3909 -1.0053
22557SOL    HW269872   6.941   1.005   5.354 -0.3114 -0.0334 -0.8528
22558SOL     OW69873   8.104   7.913   7.987  0.4500  0.9349  0.3216
22558SOL    HW169874   8.162   7.987   7.967 -0.3048  1.5115  0.2497
22558SOL    HW269875   8.040   7.948   8.048  0.1775  0.2921  0.4135
22559SOL     OW69876   6.166   2.439   8.057 -0.3272 -0.2675 -0.0651
22559SOL    HW169877   6.162   2.533   8.037 -0.5263 -0.1396  0.5314
22559SOL    HW269878   6.208   2.400   7.981 -2.6076 -0.0646 -1.5397
22560SOL     OW69879   8.925   1.021   4.829  0.1946 -0.5880 -0.0237
22560SOL    HW169880   9.004   0.969   4.843  0.0320 -0.8629 -0.1201
22560SOL    HW269881   8.945   1.107   4.867  1.1870 -0.0877 -1.6004
22561SOL     OW69882   6.192   7.947   1.784  0.4866 -0.7126  0.1626
22561SOL    HW169883   6.181   7.856   1.811 -0.5278 -0.6135  0.1300
22561SOL    HW269884   6.137   7.955   1.705  0.4826 -0.0496  0.2264
22562SOL     OW69885   8.607   5.423   4.858  0.0424 -0.3041 -0.7382
22562SOL    HW169886   8.687   5.433   4.807  0.8824 -0.9446  0.4119
22562SOL    HW269887   8.637   5.406   4.948 -1.3523  2.7389  0.4355
22563SOL     OW69888   2.029   2.053   9.050 -0.1029 -0.4649 -0.2297
22563SOL    HW169889   1.979   1.973   9.035 -0.9852  0.3620 -1.9926
22563SOL    HW269890   1.962   2.120   9.065  0.5179  0.3996 -1.2351
22564SOL     OW69891   1.304   7.127   1.474 -0.0362  0.5845 -0.3907
22564SOL    HW169892   1.346   7.078   1.403  0.7923  0.8709 -0.1022
22564SOL    HW269893   1.366   7.196   1.496  0.1071 -0.0144  1.2071
22565SOL     OW69894   3.458   0.276   7.429  0.2233 -0.4147  0.0905
22565SOL    HW169895   3.371   0.275   7.468 -0.0477 -3.4580 -0.3961
22565SOL    HW269896   3.453   0.215   7.356  1.5165  2.9144 -3.1249
22566SOL     OW69897   3.554   0.507   8.619 -0.2333  0.0983 -0.0356
22566SOL    HW169898   3.647   0.492   8.604 -0.2752 -0.1564 -0.0435
22566SOL    HW269899   3.549   0.537   8.710 -0.1224  0.3186 -0.1007
22567SOL     OW69900   2.553   0.624   3.538 -0.3316 -0.8450  0.2845
22567SOL    HW169901   2.603   0.545   3.554 -0.0432 -0.5479  0.8662
22567SOL    HW269902   2.587   0.688   3.601 -0.6011 -0.2782 -0.1335
22568SOL     OW69903   3.022   6.308   8.494 -0.7184  0.1963 -0.3206
22568SOL    HW169904   3.107   6.343   8.519  0.0505 -0.5417 -1.8024
22568SOL    HW269905   3.020   6.220   8.532 -1.2209  0.5290  0.4674
22569SOL     OW69906   5.166   3.547   3.383  0.1163  0.1070 -0.0011
22569SOL    HW169907   5.090   3.540   3.326  0.5557 -0.4550 -0.5321
22569SOL    HW269908   5.130   3.565   3.470 -0.5337  1.6173 -0.5444
22570SOL     OW69909   0.910   6.166   6.956  0.5759  0.6135 -0.0917
22570SOL    HW169910   0.900   6.084   7.004 -2.2882  1.1284  0.3490
22570SOL    HW269911   0.984   6.210   6.999  0.9513 -0.9004  0.8783
22571SOL     OW69912   6.316   7.528   8.765  0.2956  0.1393 -0.0864
22571SOL    HW169913   6.345   7.442   8.795 -0.7960 -0.0461  0.4692
22571SOL    HW269914   6.233   7.543   8.810 -0.7779  0.4042 -2.0470
22572SOL     OW69915   6.812   0.325   7.165 -0.2828 -0.4519  0.6821
22572SOL    HW169916   6.794   0.282   7.249  0.3188 -3.3128 -0.5579
22572SOL    HW269917   6.887   0.279   7.130 -0.4655  0.7399 -1.4254
22573SOL     OW69918   1.678   3.895   0.676 -0.0599  0.3403 -0.5113
22573SOL    HW169919   1.626   3.967   0.639  0.0287  0.1179 -1.0693
22573SOL    HW269920   1.766   3.931   0.685  0.7019 -0.5383 -3.4790
22574SOL     OW69921   4.399   2.339   9.072 -0.6667 -0.0832  0.0482
22574SOL    HW169922   4.446   2.351   8.989  2.0976 -2.9944  0.9821
22574SOL    HW269923   4.413   2.420   9.120 -0.7788  0.9665 -1.6227
22575SOL     OW69924   5.524   9.015   5.753 -0.2904  0.2660  0.1403
22575SOL    HW169925   5.501   8.954   5.683 -0.9601  1.7438 -0.9805
22575SOL    HW269926   5.490   8.975   5.833 -0.2321 -1.0648 -0.4884
22576SOL     OW69927   1.115   4.601   6.369 -0.0335  0.4323  0.2445
22576SOL    HW169928   1.048   4.596   6.301  1.8997 -1.8082 -1.6888
22576SOL    HW269929   1.092   4.532   6.432  0.1994 -0.0552 -0.1973
22577SOL     OW69930   9.287   6.605   5.297 -0.0136  0.4945 -0.2858
22577SOL    HW169931   9.210   6.589   5.352 -0.1546  0.2298 -0.5556
22577SOL    HW269932   9.256   6.587   5.208 -0.0516  1.8063 -0.5568
22578SOL     OW69933   2.097   2.538   1.311 -0.2635 -0.0415 -0.3054
22578SOL    HW169934   2.076   2.535   1.405  0.0607 -0.5780 -0.2470
22578SOL    HW269935   2.019   2.504   1.268 -0.0626 -0.6825 -0.1720
22579SOL     OW69936   2.714   0.343   5.940 -0.2606 -0.6944  0.0484
22579SOL    HW169937   2.669   0.264   5.972  0.4363 -1.1657 -0.1084
22579SOL    HW269938   2.739   0.322   5.850  1.3590 -0.9482  0.5141
22580SOL     OW69939   2.507   5.672   1.912  0.6780 -0.2427  0.5485
22580SOL    HW169940   2.445   5.712   1.850 -1.4785 -1.5499  1.7340
22580SOL    HW269941   2.542   5.597   1.865  1.0360  0.2349  0.0304
22581SOL     OW69942   3.521   3.128   5.807  0.3510 -0.1035  0.2180
22581SOL    HW169943   3.454   3.091   5.864 -0.4416  1.9380  0.7048
22581SOL    HW269944   3.593   3.150   5.865 -0.0006  0.9334  0.2833
22582SOL     OW69945   1.537   7.249   1.801 -0.2296 -0.0046  0.0209
22582SOL    HW169946   1.531   7.159   1.767  0.3937  0.8181 -2.4622
22582SOL    HW269947   1.528   7.239   1.896  0.1097 -2.7149 -0.1479
22583SOL     OW69948   6.094   5.471   3.645 -0.1479  0.0510 -0.5952
22583SOL    HW169949   6.017   5.440   3.598 -0.2957  1.6180 -1.4643
22583SOL    HW269950   6.090   5.427   3.730 -1.9625  0.0512 -0.6473
22584SOL     OW69951   7.322   4.098   8.569  0.3924 -0.5716  0.3899
22584SOL    HW169952   7.243   4.150   8.560 -0.2337 -1.3340  1.3587
22584SOL    HW269953   7.323   4.069   8.660  0.9937 -1.8203  0.0193
22585SOL     OW69954   3.659   4.153   0.965  0.3300 -0.1292  0.0027
22585SOL    HW169955   3.643   4.098   1.042  2.4496  2.3015  2.3962
22585SOL    HW269956   3.751   4.179   0.973  0.2068  1.4895 -2.5635
22586SOL     OW69957   1.583   3.425   5.682  0.4691  0.0547 -0.1442
22586SOL    HW169958   1.662   3.425   5.736 -0.6200 -1.0978  1.5464
22586SOL    HW269959   1.514   3.392   5.740 -1.0676  0.1192 -1.8437
22587SOL     OW69960   0.768   4.532   6.679  0.2996 -0.0322 -0.2830
22587SOL    HW169961   0.834   4.601   6.687  0.3176  0.2608 -2.2527
22587SOL    HW269962   0.803   4.475   6.611 -0.3365 -1.2647  0.4011
22588SOL     OW69963   0.663   5.567   5.412  0.2074  0.4035 -1.3975
22588SOL    HW169964   0.675   5.589   5.319 -1.2764  1.7189 -1.3131
22588SOL    HW269965   0.569   5.575   5.427  0.2190 -1.2761 -0.1064
22589SOL     OW69966   5.607   3.315   9.323  0.2824 -0.2679  0.3793
22589SOL    HW169967   5.538   3.275   9.376  0.4625  0.2129  0.9881
22589SOL    HW269968   5.574   3.311   9.233 -0.5481 -0.0392  0.6660
22590SOL     OW69969   0.805   2.406   0.256  0.2253 -0.7133  0.6810
22590SOL    HW169970   0.898   2.401   0.237  0.1242 -2.0364  0.4264
22590SOL    HW269971   0.779   2.494   0.228  0.8696 -1.2192 -1.7607
22591SOL     OW69972   8.987   3.635   6.723  0.2100 -0.3429  0.2349
22591SOL    HW169973   8.937   3.691   6.782  0.8835 -0.9114  1.3860
22591SOL    HW269974   9.003   3.555   6.774 -0.3253 -1.4078 -1.1863
22592SOL     OW69975   7.337   8.620   5.243 -0.3717  0.1205  0.3736
22592SOL    HW169976   7.278   8.604   5.317  0.2272 -0.6071  0.6997
22592SOL    HW269977   7.388   8.539   5.235  2.2614  1.5633  1.6004
22593SOL     OW69978   8.889   4.189   9.502  0.4787 -0.6017 -0.4500
22593SOL    HW169979   8.961   4.142   9.460  1.5544 -0.2538  0.9202
22593SOL    HW269980   8.835   4.121   9.541 -0.0970 -0.8808 -1.7053
22594SOL     OW69981   3.620   8.494   7.822  0.0713  0.2591  0.3376
22594SOL    HW169982   3.637   8.483   7.728  1.1405  1.2623  0.3991
22594SOL    HW269983   3.534   8.535   7.826 -2.2440 -3.9974 -0.0162
22595SOL     OW69984   3.065   7.983   2.414  0.4926  0.5036 -0.2713
22595SOL    HW169985   3.046   7.955   2.325 -1.0928  0.0382  0.1837
22595SOL    HW269986   3.122   8.059   2.404  1.7260 -0.5484 -1.6314
22596SOL     OW69987   7.359   7.903   0.704 -0.0060  0.6602 -0.4311
22596SOL    HW169988   7.370   7.908   0.609  1.6405  0.9718 -0.2546
22596SOL    HW269989   7.417   7.831   0.731 -1.2893 -0.1667  0.2414
22597SOL     OW69990   6.694   7.500   5.925 -0.1116  0.1100 -0.4580
22597SOL    HW169991   6.607   7.476   5.956 -0.2047  1.6075  0.5870
22597SOL    HW269992   6.678   7.570   5.862  0.3660  2.2389  1.6324
22598SOL     OW69993   0.295   3.456   5.980  0.4389  0.3233  0.1289
22598SOL    HW169994   0.241   3.510   6.038 -0.2917  1.2500 -1.3294
22598SOL    HW269995   0.379   3.502   5.976  0.5224  0.2048  0.5204
22599SOL     OW69996   8.472   5.568   8.416 -0.0194 -0.2691  0.0957
22599SOL    HW169997   8.406   5.614   8.364  1.6220  1.0032 -0.9651
22599SOL    HW269998   8.421   5.514   8.477 -2.0209 -0.8154 -1.9305
22600SOL     OW69999   3.042   8.148   5.758 -0.2197  0.1807  0.0450
22600SOL    HW170000   2.954   8.149   5.796  0.1515  1.3295  0.9347
22600SOL    HW270001   3.047   8.228   5.706  0.2098 -0.0089 -0.2088
22601SOL     OW70002   0.706   4.368   8.557  0.1774 -0.5593  0.3155
22601SOL    HW170003   0.779   4.316   8.524  0.4614 -0.1401  0.2641
22601SOL    HW270004   0.702   4.443   8.498  0.6436  0.1659  1.1804
22602SOL     OW70005   3.203   8.749   2.303 -0.2657  0.2769  0.6273
22602SOL    HW170006   3.198   8.787   2.215 -0.6181 -1.3047 -0.0714
22602SOL    HW270007   3.171   8.818   2.361 -1.9737  0.6684 -0.7059
22603SOL     OW70008   4.025   3.565   8.220  0.3739  0.0228  0.5312
22603SOL    HW170009   4.120   3.571   8.234  0.3008  1.6725  0.5492
22603SOL    HW270010   4.000   3.484   8.263  2.1239 -1.7734 -1.6268
22604SOL     OW70011   1.902   4.935   5.783 -0.2047 -0.1845  0.9492
22604SOL    HW170012   1.967   5.002   5.804  1.9624 -1.9144  0.1593
22604SOL    HW270013   1.907   4.873   5.856  0.2733 -1.1820  0.0933
22605SOL     OW70014   5.420   0.484   6.728 -0.1789 -0.2520 -0.3182
22605SOL    HW170015   5.509   0.502   6.758 -0.1215  0.4559 -0.9112
22605SOL    HW270016   5.364   0.514   6.800  0.1125 -3.5670  1.5057
22606SOL     OW70017   1.891   4.647   7.998  0.4344  0.2555  0.2418
22606SOL    HW170018   1.924   4.720   8.050  0.8358 -0.1988  0.6357
22606SOL    HW270019   1.850   4.688   7.922  2.0754  0.8327 -0.3635
22607SOL     OW70020   1.867   3.371   7.706  0.4847  0.3078  0.0402
22607SOL    HW170021   1.874   3.276   7.695  0.0997  0.2942 -0.1198
22607SOL    HW270022   1.915   3.407   7.632  1.8160  0.2555  0.8502
22608SOL     OW70023   6.148   5.115   2.825  0.3497  0.6078  0.2389
22608SOL    HW170024   6.213   5.173   2.865  2.0248  0.4084 -1.9552
22608SOL    HW270025   6.069   5.168   2.819  1.0630  1.7696  0.7108
22609SOL     OW70026   8.043   8.670   2.272  0.1614  0.2539  0.2734
22609SOL    HW170027   8.010   8.670   2.361  0.3623  1.6690  0.3791
22609SOL    HW270028   8.130   8.710   2.278  0.0414  0.6843 -0.5856
22610SOL     OW70029   3.047   6.636   6.413  0.0928  0.4810 -0.5181
22610SOL    HW170030   2.959   6.598   6.417 -0.3553  1.2009 -2.3180
22610SOL    HW270031   3.031   6.731   6.414  1.0086  0.6388  1.2946
22611SOL     OW70032   5.246   1.124   4.736 -0.5621  0.2854 -0.1704
22611SOL    HW170033   5.222   1.144   4.827  0.2165  0.8354 -0.0754
22611SOL    HW270034   5.200   1.042   4.717 -0.7541  0.1713  0.7118
22612SOL     OW70035   7.713   6.007   1.709 -0.4097  0.7622  0.6176
22612SOL    HW170036   7.717   6.048   1.622  1.2934 -1.7854 -0.6370
22612SOL    HW270037   7.627   5.965   1.712  0.0047 -0.2429 -0.4717
22613SOL     OW70038   3.770   2.737   5.964 -0.4296  0.6959  0.2327
22613SOL    HW170039   3.804   2.755   6.052  1.1994  1.7486 -0.5586
22613SOL    HW270040   3.681   2.704   5.979  0.3719 -0.7478  2.3444
22614SOL     OW70041   3.831   6.676   7.603 -0.2783  0.1913  0.0423
22614SOL    HW170042   3.783   6.611   7.551 -1.1719  1.6387 -1.0269
22614SOL    HW270043   3.770   6.701   7.672  0.0317 -0.0380  0.4016
22615SOL     OW70044   3.866   5.175   6.795 -0.4079 -0.2593  0.5329
22615SOL    HW170045   3.849   5.269   6.803  2.1706  0.4743 -1.2863
22615SOL    HW270046   3.960   5.167   6.812 -0.3951 -2.3738 -0.3007
22616SOL     OW70047   8.738   8.128   0.548 -0.3452 -0.0840 -0.0840
22616SOL    HW170048   8.774   8.096   0.631  0.9140  0.4193 -0.4258
22616SOL    HW270049   8.763   8.061   0.484 -1.3052 -0.4652 -0.0801
22617SOL     OW70050   2.375   2.001   7.731 -0.2248  0.2973  0.0055
22617SOL    HW170051   2.382   1.979   7.639 -0.7280 -0.4843  0.1431
22617SOL    HW270052   2.417   1.928   7.777 -2.1399 -0.5872  0.4831
22618SOL     OW70053   7.210   5.639   4.295 -0.3649  0.1385 -0.4699
22618SOL    HW170054   7.272   5.708   4.318 -1.2420  0.6936  0.3019
22618SOL    HW270055   7.262   5.573   4.250  1.0328 -0.0483  1.3469
22619SOL     OW70056   6.127   4.471   9.355  0.5890  0.5390  0.6877
22619SOL    HW170057   6.041   4.442   9.323  0.0377  0.0649  2.5108
22619SOL    HW270058   6.114   4.563   9.378  0.5455  0.4386  1.0614
22620SOL     OW70059   4.936   8.643   1.020  0.4038 -0.3427  0.2617
22620SOL    HW170060   4.910   8.699   1.092  0.3831  0.4632 -0.3603
22620SOL    HW270061   5.013   8.687   0.982 -0.7252  0.3066 -1.4042
22621SOL     OW70062   1.897   7.459   5.303 -0.5735 -0.4159 -0.1058
22621SOL    HW170063   1.929   7.429   5.388 -0.5094 -0.2323 -0.0663
22621SOL    HW270064   1.848   7.539   5.322  1.2756  0.8644 -0.5013
22622SOL     OW70065   4.372   6.578   5.781  0.2950 -0.3450 -0.2266
22622SOL    HW170066   4.372   6.482   5.783 -1.5398 -0.3807  1.5312
22622SOL    HW270067   4.283   6.602   5.809  0.1446  1.8848 -2.2951
22623SOL     OW70068   3.203   6.626   0.731  0.1346  0.2156 -0.5576
22623SOL    HW170069   3.288   6.596   0.698 -0.7774 -2.4345 -0.6864
22623SOL    HW270070   3.189   6.576   0.811 -1.8889 -0.4018 -1.2568
22624SOL     OW70071   1.268   0.806   2.282  0.0225  0.1901 -0.0084
22624SOL    HW170072   1.201   0.783   2.216 -0.5391  0.1774  0.5586
22624SOL    HW270073   1.221   0.859   2.346  0.7868  0.9955 -0.0956
22625SOL     OW70074   5.284   8.258   9.309  0.1429  0.7293 -0.5837
22625SOL    HW170075   5.369   8.279   9.269 -0.2011 -1.1154 -2.4894
22625SOL    HW270076   5.258   8.176   9.267 -2.1086  0.6943  0.7365
22626SOL     OW70077   5.888   8.060   5.661  0.0640  0.7066  0.3706
22626SOL    HW170078   5.979   8.075   5.687  0.3180  0.6337 -0.4412
22626SOL    HW270079   5.886   7.967   5.638  0.2087  1.0600 -1.1928
22627SOL     OW70080   9.015   9.108   6.542  0.2383 -0.3559 -0.1157
22627SOL    HW170081   9.027   9.177   6.608 -1.4651 -1.0587  0.9968
22627SOL    HW270082   9.097   9.058   6.545  2.7879  3.0592 -2.9237
22628SOL     OW70083   4.477   9.017   6.552  0.4022 -0.1297 -0.3757
22628SOL    HW170084   4.500   9.017   6.459  1.0492  1.7079 -0.2610
22628SOL    HW270085   4.449   9.107   6.569 -0.4567 -0.6374  1.0499
22629SOL     OW70086   6.422   1.145   2.154  0.3866 -0.0517  0.0320
22629SOL    HW170087   6.456   1.140   2.065  0.5807 -0.5608  0.1264
22629SOL    HW270088   6.487   1.195   2.202  0.4030  0.0146 -0.0610
22630SOL     OW70089   1.996   6.099   0.296 -0.0456  0.3377 -0.6228
22630SOL    HW170090   2.090   6.084   0.303 -0.1880 -0.0130  1.0322
22630SOL    HW270091   1.971   6.062   0.211  1.2359  0.0190 -0.8715
22631SOL     OW70092   1.808   6.392   1.070  0.0560 -0.3193  0.0267
22631SOL    HW170093   1.865   6.455   1.113  1.3842 -1.1050 -0.5155
22631SOL    HW270094   1.734   6.381   1.131 -0.0336  1.4445  0.2904
22632SOL     OW70095   4.666   4.561   2.483  0.5903 -0.4759  0.2505
22632SOL    HW170096   4.718   4.485   2.511  0.6879 -1.3378 -2.0247
22632SOL    HW270097   4.725   4.611   2.427 -0.6175 -0.8664 -1.4609
22633SOL     OW70098   3.772   6.276   6.136  0.6239  0.0913 -0.7182
22633SOL    HW170099   3.683   6.277   6.101  0.8180  1.7268 -1.2278
22633SOL    HW270100   3.761   6.274   6.231 -0.0006  1.7081 -0.7270
22634SOL     OW70101   4.107   2.369   6.975 -0.1846  0.3034  0.3361
22634SOL    HW170102   4.103   2.320   7.057  1.7833 -2.1131 -0.8807
22634SOL    HW270103   4.044   2.325   6.918 -0.1274  0.7095 -0.0408
22635SOL     OW70104   5.955   1.310   7.914 -0.1291  0.0142  0.5162
22635SOL    HW170105   6.041   1.272   7.930  0.2439  0.1744 -0.8965
22635SOL    HW270106   5.896   1.262   7.970  0.6816 -1.0708  0.4659
22636SOL     OW70107   3.436   5.315   9.311 -0.2049 -0.3556 -0.3197
22636SOL    HW170108   3.362   5.358   9.269  1.1839  3.4519  0.7031
22636SOL    HW270109   3.449   5.363   9.393  2.5728 -1.7535  0.1977
22637SOL     OW70110   1.953   3.504   4.528 -0.2091 -0.0751 -0.2397
22637SOL    HW170111   1.983   3.449   4.601  1.5047  0.4168 -0.5367
22637SOL    HW270112   2.012   3.482   4.456 -0.4637  1.0800 -0.8161
22638SOL     OW70113   7.792   0.633   4.607  0.0678 -0.1209 -0.0965
22638SOL    HW170114   7.786   0.721   4.570  1.8839 -0.1319 -0.4828
22638SOL    HW270115   7.880   0.629   4.645  0.2984 -2.0237 -0.7614
22639SOL     OW70116   5.055   6.453   4.556 -0.0300  0.1142 -0.3678
22639SOL    HW170117   5.128   6.510   4.578 -0.1726  0.0361  0.3377
22639SOL    HW270118   5.003   6.504   4.494 -0.0860  0.7032  0.1545
22640SOL     OW70119   5.732   3.755   3.799 -0.1127 -0.0723 -0.7458
22640SOL    HW170120   5.743   3.843   3.764 -0.5079  0.8058  1.2172
22640SOL    HW270121   5.815   3.736   3.843 -1.5853  1.3698  3.0160
22641SOL     OW70122   8.570   3.497   4.394  0.2411  0.3253  0.5615
22641SOL    HW170123   8.578   3.587   4.426  0.0760 -0.5803  3.3604
22641SOL    HW270124   8.660   3.472   4.371  0.2139  1.3320 -0.7642
22642SOL     OW70125   5.318   4.587   4.052  0.6177 -0.6510  0.2172
22642SOL    HW170126   5.302   4.505   4.004 -0.9471 -0.5685  0.5657
22642SOL    HW270127   5.274   4.654   4.000  0.3252 -0.3068  0.9143
22643SOL     OW70128   6.715   9.139   2.069  0.6117  0.3407  0.5114
22643SOL    HW170129   6.772   9.116   1.996 -1.5301 -1.9558 -0.5883
22643SOL    HW270130   6.739   9.078   2.139 -0.1595 -0.3350  0.1987
22644SOL     OW70131   6.083   0.591   5.082 -0.2903 -0.8678  0.1686
22644SOL    HW170132   6.131   0.673   5.088  0.4275 -1.2705  0.0435
22644SOL    HW270133   6.083   0.571   4.988  0.7030 -1.6795  0.3260
22645SOL     OW70134   5.619   9.560   0.371 -0.4662 -0.4938  0.2846
22645SOL    HW170135   5.707   9.535   0.402 -0.6595  0.3583  1.5516
22645SOL    HW270136   5.566   9.482   0.386 -0.2626 -0.5156  0.9240
22646SOL     OW70137   3.537   6.806   7.264  0.3267  0.0166  0.4681
22646SOL    HW170138   3.444   6.798   7.285 -0.0277  2.0917 -0.0103
22646SOL    HW270139   3.572   6.865   7.331  0.7240  1.1719 -0.7101
22647SOL     OW70140   6.896   0.059   0.368 -0.3377 -0.5482 -0.0609
22647SOL    HW170141   6.939   0.145   0.363 -0.6747 -0.3858 -0.1727
22647SOL    HW270142   6.910   0.031   0.458 -0.8939 -0.0243  0.1946
22648SOL     OW70143   5.530   7.649   5.446 -0.1911 -0.0793  0.9029
22648SOL    HW170144   5.493   7.562   5.462  1.6035 -1.0889 -0.0984
22648SOL    HW270145   5.470   7.689   5.383  0.1357 -1.4905 -0.3555
22649SOL     OW70146   7.994   8.693   8.594 -0.0439  0.5211  0.1838
22649SOL    HW170147   7.971   8.600   8.599 -1.7579  0.8981 -0.2781
22649SOL    HW270148   8.087   8.695   8.619  0.2677 -1.4057 -0.6105
22650SOL     OW70149   6.666   2.076   7.535 -0.2617  0.6131  0.0477
22650SOL    HW170150   6.757   2.060   7.560 -0.8138  0.4128  2.1610
22650SOL    HW270151   6.642   2.002   7.479  1.3015  1.4980 -1.8867
22651SOL     OW70152   4.916   2.121   4.571 -0.1443 -0.5319 -0.1821
22651SOL    HW170153   4.899   2.178   4.497  0.7681  0.5483  0.4159
22651SOL    HW270154   4.846   2.056   4.568 -0.4095 -0.1978 -1.6727
22652SOL     OW70155   1.267   4.744   9.472 -0.2030 -0.5922  0.3826
22652SOL    HW170156   1.241   4.793   9.394 -1.4123 -0.7971  0.6391
22652SOL    HW270157   1.277   4.654   9.441 -0.1777 -0.5835  0.3651
22653SOL     OW70158   8.558   3.493   2.154  0.1824 -0.0246  0.3547
22653SOL    HW170159   8.548   3.398   2.162  1.9945 -0.1808  1.2367
22653SOL    HW270160   8.522   3.528   2.236 -1.4902  0.1855 -0.4201
22654SOL     OW70161   0.856   5.551   7.664  0.8595 -0.1434 -0.2935
22654SOL    HW170162   0.890   5.498   7.592  1.5085  0.3165 -0.3264
22654SOL    HW270163   0.828   5.632   7.623  0.3426 -0.2476 -0.1624
22655SOL     OW70164   8.707   5.575   4.164 -0.1155 -0.1902 -0.2729
22655SOL    HW170165   8.625   5.567   4.115  0.2024 -0.2430 -0.8057
22655SOL    HW270166   8.720   5.670   4.174  0.0869 -0.1640 -0.7554
22656SOL     OW70167   6.935   1.989   4.136 -0.0001  0.1014 -0.2329
22656SOL    HW170168   7.017   2.005   4.089 -0.1982  0.5194 -0.4337
22656SOL    HW270169   6.898   2.076   4.150 -0.9789 -0.1576 -1.1590
22657SOL     OW70170   0.983   0.656   9.427  0.3738 -0.5483  0.0809
22657SOL    HW170171   1.000   0.578   9.374  0.1088 -2.5225  2.6446
22657SOL    HW270172   1.070   0.691   9.446  0.6149 -1.1482  0.1214
22658SOL     OW70173   8.935   0.079   3.054  0.6706  0.6671 -0.4714
22658SOL    HW170174   8.967   0.002   3.100 -0.1108  0.8215  0.3356
22658SOL    HW270175   8.880   0.045   2.984  1.1347  0.4673 -0.7437
22659SOL     OW70176   8.456   4.275   2.218  0.8367  0.4381  0.5717
22659SOL    HW170177   8.363   4.258   2.199  0.9590 -1.2248  1.2997
22659SOL    HW270178   8.468   4.368   2.198 -0.7138  0.4248 -0.6038
22660SOL     OW70179   2.672   5.781   9.176 -0.1155 -1.0041  0.2266
22660SOL    HW170180   2.695   5.694   9.144  1.7294 -1.2381  1.9689
22660SOL    HW270181   2.657   5.768   9.270  1.4146  0.7342  0.7555
22661SOL     OW70182   4.982   7.988   5.699 -0.3945  0.1534  0.2066
22661SOL    HW170183   5.041   7.922   5.663  0.0841  0.0703  1.1098
22661SOL    HW270184   4.904   7.983   5.645  0.6918  0.7911 -1.5367
22662SOL     OW70185   8.470   7.748   7.947 -0.2904 -0.1837 -0.1835
22662SOL    HW170186   8.440   7.658   7.962 -0.7110  0.0800  0.6671
22662SOL    HW270187   8.444   7.795   8.026  1.2725  0.3641  0.0397
22663SOL     OW70188   6.376   8.542   8.113  0.0875 -0.3588 -0.3795
22663SOL    HW170189   6.436   8.611   8.085  0.8157 -0.9547 -0.3135
22663SOL    HW270190   6.387   8.473   8.048 -0.7666 -0.3445 -0.5433
22664SOL     OW70191   2.956   9.020   6.346  0.1233  0.4207  0.1843
22664SOL    HW170192   3.018   8.986   6.411  0.9121  1.4656 -0.0114
22664SOL    HW270193   3.010   9.064   6.281 -0.8560  1.8409  0.3011
22665SOL     OW70194   2.718   3.486   0.765  0.1257  0.2509  0.2925
22665SOL    HW170195   2.657   3.541   0.716  1.9560 -0.3478 -2.9302
22665SOL    HW270196   2.666   3.411   0.792 -0.7374 -0.0785 -2.0473
22666SOL     OW70197   1.092   9.563   1.035 -0.2922 -0.1140  0.0975
22666SOL    HW170198   1.105   9.514   1.117  1.4474 -0.0682 -0.1143
22666SOL    HW270199   1.035   9.636   1.060 -0.5987 -0.6533  1.0473
22667SOL     OW70200   2.068   7.790   5.718 -0.4407 -0.6074 -0.5515
22667SOL    HW170201   2.021   7.839   5.650  0.4628  1.2842  0.1183
22667SOL    HW270202   2.039   7.830   5.800  1.3110 -0.3069 -0.0504
22668SOL     OW70203   0.911   4.840   8.145  0.0900 -0.3208  0.1981
22668SOL    HW170204   0.829   4.888   8.154 -0.1552 -0.7890  0.5471
22668SOL    HW270205   0.893   4.773   8.079  0.8250  0.8715 -1.2701
22669SOL     OW70206   6.291   6.412   3.120  0.0227 -0.1209 -0.7531
22669SOL    HW170207   6.310   6.382   3.031  2.8977 -2.1890  0.4025
22669SOL    HW270208   6.372   6.395   3.168 -0.8852  2.4563  1.9145
22670SOL     OW70209   3.945   1.649   6.397  0.5427  0.0277 -0.1708
22670SOL    HW170210   3.999   1.729   6.396 -0.4925  0.7701  0.7912
22670SOL    HW270211   3.903   1.648   6.311  1.0524  0.1715 -0.4266
22671SOL     OW70212   8.976   8.921   4.839  0.7220 -0.5983 -0.0670
22671SOL    HW170213   9.003   8.844   4.789 -1.2039 -1.2303 -0.2373
22671SOL    HW270214   9.048   8.982   4.830  2.0231 -2.1324 -0.4836
22672SOL     OW70215   7.529   1.743   5.335  0.3362  0.2056 -0.3280
22672SOL    HW170216   7.484   1.731   5.252  0.4125 -2.2353 -0.0906
22672SOL    HW270217   7.618   1.768   5.311  0.5135 -1.0295 -1.0222
22673SOL     OW70218   1.902   0.499   2.906 -0.5372  0.1087  0.2477
22673SOL    HW170219   1.828   0.505   2.966 -0.0786  0.7257  0.7646
22673SOL    HW270220   1.908   0.585   2.865  0.0585  0.1458  0.4044
22674SOL     OW70221   1.802   7.839   5.161  0.0446  0.2104  0.5413
22674SOL    HW170222   1.754   7.909   5.204 -0.9089 -1.0096  1.5245
22674SOL    HW270223   1.868   7.812   5.224  2.0062  1.7549 -0.7309
22675SOL     OW70224   3.910   2.937   4.699  0.1009  0.1805 -0.1689
22675SOL    HW170225   3.916   2.965   4.790 -0.8247  0.2467 -0.1261
22675SOL    HW270226   3.820   2.909   4.688  0.5601 -1.1666 -0.6829
22676SOL     OW70227   6.674   6.976   0.391 -0.8280  0.0810 -0.4050
22676SOL    HW170228   6.581   6.970   0.413 -0.9325  0.9530 -0.5582
22676SOL    HW270229   6.702   6.886   0.378 -1.5330 -0.2249  0.1342
22677SOL     OW70230   0.096   6.744   1.074  0.1127 -0.0900 -0.6064
22677SOL    HW170231   0.166   6.692   1.035  2.0093  0.2844  1.9757
22677SOL    HW270232   0.068   6.693   1.150  0.4787  1.5587  0.7114
22678SOL     OW70233   5.618   6.415   1.406  0.3743  0.1245  0.2646
22678SOL    HW170234   5.592   6.349   1.471 -1.7845  1.0165  0.3660
22678SOL    HW270235   5.566   6.492   1.428 -0.0709  0.6193 -2.2468
22679SOL     OW70236   0.898   2.674   1.415 -0.0581  0.1834 -0.9761
22679SOL    HW170237   0.939   2.678   1.328  1.5237 -0.3641 -0.2809
22679SOL    HW270238   0.970   2.684   1.477 -1.0699 -0.0785  0.2931
22680SOL     OW70239   4.618   7.211   6.404  0.2609 -0.1731  0.4689
22680SOL    HW170240   4.526   7.208   6.377  0.4318  0.2355 -0.1906
22680SOL    HW270241   4.618   7.180   6.494 -0.9100  2.3846  1.4340
22681SOL     OW70242   0.169   1.353   3.351 -0.0057 -0.1683 -0.6788
22681SOL    HW170243   0.224   1.283   3.315 -0.1624 -0.6509  0.0041
22681SOL    HW270244   0.181   1.346   3.446 -0.1748  0.6093 -0.5960
22682SOL     OW70245   2.687   5.977   6.479  0.1299  0.4973 -0.4300
22682SOL    HW170246   2.661   6.045   6.417 -0.2181 -0.6393 -1.5791
22682SOL    HW270247   2.779   5.960   6.459  0.9115  2.1208  1.3543
22683SOL     OW70248   0.861   7.434   5.653  0.1234 -0.1508  0.6627
22683SOL    HW170249   0.873   7.340   5.636  0.9754  0.2265 -0.9932
22683SOL    HW270250   0.933   7.456   5.712 -0.3891 -0.6221  1.4895
22684SOL     OW70251   2.052   7.472   5.044 -0.3926 -0.4348  0.5266
22684SOL    HW170252   2.099   7.543   5.088 -0.1947 -1.2361  1.6784
22684SOL    HW270253   1.974   7.458   5.098 -0.1187 -1.4858  0.6781
22685SOL     OW70254   0.887   6.814   1.884  0.1754  0.1675 -0.0240
22685SOL    HW170255   0.798   6.849   1.882  0.1153  0.0138  0.0478
22685SOL    HW270256   0.932   6.862   1.814  0.4536  1.3697  0.9258
22686SOL     OW70257   8.459   5.816   0.966 -0.1357  0.3618  0.4408
22686SOL    HW170258   8.481   5.773   1.048  3.2685  0.7438 -0.1182
22686SOL    HW270259   8.400   5.756   0.921 -1.1353 -0.3705  2.6221
22687SOL     OW70260   4.767   1.497   1.831  0.2812 -0.4714  0.3715
22687SOL    HW170261   4.737   1.495   1.922 -1.4811 -0.7166 -0.1837
22687SOL    HW270262   4.732   1.418   1.792  1.4468 -0.6217 -0.4308
22688SOL     OW70263   7.236   2.541   6.051  0.0454 -0.1175  0.3389
22688SOL    HW170264   7.281   2.562   6.132 -0.5170 -0.8140  0.8419
22688SOL    HW270265   7.157   2.494   6.078 -0.7152  0.5934 -0.5449
22689SOL     OW70266   2.000   9.103   1.819 -0.2822  0.2844 -1.1018
22689SOL    HW170267   1.946   9.024   1.806  1.2336 -1.0923  0.4416
22689SOL    HW270268   2.084   9.081   1.780  0.4467  0.7513  0.1416
22690SOL     OW70269   8.424   2.752   8.034  0.3904 -0.3061 -0.2246
22690SOL    HW170270   8.382   2.762   8.119  0.7866  1.8080 -0.2206
22690SOL    HW270271   8.501   2.697   8.051  0.6813  0.4037  0.8897
22691SOL     OW70272   0.281   5.441   4.757  0.3029 -0.1688  0.1788
22691SOL    HW170273   0.341   5.367   4.751  0.2502 -0.1749 -0.3063
22691SOL    HW270274   0.291   5.486   4.673 -0.6788 -0.4080 -0.0691
22692SOL     OW70275   8.512   1.475   3.640  0.3237  0.2162  0.5831
22692SOL    HW170276   8.502   1.389   3.682 -1.2124  1.5264  3.0978
22692SOL    HW270277   8.600   1.503   3.663  0.0657  0.2119  1.6225
22693SOL     OW70278   7.069   4.302   6.599  0.3305 -0.1821  0.3609
22693SOL    HW170279   6.987   4.329   6.557 -0.1131 -0.4215  1.0552
22693SOL    HW270280   7.126   4.276   6.527  0.1308  0.8874 -0.1986
22694SOL     OW70281   8.359   3.335   5.598 -0.0260 -0.3015 -0.4853
22694SOL    HW170282   8.329   3.426   5.606  1.0412  0.0061  0.4561
22694SOL    HW270283   8.287   3.289   5.556 -0.9095  0.8221 -0.2554
22695SOL     OW70284   3.448   4.562   3.026  0.3287 -0.5897  0.1434
22695SOL    HW170285   3.407   4.494   3.079 -0.0344  0.3656  1.1358
22695SOL    HW270286   3.509   4.605   3.085  1.4427 -0.7954 -0.8066
22696SOL     OW70287   4.408   8.134   5.492  0.0920  0.1118  0.1108
22696SOL    HW170288   4.368   8.051   5.466  1.7408 -0.6142 -0.2798
22696SOL    HW270289   4.458   8.113   5.571  1.8315  0.3071 -0.8862
22697SOL     OW70290   1.608   1.396   8.139  0.0867 -0.3298  0.6169
22697SOL    HW170291   1.629   1.305   8.118  0.9321 -0.4543  1.8757
22697SOL    HW270292   1.545   1.391   8.211 -2.6033  0.0892 -1.5275
22698SOL     OW70293   4.555   1.247   5.024 -0.4557 -0.2678 -0.3195
22698SOL    HW170294   4.498   1.214   4.955 -0.7437 -0.2823 -0.0760
22698SOL    HW270295   4.513   1.219   5.105  0.2372 -0.8255 -0.1473
22699SOL     OW70296   4.120   0.084   8.534 -0.2343 -0.1113 -0.1603
22699SOL    HW170297   4.055   0.046   8.593 -1.0566 -0.0519 -0.9932
22699SOL    HW270298   4.199   0.032   8.548 -0.0739  0.5563  1.7313
22700SOL     OW70299   4.607   6.336   0.817  0.4620 -0.6498 -0.3442
22700SOL    HW170300   4.696   6.303   0.830  0.9202  0.3687 -0.7417
22700SOL    HW270301   4.574   6.349   0.906  1.6482  1.2890 -0.1102
22701SOL     OW70302   6.851   5.026   8.301 -0.0583  0.3689 -0.3795
22701SOL    HW170303   6.825   5.051   8.211 -0.1678  1.3954 -0.0807
22701SOL    HW270304   6.873   5.109   8.343  0.1030 -0.1175  0.5167
22702SOL     OW70305   3.880   6.757   6.439  0.2028 -0.1553  0.2193
22702SOL    HW170306   3.816   6.782   6.506 -0.6584 -1.0453 -0.2542
22702SOL    HW270307   3.833   6.698   6.381  1.4439 -0.8017 -0.1713
22703SOL     OW70308   1.552   8.843   3.369 -0.8559 -0.4235 -0.6488
22703SOL    HW170309   1.528   8.900   3.442  0.6509 -0.6288  0.0451
22703SOL    HW270310   1.541   8.898   3.292  2.5045  1.6076  0.1233
22704SOL     OW70311   8.160   3.844   2.331 -0.0822  0.6742 -0.4518
22704SOL    HW170312   8.114   3.826   2.249 -0.0908  0.1131 -0.3290
22704SOL    HW270313   8.150   3.938   2.344 -1.5746  0.5193 -0.2232
22705SOL     OW70314   2.050   7.619   4.245 -0.6498 -0.0890  0.1730
22705SOL    HW170315   1.961   7.586   4.228  0.0236 -1.5143 -0.7156
22705SOL    HW270316   2.048   7.644   4.338 -1.9074 -0.3571  0.2388
22706SOL     OW70317   5.564   1.292   5.006 -0.4317  0.0992 -0.2461
22706SOL    HW170318   5.582   1.354   4.936  0.6401 -1.0644 -1.0430
22706SOL    HW270319   5.502   1.338   5.063 -1.4820  0.9967 -2.0290
22707SOL     OW70320   2.185   1.168   0.513  0.1945 -0.3068  0.0127
22707SOL    HW170321   2.178   1.237   0.579 -0.2333  0.4495 -0.8041
22707SOL    HW270322   2.144   1.205   0.435 -0.6046 -1.7188 -0.2746
22708SOL     OW70323   2.392   2.273   2.924 -0.0947 -0.2016 -0.3626
22708SOL    HW170324   2.320   2.284   2.986  0.1043  1.0240 -0.3350
22708SOL    HW270325   2.370   2.193   2.876 -0.9440 -0.4082  0.3412
22709SOL     OW70326   4.326   0.230   3.237 -0.1297  0.0908 -0.0362
22709SOL    HW170327   4.417   0.219   3.266  0.6886  1.4061 -1.8942
22709SOL    HW270328   4.314   0.325   3.232 -1.6557 -0.0587  0.2513
22710SOL     OW70329   2.360   4.604   9.158 -0.1605  0.0948  0.0376
22710SOL    HW170330   2.409   4.686   9.146  1.3812 -0.6344  1.0231
22710SOL    HW270331   2.427   4.539   9.179 -1.2294 -1.6828 -1.7088
22711SOL     OW70332   3.773   1.261   8.931  0.0219  0.6508 -0.1155
22711SOL    HW170333   3.817   1.239   9.013 -0.6128  1.7650  0.5342
22711SOL    HW270334   3.742   1.177   8.897 -0.7084  0.3049  1.3649
22712SOL     OW70335   2.159   6.389   2.102  0.1663 -0.2797 -0.4403
22712SOL    HW170336   2.085   6.405   2.161 -0.0146  0.7598 -0.9280
22712SOL    HW270337   2.145   6.300   2.071 -2.1145  0.5851 -2.1861
22713SOL     OW70338   8.289   9.547   7.004 -0.5816 -0.1624  0.1278
22713SOL    HW170339   8.222   9.576   7.065 -0.5561  0.5799 -0.1887
22713SOL    HW270340   8.275   9.453   6.995 -1.8713  0.0622 -0.3015
22714SOL     OW70341   4.469   8.759   8.011  0.4137 -0.2569 -0.0330
22714SOL    HW170342   4.520   8.840   8.017  0.0296 -0.0074 -0.1034
22714SOL    HW270343   4.502   8.715   7.932 -0.6919  0.7582 -1.1079
22715SOL     OW70344   8.444   1.564   5.469  0.3344  0.1895  0.6086
22715SOL    HW170345   8.424   1.577   5.561 -0.8408 -0.1609  0.4194
22715SOL    HW270346   8.429   1.470   5.455 -3.1371  0.7830 -0.7226
22716SOL     OW70347   4.763   2.011   6.150 -0.4094  0.8199 -0.1530
22716SOL    HW170348   4.808   1.934   6.184  1.6014  2.1146  0.2757
22716SOL    HW270349   4.716   2.047   6.226 -0.4046  0.6670 -0.0786
22717SOL     OW70350   5.688   8.498   7.392  0.2105  0.1006 -0.0960
22717SOL    HW170351   5.748   8.464   7.326  0.8960 -0.2552  0.6957
22717SOL    HW270352   5.618   8.433   7.397  1.5274 -1.2937  1.4333
22718SOL     OW70353   4.096   6.772   6.582 -0.4188  0.4905  0.4610
22718SOL    HW170354   4.025   6.751   6.522  0.0315  0.1602  0.0388
22718SOL    HW270355   4.166   6.807   6.527  1.3418 -2.9353  0.1941
22719SOL     OW70356   3.200   6.308   0.244 -0.5292 -0.1995  0.1040
22719SOL    HW170357   3.277   6.291   0.298 -0.8648 -2.5748 -0.0341
22719SOL    HW270358   3.154   6.223   0.241 -0.6144 -0.2029 -3.7689
22720SOL     OW70359   2.319   3.876   6.478 -0.4416 -0.4472 -0.2910
22720SOL    HW170360   2.349   3.954   6.523  0.2100 -0.7084 -0.2678
22720SOL    HW270361   2.228   3.865   6.507 -0.4002  0.0566  0.0315
22721SOL     OW70362   0.835   2.378   2.998  0.1104 -0.5880  0.3016
22721SOL    HW170363   0.891   2.352   3.071 -0.4625 -2.0100  0.2744
22721SOL    HW270364   0.751   2.334   3.015 -0.2244 -0.4509 -0.8980
22722SOL     OW70365   7.211   4.433   2.017 -0.2595 -0.0035 -0.1225
22722SOL    HW170366   7.193   4.398   1.930 -1.5382 -0.1562  0.1891
22722SOL    HW270367   7.301   4.403   2.036 -1.4277 -3.7926  0.3948
22723SOL     OW70368   5.621   1.163   4.719 -0.2236 -0.5776  0.5776
22723SOL    HW170369   5.557   1.166   4.648  0.2867 -1.2816  0.0814
22723SOL    HW270370   5.588   1.097   4.779 -0.8854  0.3267  1.2385
22724SOL     OW70371   8.521   9.268   5.646  0.3358  0.4427 -0.5216
22724SOL    HW170372   8.480   9.274   5.560 -1.2018 -0.6649  0.0904
22724SOL    HW270373   8.539   9.175   5.658 -0.9127  0.3536  0.9626
22725SOL     OW70374   8.965   6.916   6.492 -0.0705  0.1433 -0.4481
22725SOL    HW170375   8.943   6.892   6.402 -0.7865 -1.0073  0.0050
22725SOL    HW270376   8.880   6.930   6.535  0.1127 -1.5329  0.5961
22726SOL     OW70377   8.022   1.036   4.269  0.8326  0.2276 -0.3992
22726SOL    HW170378   7.992   1.039   4.178  0.2066  3.0205 -0.2009
22726SOL    HW270379   8.077   1.114   4.279  0.4792  0.2641  1.7220
22727SOL     OW70380   4.389   0.157   8.015 -0.2708 -0.3805  0.2962
22727SOL    HW170381   4.310   0.185   8.061 -0.5446  0.9505 -0.9312
22727SOL    HW270382   4.400   0.065   8.040 -2.0021 -0.4821  0.7643
22728SOL     OW70383   4.635   5.123   5.496 -0.3939 -0.3170  0.0980
22728SOL    HW170384   4.645   5.138   5.589 -2.4648 -0.9966  0.4815
22728SOL    HW270385   4.701   5.057   5.475  0.3725  0.1574  0.9779
22729SOL     OW70386   1.068   8.169   3.210 -0.1154 -0.1287  0.0642
22729SOL    HW170387   1.101   8.080   3.217 -1.5248 -0.7779 -1.1481
22729SOL    HW270388   1.035   8.176   3.121 -0.6937  1.3836  0.3589
22730SOL     OW70389   8.673   2.465   5.238 -0.5006 -0.1345 -0.1566
22730SOL    HW170390   8.614   2.540   5.238  0.6396  0.7856  0.3019
22730SOL    HW270391   8.679   2.438   5.330  1.6177  1.3124  0.2166
22731SOL     OW70392   1.197   2.957   2.012 -0.2350  0.0987 -0.1544
22731SOL    HW170393   1.272   2.923   1.964 -0.6176 -1.2182  0.1307
22731SOL    HW270394   1.123   2.902   1.984 -0.6812  0.0330  1.0630
22732SOL     OW70395   7.919   7.223   0.594 -0.1283  0.3496  0.7966
22732SOL    HW170396   7.830   7.257   0.596 -0.9132 -1.4307 -1.1118
22732SOL    HW270397   7.954   7.253   0.510 -0.1202 -1.7128  0.0251
22733SOL     OW70398   7.206   2.066   4.046  0.2785 -0.0350 -0.1625
22733SOL    HW170399   7.253   1.994   4.088  1.2759 -0.0273 -1.2366
22733SOL    HW270400   7.203   2.134   4.114  1.6340 -0.1196  0.0201
22734SOL     OW70401   4.995   5.080   1.780  0.3816 -0.2052  0.6379
22734SOL    HW170402   4.912   5.034   1.788 -0.6118  1.0988 -1.3239
22734SOL    HW270403   4.983   5.162   1.827  0.3384  0.2271 -0.1067
22735SOL     OW70404   4.520   5.001   6.284 -0.1369  0.5226 -0.2688
22735SOL    HW170405   4.545   4.966   6.370 -1.2403  0.7413  0.1646
22735SOL    HW270406   4.471   4.929   6.243 -0.3221  0.7039 -0.3656
22736SOL     OW70407   2.150   0.988   4.418  0.0839  0.4274 -0.4713
22736SOL    HW170408   2.204   0.918   4.383  0.4976  1.0923 -1.2025
22736SOL    HW270409   2.061   0.968   4.390 -0.0077 -0.4761  0.4216
22737SOL     OW70410   4.677   7.525   4.612 -0.2836 -0.0570  0.3799
22737SOL    HW170411   4.718   7.610   4.598  0.3322 -0.6350 -1.6609
22737SOL    HW270412   4.585   7.538   4.588 -0.6619  0.4894  2.0122
22738SOL     OW70413   0.146   9.467   5.488  0.6432  0.1721  0.2064
22738SOL    HW170414   0.076   9.530   5.504 -2.0031 -2.4608  0.0412
22738SOL    HW270415   0.149   9.414   5.568  0.9976 -0.9870 -0.5431
22739SOL     OW70416   5.447   3.180   6.717 -0.3279  0.2704  0.4418
22739SOL    HW170417   5.443   3.092   6.679  1.1498  0.9289 -1.4006
22739SOL    HW270418   5.408   3.236   6.650 -1.0073  1.0707  1.4817
22740SOL     OW70419   0.932   4.298   3.240 -0.1494 -0.3447  0.3247
22740SOL    HW170420   0.887   4.372   3.198 -0.3046 -0.7284 -0.1992
22740SOL    HW270421   0.871   4.224   3.231 -1.8835  0.3029  4.5024
22741SOL     OW70422   0.638   5.512   7.157 -0.4184  0.3124  0.6634
22741SOL    HW170423   0.634   5.435   7.100 -1.3025  1.7424 -1.3037
22741SOL    HW270424   0.705   5.568   7.118 -1.3741  1.5348  0.7024
22742SOL     OW70425   9.015   7.382   9.559 -0.2733 -0.0987  0.1242
22742SOL    HW170426   9.025   7.477   9.551  0.2054 -0.1034  0.6369
22742SOL    HW270427   8.920   7.368   9.553 -0.4498  0.5316  1.2563
22743SOL     OW70428   3.790   6.569   1.346  0.4201  0.5426  0.5972
22743SOL    HW170429   3.836   6.555   1.429  0.5952 -1.3253  0.2379
22743SOL    HW270430   3.705   6.527   1.360  1.1180 -1.4750 -0.7112
22744SOL     OW70431   1.894   7.249   1.217  0.1449 -0.5257  0.1514
22744SOL    HW170432   1.935   7.308   1.280 -0.7264  0.3427 -0.0649
22744SOL    HW270433   1.908   7.162   1.253  0.7481 -0.1300  0.9003
22745SOL     OW70434   0.502   0.858   7.257  0.0971  0.4714  0.3088
22745SOL    HW170435   0.513   0.796   7.330  0.2414 -0.0565 -0.1510
22745SOL    HW270436   0.415   0.895   7.269 -0.0704  0.0277  0.4808
22746SOL     OW70437   0.970   7.760   7.069  0.4171  0.0026  0.4437
22746SOL    HW170438   1.052   7.807   7.053 -0.5749  1.9454  0.7946
22746SOL    HW270439   0.925   7.811   7.136 -1.7725 -0.1353 -0.8183
22747SOL     OW70440   3.812   1.662   5.275  0.0621  0.1839  0.5140
22747SOL    HW170441   3.767   1.601   5.335  0.3946  0.1985  0.7801
22747SOL    HW270442   3.894   1.619   5.254 -0.9660 -0.8373 -1.6914
22748SOL     OW70443   1.612   7.865   2.026 -0.0243  0.2110 -0.0013
22748SOL    HW170444   1.694   7.910   2.044  0.4834 -0.1594 -1.2584
22748SOL    HW270445   1.627   7.820   1.943 -1.4722  0.0739 -0.2228
22749SOL     OW70446   0.694   2.480   8.322  0.5247 -0.8282  0.1738
22749SOL    HW170447   0.783   2.446   8.334  0.8558 -0.4152 -0.9002
22749SOL    HW270448   0.666   2.442   8.238 -0.7770 -1.8835  1.0545
22750SOL     OW70449   2.986   0.174   7.177  0.1623  0.4619 -0.2285
22750SOL    HW170450   2.964   0.106   7.112  1.0786 -0.3126  0.2425
22750SOL    HW270451   2.936   0.251   7.149  0.2992  0.0569 -1.6840
22751SOL     OW70452   4.317   5.978   6.375 -0.0858  0.1660 -0.3968
22751SOL    HW170453   4.380   6.025   6.320  1.0152 -0.2476  0.4730
22751SOL    HW270454   4.323   6.022   6.460  0.2261 -0.8881  0.1397
22752SOL     OW70455   8.897   3.123   5.806 -0.2622 -0.2924 -0.3062
22752SOL    HW170456   8.935   3.126   5.894 -0.9310 -2.2928  0.1110
22752SOL    HW270457   8.832   3.193   5.806  0.5294  0.4730  0.3831
22753SOL     OW70458   9.426   6.487   8.064  0.0621  0.1372 -0.3785
22753SOL    HW170459   9.422   6.582   8.078 -0.2284  0.0747 -0.0441
22753SOL    HW270460   9.337   6.463   8.039  0.1218 -0.0594 -0.4009
22754SOL     OW70461   4.432   9.047   3.701 -0.5802  0.1625 -0.0186
22754SOL    HW170462   4.454   9.018   3.790 -2.2378 -1.3394 -0.0486
22754SOL    HW270463   4.343   9.081   3.709 -0.2707  1.2424 -0.8856
22755SOL     OW70464   5.127   3.447   0.268  0.4284 -0.1950  0.3998
22755SOL    HW170465   5.220   3.455   0.248  0.0238 -0.3766 -1.9021
22755SOL    HW270466   5.087   3.524   0.228 -0.7189 -1.5954 -1.3186
22756SOL     OW70467   1.364   1.606   8.812  0.5767  0.0911  0.2811
22756SOL    HW170468   1.274   1.577   8.822  1.2547 -2.1263  0.3914
22756SOL    HW270469   1.367   1.691   8.857 -1.6829  0.7728 -0.7226
22757SOL     OW70470   4.597   7.645   2.063 -0.2239 -0.2113  0.4418
22757SOL    HW170471   4.630   7.734   2.076 -1.2521  0.0960  1.1232
22757SOL    HW270472   4.657   7.590   2.113 -0.0141  0.1876  0.6350
22758SOL     OW70473   6.342   5.815   0.215  0.8182  0.0448 -0.1786
22758SOL    HW170474   6.419   5.868   0.195 -0.5627  1.6285 -1.6795
22758SOL    HW270475   6.356   5.733   0.168  2.6002 -0.6592  1.4671
22759SOL     OW70476   5.903   3.432   2.206 -0.6621 -0.2614  0.0857
22759SOL    HW170477   5.967   3.362   2.197  0.9502  1.0952  0.3595
22759SOL    HW270478   5.854   3.410   2.286  0.5464 -0.5337  0.7751
22760SOL     OW70479   7.253   7.531   2.838  0.0567 -0.0905  0.0547
22760SOL    HW170480   7.210   7.610   2.870  1.2631  0.9262 -0.7370
22760SOL    HW270481   7.320   7.512   2.903 -0.8886 -1.0801  0.7660
22761SOL     OW70482   9.003   0.582   9.473  0.1990  0.4080 -0.7136
22761SOL    HW170483   9.057   0.616   9.545 -2.8047  3.6312  0.2740
22761SOL    HW270484   8.991   0.490   9.494  1.6283  0.6404  1.4214
22762SOL     OW70485   1.658   4.320   5.367  0.3601 -0.4857 -0.0944
22762SOL    HW170486   1.623   4.408   5.355  2.0768  0.2980  0.3104
22762SOL    HW270487   1.653   4.279   5.280  1.6113  0.8341 -0.8233
22763SOL     OW70488   8.349   5.000   5.681  0.0638 -0.0572  0.7460
22763SOL    HW170489   8.428   5.000   5.735  0.7156  0.6718 -0.1833
22763SOL    HW270490   8.361   5.073   5.620 -2.4457  1.7645  2.2062
22764SOL     OW70491   5.375   6.600   3.626 -0.1800 -0.1109  0.9166
22764SOL    HW170492   5.281   6.586   3.608  0.0325 -0.0596 -0.3263
22764SOL    HW270493   5.419   6.562   3.550  0.9394 -1.8891  2.3729
22765SOL     OW70494   7.994   1.705   3.453  0.3257  0.1338 -0.4425
22765SOL    HW170495   7.930   1.716   3.524  0.8978 -1.1033  0.2969
22765SOL    HW270496   8.016   1.795   3.427 -1.9824  0.6044 -0.9954
22766SOL     OW70497   1.200   5.402   3.243  0.2466  0.5217  0.1893
22766SOL    HW170498   1.128   5.460   3.265 -0.1118 -0.2864  1.2362
22766SOL    HW270499   1.260   5.408   3.318 -1.6268 -3.2802  2.3094
22767SOL     OW70500   4.003   4.732   2.984  0.3150 -0.3834  0.3024
22767SOL    HW170501   4.071   4.673   3.018  0.6785 -0.8040 -1.0725
22767SOL    HW270502   3.938   4.674   2.946 -0.3599  0.0555  0.7790
22768SOL     OW70503   2.316   2.029   4.354  0.3917 -0.1454  0.7099
22768SOL    HW170504   2.228   2.060   4.331  0.6254  0.5590  0.7613
22768SOL    HW270505   2.375   2.084   4.303  0.7832 -1.4278 -0.2952
22769SOL     OW70506   7.271   7.063   6.204  0.0733 -0.0471  0.1926
22769SOL    HW170507   7.205   7.071   6.135  1.8003 -2.8571 -2.0110
22769SOL    HW270508   7.237   6.993   6.260  0.6108 -0.6837 -0.2683
22770SOL     OW70509   5.207   3.337   8.735  0.8821  0.4281 -0.3279
22770SOL    HW170510   5.260   3.258   8.740 -0.8057 -0.6530  2.1589
22770SOL    HW270511   5.193   3.350   8.641  1.9257 -1.7084 -0.8439
22771SOL     OW70512   5.359   5.444   0.795  0.4998  0.3817 -0.0257
22771SOL    HW170513   5.293   5.513   0.799  1.6438  1.4684  0.8759
22771SOL    HW270514   5.442   5.488   0.811  1.3362 -1.1196  0.0294
22772SOL     OW70515   3.003   5.651   8.657 -0.0244 -0.1132  0.0423
22772SOL    HW170516   2.974   5.560   8.658  0.5313 -0.3188 -1.2330
22772SOL    HW270517   2.947   5.693   8.592  0.0968  0.3411  0.2281
22773SOL     OW70518   2.328   0.952   6.994  0.1088 -0.5943  0.2873
22773SOL    HW170519   2.305   0.879   7.053  0.2869 -1.8719 -1.1722
22773SOL    HW270520   2.422   0.943   6.981 -0.3141 -2.1028 -2.3810
22774SOL     OW70521   3.899   6.509   7.859 -0.1006 -0.4914  0.0743
22774SOL    HW170522   3.947   6.587   7.886 -3.2294  1.7092 -0.1902
22774SOL    HW270523   3.954   6.469   7.792  1.8834  1.1372  0.6345
22775SOL     OW70524   6.538   6.074   7.020  0.3120 -0.6463 -0.1532
22775SOL    HW170525   6.580   6.143   6.968  0.0530  0.2988  0.8388
22775SOL    HW270526   6.590   6.069   7.100 -1.0672  0.1503  0.8506
22776SOL     OW70527   2.057   3.557   7.076  0.1371  0.3831  0.1605
22776SOL    HW170528   2.015   3.608   7.007  1.2957  0.5416 -0.4384
22776SOL    HW270529   2.131   3.610   7.104  0.4417 -0.2739  0.6107
22777SOL     OW70530   2.263   2.531   4.951 -0.3720  0.0226 -0.4013
22777SOL    HW170531   2.229   2.619   4.935 -0.1547  0.0185 -0.9014
22777SOL    HW270532   2.348   2.545   4.992  0.0908  0.0587 -1.3618
22778SOL     OW70533   5.151   5.465   1.658 -0.3937 -0.1526  0.3787
22778SOL    HW170534   5.133   5.528   1.727  1.8621 -0.4550  1.3274
22778SOL    HW270535   5.221   5.410   1.693 -1.0417 -2.0530 -1.1176
22779SOL     OW70536   5.657   8.354   3.674 -0.6013 -0.2923  0.0498
22779SOL    HW170537   5.674   8.281   3.733 -1.3449 -1.5659 -1.2624
22779SOL    HW270538   5.663   8.317   3.586 -0.9364  1.2350 -0.6614
22780SOL     OW70539   1.906   5.169   3.971  0.3507  0.0805 -0.2443
22780SOL    HW170540   1.900   5.253   3.924  0.8937 -0.9965 -2.3438
22780SOL    HW270541   1.991   5.173   4.016 -0.7798  1.7081  2.0059
22781SOL     OW70542   1.280   1.890   2.594 -0.6307 -0.4015  0.3553
22781SOL    HW170543   1.207   1.950   2.580  0.6892  1.0207 -0.9225
22781SOL    HW270544   1.283   1.837   2.514  0.3757  0.3439 -0.1377
22782SOL     OW70545   8.666   8.621   8.995  0.3517  0.0816  0.5031
22782SOL    HW170546   8.687   8.638   8.903  1.3618  0.1237  0.7330
22782SOL    HW270547   8.591   8.562   8.992  0.1613  0.3554 -0.3442
22783SOL     OW70548   5.987   6.897   0.740  0.3047 -0.0918 -0.0144
22783SOL    HW170549   5.927   6.824   0.728  1.8777 -1.1446 -2.1640
22783SOL    HW270550   5.970   6.955   0.665  1.3069  0.0654 -0.1355
22784SOL     OW70551   3.883   6.803   9.179 -0.6939  0.1805 -0.2238
22784SOL    HW170552   3.830   6.740   9.228 -1.5417 -0.3324 -1.7346
22784SOL    HW270553   3.825   6.878   9.165 -0.6442  0.1001 -0.8889
22785SOL     OW70554   3.429   7.092   8.440  0.6121 -0.2123 -0.5662
22785SOL    HW170555   3.417   7.022   8.503  0.3894 -0.7366 -1.1836
22785SOL    HW270556   3.410   7.172   8.489 -3.4579 -0.8007 -0.8823
22786SOL     OW70557   2.967   5.973   6.588 -0.0165 -0.9548 -0.0260
22786SOL    HW170558   2.991   6.064   6.568 -0.7307 -0.9394 -0.8888
22786SOL    HW270559   3.044   5.937   6.632 -0.5320  0.7305  2.4711
22787SOL     OW70560   8.610   4.622   7.759 -0.0661  0.0502  0.1358
22787SOL    HW170561   8.668   4.635   7.685  1.0581 -0.2569  0.9449
22787SOL    HW270562   8.568   4.707   7.772 -0.1596  0.1470 -0.7312
22788SOL     OW70563   7.814   7.912   4.484  0.2311  0.2230 -0.1985
22788SOL    HW170564   7.782   7.971   4.416  0.4227 -0.7546 -1.1539
22788SOL    HW270565   7.752   7.924   4.556 -0.4150  0.7215 -0.8210
22789SOL     OW70566   8.201   1.599   6.504  0.8822  0.3086 -0.1283
22789SOL    HW170567   8.194   1.549   6.422 -0.1565  2.1874 -1.2600
22789SOL    HW270568   8.277   1.656   6.491 -0.6434  2.3133 -0.8591
22790SOL     OW70569   5.154   8.943   4.779 -0.5223  0.3097 -0.3663
22790SOL    HW170570   5.060   8.925   4.790 -0.5520 -0.7059 -1.8945
22790SOL    HW270571   5.157   9.026   4.732 -0.6059  0.8675  0.5904
22791SOL     OW70572   1.509   4.671   2.044 -0.1381 -0.2614 -0.3808
22791SOL    HW170573   1.546   4.606   1.985 -1.7773  0.0496 -1.8132
22791SOL    HW270574   1.546   4.650   2.130  0.8840 -1.8390 -1.1814
22792SOL     OW70575   5.857   4.350   6.713 -0.1397 -0.5144 -0.0717
22792SOL    HW170576   5.867   4.266   6.667  1.5497  0.7270 -2.1467
22792SOL    HW270577   5.843   4.414   6.643 -0.6906  1.0707  1.4154
22793SOL     OW70578   7.589   2.995   6.966 -0.1071 -0.1088 -0.2997
22793SOL    HW170579   7.612   3.026   7.053  1.5083 -0.0180 -0.7431
22793SOL    HW270580   7.612   2.902   6.967  1.2808  0.1987 -1.0559
22794SOL     OW70581   7.548   2.930   3.926 -0.0172  0.1806  0.1421
22794SOL    HW170582   7.588   3.016   3.943 -1.1616  0.5455  1.1722
22794SOL    HW270583   7.456   2.950   3.908 -0.1763 -0.7943 -0.1491
22795SOL     OW70584   2.697   3.033   6.597  0.2589 -0.3531  0.0091
22795SOL    HW170585   2.616   3.074   6.627 -0.6815 -1.5142 -0.8518
22795SOL    HW270586   2.766   3.094   6.625 -0.9685  1.1801 -0.1401
22796SOL     OW70587   5.041   5.450   3.588  0.4254 -0.2149 -0.3820
22796SOL    HW170588   4.986   5.451   3.509 -0.3102  0.4802  0.1244
22796SOL    HW270589   5.071   5.360   3.595 -0.3360 -0.5183 -0.8909
22797SOL     OW70590   7.961   2.113   5.039  0.7685  0.5838  0.4399
22797SOL    HW170591   7.908   2.035   5.025  0.1397  0.6754  2.0271
22797SOL    HW270592   8.022   2.114   4.966 -0.8791  0.0287 -1.0268
22798SOL     OW70593   4.156   2.361   4.069  0.1308  0.6083 -0.1367
22798SOL    HW170594   4.130   2.377   4.160 -0.9185 -0.2030 -0.2719
22798SOL    HW270595   4.209   2.282   4.072 -2.5777 -1.3899 -0.5353
22799SOL     OW70596   0.164   0.851   3.358 -0.3053 -0.3159 -0.0419
22799SOL    HW170597   0.155   0.803   3.275 -0.9803 -0.2530 -0.0104
22799SOL    HW270598   0.118   0.934   3.343 -1.3800 -0.7496  0.7458
22800SOL     OW70599   2.314   3.380   2.201  0.4557 -0.2451 -0.1041
22800SOL    HW170600   2.282   3.438   2.132  0.8634 -0.7427 -0.7237
22800SOL    HW270601   2.288   3.423   2.283 -1.6897 -0.5602 -0.5538
22801SOL     OW70602   3.162   6.533   8.035  0.2366 -0.5288  0.6794
22801SOL    HW170603   3.158   6.547   8.130 -1.5173 -0.5061  0.6296
22801SOL    HW270604   3.189   6.442   8.025  1.7898 -0.1573  1.1510
22802SOL     OW70605   8.359   6.384   5.732  0.0078  0.4681  0.4074
22802SOL    HW170606   8.434   6.406   5.676  0.8081  0.4655  1.4429
22802SOL    HW270607   8.330   6.299   5.701  0.9182  0.1253  0.4604
22803SOL     OW70608   3.854   6.994   3.709 -0.5638 -0.1700  0.3167
22803SOL    HW170609   3.941   6.979   3.745  0.7255  0.0758 -2.5151
22803SOL    HW270610   3.815   7.060   3.767  2.1393  1.6957  0.1362
22804SOL     OW70611   0.273   6.769   5.211 -0.1700 -0.5634  0.0244
22804SOL    HW170612   0.294   6.822   5.134 -1.0783  0.3850  0.4102
22804SOL    HW270613   0.327   6.806   5.281 -2.7010  1.7377  0.9657
22805SOL     OW70614   1.210   0.399   4.081  0.6107  0.2680 -0.2215
22805SOL    HW170615   1.289   0.379   4.030  0.7379 -0.7592  0.3449
22805SOL    HW270616   1.242   0.405   4.172  0.2492  1.2120 -0.1435
22806SOL     OW70617   7.698   7.793   7.174 -0.4223  0.0237 -0.1141
22806SOL    HW170618   7.783   7.757   7.199  0.1736  1.3324 -0.1818
22806SOL    HW270619   7.693   7.779   7.079 -0.9061 -1.2820  0.0809
22807SOL     OW70620   3.225   7.254   4.796  0.3841 -0.6674 -0.0947
22807SOL    HW170621   3.221   7.201   4.716 -0.9984  0.6927 -0.9727
22807SOL    HW270622   3.180   7.201   4.862 -0.7513 -0.7130 -0.8849
22808SOL     OW70623   2.160   0.572   7.617 -0.3508  0.0504 -0.2648
22808SOL    HW170624   2.188   0.637   7.553  1.9765 -2.4960 -2.0839
22808SOL    HW270625   2.241   0.529   7.644 -1.7925 -2.3933  0.4374
22809SOL     OW70626   4.048   7.515   5.891 -0.1550  0.6765  0.5654
22809SOL    HW170627   4.082   7.481   5.975 -1.1772  0.0722  0.7569
22809SOL    HW270628   3.983   7.450   5.864 -0.9548  1.6479  0.0791
22810SOL     OW70629   4.664   0.207   5.773 -0.3187 -0.1188  0.0444
22810SOL    HW170630   4.672   0.115   5.748 -0.3283 -0.1809  0.2710
22810SOL    HW270631   4.735   0.251   5.726 -1.7551  0.1659 -2.0255
22811SOL     OW70632   1.862   2.480   3.227 -0.2012 -0.0935  0.6647
22811SOL    HW170633   1.942   2.429   3.237 -0.1731  0.1834  2.0418
22811SOL    HW270634   1.854   2.493   3.133  0.2985 -1.8037  0.3486
22812SOL     OW70635   1.869   6.785   5.074 -0.2785 -0.2283 -0.4891
22812SOL    HW170636   1.812   6.855   5.043 -2.1258 -1.7247 -0.6406
22812SOL    HW270637   1.833   6.706   5.035  0.3703 -1.5410  1.4532
22813SOL     OW70638   8.461   3.858   3.627 -0.0287  0.0018  0.0831
22813SOL    HW170639   8.453   3.811   3.544  0.8268 -0.9566  0.5273
22813SOL    HW270640   8.476   3.790   3.692 -2.0471  0.5992  1.2671
22814SOL     OW70641   4.557   8.385   7.576 -0.8479  0.1181 -0.3974
22814SOL    HW170642   4.573   8.334   7.655  0.2499  0.8896 -0.0921
22814SOL    HW270643   4.570   8.324   7.504  1.1983  0.1055 -0.0691
22815SOL     OW70644   8.027   6.423   7.491 -0.0095 -0.4017 -0.2887
22815SOL    HW170645   8.105   6.369   7.494  0.5397  0.4005  0.2191
22815SOL    HW270646   7.967   6.383   7.554  1.5721  1.2907  2.5384
22816SOL     OW70647   3.435   4.917   3.022  0.0615  0.4518  0.5731
22816SOL    HW170648   3.369   4.851   3.045 -0.1785  0.8387  1.0036
22816SOL    HW270649   3.395   5.001   3.046 -0.0988  0.8638 -1.0168
22817SOL     OW70650   9.427   1.959   8.773  0.6278 -0.2323  0.0169
22817SOL    HW170651   9.376   2.028   8.815  0.0344 -0.7204  0.1124
22817SOL    HW270652   9.373   1.880   8.783  0.2327 -0.2748 -2.1247
22818SOL     OW70653   7.340   6.510   9.260 -0.2517 -0.2484 -0.4036
22818SOL    HW170654   7.362   6.508   9.353 -0.0880  3.2463 -0.2482
22818SOL    HW270655   7.264   6.451   9.252  0.6684 -1.8306  1.5811
22819SOL     OW70656   8.541   1.855   3.721 -0.4996  0.3200 -0.0804
22819SOL    HW170657   8.497   1.874   3.638 -1.1753 -1.8372 -0.2779
22819SOL    HW270658   8.523   1.932   3.775 -0.9566  1.3094 -1.5482
22820SOL     OW70659   0.988   8.564   2.412 -0.0577 -0.0955  0.3066
22820SOL    HW170660   0.921   8.631   2.426  1.8320  1.6000  1.8494
22820SOL    HW270661   0.990   8.551   2.317 -0.7161  1.7937 -0.0066
22821SOL     OW70662   0.716   5.955   1.070 -0.0854  0.1472 -0.3116
22821SOL    HW170663   0.775   6.026   1.095  0.3425 -0.5741  0.7962
22821SOL    HW270664   0.724   5.891   1.141 -0.3574 -1.0652 -1.3348
22822SOL     OW70665   8.583   8.084   5.804 -0.4588 -0.3863 -0.0146
22822SOL    HW170666   8.592   8.114   5.714  1.3013  0.3045  0.3666
22822SOL    HW270667   8.671   8.059   5.831 -0.8932 -0.3172  1.6172
22823SOL     OW70668   7.677   6.379   6.945  0.4446 -0.3921 -0.2563
22823SOL    HW170669   7.722   6.327   6.879  0.3720 -1.0040  0.1603
22823SOL    HW270670   7.748   6.417   6.998  0.6830  2.7371 -2.5265
22824SOL     OW70671   5.822   2.147   6.733 -0.1468  0.6368 -0.4732
22824SOL    HW170672   5.739   2.141   6.687  0.6720 -0.2907 -1.9240
22824SOL    HW270673   5.880   2.194   6.672  0.5086  0.8961  0.3331
22825SOL     OW70674   7.070   4.118   8.953  0.9901 -0.2068 -0.0298
22825SOL    HW170675   7.035   4.190   9.005  0.1062  0.0435 -0.9291
22825SOL    HW270676   6.993   4.080   8.910  1.7363  0.0972 -1.7452
22826SOL     OW70677   4.449   5.326   5.973  0.0870 -0.2357 -0.0577
22826SOL    HW170678   4.515   5.257   5.975  0.4485  0.0519 -1.2579
22826SOL    HW270679   4.432   5.340   5.880 -2.9091 -1.4645  0.2003
22827SOL     OW70680   1.970   2.717   1.763  0.0185 -0.0382 -0.2545
22827SOL    HW170681   1.991   2.625   1.783  1.8621  0.5919  1.0548
22827SOL    HW270682   2.020   2.736   1.683 -0.0048 -0.0569 -0.2734
22828SOL     OW70683   3.675   4.158   6.605 -0.4199  0.5534 -0.0282
22828SOL    HW170684   3.706   4.237   6.560  1.5973  0.5764  1.2859
22828SOL    HW270685   3.733   4.088   6.575 -0.0211  0.2676  1.3114
22829SOL     OW70686   1.315   1.213   6.068  0.1537 -0.1371  0.1764
22829SOL    HW170687   1.326   1.269   6.144  2.3449 -0.1289 -0.0847
22829SOL    HW270688   1.320   1.272   5.993  1.3016 -0.5048 -0.0572
22830SOL     OW70689   2.562   0.201   4.403 -0.4159  0.0736 -0.0622
22830SOL    HW170690   2.501   0.186   4.476  0.9425  0.1295  1.1180
22830SOL    HW270691   2.560   0.118   4.354 -0.0027 -0.6270  1.0708
22831SOL     OW70692   4.463   9.242   9.248 -0.7627 -0.3766 -0.6657
22831SOL    HW170693   4.480   9.331   9.217 -0.7197  0.4439  1.4992
22831SOL    HW270694   4.373   9.224   9.223 -1.1001  0.6889 -0.2542
22832SOL     OW70695   1.056   8.272   0.068  0.0418 -0.4400  0.2138
22832SOL    HW170696   1.124   8.253   0.132 -0.8695  0.0586  1.3812
22832SOL    HW270697   1.082   8.224  -0.011  1.3393 -0.8441  0.8649
22833SOL     OW70698   7.223   1.662   5.738  0.2204 -0.2595  0.1609
22833SOL    HW170699   7.288   1.676   5.669 -0.4270  2.3019 -0.0472
22833SOL    HW270700   7.139   1.683   5.697 -0.1109  2.0950  1.8112
22834SOL     OW70701   4.068   0.968   2.477 -0.0086 -0.1484  0.1777
22834SOL    HW170702   3.988   1.020   2.470  1.5934  2.3388 -1.1710
22834SOL    HW270703   4.039   0.877   2.463 -2.3312  0.8276 -2.1988
22835SOL     OW70704   9.108   5.313   3.904 -0.3330  0.2404 -0.1497
22835SOL    HW170705   9.184   5.321   3.961 -1.5364  1.2801  1.4263
22835SOL    HW270706   9.089   5.219   3.901 -1.6774  0.2363  3.3339
22836SOL     OW70707   9.122   3.954   4.463 -0.0305 -0.5186 -0.3247
22836SOL    HW170708   9.179   4.007   4.519 -0.5883  0.1046 -0.3314
22836SOL    HW270709   9.179   3.922   4.393  0.1466  0.7388 -0.7669
22837SOL     OW70710   8.333   8.446   0.369  0.2640 -0.0824 -0.3129
22837SOL    HW170711   8.320   8.491   0.286  1.4930 -0.6534 -0.8548
22837SOL    HW270712   8.392   8.503   0.419 -0.1281  0.0583 -0.0072
22838SOL     OW70713   0.763   1.445   2.711  0.2854  0.1008  0.0469
22838SOL    HW170714   0.822   1.380   2.748  0.1370  0.6134  1.2040
22838SOL    HW270715   0.722   1.487   2.786  0.4925  1.6531 -0.6645
22839SOL     OW70716   8.796   5.518   6.565  0.0106  0.6481  0.1093
22839SOL    HW170717   8.758   5.603   6.589  0.7036  0.7884  0.7517
22839SOL    HW270718   8.795   5.468   6.646 -0.2047  0.1084 -0.2246
22840SOL     OW70719   4.141   5.910   7.750  0.3197  0.9028 -0.4814
22840SOL    HW170720   4.086   5.876   7.820 -1.3743  0.3739 -1.9981
22840SOL    HW270721   4.176   5.992   7.785 -1.4247  1.2475  0.5697
22841SOL     OW70722   4.710   7.504   2.310 -0.6468 -0.1757 -0.1918
22841SOL    HW170723   4.787   7.555   2.333 -1.2013  0.1203  1.0682
22841SOL    HW270724   4.744   7.432   2.256  0.7683 -1.0505  1.7684
22842SOL     OW70725   8.498   4.894   7.731  0.9607 -0.4437 -0.0649
22842SOL    HW170726   8.536   4.959   7.673 -0.7914  1.2129  0.5387
22842SOL    HW270727   8.493   4.938   7.816 -2.1219 -0.5090 -0.0797
22843SOL     OW70728   1.696   1.940   3.254 -0.3275 -0.1366  0.2414
22843SOL    HW170729   1.706   1.920   3.161 -1.5233 -0.8654  0.2426
22843SOL    HW270730   1.654   1.862   3.290 -0.1121  0.2475  1.3408
22844SOL     OW70731   5.164   6.187   5.634 -0.4680  0.3792  0.1221
22844SOL    HW170732   5.112   6.131   5.691 -1.9967  0.6622 -0.9230
22844SOL    HW270733   5.198   6.255   5.692 -0.0670 -0.6021  1.0780
22845SOL     OW70734   4.693   5.926   1.320 -0.2389  0.1858  0.5037
22845SOL    HW170735   4.739   5.880   1.390  0.7092  0.8752  0.3523
22845SOL    HW270736   4.718   6.018   1.332 -0.3226  0.3492 -0.5508
22846SOL     OW70737   8.121   5.302   6.956 -0.0316 -0.4852  0.3768
22846SOL    HW170738   8.154   5.219   6.920  1.0868 -0.7217  1.8941
22846SOL    HW270739   8.150   5.368   6.893  0.1890 -1.1036 -0.1824
22847SOL     OW70740   1.979   0.288   2.011 -0.0664  0.5846 -0.3162
22847SOL    HW170741   2.062   0.337   2.007  0.1346  0.2936  0.2277
22847SOL    HW270742   1.996   0.217   2.073 -1.1291  1.3121  0.8544
22848SOL     OW70743   5.813   8.408   4.362 -0.3938 -0.0619 -0.1087
22848SOL    HW170744   5.863   8.402   4.444 -0.8863  0.5433  0.2349
22848SOL    HW270745   5.830   8.324   4.319  0.6366 -0.0103  0.1670
22849SOL     OW70746   5.679   1.466   5.736 -0.0035 -0.3662  0.9003
22849SOL    HW170747   5.597   1.515   5.724  0.9266  1.5365  1.9205
22849SOL    HW270748   5.652   1.385   5.778 -1.2938  0.6295  2.0961
22850SOL     OW70749   6.188   7.634   2.899  0.3323 -0.8266  0.1479
22850SOL    HW170750   6.191   7.720   2.943 -0.4725 -1.3638  1.3037
22850SOL    HW270751   6.272   7.593   2.921  0.0407 -0.9880  0.9894
22851SOL     OW70752   7.753   8.498   5.540 -0.5200 -0.0013 -0.3055
22851SOL    HW170753   7.791   8.552   5.610 -0.0866  1.3968 -1.5621
22851SOL    HW270754   7.782   8.540   5.460 -0.5445 -1.8847 -1.3584
22852SOL     OW70755   2.117   5.259   3.515  0.0012 -0.0089 -0.1998
22852SOL    HW170756   2.049   5.198   3.545 -2.2919  1.2933 -2.3016
22852SOL    HW270757   2.199   5.221   3.545 -1.6209 -1.7405  2.4182
22853SOL     OW70758   5.455   0.706   4.126  0.4263 -0.0477 -0.1418
22853SOL    HW170759   5.436   0.735   4.215  0.7713  0.2342 -0.1560
22853SOL    HW270760   5.384   0.646   4.105 -1.4548  2.2551 -0.8364
22854SOL     OW70761   7.002   1.499   3.238  0.0381 -0.2412  0.2095
22854SOL    HW170762   6.985   1.417   3.192 -1.0868  0.8972 -1.5587
22854SOL    HW270763   7.085   1.530   3.202 -1.1471  0.9636 -1.7074
22855SOL     OW70764   9.192   1.710   5.274  0.3232  0.3543  0.0353
22855SOL    HW170765   9.284   1.727   5.292  0.3991 -0.4535  0.4687
22855SOL    HW270766   9.191   1.672   5.186  0.6321 -1.3558  0.7239
22856SOL     OW70767   3.902   5.089   3.984  0.3511 -0.4063  0.4373
22856SOL    HW170768   3.843   5.087   3.909  0.7602 -0.5546  0.1164
22856SOL    HW270769   3.929   5.180   3.991  1.4221 -0.6348 -0.4783
22857SOL     OW70770   7.973   5.580   1.320  0.3318  0.2402 -0.0225
22857SOL    HW170771   7.881   5.595   1.298  0.8221  0.6173 -2.0623
22857SOL    HW270772   7.989   5.489   1.296  0.6786  0.4215 -0.5126
22858SOL     OW70773   9.310   8.075   5.956  0.1680 -0.3031 -0.0427
22858SOL    HW170774   9.254   8.141   5.914 -1.2594 -1.6964 -0.4116
22858SOL    HW270775   9.287   8.080   6.049  0.2121 -0.1482 -0.0393
22859SOL     OW70776   1.715   1.414   0.038  0.1240  0.6900  0.4755
22859SOL    HW170777   1.714   1.458  -0.047 -0.5385 -0.8655 -0.3740
22859SOL    HW270778   1.779   1.463   0.090  0.7966  1.4769 -1.0234
22860SOL     OW70779   8.757   6.237   2.100  0.2039  0.0262 -0.2038
22860SOL    HW170780   8.769   6.167   2.036 -0.9279 -0.8503  0.4821
22860SOL    HW270781   8.729   6.191   2.180  0.2623  1.1972  0.5153
22861SOL     OW70782   0.481   1.841   9.440 -0.7997  0.5058  0.4480
22861SOL    HW170783   0.513   1.928   9.416  0.6241 -0.1478 -0.1836
22861SOL    HW270784   0.461   1.848   9.533  1.3751  0.9784  0.9500
22862SOL     OW70785   0.646   5.856   8.725  0.0672  0.2785 -0.0118
22862SOL    HW170786   0.705   5.921   8.763  0.7385  0.9707 -2.1120
22862SOL    HW270787   0.579   5.908   8.681 -0.6474 -0.4889  0.1478
22863SOL     OW70788   5.851   9.472   7.078  0.1023  0.5261 -0.2107
22863SOL    HW170789   5.866   9.436   6.990 -0.2979  0.2837 -0.1804
22863SOL    HW270790   5.931   9.520   7.098  0.8839 -0.8062 -0.0329
22864SOL     OW70791   7.331   8.365   1.586  0.0379 -0.2988 -0.3658
22864SOL    HW170792   7.343   8.459   1.574  1.1902 -0.0761  1.8533
22864SOL    HW270793   7.392   8.325   1.525 -0.4213  0.3806 -1.2883
22865SOL     OW70794   3.544   3.294   8.116 -0.6142 -0.0575 -0.2970
22865SOL    HW170795   3.549   3.200   8.135 -0.1613  0.1006  0.4046
22865SOL    HW270796   3.530   3.334   8.201  0.0664  0.5802 -0.4833
22866SOL     OW70797   7.591   4.741   4.489  0.1422 -0.2482  0.0235
22866SOL    HW170798   7.547   4.770   4.409  1.5539  0.0255 -0.6898
22866SOL    HW270799   7.668   4.693   4.458  0.3281 -0.7535  1.2237
22867SOL     OW70800   6.010   9.466   1.431 -0.0624  0.0769 -0.5724
22867SOL    HW170801   5.994   9.428   1.517  0.9219  0.8821 -0.0089
22867SOL    HW270802   5.946   9.424   1.374  0.3734 -1.7176  0.1951
22868SOL     OW70803   1.604   1.480   8.434  0.2840 -0.1979  0.3882
22868SOL    HW170804   1.551   1.552   8.469 -0.6196  0.0277 -1.3507
22868SOL    HW270805   1.541   1.413   8.408  0.9008 -0.3353 -0.8299
22869SOL     OW70806   7.064   0.884   5.299  0.1370  0.5391 -0.6416
22869SOL    HW170807   7.136   0.944   5.280  0.3761  0.2605 -0.6307
22869SOL    HW270808   7.103   0.797   5.289  0.1416  0.3792  0.6253
22870SOL     OW70809   2.149   7.634   1.076 -0.1182 -0.3780  0.1495
22870SOL    HW170810   2.124   7.697   1.144 -0.2335 -0.2274 -0.0305
22870SOL    HW270811   2.066   7.603   1.040 -0.0885 -1.5811  1.0891
22871SOL     OW70812   4.025   3.493   6.542  0.3598 -0.1761  0.5180
22871SOL    HW170813   4.117   3.511   6.562  0.6907 -0.5850 -0.5368
22871SOL    HW270814   4.028   3.416   6.485 -0.7568 -1.1817  1.7588
22872SOL     OW70815   2.566   2.377   6.665  0.3303 -0.3825 -0.2590
22872SOL    HW170816   2.550   2.329   6.747  3.4254 -0.6844  0.2823
22872SOL    HW270817   2.500   2.447   6.665 -0.1846 -0.7728  2.1501
22873SOL     OW70818   1.163   0.143   0.814  0.4122 -0.0563 -0.2160
22873SOL    HW170819   1.170   0.063   0.866 -1.4452 -1.5016 -2.0363
22873SOL    HW270820   1.170   0.214   0.878 -1.1895 -1.7243  1.9523
22874SOL     OW70821   0.510   7.926   7.752 -0.0585  0.0387 -0.6053
22874SOL    HW170822   0.569   7.855   7.726  0.6290  0.0238  0.8499
22874SOL    HW270823   0.512   7.924   7.848  0.0532  2.0596 -0.5175
22875SOL     OW70824   5.179   3.061   7.526 -0.3473 -0.1316  0.0839
22875SOL    HW170825   5.241   3.120   7.568 -0.0875  0.3318 -0.8995
22875SOL    HW270826   5.220   2.975   7.530 -0.8422 -0.3092  1.7511
22876SOL     OW70827   9.232   0.437   4.645  0.3301 -0.0708  0.1993
22876SOL    HW170828   9.261   0.379   4.716  1.4402  1.4588  1.0542
22876SOL    HW270829   9.168   0.385   4.596  1.1982 -1.9670  0.9815
22877SOL     OW70830   0.967   6.540   4.162  0.1428  0.0289 -0.9761
22877SOL    HW170831   0.976   6.463   4.218 -0.8128  1.6131  1.4921
22877SOL    HW270832   0.878   6.532   4.126  0.8688 -1.1510 -2.6123
22878SOL     OW70833   0.679   3.032   3.530 -0.3426 -0.0199  0.2356
22878SOL    HW170834   0.689   2.948   3.576 -2.0250 -0.3043  0.1392
22878SOL    HW270835   0.606   3.075   3.574 -0.7156  0.5665 -0.9031
22879SOL     OW70836   4.199   2.211   7.438 -0.4191 -0.6703 -0.4381
22879SOL    HW170837   4.236   2.214   7.350 -0.0857 -1.4663 -0.3289
22879SOL    HW270838   4.259   2.155   7.488 -0.9794 -0.7900  0.1122
22880SOL     OW70839   5.843   4.477   7.606  0.1678 -0.0699  0.0918
22880SOL    HW170840   5.755   4.510   7.588 -0.0139 -0.4941  0.1977
22880SOL    HW270841   5.895   4.556   7.621 -0.4066  0.1582  0.9888
22881SOL     OW70842   4.844   7.244   6.645 -0.6363  0.3084  0.5036
22881SOL    HW170843   4.877   7.250   6.735  1.2973  1.9892 -0.2453
22881SOL    HW270844   4.832   7.334   6.617 -2.5469 -0.2054 -0.5231
22882SOL     OW70845   7.290   9.110   4.364 -0.4775 -0.4247 -0.2388
22882SOL    HW170846   7.277   9.040   4.300 -0.6022 -1.3754  0.8061
22882SOL    HW270847   7.207   9.157   4.365  0.4569  1.6062 -3.0290
22883SOL     OW70848   7.312   8.021   8.785  0.3527  0.3836 -0.3226
22883SOL    HW170849   7.226   8.001   8.822  1.0757 -0.9540  0.7642
22883SOL    HW270850   7.295   8.084   8.716 -1.2427  2.0295  1.4496
22884SOL     OW70851   3.315   3.167   6.501 -0.0444  0.2972  0.0245
22884SOL    HW170852   3.396   3.182   6.549 -0.0101  2.1219 -0.5097
22884SOL    HW270853   3.343   3.137   6.414 -0.0380 -1.1345  0.5076
22885SOL     OW70854   7.374   8.182   2.160  0.0888 -0.2231  0.5969
22885SOL    HW170855   7.321   8.212   2.234 -0.2573 -1.3566  0.8249
22885SOL    HW270856   7.342   8.094   2.141 -0.2321  0.2545 -1.3002
22886SOL     OW70857   3.475   3.156   2.328  0.0804 -0.1541  0.0482
22886SOL    HW170858   3.429   3.229   2.371 -0.2605 -0.8022  0.8034
22886SOL    HW270859   3.502   3.100   2.400 -0.3922 -1.2070 -0.5820
22887SOL     OW70860   3.742   6.281   0.728 -0.5633 -0.4762 -0.8554
22887SOL    HW170861   3.836   6.269   0.740 -0.8136 -0.3905  1.6462
22887SOL    HW270862   3.734   6.369   0.689  0.3136  0.9081  1.8651
22888SOL     OW70863   9.296   0.678   7.469  0.3442  0.5460 -0.1769
22888SOL    HW170864   9.288   0.633   7.385 -0.1127  0.4809 -0.0999
22888SOL    HW270865   9.387   0.663   7.496  0.2922 -0.0331 -0.3165
22889SOL     OW70866   8.709   2.606   9.253  0.6857 -0.4996 -0.0492
22889SOL    HW170867   8.793   2.652   9.261  0.1461  0.5113  0.0042
22889SOL    HW270868   8.683   2.621   9.162  0.4164 -0.5474  0.0207
22890SOL     OW70869   3.403   9.058   0.061 -0.5929  0.4656 -0.0785
22890SOL    HW170870   3.394   8.985   0.000 -0.5566  0.2312  0.1961
22890SOL    HW270871   3.317   9.066   0.103 -0.1417 -0.4859  1.0842
22891SOL     OW70872   3.328   0.071   1.615 -0.3995 -0.4070 -0.4280
22891SOL    HW170873   3.284   0.152   1.640 -1.4454 -0.7932 -1.0112
22891SOL    HW270874   3.404   0.100   1.565 -0.5550  0.2228 -0.3093
22892SOL     OW70875   2.763   4.699   2.046  0.2554  0.1212  0.2379
22892SOL    HW170876   2.700   4.648   2.098  0.3541 -0.1812  0.0620
22892SOL    HW270877   2.795   4.638   1.980  0.5469  0.3480  0.1665
22893SOL     OW70878   1.819   3.387   5.281 -0.3916 -0.0605  0.3191
22893SOL    HW170879   1.849   3.298   5.263 -0.7386  0.2138 -2.0355
22893SOL    HW270880   1.724   3.380   5.288 -0.3057 -0.0722  1.7630
22894SOL     OW70881   2.226   7.217   4.994  0.2707  0.3046 -0.6297
22894SOL    HW170882   2.203   7.309   5.004  1.2185  0.3697  1.7193
22894SOL    HW270883   2.150   7.177   4.951 -1.2641  1.7345  0.6186
22895SOL     OW70884   6.861   8.372   9.036  0.2388  0.0562 -0.1473
22895SOL    HW170885   6.798   8.444   9.045  0.2011  0.0158 -0.0950
22895SOL    HW270886   6.815   8.306   8.985  0.4649  0.2989 -0.6764
22896SOL     OW70887   5.534   2.018   6.331  0.0383  0.0237 -0.0295
22896SOL    HW170888   5.454   1.967   6.323 -0.4985  0.8647 -0.0796
22896SOL    HW270889   5.514   2.101   6.288  0.8925  0.2930  0.0768
22897SOL     OW70890   0.644   7.455   5.457 -0.5388 -0.0919 -0.5361
22897SOL    HW170891   0.566   7.408   5.486 -1.6086  0.3681 -2.4639
22897SOL    HW270892   0.685   7.486   5.538 -2.2324 -0.5243  0.5402
22898SOL     OW70893   2.517   1.629   6.947 -0.0966  0.1984  0.2962
22898SOL    HW170894   2.607   1.595   6.947 -0.7582 -1.8155  2.2289
22898SOL    HW270895   2.526   1.721   6.922  2.5851  0.2752  1.1929
22899SOL     OW70896   7.956   4.987   3.167  0.0084 -0.1463  0.1910
22899SOL    HW170897   7.967   5.081   3.151  1.5707 -0.1831  0.7818
22899SOL    HW270898   7.988   4.975   3.257  1.9282 -1.5410 -0.6111
22900SOL     OW70899   5.716   7.611   6.548 -0.0892  0.2657 -0.0532
22900SOL    HW170900   5.785   7.565   6.500 -0.1455  1.4215 -1.3409
22900SOL    HW270901   5.745   7.611   6.639  1.0610 -0.2250 -0.4031
22901SOL     OW70902   8.026   2.059   2.094  0.4608 -0.3832 -0.0424
22901SOL    HW170903   7.953   1.998   2.091 -0.0713  0.1762  0.9725
22901SOL    HW270904   7.986   2.144   2.116  1.5122 -0.2974  1.7567
22902SOL     OW70905   4.764   0.734   7.142 -0.0535  0.3285 -0.4530
22902SOL    HW170906   4.792   0.765   7.056 -0.9397 -0.5630 -1.0890
22902SOL    HW270907   4.790   0.803   7.203  0.7822  0.8721 -1.4067
22903SOL     OW70908   4.523   7.816   7.841 -0.2088  0.8723 -0.2254
22903SOL    HW170909   4.497   7.724   7.832  0.3027  0.6867  0.1956
22903SOL    HW270910   4.615   7.813   7.866 -0.6442  1.4418  1.6126
22904SOL     OW70911   6.591   2.258   6.313  0.7412 -0.1682  0.0922
22904SOL    HW170912   6.496   2.263   6.304  0.9319  0.0514 -2.5261
22904SOL    HW270913   6.614   2.172   6.280  1.6310  0.6952 -1.6465
22905SOL     OW70914   7.805   5.519   0.981 -0.4394  0.6174 -0.1938
22905SOL    HW170915   7.862   5.584   0.940 -0.3119  0.6761  0.0823
22905SOL    HW270916   7.797   5.547   1.072 -1.3659  0.9415 -0.3533
22906SOL     OW70917   7.872   1.367   9.073  0.2254  0.1261  0.3031
22906SOL    HW170918   7.793   1.317   9.051 -0.5582  1.5627 -0.2516
22906SOL    HW270919   7.930   1.302   9.113 -1.3911 -0.8819  1.1442
22907SOL     OW70920   0.119   6.813   8.850  0.1305 -0.3003 -0.5008
22907SOL    HW170921   0.100   6.779   8.938  1.4602 -0.2837 -0.1783
22907SOL    HW270922   0.058   6.885   8.838  1.7259  1.5354  1.5792
22908SOL     OW70923   9.539   3.869   1.765  0.3068 -0.3771  0.2577
22908SOL    HW170924   9.586   3.951   1.748  2.6243 -1.8524 -0.9649
22908SOL    HW270925   9.552   3.854   1.859  0.8902  0.0583  0.2529
22909SOL     OW70926   7.828   8.748   8.849 -0.8137 -0.5643 -0.2931
22909SOL    HW170927   7.829   8.814   8.779  1.4140 -2.2535 -2.0346
22909SOL    HW270928   7.788   8.671   8.808  1.9777 -2.1090 -0.3959
22910SOL     OW70929   1.017   5.168   5.888 -0.2022 -0.7718  0.0426
22910SOL    HW170930   1.039   5.201   5.975 -0.3270  2.4300 -0.9837
22910SOL    HW270931   0.941   5.221   5.861  1.4212  0.2511 -2.9650
22911SOL     OW70932   6.700   7.588   6.819  0.9417 -0.0213 -0.7483
22911SOL    HW170933   6.735   7.645   6.751  0.1202  2.3164  0.6506
22911SOL    HW270934   6.606   7.609   6.822  0.7385 -0.9641  0.2642
22912SOL     OW70935   3.530   0.463   3.629  0.2131 -0.0288 -0.0752
22912SOL    HW170936   3.462   0.505   3.577 -1.4259 -2.2943  0.0943
22912SOL    HW270937   3.482   0.408   3.691  2.1685  0.3823  1.9133
22913SOL     OW70938   0.093   3.921   2.009 -0.1700 -0.3029 -0.1486
22913SOL    HW170939   0.128   4.009   1.993 -1.2770 -0.1499 -2.0153
22913SOL    HW270940   0.049   3.928   2.094  0.7271  0.6199  0.2576
22914SOL     OW70941   1.143   1.248   8.839 -0.2982 -0.1715  0.2281
22914SOL    HW170942   1.074   1.315   8.836  0.0474  0.2662  1.4651
22914SOL    HW270943   1.213   1.285   8.785 -1.1688 -0.8246 -1.4215
22915SOL     OW70944   3.599   2.452   7.864  0.5545  0.7531  0.6612
22915SOL    HW170945   3.657   2.430   7.791  1.9756  1.3068  1.5734
22915SOL    HW270946   3.539   2.517   7.828 -0.5147 -0.9259 -0.7112
22916SOL     OW70947   5.263   4.126   2.045 -0.1992 -0.1665  0.5513
22916SOL    HW170948   5.186   4.069   2.038  0.3688 -1.1154  1.6596
22916SOL    HW270949   5.227   4.212   2.065 -0.9830 -0.5660  0.9109
22917SOL     OW70950   3.785   6.305   7.984  0.0180 -0.1955 -0.9123
22917SOL    HW170951   3.830   6.387   7.965  0.1123 -0.0266  0.0231
22917SOL    HW270952   3.773   6.265   7.898  0.6101  0.4560 -1.3140
22918SOL     OW70953   3.654   7.281   2.498 -0.4990  0.0071  0.6578
22918SOL    HW170954   3.574   7.295   2.550  0.0564  0.0585  1.5162
22918SOL    HW270955   3.622   7.245   2.415 -1.4318  0.2122  0.9097
22919SOL     OW70956   3.684   1.479   5.000 -0.4084  0.7600  0.1046
22919SOL    HW170957   3.740   1.420   5.050  0.0298 -0.1789 -1.4188
22919SOL    HW270958   3.708   1.464   4.909 -1.9766  1.5665 -0.4900
22920SOL     OW70959   5.129   0.392   2.268  0.3093  0.9385 -0.4138
22920SOL    HW170960   5.112   0.366   2.177  1.3368  0.0846 -0.3853
22920SOL    HW270961   5.053   0.360   2.316  0.3037  0.3470 -0.8012
22921SOL     OW70962   3.559   0.705   7.900 -0.3568 -0.3973  0.1513
22921SOL    HW170963   3.526   0.703   7.990  0.3549 -0.8514  0.4160
22921SOL    HW270964   3.582   0.796   7.885 -0.7725 -0.2639  0.3224
22922SOL     OW70965   2.840   3.210   8.259  0.2416 -0.5019 -0.5493
22922SOL    HW170966   2.786   3.137   8.226 -0.7022 -0.2616  0.3958
22922SOL    HW270967   2.883   3.174   8.337  2.3660 -1.0337 -1.8773
22923SOL     OW70968   4.593   7.766   5.212  0.6294 -0.5792 -0.4018
22923SOL    HW170969   4.547   7.746   5.294 -1.1586  1.6363 -0.7635
22923SOL    HW270970   4.660   7.698   5.205  0.4430 -1.2156  2.5658
22924SOL     OW70971   6.702   3.069   3.487  0.9639 -0.3248  0.0336
22924SOL    HW170972   6.709   3.038   3.577  0.7131 -0.8518 -0.1219
22924SOL    HW270973   6.779   3.033   3.443  0.8724 -0.4070 -0.0590
22925SOL     OW70974   9.557   2.761   5.798  0.4146 -0.6338  0.1674
22925SOL    HW170975   9.508   2.681   5.778 -0.5386  0.4483 -2.2739
22925SOL    HW270976   9.535   2.821   5.727  1.4992  1.6506  1.6266
22926SOL     OW70977   7.324   6.208   0.354 -0.3210  0.3658 -0.0079
22926SOL    HW170978   7.359   6.182   0.439 -1.6748  1.2230  0.8501
22926SOL    HW270979   7.389   6.270   0.319  0.6596 -0.6433 -0.0071
22927SOL     OW70980   1.597   4.660   6.354 -0.0361  0.4448  0.0617
22927SOL    HW170981   1.572   4.725   6.288 -2.7170 -0.3242  0.1868
22927SOL    HW270982   1.592   4.576   6.308 -1.1886 -0.0344  1.0196
22928SOL     OW70983   9.203   3.595   1.175  0.0498 -0.1300 -0.5645
22928SOL    HW170984   9.220   3.559   1.262  0.7519  2.8869  0.6683
22928SOL    HW270985   9.172   3.520   1.124 -3.3391 -1.5479  3.0460
22929SOL     OW70986   8.272   0.938   1.843 -0.0191 -0.2849  0.0452
22929SOL    HW170987   8.270   0.891   1.760  0.8735 -0.4933  0.1302
22929SOL    HW270988   8.204   0.897   1.896 -0.0275 -0.7074 -0.2931
22930SOL     OW70989   3.132   5.515   3.725  0.2623  0.0722  0.1120
22930SOL    HW170990   3.114   5.421   3.722 -0.2288  0.0420  2.1283
22930SOL    HW270991   3.071   5.554   3.663 -1.3950 -0.7426  1.1654
22931SOL     OW70992   6.055   0.885   1.066 -0.1256 -0.2569  0.0788
22931SOL    HW170993   6.081   0.906   1.156  0.0134  1.2226 -0.2706
22931SOL    HW270994   6.118   0.932   1.012 -1.5331  0.7397 -0.7813
22932SOL     OW70995   2.060   5.867   6.245  0.4280  0.1018 -0.2492
22932SOL    HW170996   2.103   5.907   6.321 -0.7576  0.6653  0.1442
22932SOL    HW270997   2.116   5.792   6.223  1.6732  0.8677  0.1609
22933SOL     OW70998   8.103   9.396   1.172 -0.5522 -0.6673  0.0083
22933SOL    HW170999   8.182   9.395   1.227  0.2287 -1.8866 -1.0862
22933SOL    HW271000   8.052   9.470   1.206  1.3266  0.5498  0.3698
22934SOL     OW71001   2.474   8.759   2.723 -0.9035  0.1766  0.1410
22934SOL    HW171002   2.561   8.739   2.756 -0.4940  0.0094 -0.9861
22934SOL    HW271003   2.460   8.851   2.742 -0.3966  0.2500  0.1538
22935SOL     OW71004   5.672   7.867   4.583  0.4653 -0.3097  0.1443
22935SOL    HW171005   5.756   7.887   4.541  0.4822 -0.5052  0.0837
22935SOL    HW271006   5.639   7.791   4.534 -1.1963  1.5573 -1.8622
22936SOL     OW71007   5.709   4.557   2.802  0.5072 -0.6970 -0.5211
22936SOL    HW171008   5.711   4.642   2.757 -2.7456 -0.3989 -0.3899
22936SOL    HW271009   5.771   4.567   2.874  0.2753  1.6078 -0.5446
22937SOL     OW71010   7.258   4.758   3.075 -0.4547  0.2868  0.2757
22937SOL    HW171011   7.219   4.834   3.033 -2.0491 -0.3522  0.5472
22937SOL    HW271012   7.238   4.769   3.168 -0.0516 -0.1025  0.4129
22938SOL     OW71013   7.744   1.109   6.838 -0.0553  0.1325 -0.0576
22938SOL    HW171014   7.820   1.122   6.895 -0.2983 -1.5670  0.7182
22938SOL    HW271015   7.767   1.031   6.786 -1.0436 -0.0723 -0.1978
22939SOL     OW71016   7.349   1.215   9.388 -0.4433 -0.2621 -0.3445
22939SOL    HW171017   7.443   1.195   9.392  0.0772  1.8197 -0.7228
22939SOL    HW271018   7.318   1.171   9.309  0.1009 -1.3151  0.0085
22940SOL     OW71019   7.125   4.708   2.767  0.3933 -0.3054 -0.0009
22940SOL    HW171020   7.193   4.716   2.700 -1.0305  1.0323 -1.3841
22940SOL    HW271021   7.161   4.752   2.843  1.9097 -1.5261  0.0215
22941SOL     OW71022   2.670   1.249   0.938  0.2591  0.0236  0.2323
22941SOL    HW171023   2.720   1.279   0.862 -1.1154  0.9559 -0.3534
22941SOL    HW271024   2.660   1.327   0.993 -0.4262 -0.1626  0.3881
22942SOL     OW71025   2.335   0.507   8.981  0.3574  0.1309  0.1072
22942SOL    HW171026   2.397   0.520   8.909  1.7371  0.1091  1.2468
22942SOL    HW271027   2.262   0.460   8.942  0.8950  0.4793 -1.3649
22943SOL     OW71028   5.641   1.962   8.656 -0.5995 -0.3884 -0.1711
22943SOL    HW171029   5.551   1.990   8.673 -1.1488 -1.5377 -1.0472
22943SOL    HW271030   5.694   2.014   8.717 -1.6296  1.8397 -1.0702
22944SOL     OW71031   8.334   9.265   9.318 -0.3232 -0.1330 -0.2013
22944SOL    HW171032   8.366   9.341   9.269 -1.1460 -0.3616 -1.1156
22944SOL    HW271033   8.259   9.233   9.267 -0.1329 -1.4205  0.2974
22945SOL     OW71034   6.022   1.069   2.722  0.4599 -0.1801 -0.3384
22945SOL    HW171035   5.960   1.139   2.697  0.6513  0.1542  0.1075
22945SOL    HW271036   6.017   1.065   2.817 -0.5513 -1.7172 -0.4275
22946SOL     OW71037   4.549   3.170   9.103 -0.1272  0.3452 -0.4790
22946SOL    HW171038   4.503   3.213   9.031 -2.7126  0.5109  1.1308
22946SOL    HW271039   4.611   3.235   9.135 -1.0445  1.3505 -0.7003
22947SOL     OW71040   9.262   5.769   8.063  0.1557 -0.4130 -0.1347
22947SOL    HW171041   9.214   5.809   7.992 -1.5297 -0.5131  0.9009
22947SOL    HW271042   9.235   5.677   8.062 -1.6581  0.0250  1.9687
22948SOL     OW71043   4.646   5.316   9.145 -0.0562 -0.4143  0.2135
22948SOL    HW171044   4.616   5.380   9.080  1.1665 -0.3985 -0.3650
22948SOL    HW271045   4.565   5.279   9.181 -0.7859  1.1106  0.2364
22949SOL     OW71046   2.447   3.127   1.739 -0.6919 -0.5466 -0.2937
22949SOL    HW171047   2.447   3.046   1.790  0.4762 -1.0817 -1.0840
22949SOL    HW271048   2.403   3.103   1.657 -1.3646 -0.0605 -0.0788
22950SOL     OW71049   3.175   4.473   8.512 -0.8611 -0.5911 -0.2806
22950SOL    HW171050   3.232   4.400   8.491  0.1700  0.3523 -0.8989
22950SOL    HW271051   3.224   4.524   8.577  0.0436  1.3909 -2.3843
22951SOL     OW71052   3.531   1.843   6.844  0.1281 -0.4167 -0.2165
22951SOL    HW171053   3.578   1.761   6.861 -0.1821 -0.5317  0.1135
22951SOL    HW271054   3.568   1.905   6.907 -3.0239 -1.5790  3.1894
22952SOL     OW71055   8.201   7.254   6.014  0.6411  0.2215  0.7654
22952SOL    HW171056   8.157   7.327   6.057  1.1244  1.2336 -0.3819
22952SOL    HW271057   8.152   7.240   5.934  0.5801 -0.7044  0.9567
22953SOL     OW71058   4.071   1.696   5.416  0.0958 -0.4874  0.4991
22953SOL    HW171059   4.142   1.748   5.454  0.7901 -0.6314 -0.5504
22953SOL    HW271060   4.037   1.645   5.490  1.9316 -1.3555  0.8012
22954SOL     OW71061   1.852   9.546   5.442  0.0946  0.7008  1.3482
22954SOL    HW171062   1.877   9.453   5.449  0.5364  0.7360  0.4028
22954SOL    HW271063   1.761   9.544   5.415  0.5182  0.4943 -0.1934
22955SOL     OW71064   7.207   4.001   4.311  0.3893 -1.1417 -0.3165
22955SOL    HW171065   7.297   4.029   4.297 -0.0521  0.6333  0.2248
22955SOL    HW271066   7.199   3.990   4.406 -0.3095  0.0677 -0.2096
22956SOL     OW71067   2.046   6.080   8.689  0.4436 -0.1009 -0.2839
22956SOL    HW171068   2.133   6.047   8.713  0.7344  0.3900 -0.6390
22956SOL    HW271069   2.036   6.161   8.739  0.0692 -0.3021 -0.0277
22957SOL     OW71070   4.035   8.949   5.316 -0.5586 -0.2400  0.0544
22957SOL    HW171071   3.956   8.930   5.366 -0.2538 -1.0784  0.2433
22957SOL    HW271072   4.051   8.868   5.267 -0.3710  0.2689 -0.7355
22958SOL     OW71073   8.339   3.835   5.329 -0.1798 -0.0704  0.3681
22958SOL    HW171074   8.394   3.854   5.253  0.1027  0.6899  0.7579
22958SOL    HW271075   8.399   3.793   5.391 -0.4556 -0.8794  0.1053
22959SOL     OW71076   7.956   6.907   5.449  0.0028 -0.2584  0.1542
22959SOL    HW171077   8.001   6.956   5.519 -1.3739  2.6009 -0.7905
22959SOL    HW271078   8.027   6.879   5.391  0.8527  1.4473  0.2994
22960SOL     OW71079   2.505   7.999   2.722  0.2933  0.2407  0.1137
22960SOL    HW171080   2.525   8.090   2.747  1.9277  0.3146 -1.2738
22960SOL    HW271081   2.584   7.950   2.746 -0.4008 -0.7383  0.4333
22961SOL     OW71082   1.672   6.793   6.012 -0.4042  0.1553 -0.4524
22961SOL    HW171083   1.676   6.862   6.078 -1.2989 -0.3230  0.1071
22961SOL    HW271084   1.665   6.712   6.062 -1.7639 -0.1715 -1.1254
22962SOL     OW71085   6.109   3.837   8.219 -0.5339 -0.2921  0.0286
22962SOL    HW171086   6.071   3.783   8.289 -2.2823 -0.1508 -0.7565
22962SOL    HW271087   6.089   3.927   8.245  0.5313 -0.1228  0.2951
22963SOL     OW71088   4.081   8.203   4.799 -0.1034  0.3837 -0.3288
22963SOL    HW171089   4.077   8.154   4.718 -0.9625  0.8525 -0.5827
22963SOL    HW271090   4.068   8.138   4.868  1.0559 -0.0813 -0.5319
22964SOL     OW71091   9.561   5.652   8.542 -0.4139 -0.1642  0.2968
22964SOL    HW171092   9.542   5.707   8.466  0.7998 -1.3941 -0.9553
22964SOL    HW271093   9.508   5.689   8.612 -2.2237  0.5073 -1.3477
22965SOL     OW71094   5.608   2.714   0.316  0.4166 -0.5107  0.0021
22965SOL    HW171095   5.533   2.669   0.355 -0.7894  0.0403 -1.5440
22965SOL    HW271096   5.649   2.648   0.259 -0.8010  0.0065 -1.5507
22966SOL     OW71097   0.064   9.350   0.959 -0.4440  0.2638 -0.2193
22966SOL    HW171098   0.026   9.381   0.877 -0.4799  1.6441  0.2768
22966SOL    HW271099   0.154   9.383   0.958 -0.1956 -0.4016 -0.0620
22967SOL     OW71100   9.412   4.873   5.340 -0.1167  0.4308 -0.2472
22967SOL    HW171101   9.408   4.823   5.421  0.4879  1.2080  0.2843
22967SOL    HW271102   9.486   4.835   5.292 -2.2416 -2.0196 -1.8608
22968SOL     OW71103   8.658   8.825   0.193  0.7260  0.5673 -0.1804
22968SOL    HW171104   8.744   8.794   0.164 -0.0688 -0.6101 -1.3776
22968SOL    HW271105   8.606   8.830   0.114 -1.1952 -1.6591  0.8344
22969SOL     OW71106   3.991   9.182   2.059  0.0169 -0.8044  0.2920
22969SOL    HW171107   3.906   9.146   2.032  0.4512 -2.1731  0.6939
22969SOL    HW271108   3.977   9.210   2.149 -0.6417  1.1813 -0.3651
22970SOL     OW71109   7.223   8.159   7.728  0.1840  0.6366 -0.1626
22970SOL    HW171110   7.241   8.089   7.665  0.5389 -2.8522  3.4432
22970SOL    HW271111   7.308   8.200   7.744  0.5374 -0.0674 -0.2141
22971SOL     OW71112   8.249   9.105   0.527  0.0699  0.9248 -0.2697
22971SOL    HW171113   8.231   9.101   0.620  0.7056  0.2679 -0.1640
22971SOL    HW271114   8.233   9.016   0.496  0.8021  0.9031 -0.6032
22972SOL     OW71115   8.038   9.128   3.708 -0.0073 -0.2746 -0.9189
22972SOL    HW171116   8.085   9.054   3.745  0.0880  0.6537  0.9484
22972SOL    HW271117   7.978   9.156   3.777  1.2570  2.4970 -0.7819
22973SOL     OW71118   7.806   5.632   4.705 -0.2419  0.0729 -0.0454
22973SOL    HW171119   7.796   5.566   4.636 -1.2866 -0.1203  0.2811
22973SOL    HW271120   7.748   5.703   4.679 -0.7163 -0.0420  0.6763
22974SOL     OW71121   7.664   7.464   5.026  0.0492 -0.0010 -0.5827
22974SOL    HW171122   7.606   7.477   5.102 -0.5107 -1.1714 -0.7787
22974SOL    HW271123   7.613   7.408   4.967  0.9290 -0.0596 -1.3008
22975SOL     OW71124   1.415   7.250   5.576  0.2733 -0.4753 -0.3477
22975SOL    HW171125   1.339   7.269   5.631  0.6416 -0.0361  0.0157
22975SOL    HW271126   1.405   7.157   5.553 -2.1373  0.2832 -3.0557
22976SOL     OW71127   5.929   5.273   2.796  0.1607  0.3768  0.5674
22976SOL    HW171128   5.845   5.233   2.773 -0.6069  1.2337  1.7738
22976SOL    HW271129   5.908   5.334   2.866  2.0134 -0.4044  1.8901
22977SOL     OW71130   5.274   4.014   0.143  0.6377  0.1348 -0.0104
22977SOL    HW171131   5.272   3.988   0.051  1.6282 -0.2840  0.0745
22977SOL    HW271132   5.196   3.975   0.181 -1.2096  2.4352 -1.1995
22978SOL     OW71133   3.128   3.456   7.781 -0.2143  0.7185 -0.5573
22978SOL    HW171134   3.149   3.446   7.688  1.4560  0.2924 -0.1530
22978SOL    HW271135   3.212   3.453   7.826 -0.9201  1.7189  0.9204
22979SOL     OW71136   1.244   9.031   7.570  0.2428  0.0816 -0.3222
22979SOL    HW171137   1.152   9.019   7.591 -0.4951  1.8091 -2.2605
22979SOL    HW271138   1.277   8.943   7.554 -0.6972 -0.6769  1.5820
22980SOL     OW71139   6.913   6.447   5.923 -0.6620  0.0711  0.4404
22980SOL    HW171140   6.896   6.371   5.979  0.7100 -0.1548  0.5843
22980SOL    HW271141   7.006   6.442   5.904 -1.0003  0.4165 -1.4794
22981SOL     OW71142   6.968   3.668   8.405 -0.1735 -0.1695  0.3332
22981SOL    HW171143   7.048   3.721   8.398  0.0548 -0.6022 -0.5726
22981SOL    HW271144   6.910   3.719   8.461  0.7128  0.1851  0.9471
22982SOL     OW71145   5.387   8.798   0.693  0.2722 -0.0511  0.0716
22982SOL    HW171146   5.294   8.816   0.680  0.3258 -0.3177 -0.7645
22982SOL    HW271147   5.391   8.707   0.722  0.0669  0.8843  3.3852
22983SOL     OW71148   6.274   4.973   7.779  0.2239  0.4644  0.6579
22983SOL    HW171149   6.222   5.038   7.825  0.5606 -0.2017  2.0261
22983SOL    HW271150   6.364   4.991   7.806  0.2283 -1.1818  1.8969
22984SOL     OW71151   0.154   8.495   1.548 -0.5923  0.2938 -0.2810
22984SOL    HW171152   0.217   8.423   1.546 -0.6698  0.2183 -2.3328
22984SOL    HW271153   0.206   8.572   1.522 -0.5312  1.0168  1.7746
22985SOL     OW71154   2.726   1.012   7.535 -0.1185  0.0006 -0.1443
22985SOL    HW171155   2.640   1.021   7.577  0.0370 -0.3247  0.2518
22985SOL    HW271156   2.733   1.089   7.478  0.0586  0.9887  1.1619
22986SOL     OW71157   0.339   0.088   8.313 -0.4634 -0.0970 -0.6987
22986SOL    HW171158   0.369   0.098   8.223 -0.1770  0.6045 -0.5359
22986SOL    HW271159   0.369   0.168   8.357  0.3846 -0.9300  0.2945
22987SOL     OW71160   1.907   8.390   6.189 -0.0990 -0.1820  0.0299
22987SOL    HW171161   1.939   8.480   6.182 -0.9298  0.3033  1.9245
22987SOL    HW271162   1.894   8.376   6.283  0.4121 -2.4396 -0.1667
22988SOL     OW71163   2.097   6.542   9.008 -0.2748  0.2392  0.3441
22988SOL    HW171164   2.158   6.581   8.944 -0.6229  0.7947  0.3418
22988SOL    HW271165   2.011   6.568   8.977 -0.4268  0.9110  1.2985
22989SOL     OW71166   8.144   8.297   2.873  0.0727  0.3879 -0.0110
22989SOL    HW171167   8.137   8.391   2.886 -3.1841  0.0444  1.6372
22989SOL    HW271168   8.156   8.261   2.961 -1.6553 -0.8322 -0.2115
22990SOL     OW71169   7.693   3.056   1.387 -0.0503  0.1506 -0.0924
22990SOL    HW171170   7.642   3.027   1.463 -0.6737  0.1629 -0.5056
22990SOL    HW271171   7.688   3.152   1.391  0.7590  0.1830  0.4166
22991SOL     OW71172   8.387   6.073   1.025  0.0276 -0.1029 -0.1494
22991SOL    HW171173   8.425   5.985   1.017  1.0169  0.3290 -0.2331
22991SOL    HW271174   8.292   6.057   1.028  0.1554 -1.1133 -0.9900
22992SOL     OW71175   6.189   7.688   1.913 -0.5257 -0.1599 -0.0775
22992SOL    HW171176   6.147   7.705   1.998 -0.7966 -0.1802 -0.2088
22992SOL    HW271177   6.194   7.593   1.908 -2.0345 -0.2236 -0.8283
22993SOL     OW71178   6.148   3.623   3.280  0.0923  0.2823  0.1728
22993SOL    HW171179   6.160   3.542   3.331 -2.4036 -0.3212 -0.0238
22993SOL    HW271180   6.143   3.692   3.346  0.7007  0.0579  0.4594
22994SOL     OW71181   0.583   1.801   0.417 -0.2995  0.2333  0.6965
22994SOL    HW171182   0.591   1.896   0.417  0.1965  0.2215  2.2611
22994SOL    HW271183   0.494   1.784   0.449 -0.2378  0.1645  0.8316
22995SOL     OW71184   3.802   1.748   9.029 -0.0833 -0.2599  0.0285
22995SOL    HW171185   3.707   1.744   9.016  0.2213 -0.7275 -2.8441
22995SOL    HW271186   3.821   1.676   9.088 -1.5827  0.5148  1.5674
22996SOL     OW71187   2.208   4.860   4.868  0.4729  0.4934 -0.3772
22996SOL    HW171188   2.174   4.771   4.883  2.0084  0.1368  1.2700
22996SOL    HW271189   2.138   4.903   4.819 -0.7777 -1.2963 -0.3000
22997SOL     OW71190   1.322   5.917   9.054  0.2313  0.0056  0.1304
22997SOL    HW171191   1.336   5.855   8.982  0.5853 -0.0066  0.2125
22997SOL    HW271192   1.227   5.918   9.065  0.2787 -1.3321  0.8465
22998SOL     OW71193   9.393   6.232   4.210  0.6663 -0.0837  0.1181
22998SOL    HW171194   9.475   6.242   4.162  1.5323  0.0195  1.5509
22998SOL    HW271195   9.418   6.182   4.288 -0.2197  1.5934  1.5511
22999SOL     OW71196   5.350   6.214   5.273 -0.2609  0.6364  0.1041
22999SOL    HW171197   5.369   6.224   5.180  1.8409  3.4843  0.6830
22999SOL    HW271198   5.260   6.246   5.283 -1.8848 -2.9651 -1.2744
23000SOL     OW71199   7.403   5.460   7.788  0.2131  0.9774  0.7521
23000SOL    HW171200   7.399   5.366   7.806 -0.6588  0.3502 -2.1899
23000SOL    HW271201   7.480   5.491   7.837  0.4087 -1.2040  1.9362
23001SOL     OW71202   7.542   6.151   4.731  0.3596 -0.4855  0.6041
23001SOL    HW171203   7.592   6.076   4.699  1.9088 -0.6189  3.0751
23001SOL    HW271204   7.481   6.113   4.794 -0.1619  0.1361  0.4786
23002SOL     OW71205   8.649   5.678   9.512 -0.7823  0.1941 -0.5592
23002SOL    HW171206   8.663   5.585   9.529 -0.1428  0.5564  0.9800
23002SOL    HW271207   8.714   5.700   9.445 -0.1617 -0.1996 -0.0873
23003SOL     OW71208   9.415   0.375   4.189  0.2487 -0.0219 -0.4642
23003SOL    HW171209   9.429   0.467   4.167 -0.0782 -0.2117 -1.5727
23003SOL    HW271210   9.363   0.341   4.116  1.9805 -1.5488 -1.0597
23004SOL     OW71211   4.752   3.972   0.136  0.6288  0.2169  0.0911
23004SOL    HW171212   4.708   4.041   0.087  0.9910 -0.0144 -0.5632
23004SOL    HW271213   4.835   4.013   0.164  0.2894  0.4484  0.7852
23005SOL     OW71214   2.242   4.202   6.178  0.1040 -0.2644 -0.1881
23005SOL    HW171215   2.228   4.210   6.084  1.0455 -2.7087 -0.6289
23005SOL    HW271216   2.312   4.264   6.198 -0.7327  0.9399 -0.8798
23006SOL     OW71217   5.371   9.512   4.758 -0.0943  0.3172  0.2571
23006SOL    HW171218   5.289   9.487   4.716  0.5153 -1.2917 -0.0405
23006SOL    HW271219   5.359   9.489   4.850 -0.2991  0.9650  0.4014
23007SOL     OW71220   5.559   5.719   3.570  0.2809  0.6166  0.2889
23007SOL    HW171221   5.511   5.774   3.508  0.4144 -2.2100 -2.5611
23007SOL    HW271222   5.495   5.655   3.601  0.9212  0.1953  0.7631
23008SOL     OW71223   5.423   2.443   3.529  0.1053  0.0357 -0.4215
23008SOL    HW171224   5.403   2.515   3.469  1.1142  1.8609  1.3322
23008SOL    HW271225   5.484   2.480   3.593  0.8043 -2.4295  0.4847
23009SOL     OW71226   9.322   9.497   2.977  0.1934  0.4606  0.3034
23009SOL    HW171227   9.299   9.500   2.884 -1.5914 -1.2956  0.6217
23009SOL    HW271228   9.402   9.445   2.980  0.2281  0.4795 -0.2388
23010SOL     OW71229   9.105   0.445   1.618 -0.4190 -0.4111  0.5234
23010SOL    HW171230   9.134   0.464   1.707 -0.0524  1.6337  0.0113
23010SOL    HW271231   9.185   0.420   1.572 -0.5596 -1.1443  0.6502
23011SOL     OW71232   7.834   8.297   2.008  0.6642  0.1181  0.1344
23011SOL    HW171233   7.764   8.247   2.049  0.5464 -0.5875 -0.8943
23011SOL    HW271234   7.889   8.325   2.081 -0.6378  0.6383  0.9554
23012SOL     OW71235   9.494   7.178   9.457 -0.0165  0.2758 -0.2944
23012SOL    HW171236   9.584   7.201   9.435  0.0259  0.1984 -0.1988
23012SOL    HW271237   9.454   7.156   9.372  0.1534 -0.0424 -0.2932
23013SOL     OW71238   1.211   5.262   4.590  0.4077  0.4070  0.3839
23013SOL    HW171239   1.158   5.254   4.669  1.6989  1.3071  1.3862
23013SOL    HW271240   1.292   5.304   4.619  1.6952 -0.9183 -1.0835
23014SOL     OW71241   1.913   4.478   2.182 -0.1939  0.1200  0.1550
23014SOL    HW171242   1.921   4.568   2.214 -2.0040  0.6531 -0.7631
23014SOL    HW271243   1.894   4.426   2.261  1.4984  0.4024  0.7866
23015SOL     OW71244   0.299   1.923   8.093  0.1084 -0.1525 -0.1453
23015SOL    HW171245   0.279   1.898   8.184 -0.1747 -0.4706 -0.2950
23015SOL    HW271246   0.344   2.007   8.101  0.7238 -0.5180  0.3438
23016SOL     OW71247   8.436   8.945   1.556 -0.3087 -0.2204  0.6123
23016SOL    HW171248   8.479   8.974   1.476  0.5802  0.7292  1.4085
23016SOL    HW271249   8.494   8.972   1.626 -1.0430 -1.0843  1.5969
23017SOL     OW71250   6.150   0.428   9.145 -0.2511  0.2372  0.0265
23017SOL    HW171251   6.212   0.405   9.076 -0.5038  0.2850 -0.2174
23017SOL    HW271252   6.171   0.519   9.167 -0.4772  0.3762 -0.3191
23018SOL     OW71253   1.824   1.257   0.879 -0.2672 -0.3937 -0.4691
23018SOL    HW171254   1.747   1.201   0.888  0.3297 -0.9846  1.4350
23018SOL    HW271255   1.828   1.305   0.961  2.5205 -1.8932  0.3761
23019SOL     OW71256   1.939   5.628   6.015  0.3439 -0.3765 -0.3687
23019SOL    HW171257   1.846   5.629   6.039  0.2371 -3.1044 -0.3698
23019SOL    HW271258   1.985   5.624   6.099  0.7026  3.0605 -0.2255
23020SOL     OW71259   8.285   8.117   6.127  0.2159 -0.6296  0.2354
23020SOL    HW171260   8.247   8.205   6.119  1.1243 -0.1861  0.6834
23020SOL    HW271261   8.287   8.084   6.037  1.6802  0.6033 -0.2221
23021SOL     OW71262   6.879   5.491   5.889  0.5712 -0.2092  0.4431
23021SOL    HW171263   6.956   5.541   5.860 -0.0109  0.3685 -0.1214
23021SOL    HW271264   6.894   5.477   5.983  1.7976 -0.8884  0.1757
23022SOL     OW71265   9.514   9.189   0.642  0.2946  0.5873 -0.1777
23022SOL    HW171266   9.606   9.213   0.629  0.3928  0.0447 -0.5188
23022SOL    HW271267   9.511   9.096   0.620  0.0594  0.1008  1.7720
23023SOL     OW71268   3.087   0.460   0.331  0.0680 -0.5056 -0.0009
23023SOL    HW171269   3.124   0.538   0.372 -0.6327 -0.1413 -0.0401
23023SOL    HW271270   3.056   0.490   0.245 -0.0386 -0.8663 -0.0927
23024SOL     OW71271   7.577   5.894   9.260  0.3089  0.0876  0.0601
23024SOL    HW171272   7.634   5.907   9.335  0.9034 -2.5779  0.1657
23024SOL    HW271273   7.617   5.945   9.190  0.5337  1.4703  1.1610
23025SOL     OW71274   3.707   6.861   7.010 -0.5511  0.1094  0.2617
23025SOL    HW171275   3.800   6.841   7.010 -0.5200  0.0169 -1.6698
23025SOL    HW271276   3.672   6.818   7.088  1.0779  0.5490  1.2702
23026SOL     OW71277   3.795   1.036   4.085  0.7320  0.0136 -0.2150
23026SOL    HW171278   3.725   0.971   4.089  0.2240  0.4835 -1.2048
23026SOL    HW271279   3.775   1.089   4.008  1.5356  0.8927  0.1562
23027SOL     OW71280   8.542   4.416   0.142 -0.0677 -0.1444 -0.2605
23027SOL    HW171281   8.471   4.397   0.205  0.0390 -1.8352 -0.5854
23027SOL    HW271282   8.614   4.448   0.197 -0.0604 -1.3553  0.4873
23028SOL     OW71283   3.946   0.095   5.214  0.4698 -0.3142 -0.2173
23028SOL    HW171284   4.010   0.128   5.152  1.0894  0.3606  0.7475
23028SOL    HW271285   3.945  -0.000   5.200  2.0960 -0.3994  0.1263
23029SOL     OW71286   3.415   2.413   4.839  0.0325  0.6998  0.0018
23029SOL    HW171287   3.453   2.440   4.755  0.4190  0.8064  0.2074
23029SOL    HW271288   3.321   2.416   4.825 -0.0298  3.6225  0.4280
23030SOL     OW71289   2.397   8.462   3.007  0.4369 -0.2749 -0.5406
23030SOL    HW171290   2.392   8.409   2.928 -0.6114  1.7285 -1.8830
23030SOL    HW271291   2.467   8.525   2.990 -0.5741  0.9261 -0.3820
23031SOL     OW71292   4.244   9.352   4.137 -0.5930  0.0794  0.2327
23031SOL    HW171293   4.312   9.385   4.079 -0.6114  1.2994  0.8754
23031SOL    HW271294   4.166   9.346   4.083 -0.7048  1.5720  0.2053
23032SOL     OW71295   1.504   0.172   5.874 -0.1807  0.2286  0.0830
23032SOL    HW171296   1.598   0.189   5.883  0.3752 -1.9011 -1.0397
23032SOL    HW271297   1.484   0.107   5.942 -0.9123  0.8518  0.4796
23033SOL     OW71298   9.104   9.220   1.624 -0.1723 -0.5960 -0.0325
23033SOL    HW171299   9.016   9.188   1.642 -0.1045 -1.4929 -1.2071
23033SOL    HW271300   9.103   9.245   1.532  0.7391 -0.4359 -0.0101
23034SOL     OW71301   8.588   5.231   4.166  0.0930 -0.2150  0.6764
23034SOL    HW171302   8.655   5.296   4.147  0.9099 -1.1075  0.4324
23034SOL    HW271303   8.608   5.201   4.254  0.5882 -1.1324  0.2674
23035SOL     OW71304   8.785   3.695   7.597 -0.8738  0.2407  0.0591
23035SOL    HW171305   8.870   3.737   7.589 -0.3447 -0.8718 -0.3242
23035SOL    HW271306   8.769   3.690   7.691 -0.0500 -0.4311  0.1729
23036SOL     OW71307   7.231   7.033   0.793  0.1639  0.0066 -0.7301
23036SOL    HW171308   7.262   7.080   0.716 -1.2066 -0.3045 -1.5158
23036SOL    HW271309   7.144   7.070   0.810  0.0056 -0.6772  0.0134
23037SOL     OW71310   9.070   1.337   3.131  0.1657  0.1986  0.4004
23037SOL    HW171311   9.146   1.389   3.103 -0.5991  0.9700 -0.3090
23037SOL    HW271312   8.994   1.385   3.098 -0.6410 -0.6054  1.0148
23038SOL     OW71313   8.280   5.209   2.026 -0.1155  0.3307 -0.5498
23038SOL    HW171314   8.375   5.205   2.036  0.0179 -0.7807 -2.0640
23038SOL    HW271315   8.247   5.218   2.116  1.3767  0.0527  0.0519
23039SOL     OW71316   1.963   8.941   3.127 -0.6894  0.1211 -0.3062
23039SOL    HW171317   1.911   8.988   3.192 -0.5727 -2.9314  2.2885
23039SOL    HW271318   1.959   8.849   3.155  2.9092 -0.8244 -2.1989
23040SOL     OW71319   8.219   4.402   4.461  0.2031  0.1934 -0.1062
23040SOL    HW171320   8.268   4.355   4.394  0.2758  1.1247 -0.7234
23040SOL    HW271321   8.138   4.352   4.471  0.8905 -0.8746  0.3111
23041SOL     OW71322   3.102   7.288   4.027 -0.5030  0.2666 -0.2331
23041SOL    HW171323   3.010   7.295   4.003 -0.3711  0.8000 -0.5974
23041SOL    HW271324   3.145   7.259   3.946 -0.6444 -2.2183  0.4958
23042SOL     OW71325   2.544   0.161   0.787 -0.2859 -0.1507 -0.0082
23042SOL    HW171326   2.589   0.200   0.862 -0.8177  0.1863  0.1404
23042SOL    HW271327   2.527   0.235   0.728 -0.5003 -0.3007 -0.1356
23043SOL     OW71328   9.331   2.287   2.039  0.2837 -0.1944  0.3339
23043SOL    HW171329   9.393   2.360   2.038 -0.9232  0.9075 -1.7636
23043SOL    HW271330   9.281   2.297   1.957 -0.8854 -2.5570  0.6770
23044SOL     OW71331   0.156   4.884   0.418 -0.0490 -0.3247  0.2927
23044SOL    HW171332   0.199   4.874   0.333 -1.5487 -0.3145 -0.4958
23044SOL    HW271333   0.115   4.970   0.414  0.2930 -0.1020  1.2502
23045SOL     OW71334   3.562   6.138   9.127  0.3768  0.0241 -0.4527
23045SOL    HW171335   3.626   6.069   9.111  1.5302  0.6749  0.9837
23045SOL    HW271336   3.537   6.127   9.219 -0.6446  0.5431 -0.6497
23046SOL     OW71337   1.877   8.770   0.341  0.1540 -0.0713 -0.2244
23046SOL    HW171338   1.903   8.826   0.268  1.6945  0.2343  0.5343
23046SOL    HW271339   1.915   8.811   0.418 -2.2758  0.1554  0.9375
23047SOL     OW71340   7.230   7.229   1.577  0.0065 -0.3067  0.3306
23047SOL    HW171341   7.204   7.149   1.532 -0.4243  0.2788 -0.4892
23047SOL    HW271342   7.233   7.205   1.670 -0.5755 -1.1412  0.1431
23048SOL     OW71343   3.981   5.440   6.969 -0.1594 -0.2594  0.2023
23048SOL    HW171344   3.981   5.404   6.880 -0.0678 -0.4070  0.2605
23048SOL    HW271345   4.072   5.431   6.998 -0.4344 -1.4436  0.7948
23049SOL     OW71346   7.262   8.786   3.436  0.0721 -0.2730 -0.1345
23049SOL    HW171347   7.234   8.854   3.497  0.3452 -0.4282  0.1617
23049SOL    HW271348   7.193   8.785   3.369  1.0446  1.7123 -1.2672
23050SOL     OW71349   9.129   6.570   1.000  0.3507  0.4536 -1.0430
23050SOL    HW171350   9.094   6.598   0.916 -1.3821  1.8069  0.0611
23050SOL    HW271351   9.060   6.516   1.039 -0.0732  2.1128  0.6436
23051SOL     OW71352   2.213   0.405   2.001 -0.2213  0.3001 -0.7431
23051SOL    HW171353   2.254   0.448   1.926  0.6204 -0.2175 -0.5910
23051SOL    HW271354   2.235   0.461   2.075  0.4243 -0.0991 -0.6261
23052SOL     OW71355   6.948   8.857   5.720 -0.2276  0.1587 -0.8541
23052SOL    HW171356   6.869   8.805   5.728 -0.3974  0.3490 -1.2398
23052SOL    HW271357   6.964   8.891   5.808  0.2718 -1.0877 -0.4341
23053SOL     OW71358   4.901   0.112   2.649  0.1383  0.0308  0.1660
23053SOL    HW171359   4.837   0.041   2.643  1.4506 -1.1716 -0.1503
23053SOL    HW271360   4.854   0.190   2.620 -1.2436 -0.7728  0.1875
23054SOL     OW71361   0.818   4.511   4.350 -0.7440 -0.1443  0.6466
23054SOL    HW171362   0.814   4.420   4.378  0.5439 -0.1273  0.9606
23054SOL    HW271363   0.799   4.561   4.430 -1.1147 -0.1343  0.5521
23055SOL     OW71364   4.944   7.703   8.271  0.3485  0.2737  0.1704
23055SOL    HW171365   4.920   7.611   8.259  1.4386  0.1650 -1.4881
23055SOL    HW271366   5.037   7.707   8.251  0.0059  1.9853 -1.3703
23056SOL     OW71367   3.709   7.961   5.861 -0.1475  0.4740  0.3600
23056SOL    HW171368   3.781   7.899   5.871  0.4748  1.0262 -0.6478
23056SOL    HW271369   3.745   8.045   5.888  0.4392  1.2768 -2.6529
23057SOL     OW71370   4.567   5.873   6.147 -0.2479 -0.2656 -0.3949
23057SOL    HW171371   4.541   5.949   6.198 -0.6648  0.3574 -1.5095
23057SOL    HW271372   4.504   5.805   6.173 -0.2821 -0.0446  0.1197
23058SOL     OW71373   1.132   0.517   3.664 -0.4176  0.1453 -0.4557
23058SOL    HW171374   1.157   0.607   3.685 -1.6105  0.5442 -0.6619
23058SOL    HW271375   1.210   0.480   3.622 -0.0081  1.1829 -0.6479
23059SOL     OW71376   9.454   9.560   4.847  0.4238 -0.1293 -0.1015
23059SOL    HW171377   9.490   9.563   4.758  0.2549  0.7495 -0.1475
23059SOL    HW271378   9.496   9.632   4.893 -0.5315  0.3070  0.1209
23060SOL     OW71379   5.131   4.193   3.703  0.6093  0.1846 -0.2582
23060SOL    HW171380   5.172   4.119   3.746  0.1548  0.5085  0.7732
23060SOL    HW271381   5.040   4.166   3.689  0.4464  0.5206  0.1057
23061SOL     OW71382   3.819   8.181   6.002  0.1082  0.1070  0.1641
23061SOL    HW171383   3.839   8.136   6.084 -1.9792 -1.0443  0.1119
23061SOL    HW271384   3.761   8.253   6.028 -0.7197 -0.3790 -0.2964
23062SOL     OW71385   9.224   5.044   6.643 -0.6192  0.2760  0.8901
23062SOL    HW171386   9.278   5.066   6.567 -1.4651 -1.0367 -0.1361
23062SOL    HW271387   9.134   5.056   6.613 -0.9583  0.2472  1.8661
23063SOL     OW71388   0.634   9.302   7.308 -0.3571 -0.3232  0.0499
23063SOL    HW171389   0.570   9.241   7.270  1.1063 -2.4102  0.7904
23063SOL    HW271390   0.699   9.314   7.239 -1.2634  1.4818 -0.5548
23064SOL     OW71391   9.099   2.808   7.880  0.1314 -0.4682  0.3278
23064SOL    HW171392   9.036   2.821   7.951  1.6301 -0.8190  1.7865
23064SOL    HW271393   9.070   2.866   7.810 -0.3414  1.3200  1.9465
23065SOL     OW71394   7.604   1.974   5.838 -0.1416  0.2728  0.0376
23065SOL    HW171395   7.605   1.971   5.742  1.3316 -2.2499  0.0562
23065SOL    HW271396   7.517   1.941   5.862 -0.7223  1.4264 -0.3909
23066SOL     OW71397   3.976   0.591   2.037  0.2077  0.3807 -0.2279
23066SOL    HW171398   3.960   0.664   1.978 -0.6359  2.2927  2.2117
23066SOL    HW271399   3.901   0.591   2.097  0.6125 -1.9597  0.3906
23067SOL     OW71400   1.408   1.936   0.576 -0.4243  0.1338 -0.1079
23067SOL    HW171401   1.460   1.859   0.554  2.1819  2.3162 -2.1992
23067SOL    HW271402   1.431   1.954   0.668 -1.0721 -1.4827  0.4167
23068SOL     OW71403   8.785   4.719   0.969  0.9000 -0.3080  1.1992
23068SOL    HW171404   8.856   4.693   0.910  2.0544  0.0425  2.3749
23068SOL    HW271405   8.765   4.809   0.945 -0.1857 -0.8799 -0.1060
23069SOL     OW71406   6.840   1.350   4.762 -0.1970 -0.3375  0.1079
23069SOL    HW171407   6.807   1.269   4.801 -2.4433  1.1233  1.4755
23069SOL    HW271408   6.807   1.420   4.819 -0.3177  1.7197 -2.2896
23070SOL     OW71409   7.811   3.814   3.786 -0.0644 -0.2458 -0.1167
23070SOL    HW171410   7.727   3.854   3.762  0.9839  1.1983 -1.5781
23070SOL    HW271411   7.810   3.728   3.742 -1.5995 -1.1820  1.6074
23071SOL     OW71412   0.814   6.258   1.402  1.1754  0.6988 -0.5275
23071SOL    HW171413   0.868   6.305   1.338  0.8433 -0.8688 -2.0656
23071SOL    HW271414   0.870   6.186   1.433  0.8418  0.5932 -0.1621
23072SOL     OW71415   8.457   7.192   1.786  0.2403 -0.1515 -0.2467
23072SOL    HW171416   8.524   7.150   1.731 -0.1282 -1.8719  0.5421
23072SOL    HW271417   8.491   7.184   1.875 -0.5853 -0.2120  0.0700
23073SOL     OW71418   3.702   6.992   4.986  0.0993  0.3791 -0.2846
23073SOL    HW171419   3.655   7.076   4.990  0.0408  0.3191  0.3296
23073SOL    HW271420   3.669   6.950   4.906 -0.0940  0.8102 -0.4340
23074SOL     OW71421   4.139   1.341   2.435 -0.3807  0.3196 -0.8861
23074SOL    HW171422   4.062   1.304   2.478 -0.3264  1.9460  0.7052
23074SOL    HW271423   4.109   1.362   2.347 -1.7012  0.6616 -0.3859
23075SOL     OW71424   3.063   4.986   2.965  0.2863 -0.5594 -0.1074
23075SOL    HW171425   3.018   5.059   2.924  0.4495  0.9444  2.2244
23075SOL    HW271426   2.998   4.948   3.025  1.9158  1.6941  3.3674
23076SOL     OW71427   1.980   4.031   6.804 -0.0521 -0.0460  0.0961
23076SOL    HW171428   2.000   4.044   6.711 -0.0602 -0.2495  0.0650
23076SOL    HW271429   1.888   4.004   6.805 -0.3804  1.0336  0.2486
23077SOL     OW71430   6.970   1.515   2.095  0.3031 -0.2069  0.7321
23077SOL    HW171431   6.979   1.427   2.059 -0.3109  0.0696 -0.1253
23077SOL    HW271432   6.945   1.502   2.186 -2.1256 -0.9491  0.0195
23078SOL     OW71433   5.541   0.339   4.252  1.1596 -0.0476  0.0927
23078SOL    HW171434   5.571   0.399   4.320 -1.3090  1.3186  0.0826
23078SOL    HW271435   5.541   0.253   4.294  0.6017  0.6227  1.5284
23079SOL     OW71436   0.353   5.289   8.602  0.3497 -0.5609 -0.3542
23079SOL    HW171437   0.281   5.344   8.634  0.5021  0.6052 -1.8541
23079SOL    HW271438   0.348   5.210   8.655 -0.6887  0.3742  1.0387
23080SOL     OW71439   4.563   0.971   0.613  0.2054 -0.0235 -0.0080
23080SOL    HW171440   4.582   1.063   0.635  0.2959  0.0048 -0.2033
23080SOL    HW271441   4.580   0.923   0.694 -0.0492  0.1609  0.1560
23081SOL     OW71442   4.080   7.837   8.437  0.4626  0.0644  0.1337
23081SOL    HW171443   4.173   7.843   8.413  0.3295  2.0483 -0.0445
23081SOL    HW271444   4.051   7.754   8.400  1.9069 -0.0863 -0.7332
23082SOL     OW71445   7.007   2.326   2.814  0.2307 -0.0948 -0.4860
23082SOL    HW171446   6.972   2.351   2.900  0.1230 -1.2681 -0.1742
23082SOL    HW271447   7.074   2.261   2.834  0.0031 -0.5851 -1.3053
23083SOL     OW71448   7.204   4.490   7.560 -0.0703  0.4403  0.1395
23083SOL    HW171449   7.170   4.504   7.472  2.0082 -0.3315 -0.8531
23083SOL    HW271450   7.203   4.577   7.600 -2.2308  0.5972 -0.1261
23084SOL     OW71451   7.150   1.390   6.127 -0.3889 -0.5522  0.2358
23084SOL    HW171452   7.106   1.305   6.131 -0.3843 -0.8543 -3.0744
23084SOL    HW271453   7.203   1.386   6.047 -0.4603  2.5879 -0.0982
23085SOL     OW71454   2.273   4.574   4.292 -0.1031 -0.2021 -0.1692
23085SOL    HW171455   2.367   4.574   4.305 -0.0913 -0.2496 -0.2495
23085SOL    HW271456   2.252   4.663   4.264 -0.1021 -0.1534 -0.0181
23086SOL     OW71457   4.569   8.660   5.524 -0.1880 -0.3427 -0.1505
23086SOL    HW171458   4.476   8.683   5.519 -0.3313 -0.5212  1.2326
23086SOL    HW271459   4.615   8.742   5.510 -0.6573  0.5735  2.8823
23087SOL     OW71460   8.626   5.562   9.100 -0.5048 -0.1772  0.0167
23087SOL    HW171461   8.679   5.492   9.062  0.0771  0.5430 -0.5298
23087SOL    HW271462   8.556   5.516   9.147 -0.5335 -1.1173 -0.8937
23088SOL     OW71463   6.712   2.483   1.074  0.3878  0.4718  0.6583
23088SOL    HW171464   6.791   2.455   1.120  0.1078  2.1506  2.2698
23088SOL    HW271465   6.743   2.538   1.003  0.7524 -1.0622 -0.4300
23089SOL     OW71466   0.076   8.079   3.313 -0.1827  0.4872 -0.3901
23089SOL    HW171467   0.066   8.094   3.407 -0.6002 -1.0136 -0.1676
23089SOL    HW271468  -0.014   8.077   3.279 -0.0333  1.1316 -0.8617
23090SOL     OW71469   8.281   9.405   1.768 -0.1955 -0.9506 -0.0452
23090SOL    HW171470   8.300   9.347   1.695  2.1589 -0.9643  0.5053
23090SOL    HW271471   8.358   9.399   1.824 -0.3501  1.8376  0.5962
23091SOL     OW71472   0.193   7.184   0.517 -0.4791 -0.2513  0.3603
23091SOL    HW171473   0.124   7.118   0.503 -0.1359 -0.9834  1.8674
23091SOL    HW271474   0.225   7.204   0.429 -2.1435 -0.3934 -0.3220
23092SOL     OW71475   6.380   6.851   5.445 -0.1258  0.3509  0.4496
23092SOL    HW171476   6.315   6.805   5.498 -1.2228  1.1417 -0.1867
23092SOL    HW271477   6.371   6.813   5.357  1.2074 -0.4670  0.6351
23093SOL     OW71478   6.414   7.923   3.813  0.5388 -0.1354 -0.7727
23093SOL    HW171479   6.326   7.956   3.829  0.3331 -0.5564 -1.0100
23093SOL    HW271480   6.462   7.998   3.778 -0.3177 -0.4130 -2.7170
23094SOL     OW71481   2.049   5.672   2.040  0.7025 -0.0296  0.2780
23094SOL    HW171482   2.075   5.592   2.086 -0.6554  0.2310  1.5514
23094SOL    HW271483   1.966   5.697   2.080  1.6406  2.6568  0.7221
23095SOL     OW71484   4.924   2.296   0.320  0.3336 -0.2468 -0.5451
23095SOL    HW171485   4.935   2.314   0.413  0.9496  0.6308 -0.7754
23095SOL    HW271486   4.833   2.320   0.301  0.2212 -0.3861 -0.1855
23096SOL     OW71487   3.062   8.773   2.030  0.3486  0.2480 -0.0243
23096SOL    HW171488   3.067   8.678   2.016 -0.0237  0.4591 -1.9856
23096SOL    HW271489   3.116   8.810   1.960 -0.1744  1.4959  0.2028
23097SOL     OW71490   7.207   3.717   2.385 -0.4984 -0.1446 -0.1284
23097SOL    HW171491   7.299   3.738   2.369 -0.0774 -1.1219  0.8502
23097SOL    HW271492   7.174   3.790   2.438  0.1015 -0.4255  0.6547
23098SOL     OW71493   8.023   7.085   0.315 -0.2951 -0.1680 -0.0650
23098SOL    HW171494   8.021   7.052   0.226 -0.3626  1.1736 -0.5942
23098SOL    HW271495   7.958   7.156   0.315  0.2394  0.3357  0.8361
23099SOL     OW71496   3.077   2.465   2.496 -0.1500  0.0993 -0.0260
23099SOL    HW171497   3.066   2.539   2.436  2.5839  0.8272  0.2267
23099SOL    HW271498   3.101   2.392   2.440 -2.0373 -0.4456 -0.1902
23100SOL     OW71499   0.817   2.346   4.986  0.2983  0.2776  0.3084
23100SOL    HW171500   0.759   2.400   4.932  0.8623 -0.2536 -0.8644
23100SOL    HW271501   0.876   2.409   5.027  1.4734  0.5706 -1.6795
23101SOL     OW71502   1.337   4.952   3.054 -0.5624 -0.7664 -0.3652
23101SOL    HW171503   1.368   5.037   3.023  0.9969 -1.1753 -0.0381
23101SOL    HW271504   1.344   4.895   2.977 -0.6752 -0.8188 -0.3368
23102SOL     OW71505   8.988   2.449   3.385 -0.2840 -0.5231  0.2066
23102SOL    HW171506   9.032   2.507   3.323  0.4106 -0.9889  0.2428
23102SOL    HW271507   8.895   2.472   3.379 -0.0830  0.2247 -0.1545
23103SOL     OW71508   8.992   2.390   9.070  0.0434 -0.1162  0.1924
23103SOL    HW171509   8.970   2.302   9.039 -0.0543 -0.0558  0.0893
23103SOL    HW271510   9.002   2.380   9.165  2.4856 -0.7665 -0.0645
23104SOL     OW71511   0.341   6.183   0.001 -0.0461 -0.4924  0.1032
23104SOL    HW171512   0.345   6.199   0.095  0.1448  1.0845 -0.1447
23104SOL    HW271513   0.414   6.233  -0.035  0.4326 -1.8025 -0.8139
23105SOL     OW71514   7.289   0.426   7.271 -0.5167  0.2773  0.2435
23105SOL    HW171515   7.370   0.456   7.314  0.3829 -1.8882  0.2131
23105SOL    HW271516   7.228   0.410   7.343 -0.4327  0.5673  0.3811
23106SOL     OW71517   0.708   9.246   3.983  0.2990 -0.5286 -0.3568
23106SOL    HW171518   0.675   9.325   3.941 -0.7668 -0.3606  0.7473
23106SOL    HW271519   0.786   9.275   4.031  0.0462 -0.1864 -0.1474
23107SOL     OW71520   1.462   6.724   2.941  0.2281  0.2591 -0.1966
23107SOL    HW171521   1.505   6.798   2.897 -0.9928  0.4901 -1.0446
23107SOL    HW271522   1.501   6.722   3.028  0.7937  1.4512 -0.4006
23108SOL     OW71523   2.440   1.792   3.336 -0.0574 -0.1055  0.0145
23108SOL    HW171524   2.403   1.707   3.359 -1.3773  0.3601 -0.3136
23108SOL    HW271525   2.426   1.846   3.414 -2.2645  0.7475 -0.9065
23109SOL     OW71526   6.604   9.417   5.892 -0.2375 -0.4586 -0.0590
23109SOL    HW171527   6.646   9.333   5.905 -0.5280 -0.2916  2.3967
23109SOL    HW271528   6.635   9.471   5.964 -1.2588  1.0609 -0.7015
23110SOL     OW71529   7.436   3.703   6.732  0.2190  0.4693 -0.1232
23110SOL    HW171530   7.458   3.633   6.670 -1.0014  0.8049 -0.9933
23110SOL    HW271531   7.441   3.662   6.818  0.3993 -0.4547 -0.5650
23111SOL     OW71532   9.531   4.002   4.728  0.4689  0.4970 -0.1596
23111SOL    HW171533   9.542   3.969   4.638  0.2981  0.1034 -0.0408
23111SOL    HW271534   9.438   4.021   4.735  0.3507 -0.1729  0.1645
23112SOL     OW71535   0.519   3.064   1.182 -0.1419  0.1836  0.1827
23112SOL    HW171536   0.460   3.053   1.107  0.9730 -1.8275 -0.4656
23112SOL    HW271537   0.546   3.156   1.177  0.8983 -0.1613 -2.7077
23113SOL     OW71538   0.380   6.522   2.186  0.0589  0.2138  0.1094
23113SOL    HW171539   0.396   6.505   2.093 -0.6941 -1.6982  0.2951
23113SOL    HW271540   0.286   6.538   2.192  0.2305  1.1928  0.4522
23114SOL     OW71541   6.932   6.596   1.759  0.2160  0.3195 -0.2726
23114SOL    HW171542   6.903   6.529   1.697 -1.5985  0.4346  0.4168
23114SOL    HW271543   7.017   6.564   1.790  0.1173 -0.8465 -1.1381
23115SOL     OW71544   9.418   3.647   5.749 -0.2526  0.2351 -0.0382
23115SOL    HW171545   9.397   3.591   5.823  0.0125 -0.0792 -0.1958
23115SOL    HW271546   9.335   3.691   5.727 -0.3134  0.3752  0.4754
23116SOL     OW71547   3.466   3.090   7.706 -0.6045  0.0354 -0.4498
23116SOL    HW171548   3.535   3.156   7.706 -1.3252  0.8661  1.4659
23116SOL    HW271549   3.389   3.136   7.671 -0.4332 -0.6516 -1.8069
23117SOL     OW71550   2.587   5.924   0.661  0.3093 -0.6891  0.1619
23117SOL    HW171551   2.615   5.940   0.751  1.7021 -0.3359 -0.3038
23117SOL    HW271552   2.569   5.830   0.657  0.6962 -0.7871  0.6926
23118SOL     OW71553   8.586   3.352   4.792  0.2557  0.1084 -0.6467
23118SOL    HW171554   8.607   3.309   4.709 -0.9687  0.3868 -1.1223
23118SOL    HW271555   8.543   3.284   4.844  3.4072 -0.8875  0.8842
23119SOL     OW71556   7.641   7.163   6.542  0.1705  0.1134  0.0123
23119SOL    HW171557   7.698   7.237   6.522  3.6508 -2.8198 -2.2151
23119SOL    HW271558   7.591   7.149   6.461 -3.5729  2.1881  1.6958
23120SOL     OW71559   5.731   0.546   0.079  0.2551  0.7735 -0.3751
23120SOL    HW171560   5.734   0.548  -0.017  2.0068 -1.5389 -0.4579
23120SOL    HW271561   5.639   0.532   0.100  0.0408 -0.2064 -1.8106
23121SOL     OW71562   8.822   4.882   5.407 -0.4807  0.3282  0.3377
23121SOL    HW171563   8.728   4.875   5.421 -0.8330  1.8035 -0.9835
23121SOL    HW271564   8.831   4.894   5.312  1.2240 -2.0058  0.1183
23122SOL     OW71565   5.416   1.337   6.281 -0.5374  0.3200 -0.0240
23122SOL    HW171566   5.503   1.341   6.241 -0.1762  0.7734  0.7936
23122SOL    HW271567   5.357   1.322   6.207  0.1797  0.5339 -0.6569
23123SOL     OW71568   5.009   4.941   5.643  0.1665  0.6767  0.4061
23123SOL    HW171569   4.957   4.908   5.570  1.5631 -1.5626  0.3491
23123SOL    HW271570   5.059   5.014   5.606  0.5528 -0.1660 -0.7788
23124SOL     OW71571   1.128   5.500   1.365 -0.0538  0.7001  0.2799
23124SOL    HW171572   1.132   5.576   1.308 -1.2074  0.3987 -0.2479
23124SOL    HW271573   1.063   5.443   1.324 -0.3765  0.1460  1.5076
23125SOL     OW71574   4.603   1.755   7.169 -0.3735  0.1067 -0.1714
23125SOL    HW171575   4.570   1.843   7.156 -0.4958 -0.2134 -2.3226
23125SOL    HW271576   4.543   1.716   7.233 -1.3194  1.0335 -0.4759
23126SOL     OW71577   6.375   4.926   8.609  0.1492  0.2627  0.2853
23126SOL    HW171578   6.425   4.965   8.680  0.0863 -0.8262  0.9535
23126SOL    HW271579   6.398   4.833   8.612 -0.3245  0.1003 -0.7276
23127SOL     OW71580   2.145   4.984   8.021 -0.0547  0.2829 -0.3520
23127SOL    HW171581   2.123   5.033   7.942 -0.0553  0.6818 -0.1079
23127SOL    HW271582   2.066   4.935   8.042 -0.2461  0.6211 -0.2767
23128SOL     OW71583   9.029   0.322   7.839 -1.1229 -0.1963  0.5932
23128SOL    HW171584   9.062   0.235   7.861  0.5776  0.4122  0.5787
23128SOL    HW271585   9.095   0.383   7.873 -1.0333  0.9845 -1.4851
23129SOL     OW71586   2.419   7.756   2.557 -0.2224 -0.2535  0.7345
23129SOL    HW171587   2.349   7.703   2.595 -0.2929  0.4761  1.6612
23129SOL    HW271588   2.411   7.840   2.601  0.0299  0.4639 -0.5558
23130SOL     OW71589   1.800   6.197   1.864  0.1467 -0.6494 -0.0204
23130SOL    HW171590   1.768   6.129   1.806  1.2412 -2.4077  1.3144
23130SOL    HW271591   1.896   6.191   1.857  0.3368 -1.2844  2.2610
23131SOL     OW71592   7.177   0.971   0.517  0.5408  0.7062 -0.1933
23131SOL    HW171593   7.248   0.939   0.573  1.2121  1.6638 -0.4747
23131SOL    HW271594   7.149   0.893   0.469 -0.1332 -0.1517  1.5260
23132SOL     OW71595   2.965   2.805   2.540  0.0150 -0.1501 -0.9021
23132SOL    HW171596   3.037   2.853   2.499 -0.6338  1.3712 -0.3643
23132SOL    HW271597   3.001   2.774   2.623 -0.1046  1.1898 -0.3213
23133SOL     OW71598   2.735   7.391   3.154  0.4412  0.3234 -0.2933
23133SOL    HW171599   2.825   7.411   3.180  1.1630 -0.9345 -1.6492
23133SOL    HW271600   2.729   7.295   3.159 -1.1949  0.4411  0.8429
23134SOL     OW71601   2.038   0.345   2.593  0.2213 -0.3899  0.3991
23134SOL    HW171602   2.122   0.344   2.639  0.8388 -0.5024 -0.6975
23134SOL    HW271603   2.055   0.299   2.511 -1.1715 -1.2854  0.5789
23135SOL     OW71604   7.658   7.349   0.666  0.3719  0.1676  0.4348
23135SOL    HW171605   7.670   7.408   0.740  1.0249  0.4834  0.0793
23135SOL    HW271606   7.620   7.270   0.705 -2.9258  1.6683  0.5877
23136SOL     OW71607   8.789   7.050   1.185 -0.2278  0.0681 -0.1975
23136SOL    HW171608   8.763   6.960   1.164  0.2480 -0.2665  0.5722
23136SOL    HW271609   8.844   7.077   1.111  0.5808 -0.7046  0.0948
23137SOL     OW71610   1.448   6.269   8.705 -0.0836  0.4127  0.4701
23137SOL    HW171611   1.412   6.247   8.791 -1.7715 -2.0086 -0.7662
23137SOL    HW271612   1.380   6.321   8.662 -0.8232 -1.4222 -0.6728
23138SOL     OW71613   5.738   2.798   5.776 -0.3208  0.2408  0.0378
23138SOL    HW171614   5.795   2.840   5.840 -0.2211  0.3383 -0.1143
23138SOL    HW271615   5.658   2.850   5.777 -0.0295  0.7182 -0.4808
23139SOL     OW71616   1.419   1.607   9.290  0.0095  0.4681  0.0258
23139SOL    HW171617   1.507   1.586   9.319  0.4703  2.7320  0.4309
23139SOL    HW271618   1.366   1.531   9.315  1.4305  0.0039  1.7580
23140SOL     OW71619   1.717   0.196   9.564 -0.7942  0.3470 -0.0597
23140SOL    HW171620   1.802   0.214   9.604  0.1880 -2.6201 -0.5412
23140SOL    HW271621   1.736   0.182   9.471 -1.5565 -1.5203  0.0218
23141SOL     OW71622   4.388   9.361   8.943  0.3953 -0.0911 -0.3547
23141SOL    HW171623   4.476   9.381   8.910  0.1922 -0.4107 -1.1351
23141SOL    HW271624   4.355   9.444   8.977  0.6596  0.2372 -0.8856
23142SOL     OW71625   9.274   4.025   8.268 -0.5716  0.1131  0.1857
23142SOL    HW171626   9.329   3.984   8.201  0.0760 -1.0409  1.3737
23142SOL    HW271627   9.321   4.104   8.293 -0.4678  0.1821 -0.2144
23143SOL     OW71628   0.939   1.465   3.607  0.1160 -0.2929 -0.0726
23143SOL    HW171629   0.967   1.379   3.574  1.1440 -0.4256  1.0824
23143SOL    HW271630   0.897   1.445   3.691  0.0310  0.3043  0.0277
23144SOL     OW71631   7.112   0.419   0.454  0.2998 -0.1802 -0.5032
23144SOL    HW171632   7.086   0.365   0.529  0.0352 -0.2142 -0.6203
23144SOL    HW271633   7.100   0.362   0.378  0.8432 -0.2417 -0.5480
23145SOL     OW71634   5.005   4.990   9.055 -0.1970  0.2078 -0.4484
23145SOL    HW171635   4.910   4.993   9.064 -0.1942 -0.6243 -0.0250
23145SOL    HW271636   5.028   5.074   9.016 -1.1469  0.2587 -0.9332
23146SOL     OW71637   6.092   2.683   5.470 -0.1275 -0.2369  0.8276
23146SOL    HW171638   6.026   2.627   5.509 -1.2801  0.5695  0.0907
23146SOL    HW271639   6.130   2.630   5.400 -2.2385  0.3288 -0.8458
23147SOL     OW71640   7.004   4.715   5.292  0.7944 -0.3346 -0.4756
23147SOL    HW171641   7.013   4.788   5.353 -0.5276  0.5479 -1.2807
23147SOL    HW271642   6.982   4.757   5.209  3.0779 -1.4647 -1.7363
23148SOL     OW71643   1.147   7.221   2.320 -0.3679  0.5726  0.3656
23148SOL    HW171644   1.080   7.155   2.337 -0.6512  0.9585  0.7893
23148SOL    HW271645   1.223   7.171   2.290 -0.6411  0.0737  0.4867
23149SOL     OW71646   5.691   6.054   6.427 -0.3261 -0.2808  0.5373
23149SOL    HW171647   5.733   6.073   6.510 -1.4300 -1.4579  1.3957
23149SOL    HW271648   5.604   6.022   6.450 -0.3139 -1.5695 -1.0141
23150SOL     OW71649   4.053   9.556   0.533  0.2729  0.8090  0.4439
23150SOL    HW171650   4.070   9.564   0.439 -2.8359  0.3322 -0.2841
23150SOL    HW271651   4.010   9.638   0.556 -2.9960 -0.6882  0.2922
23151SOL     OW71652   7.433   0.971   1.780  0.2021 -0.4046 -0.6251
23151SOL    HW171653   7.404   1.060   1.798 -0.1269 -1.1796  3.6155
23151SOL    HW271654   7.512   0.982   1.726 -1.0306  2.2554 -2.0952
23152SOL     OW71655   4.990   5.233   6.809  0.1870  0.8476 -0.3721
23152SOL    HW171656   4.988   5.138   6.812 -0.5079  0.8634 -0.2411
23152SOL    HW271657   5.001   5.254   6.716 -1.7875  0.6571 -0.6822
23153SOL     OW71658   3.469   9.246   8.429 -0.2700  0.2586  0.3369
23153SOL    HW171659   3.388   9.282   8.395 -0.2911  0.7060  0.8477
23153SOL    HW271660   3.466   9.263   8.523  0.7668  0.9971  0.2608
23154SOL     OW71661   0.412   2.929   5.676  0.7463  0.7227 -0.3162
23154SOL    HW171662   0.395   3.023   5.668 -1.0215  0.4477 -0.2247
23154SOL    HW271663   0.368   2.903   5.757  1.4738 -0.1453 -0.1768
23155SOL     OW71664   3.487   8.216   3.259  0.0347 -0.3953  0.4014
23155SOL    HW171665   3.395   8.210   3.284  0.0878 -0.0657  0.6795
23155SOL    HW271666   3.521   8.290   3.309  0.4501 -0.5129  0.2973
23156SOL     OW71667   8.124   0.907   7.301  0.6536  0.8583 -0.0793
23156SOL    HW171668   8.204   0.959   7.302  3.2375 -2.7502 -0.9485
23156SOL    HW271669   8.115   0.879   7.211  0.7695 -2.0202  0.7165
23157SOL     OW71670   1.808   6.028   8.572  0.4307 -0.1783  0.4877
23157SOL    HW171671   1.812   6.016   8.477 -1.1739  0.1369  0.3544
23157SOL    HW271672   1.898   6.049   8.597  1.0157 -0.9587 -0.8556
23158SOL     OW71673   3.196   6.285   8.948 -0.4996  0.9214 -0.3430
23158SOL    HW171674   3.123   6.271   8.888  0.0269  0.0976 -0.8107
23158SOL    HW271675   3.255   6.211   8.932  0.1276  1.2227  0.4865
23159SOL     OW71676   5.304   8.975   5.957 -0.4596 -0.0118  0.0914
23159SOL    HW171677   5.364   8.994   6.030 -2.7818 -0.5697  2.2766
23159SOL    HW271678   5.298   8.879   5.956  1.8836 -0.2792 -2.9767
23160SOL     OW71679   8.961   3.961   3.228 -0.1600  0.0324  0.3394
23160SOL    HW171680   9.053   3.985   3.220 -0.1698 -0.2456 -0.9533
23160SOL    HW271681   8.928   4.015   3.300  1.2129 -0.5295  1.4366
23161SOL     OW71682   1.040   3.896   5.747  0.1874 -0.2484 -0.3894
23161SOL    HW171683   1.118   3.863   5.791  0.0853  0.1355  0.0973
23161SOL    HW271684   0.982   3.820   5.742 -0.1681 -0.1058  0.9934
23162SOL     OW71685   0.522   2.411   1.856 -0.5335 -0.2088 -1.2190
23162SOL    HW171686   0.555   2.411   1.766  2.8431  0.4561 -0.1213
23162SOL    HW271687   0.509   2.503   1.877 -0.0288 -0.2567 -0.6518
23163SOL     OW71688   1.416   3.452   6.532  0.2568  0.1457 -0.4573
23163SOL    HW171689   1.383   3.363   6.545  1.3068 -0.3532 -1.0280
23163SOL    HW271690   1.341   3.501   6.499 -0.6238 -0.2413  0.9224
23164SOL     OW71691   5.468   3.043   7.630  0.5160 -0.0549 -0.0626
23164SOL    HW171692   5.494   3.021   7.719 -1.4505 -0.1282  0.5349
23164SOL    HW271693   5.512   3.126   7.611 -0.8191  1.1611  1.8543
23165SOL     OW71694   7.006   4.910   1.708 -0.2565 -0.0722  0.1599
23165SOL    HW171695   7.078   4.955   1.752 -0.4663  0.0485  0.3834
23165SOL    HW271696   7.025   4.817   1.722 -0.5666 -0.0317  0.9183
23166SOL     OW71697   6.813   6.320   3.672 -0.0660  0.1107 -0.2996
23166SOL    HW171698   6.860   6.324   3.589 -0.8642  1.4894 -0.7222
23166SOL    HW271699   6.881   6.327   3.739  0.5335 -0.4057 -0.8439
23167SOL     OW71700   7.822   3.589   7.564 -0.1381 -0.5170 -0.4567
23167SOL    HW171701   7.863   3.675   7.556 -0.6161 -0.2259  0.1210
23167SOL    HW271702   7.754   3.601   7.630  0.3311 -1.5451  0.2378
23168SOL     OW71703   7.393   9.262   6.156  0.1082  0.1613  0.2668
23168SOL    HW171704   7.442   9.344   6.148 -0.9645  0.7001 -1.3002
23168SOL    HW271705   7.301   9.288   6.155 -0.2466 -1.0315  0.1157
23169SOL     OW71706   1.186   4.340   3.343  0.8366 -0.4662  0.5395
23169SOL    HW171707   1.184   4.435   3.335  1.0677 -0.4603  0.5411
23169SOL    HW271708   1.107   4.310   3.297 -0.3153 -0.1641  2.2074
23170SOL     OW71709   6.317   5.247   5.701  0.0488 -0.1940  0.7629
23170SOL    HW171710   6.334   5.215   5.612 -1.7071  0.6206  0.0963
23170SOL    HW271711   6.389   5.211   5.753  0.0519 -2.3080 -0.5934
23171SOL     OW71712   3.416   7.762   3.843  0.1134 -0.6776  0.0595
23171SOL    HW171713   3.399   7.678   3.886  0.6450 -0.0343  1.6069
23171SOL    HW271714   3.474   7.809   3.904  2.0299 -0.2277 -1.9781
23172SOL     OW71715   7.638   4.054   6.240  0.1948  0.3612 -0.1275
23172SOL    HW171716   7.600   4.137   6.211  1.4205  1.4402  1.2919
23172SOL    HW271717   7.647   4.003   6.159 -0.9169  1.4466 -0.9676
23173SOL     OW71718   3.259   0.046   8.844  0.1493 -0.1651  0.0930
23173SOL    HW171719   3.211  -0.036   8.836  1.2171 -0.8234  0.2543
23173SOL    HW271720   3.252   0.087   8.758 -0.4895 -0.3535  0.0464
23174SOL     OW71721   8.875   3.553   3.332 -0.1635  0.1509 -0.2677
23174SOL    HW171722   8.791   3.594   3.352 -1.1801 -1.1282 -1.7161
23174SOL    HW271723   8.854   3.463   3.309  1.6699 -0.3497 -0.1870
23175SOL     OW71724   0.406   3.930   6.470  0.2840  0.8882 -0.9645
23175SOL    HW171725   0.354   3.877   6.531  1.0537 -0.4157 -1.3846
23175SOL    HW271726   0.370   3.909   6.384  0.0685  1.6967 -1.0785
23176SOL     OW71727   1.226   4.505   2.849  0.0165 -0.4393  0.0782
23176SOL    HW171728   1.150   4.562   2.856  1.3142  1.3536  0.3498
23176SOL    HW271729   1.243   4.498   2.755  1.1819  1.5689  0.0868
23177SOL     OW71730   8.354   3.414   0.629 -0.0749 -0.5199 -0.1197
23177SOL    HW171731   8.321   3.413   0.539  2.3620 -2.0026 -1.0990
23177SOL    HW271732   8.428   3.474   0.627 -0.1159 -0.4082  0.9726
23178SOL     OW71733   0.677   7.309   4.953  0.1206  0.4721 -0.3571
23178SOL    HW171734   0.739   7.238   4.938 -0.8918 -0.5909  0.3703
23178SOL    HW271735   0.732   7.384   4.978  1.2843  0.3094 -2.2725
23179SOL     OW71736   1.529   1.613   5.893  0.3094 -0.3944  0.6220
23179SOL    HW171737   1.515   1.672   5.819 -1.0301  0.1961  1.3042
23179SOL    HW271738   1.615   1.637   5.928 -0.5156  1.7118  1.3417
23180SOL     OW71739   0.833   4.833   6.317  0.8385  0.1799 -0.0288
23180SOL    HW171740   0.824   4.746   6.278  0.5269 -0.4179  1.3025
23180SOL    HW271741   0.924   4.857   6.302  0.8651 -0.2817 -0.6169
23181SOL     OW71742   0.583   0.888   4.773  0.1403  0.4059  0.0526
23181SOL    HW171743   0.630   0.949   4.829  1.9840 -0.1492 -0.8219
23181SOL    HW271744   0.638   0.810   4.770 -1.4367 -0.7737 -0.0395
23182SOL     OW71745   2.064   6.704   7.445  0.0543 -0.0269  0.2271
23182SOL    HW171746   1.993   6.680   7.386 -0.0781  0.4753  0.1756
23182SOL    HW271747   2.096   6.787   7.411 -0.4373  0.5894  1.2216
23183SOL     OW71748   5.185   7.256   1.517  0.0178 -0.7455 -0.1889
23183SOL    HW171749   5.195   7.309   1.596 -0.6299  0.8799 -1.1667
23183SOL    HW271750   5.274   7.246   1.484  0.4947 -2.6247  1.4271
23184SOL     OW71751   8.877   2.074   0.968 -0.2355 -0.9028  0.4636
23184SOL    HW171752   8.899   1.981   0.972  1.5267 -0.5074  0.9009
23184SOL    HW271753   8.825   2.082   0.888 -0.6550 -2.2906  0.5637
23185SOL     OW71754   7.946   2.895   3.444 -0.4435 -0.0138 -0.1516
23185SOL    HW171755   7.888   2.848   3.385  0.0120  0.4218 -0.9750
23185SOL    HW271756   7.888   2.942   3.504 -0.9158 -0.4140 -0.2937
23186SOL     OW71757   1.595   8.210   1.792  0.4218  0.4331 -0.3157
23186SOL    HW171758   1.610   8.282   1.854  0.5460  0.2839 -0.1738
23186SOL    HW271759   1.660   8.144   1.816  0.4232  0.3467 -0.5611
23187SOL     OW71760   0.455   1.895   0.136 -0.0448  0.1271 -0.0096
23187SOL    HW171761   0.531   1.856   0.178 -1.2940 -3.2073 -0.4986
23187SOL    HW271762   0.389   1.825   0.138 -2.6901  2.4441 -0.6676
23188SOL     OW71763   6.287   8.170   1.930  0.5392  0.4512  0.6868
23188SOL    HW171764   6.378   8.172   1.901  0.6707  0.1982  1.0732
23188SOL    HW271765   6.241   8.121   1.862  0.7751  0.1996  0.7062
23189SOL     OW71766   1.425   5.960   8.040 -0.0416  0.0243  0.0958
23189SOL    HW171767   1.400   5.892   7.978 -0.4597  0.2683 -0.0066
23189SOL    HW271768   1.409   5.922   8.126  1.0537 -0.5201  0.0860
23190SOL     OW71769   6.679   0.272   1.547  0.1842 -0.3799 -0.1536
23190SOL    HW171770   6.723   0.268   1.632  0.4475  3.1090  0.0336
23190SOL    HW271771   6.749   0.262   1.483  0.4629  0.0412  0.0843
23191SOL     OW71772   3.158   2.689   6.312 -0.3052 -0.0436  0.4072
23191SOL    HW171773   3.252   2.693   6.333 -0.4887  2.6889  1.0769
23191SOL    HW271774   3.133   2.599   6.331  1.9359 -0.5195  1.4043
23192SOL     OW71775   8.401   2.717   4.710  0.4861 -0.5736  0.2389
23192SOL    HW171776   8.462   2.758   4.649 -0.5516 -0.6870 -0.9279
23192SOL    HW271777   8.315   2.730   4.670 -0.2197 -0.8432  1.5845
23193SOL     OW71778   0.579   2.283   3.713 -0.1010 -0.7348 -0.8888
23193SOL    HW171779   0.569   2.376   3.732 -0.4779 -0.9723  0.1397
23193SOL    HW271780   0.618   2.246   3.792  0.9037 -1.3119 -1.6256
23194SOL     OW71781   7.599   6.924   7.086  0.4363 -0.0422 -0.0528
23194SOL    HW171782   7.568   6.986   7.021  0.2723  0.8550  0.8626
23194SOL    HW271783   7.536   6.852   7.082  0.2529  0.1435 -0.6578
23195SOL     OW71784   2.640   0.491   4.737 -0.2204 -0.4632 -0.0998
23195SOL    HW171785   2.602   0.421   4.683 -0.5794 -1.5503  1.5024
23195SOL    HW271786   2.718   0.451   4.776 -0.0954  0.2292  0.3605
23196SOL     OW71787   4.547   2.842   6.194 -0.8003  0.5483 -0.1380
23196SOL    HW171788   4.461   2.831   6.155 -0.4960  1.5614 -1.1317
23196SOL    HW271789   4.609   2.824   6.123 -0.2346  1.9288 -0.0351
23197SOL     OW71790   2.726   4.835   4.167  0.3464 -0.7868  0.1523
23197SOL    HW171791   2.749   4.742   4.163  3.3026 -0.1390  0.1050
23197SOL    HW271792   2.723   4.863   4.076  1.8822 -0.3664  0.1985
23198SOL     OW71793   0.131   9.243   3.620  0.4696 -0.0758  0.7214
23198SOL    HW171794   0.158   9.224   3.710  0.6626 -1.0182  0.4766
23198SOL    HW271795   0.209   9.225   3.567 -0.5586 -2.8320  0.0039
23199SOL     OW71796   2.125   9.082   6.018 -0.1238  0.2047  0.1270
23199SOL    HW171797   2.082   9.015   5.964  0.5206 -0.4454  0.3944
23199SOL    HW271798   2.128   9.043   6.106  0.4596  0.4892  0.2367
23200SOL     OW71799   1.096   2.030   2.097 -0.4461  0.6730 -0.0851
23200SOL    HW171800   1.070   1.976   2.172  1.0149  0.3632  0.2308
23200SOL    HW271801   1.020   2.086   2.081 -2.0993 -1.5406 -0.5318
23201SOL     OW71802   1.049   3.371   4.052  0.1233 -0.8642 -0.5343
23201SOL    HW171803   1.011   3.290   4.019 -1.0848 -1.5796  2.2726
23201SOL    HW271804   1.054   3.358   4.147 -1.3174  2.7655  0.2287
23202SOL     OW71805   1.464   2.014   0.843  0.3371 -0.0832  0.2078
23202SOL    HW171806   1.446   2.101   0.808  0.2455 -0.4761 -0.7383
23202SOL    HW271807   1.412   2.010   0.924  1.6880  1.3655  1.2176
23203SOL     OW71808   7.997   8.657   7.467  0.4473 -0.5440 -0.3373
23203SOL    HW171809   8.006   8.650   7.562 -0.3085 -0.1875 -0.2400
23203SOL    HW271810   8.040   8.578   7.434  2.9312  0.4864  0.1597
23204SOL     OW71811   5.167   1.647   4.957 -0.2447  0.3875  1.0070
23204SOL    HW171812   5.215   1.674   5.036 -0.2959 -0.9016  1.5131
23204SOL    HW271813   5.099   1.589   4.990 -1.2590  1.0600  0.1465
23205SOL     OW71814   1.834   4.865   3.279 -0.0222 -0.0345 -0.0496
23205SOL    HW171815   1.807   4.853   3.370  0.1652 -0.5488 -0.0586
23205SOL    HW271816   1.819   4.958   3.261  0.5593  0.2138  0.7044
23206SOL     OW71817   3.996   4.576   9.367  0.0151 -0.1554  0.5874
23206SOL    HW171818   3.941   4.650   9.390 -0.1485  0.3990 -1.3809
23206SOL    HW271819   4.086   4.609   9.377 -0.0511 -0.0036  0.6802
23207SOL     OW71820   5.989   4.703   6.634  0.8688 -0.0568 -0.5700
23207SOL    HW171821   5.921   4.660   6.582 -0.0301  0.0722  0.4713
23207SOL    HW271822   5.945   4.729   6.715  1.6663  1.7996 -0.6868
23208SOL     OW71823   3.550   2.641   6.100  0.3280  0.1152  0.3767
23208SOL    HW171824   3.490   2.646   6.175 -1.1282 -2.0975 -0.5453
23208SOL    HW271825   3.495   2.659   6.024  0.9441 -1.2831 -0.4395
23209SOL     OW71826   0.897   0.073   1.668  0.0977 -0.4272 -0.1506
23209SOL    HW171827   0.886  -0.022   1.665  1.9757 -0.6605 -1.7463
23209SOL    HW271828   0.837   0.107   1.602 -0.2842 -0.5162  0.1443
23210SOL     OW71829   8.568   7.439   6.529 -0.1089  0.1723  0.1609
23210SOL    HW171830   8.641   7.387   6.495  0.4724  1.2645 -0.3328
23210SOL    HW271831   8.582   7.441   6.624  0.9883  1.0225  0.0122
23211SOL     OW71832   1.844   2.273   1.391  0.3725  0.2039 -0.4376
23211SOL    HW171833   1.911   2.217   1.429  0.6259  0.4360 -0.5455
23211SOL    HW271834   1.875   2.291   1.302 -0.4427 -0.7398 -0.9454
23212SOL     OW71835   4.523   1.119   4.709 -0.1706 -0.1019  0.1840
23212SOL    HW171836   4.429   1.109   4.725 -0.1418 -0.6572  0.0328
23212SOL    HW271837   4.530   1.197   4.653 -0.4222  0.7219  1.2626
23213SOL     OW71838   2.023   3.034   3.386 -0.1405 -0.2049  0.1870
23213SOL    HW171839   2.094   3.001   3.440 -1.2022 -0.2211  1.6401
23213SOL    HW271840   2.049   3.123   3.361  0.5025 -0.3195  0.4575
23214SOL     OW71841   2.579   2.724   5.170  0.2444  0.1701  0.1506
23214SOL    HW171842   2.490   2.745   5.141  0.7333  1.5446 -0.4373
23214SOL    HW271843   2.590   2.773   5.252  0.7174  0.6622 -0.1955
23215SOL     OW71844   4.705   6.017   0.943  0.2840  0.2704  0.1087
23215SOL    HW171845   4.765   5.954   0.903  0.0936  0.6654 -0.8249
23215SOL    HW271846   4.618   5.991   0.912  0.1371  0.6220  0.2173
23216SOL     OW71847   1.107   1.039   2.389 -0.6253 -0.5335  0.5140
23216SOL    HW171848   1.148   1.105   2.445 -1.2631 -0.4236  0.8568
23216SOL    HW271849   1.083   0.968   2.448 -1.1941 -0.4707  0.3670
23217SOL     OW71850   5.942   6.985   3.654  0.2044 -0.6289 -0.2139
23217SOL    HW171851   5.915   7.075   3.639  1.8829  0.0107  0.5049
23217SOL    HW271852   5.956   6.979   3.748  1.9463 -1.0915 -0.4756
23218SOL     OW71853   6.918   0.086   6.015 -0.0457 -0.1833  0.1522
23218SOL    HW171854   6.980   0.022   5.981 -0.7150 -0.0099 -1.4771
23218SOL    HW271855   6.847   0.087   5.951 -2.1495 -0.9397  2.2965
23219SOL     OW71856   7.095   8.732   0.485  0.3057 -0.4383  0.2472
23219SOL    HW171857   7.113   8.742   0.391  0.4822 -0.0622  0.3193
23219SOL    HW271858   7.006   8.698   0.489 -0.3521  1.1694 -0.0193
23220SOL     OW71859   1.702   5.025   2.955 -0.0435 -0.4293 -0.4541
23220SOL    HW171860   1.650   5.079   2.896  1.1678  1.5506  0.2102
23220SOL    HW271861   1.790   5.063   2.952  0.7527 -2.0790  0.4140
23221SOL     OW71862   5.784   9.212   8.929  0.3268  0.4399 -0.7178
23221SOL    HW171863   5.848   9.256   8.873  1.7300  0.0777  0.5541
23221SOL    HW271864   5.806   9.119   8.922 -0.8851  0.1720 -1.2493
23222SOL     OW71865   1.479   2.321   5.779  0.1548 -0.4160 -0.3230
23222SOL    HW171866   1.397   2.316   5.730  0.4863  0.6337 -1.0238
23222SOL    HW271867   1.485   2.237   5.825 -1.0635 -0.6972 -0.6489
23223SOL     OW71868   6.098   9.563   7.149 -0.0927 -0.2111 -0.2896
23223SOL    HW171869   6.161   9.593   7.084  1.2912  0.2700  1.1894
23223SOL    HW271870   6.150   9.512   7.212 -1.2773 -0.2987  0.6694
23224SOL     OW71871   0.535   3.687   6.906  0.2772 -0.0085  0.3497
23224SOL    HW171872   0.612   3.631   6.913  1.8582  2.2395  3.7196
23224SOL    HW271873   0.473   3.649   6.969  0.5483  0.8033  1.1246
23225SOL     OW71874   2.325   0.768   4.875  0.1269  0.2917  0.0506
23225SOL    HW171875   2.370   0.848   4.901  0.1800  0.7003 -1.2808
23225SOL    HW271876   2.245   0.768   4.927  0.3137  0.9964  0.3504
23226SOL     OW71877   9.160   0.526   1.878 -0.3460 -0.0889 -0.1231
23226SOL    HW171878   9.094   0.594   1.893 -1.0595 -0.9981  1.0176
23226SOL    HW271879   9.243   0.570   1.890 -0.5987  1.4870 -3.1681
23227SOL     OW71880   4.982   7.098   3.547  0.4101 -0.1972 -0.0491
23227SOL    HW171881   4.915   7.166   3.544  0.4486 -0.1826 -2.3443
23227SOL    HW271882   4.933   7.016   3.560  0.0383 -0.0905 -0.7758
23228SOL     OW71883   2.977   2.682   0.013  0.3891 -0.2620 -0.8346
23228SOL    HW171884   2.911   2.643   0.071  0.8095 -0.3350 -0.3955
23228SOL    HW271885   2.990   2.617  -0.056  1.4064 -1.1247  0.1301
23229SOL     OW71886   0.691   6.215   3.591 -0.1061  0.0700 -0.4496
23229SOL    HW171887   0.756   6.286   3.589 -0.7243  0.7367  1.2279
23229SOL    HW271888   0.682   6.189   3.500  1.6031  0.8004 -0.8749
23230SOL     OW71889   4.476   7.564   8.467 -0.3447  0.2833  0.7515
23230SOL    HW171890   4.412   7.540   8.534 -0.3189  0.3229  0.7907
23230SOL    HW271891   4.539   7.493   8.467 -1.7726 -1.0693 -1.0870
23231SOL     OW71892   2.422   3.690   5.616 -1.1424 -0.2249 -0.4249
23231SOL    HW171893   2.360   3.763   5.616  0.8783  1.6064 -0.4015
23231SOL    HW271894   2.428   3.664   5.524 -3.1940 -1.6399 -0.2208
23232SOL     OW71895   6.666   8.982   7.539 -0.4343 -0.3235 -0.3873
23232SOL    HW171896   6.717   8.905   7.512  0.7604  0.5101 -0.5781
23232SOL    HW271897   6.593   8.945   7.590 -1.5696 -1.8108 -2.8626
23233SOL     OW71898   3.545   2.598   9.073 -0.1341  1.1207 -0.5000
23233SOL    HW171899   3.581   2.683   9.099 -0.5130  1.3900 -0.8394
23233SOL    HW271900   3.508   2.562   9.154 -2.9534  2.7676 -0.9136
23234SOL     OW71901   0.074   4.424   3.804 -0.3776  0.3801  0.4049
23234SOL    HW171902  -0.007   4.383   3.773  0.4046 -0.7998 -0.1894
23234SOL    HW271903   0.067   4.515   3.777 -1.9052  0.5207  1.2008
23235SOL     OW71904   8.800   0.125   1.225  0.0208  0.4541 -0.1860
23235SOL    HW171905   8.791   0.032   1.245 -0.2035  0.6776  0.8032
23235SOL    HW271906   8.777   0.170   1.306  1.3889  1.3309 -0.2477
23236SOL     OW71907   8.834   7.199   5.337 -0.5741  0.4555  0.3754
23236SOL    HW171908   8.759   7.148   5.305 -0.5150  0.8154 -0.3568
23236SOL    HW271909   8.882   7.138   5.393 -0.0270 -0.6069 -1.1661
23237SOL     OW71910   9.154   8.560   3.666 -0.3843  0.0475 -0.1302
23237SOL    HW171911   9.239   8.582   3.705  0.9000 -1.3205 -1.9869
23237SOL    HW271912   9.103   8.523   3.737  0.0161  2.1833  1.3607
23238SOL     OW71913   1.996   7.305   9.096 -0.0466 -0.1234 -0.3125
23238SOL    HW171914   1.935   7.302   9.023  0.6664  0.2815 -0.9403
23238SOL    HW271915   2.059   7.373   9.072 -0.4332  0.8157  1.1810
23239SOL     OW71916   6.339   0.374   8.949 -0.3696  0.2632  0.6367
23239SOL    HW171917   6.364   0.330   8.868 -0.3080  1.7342 -0.1785
23239SOL    HW271918   6.422   0.406   8.985 -0.2130 -1.5904  2.0614
23240SOL     OW71919   2.319   7.502   5.740 -0.0276  0.2969 -0.3431
23240SOL    HW171920   2.354   7.424   5.699 -0.3200  0.0986 -0.2227
23240SOL    HW271921   2.300   7.561   5.667  0.6140  0.4370 -0.4029
23241SOL     OW71922   7.033   0.590   3.476 -0.1413  0.0378 -0.1885
23241SOL    HW171923   6.952   0.611   3.523 -0.7778 -0.2478 -1.1205
23241SOL    HW271924   7.096   0.656   3.506 -0.9762  0.8340 -0.1359
23242SOL     OW71925   2.416   0.815   8.839 -0.0366 -0.2002 -0.0925
23242SOL    HW171926   2.419   0.910   8.829 -0.0668 -0.1353  0.5004
23242SOL    HW271927   2.417   0.800   8.934 -2.6142 -0.6984 -0.0955
23243SOL     OW71928   4.591   5.035   0.859 -0.2589 -0.4678  0.2237
23243SOL    HW171929   4.638   4.959   0.893 -0.0800 -0.0438  0.9481
23243SOL    HW271930   4.652   5.108   0.872 -0.3067 -0.2361 -0.7340
23244SOL     OW71931   1.727   4.672   6.597  0.0753  0.7308 -0.1167
23244SOL    HW171932   1.817   4.646   6.583 -0.0690 -0.3827  0.9190
23244SOL    HW271933   1.682   4.651   6.515  0.6070  0.6596 -0.3894
23245SOL     OW71934   2.292   6.982   8.719 -0.0878  0.2348  0.3626
23245SOL    HW171935   2.252   7.066   8.744  0.8495  1.2856 -1.4607
23245SOL    HW271936   2.386   6.995   8.730  0.0976 -0.4326 -0.3498
23246SOL     OW71937   2.519   8.148   9.378  0.4479  0.7625 -0.1701
23246SOL    HW171938   2.577   8.108   9.443 -0.6359 -0.1447  0.2800
23246SOL    HW271939   2.503   8.236   9.412 -1.3242 -0.1849  1.6851
23247SOL     OW71940   8.845   8.344   9.533 -0.2185 -0.1808  0.4130
23247SOL    HW171941   8.853   8.249   9.540 -0.7018 -0.4572 -1.9347
23247SOL    HW271942   8.762   8.358   9.488 -0.8744  1.4571  2.0334
23248SOL     OW71943   7.531   8.676   1.674  0.3295 -0.3807 -0.0779
23248SOL    HW171944   7.490   8.759   1.650  0.9957 -0.1821 -0.5828
23248SOL    HW271945   7.586   8.698   1.750  0.8219 -0.2661 -0.4646
23249SOL     OW71946   2.640   3.629   3.231  0.1378 -0.0747 -0.7312
23249SOL    HW171947   2.735   3.619   3.236  0.4278  2.0546 -1.2277
23249SOL    HW271948   2.614   3.656   3.319 -0.0527 -0.8345 -0.5464
23250SOL     OW71949   5.440   0.450   5.937 -0.0735  0.5612  0.0427
23250SOL    HW171950   5.425   0.360   5.906  1.7430  0.2013  0.1060
23250SOL    HW271951   5.397   0.453   6.022 -1.5651  0.2818 -0.6695
23251SOL     OW71952   6.576   7.869   3.504 -0.0817 -0.3304 -0.9354
23251SOL    HW171953   6.580   7.940   3.569  0.3860 -0.9558 -0.2630
23251SOL    HW271954   6.607   7.910   3.423 -0.1609  0.3261 -0.6428
23252SOL     OW71955   3.097   5.847   5.047  0.1912 -0.0465  0.1000
23252SOL    HW171956   3.051   5.779   4.997 -2.1738  0.2655  1.6748
23252SOL    HW271957   3.126   5.803   5.127 -1.7262  0.7773  1.3262
23253SOL     OW71958   7.733   2.218   5.839 -0.0580 -0.3120 -0.2739
23253SOL    HW171959   7.773   2.233   5.925  3.6075  1.3685 -2.0164
23253SOL    HW271960   7.698   2.129   5.843  1.6290 -0.9696  2.3916
23254SOL     OW71961   9.336   1.449   1.520 -0.3498  0.2439 -0.6263
23254SOL    HW171962   9.278   1.386   1.477  0.4266 -0.6860 -0.3297
23254SOL    HW271963   9.280   1.493   1.584 -0.7258 -0.6638 -0.3210
23255SOL     OW71964   6.231   6.985   4.029  0.0424  0.2038  0.0533
23255SOL    HW171965   6.253   6.901   4.070 -0.7095 -0.0374 -0.0172
23255SOL    HW271966   6.275   7.051   4.082  3.9051 -0.4019 -2.0768
23256SOL     OW71967   2.717   6.920   0.075 -0.2127 -0.6177 -0.0004
23256SOL    HW171968   2.632   6.894   0.111 -0.1484 -3.3244 -1.5145
23256SOL    HW271969   2.779   6.897   0.143 -0.3582 -2.9257 -0.5601
23257SOL     OW71970   6.323   1.383   3.927  0.0994  0.1453 -0.1059
23257SOL    HW171971   6.273   1.380   4.008  1.9374  0.0618  1.0808
23257SOL    HW271972   6.345   1.475   3.915  0.6464  0.0438  0.0514
23258SOL     OW71973   8.613   2.567   1.222 -0.0203 -0.2704 -0.1273
23258SOL    HW171974   8.630   2.474   1.236 -0.3027 -0.8086 -2.7475
23258SOL    HW271975   8.524   2.580   1.254  0.3561 -0.6571  1.1167
23259SOL     OW71976   8.187   0.809   9.036  0.2677  0.0781 -0.4284
23259SOL    HW171977   8.178   0.824   8.941  1.8111 -0.6438 -0.7280
23259SOL    HW271978   8.281   0.813   9.051  0.1230 -0.9473  0.8892
23260SOL     OW71979   8.436   2.126   6.483 -0.0796 -0.1344 -0.4738
23260SOL    HW171980   8.423   2.202   6.426 -0.5575  0.7386  0.7535
23260SOL    HW271981   8.373   2.139   6.554  1.7311 -0.2252  1.2190
23261SOL     OW71982   1.455   1.233   0.586 -0.2073 -0.0451 -0.5933
23261SOL    HW171983   1.549   1.241   0.601 -0.2375  1.3213 -0.9063
23261SOL    HW271984   1.438   1.139   0.582  0.7510 -0.3892  1.7753
23262SOL     OW71985   5.856   2.755   8.803  0.2040 -0.4882 -0.2519
23262SOL    HW171986   5.901   2.735   8.721  1.3555  2.6805 -0.5211
23262SOL    HW271987   5.888   2.842   8.827 -2.1080 -0.2073  2.1994
23263SOL     OW71988   5.354   7.517   1.294  0.3305 -0.8799  0.6488
23263SOL    HW171989   5.271   7.539   1.336  0.5466  0.3963  0.4400
23263SOL    HW271990   5.391   7.448   1.349 -0.6474 -1.1352  1.0018
23264SOL     OW71991   5.976   9.164   0.972 -0.2454 -0.0029  0.0254
23264SOL    HW171992   5.976   9.257   0.993 -0.5230  0.1903 -0.8032
23264SOL    HW271993   6.067   9.137   0.983 -0.3070  0.1568  1.1066
23265SOL     OW71994   8.288   9.525   4.373  0.5721  0.4246 -0.1252
23265SOL    HW171995   8.283   9.452   4.311  0.1303 -0.5949  1.0587
23265SOL    HW271996   8.242   9.597   4.330 -0.8450 -0.6446 -0.4636
23266SOL     OW71997   0.986   5.554   6.282 -0.4476 -0.4071 -0.2838
23266SOL    HW171998   0.959   5.521   6.368 -2.5543 -2.2435 -1.5224
23266SOL    HW271999   0.958   5.645   6.282 -0.9224 -0.5281  0.7749
23267SOL     OW72000   0.067   4.702   3.738  0.1756  0.1631  0.2892
23267SOL    HW172001   0.024   4.782   3.768 -0.1159  0.5079 -0.9896
23267SOL    HW272002   0.070   4.710   3.642  0.7756 -1.0344  0.1807
23268SOL     OW72003   8.724   5.161   8.101 -0.2099 -0.2629  0.1530
23268SOL    HW172004   8.792   5.209   8.053 -1.1708  0.6028 -0.4050
23268SOL    HW272005   8.757   5.156   8.191  0.3031  0.7199  0.0423
23269SOL     OW72006   8.886   9.384   5.923  0.1667 -0.1361  0.2658
23269SOL    HW172007   8.797   9.416   5.904  0.4979  0.6749  0.0462
23269SOL    HW272008   8.926   9.454   5.975  1.1498  0.1426 -0.8338
23270SOL     OW72009   0.550   1.831   5.570 -0.5124  0.1852 -0.0735
23270SOL    HW172010   0.598   1.752   5.595 -1.6363 -0.6060 -0.3243
23270SOL    HW272011   0.612   1.882   5.518  0.1613 -0.6458 -0.1025
23271SOL     OW72012   1.635   3.556   6.672 -0.1779 -0.0028  0.7479
23271SOL    HW172013   1.622   3.465   6.698 -2.4720  0.4343  1.3258
23271SOL    HW272014   1.570   3.570   6.602  1.8052  0.5429 -1.1056
23272SOL     OW72015   0.067   0.232   6.719 -0.0945 -0.2058 -0.5003
23272SOL    HW172016  -0.020   0.258   6.688  0.6182  2.2650 -0.6648
23272SOL    HW272017   0.076   0.275   6.804  0.3670 -1.8286  0.3242
23273SOL     OW72018   2.749   7.035   5.315 -0.0378  0.4502 -0.2211
23273SOL    HW172019   2.782   7.121   5.289 -0.0448  0.8298  0.9556
23273SOL    HW272020   2.779   7.024   5.405 -0.8880 -0.3471 -0.0194
23274SOL     OW72021   5.627   5.397   8.813  0.3956 -0.5878  0.0494
23274SOL    HW172022   5.631   5.343   8.734 -0.0618  0.5635 -0.7892
23274SOL    HW272023   5.547   5.449   8.802  1.7962  1.6384 -0.1185
23275SOL     OW72024   0.502   7.658   9.438 -0.2651 -0.0423 -0.4012
23275SOL    HW172025   0.454   7.648   9.521  1.0146  1.6710  0.6158
23275SOL    HW272026   0.575   7.597   9.445  1.3866  1.9865  0.9982
23276SOL     OW72027   1.923   5.635   4.682  0.1426 -0.7570  0.2560
23276SOL    HW172028   1.938   5.729   4.688  2.5979 -1.1346  1.3903
23276SOL    HW272029   1.915   5.618   4.588 -0.9867  0.6318  0.0665
23277SOL     OW72030   9.274   0.370   3.432 -0.1513 -0.2458 -0.1107
23277SOL    HW172031   9.191   0.392   3.391 -0.1255 -1.3386 -0.7881
23277SOL    HW272032   9.293   0.444   3.489  0.3565  1.8992 -2.8539
23278SOL     OW72033   5.297   3.820   8.866 -0.4026  0.3294 -0.3340
23278SOL    HW172034   5.303   3.739   8.815  2.2570  0.6677 -0.7182
23278SOL    HW272035   5.310   3.792   8.957 -2.5906  0.0268 -0.0646
23279SOL     OW72036   5.458   4.726   6.910 -0.2990 -0.2959 -0.1294
23279SOL    HW172037   5.502   4.687   6.835  0.9740 -1.2606  1.0819
23279SOL    HW272038   5.484   4.818   6.908 -1.4223  0.0263 -1.6427
23280SOL     OW72039   3.989   7.625   6.219  0.4327  0.5646  0.3392
23280SOL    HW172040   4.017   7.620   6.310  0.6206  1.0036  0.3086
23280SOL    HW272041   3.894   7.617   6.222  0.5433 -1.1617  0.4278
23281SOL     OW72042   3.350   5.556   0.981 -0.5943  0.5361 -0.1112
23281SOL    HW172043   3.383   5.622   1.042  2.6905 -1.0995  0.0602
23281SOL    HW272044   3.335   5.605   0.900  1.2012  1.6479  0.1637
23282SOL     OW72045   7.663   8.250   8.464  0.1400  0.0270 -0.0142
23282SOL    HW172046   7.668   8.252   8.559  0.7768 -1.1132  0.0030
23282SOL    HW272047   7.644   8.158   8.443 -2.3653  0.6515 -0.9206
23283SOL     OW72048   1.549   7.338   9.380  0.1501 -0.3118  1.0341
23283SOL    HW172049   1.455   7.320   9.373  0.1121  0.2584 -0.0015
23283SOL    HW272050   1.557   7.433   9.372  0.8089 -0.3330  1.3185
23284SOL     OW72051   1.535   2.658   3.438 -0.4182 -0.1286  0.1765
23284SOL    HW172052   1.561   2.569   3.459 -1.5442 -0.0290  2.2550
23284SOL    HW272053   1.614   2.710   3.451 -0.3952 -0.4795  1.5537
23285SOL     OW72054   8.858   6.086   4.607 -0.5030 -1.0980  0.1707
23285SOL    HW172055   8.929   6.111   4.666 -0.9843 -1.8816  1.1018
23285SOL    HW272056   8.903   6.048   4.531  0.0893 -2.1807  1.0262
23286SOL     OW72057   5.239   1.714   8.871 -0.3700  0.8385 -0.1886
23286SOL    HW172058   5.186   1.729   8.949  0.0536  1.8352 -0.0749
23286SOL    HW272059   5.257   1.620   8.872 -1.2881  0.6546  0.3049
23287SOL     OW72060   8.901   7.209   7.709  0.0814 -0.0171 -0.3478
23287SOL    HW172061   8.920   7.268   7.636 -3.5672 -0.6743 -2.0465
23287SOL    HW272062   8.852   7.263   7.771 -0.7188 -0.5317 -0.5253
23288SOL     OW72063   6.705   0.091   0.028  0.7260 -0.0374 -0.5284
23288SOL    HW172064   6.739   0.008   0.060  0.5726  0.0168 -0.2315
23288SOL    HW272065   6.686   0.075  -0.065 -1.8347 -1.1289  0.1011
23289SOL     OW72066   6.584   5.427   5.494 -0.0652  0.3234  0.4007
23289SOL    HW172067   6.495   5.438   5.529 -0.2333 -3.4684  1.7016
23289SOL    HW272068   6.640   5.426   5.572  0.6079 -0.8596 -0.0744
23290SOL     OW72069   2.618   4.842   8.308 -0.7160 -0.4889 -0.1244
23290SOL    HW172070   2.684   4.897   8.265  0.2722 -1.7020 -0.2284
23290SOL    HW272071   2.535   4.887   8.294  0.3049  2.3022  1.9150
23291SOL     OW72072   0.235   7.651   2.642  0.2541  0.5501  0.2703
23291SOL    HW172073   0.210   7.615   2.728  1.7447  0.3733  0.6494
23291SOL    HW272074   0.322   7.687   2.656  0.2659  1.0663 -1.0410
23292SOL     OW72075   2.967   8.884   9.300  0.9047 -0.3942  0.2906
23292SOL    HW172076   3.045   8.833   9.277  1.8253  0.1519  2.0587
23292SOL    HW272077   2.935   8.918   9.216  3.1214  0.1254 -0.4053
23293SOL     OW72078   7.096   1.454   6.425 -0.2985 -0.6273 -0.1052
23293SOL    HW172079   7.143   1.537   6.414  0.2178 -0.6589  1.5963
23293SOL    HW272080   7.131   1.398   6.356  1.8444 -0.4897  0.7817
23294SOL     OW72081   3.905   4.620   3.830 -0.1021  0.2370  0.0924
23294SOL    HW172082   3.897   4.712   3.855 -0.8110  0.8165 -2.1327
23294SOL    HW272083   3.984   4.616   3.776  0.1764 -0.5639  0.5372
23295SOL     OW72084   5.305   7.721   7.169 -0.0151  0.0288  0.1355
23295SOL    HW172085   5.343   7.682   7.091  0.4540  0.0754  0.3371
23295SOL    HW272086   5.211   7.719   7.153  0.0052 -1.0331  0.0700
23296SOL     OW72087   1.881   5.264   0.652 -0.4304  0.0085 -0.2943
23296SOL    HW172088   1.918   5.343   0.614 -0.2804 -0.3306 -0.8708
23296SOL    HW272089   1.957   5.212   0.678 -0.5300  0.2219  0.4552
23297SOL     OW72090   1.196   7.333   2.801 -0.3755 -1.1525 -0.2099
23297SOL    HW172091   1.232   7.297   2.719 -2.3157 -2.1176 -0.7083
23297SOL    HW272092   1.111   7.369   2.775  0.6909  2.3975  0.6174
23298SOL     OW72093   1.701   5.981   8.094  0.0738 -0.2052 -0.0498
23298SOL    HW172094   1.621   5.985   8.041  0.9298 -0.2331 -1.3793
23298SOL    HW272095   1.670   5.957   8.182 -1.3780 -0.1728 -0.5293
23299SOL     OW72096   7.164   9.166   3.664  0.4439  0.0532 -0.3017
23299SOL    HW172097   7.135   9.105   3.596  2.1118  0.1063 -1.0930
23299SOL    HW272098   7.108   9.243   3.652  0.3147 -0.1742 -1.2218
23300SOL     OW72099   8.653   8.190   5.443 -0.5196 -0.3723  0.2576
23300SOL    HW172100   8.582   8.227   5.391  0.6255  0.7776 -0.5518
23300SOL    HW272101   8.684   8.116   5.392 -0.7557 -0.5279  0.3356
23301SOL     OW72102   1.733   7.035   6.170  0.0587  0.0799  0.0066
23301SOL    HW172103   1.697   7.122   6.147  0.9701  0.3902 -0.2889
23301SOL    HW272104   1.676   7.004   6.240 -0.0022  1.1299  0.4527
23302SOL     OW72105   2.161   5.439   3.301  0.4392 -0.2482 -0.0666
23302SOL    HW172106   2.248   5.409   3.274  0.3488 -0.2255 -0.3826
23302SOL    HW272107   2.133   5.375   3.366  0.8565 -0.0404  0.3253
23303SOL     OW72108   0.077   0.261   2.522 -0.2254  0.0042 -0.4750
23303SOL    HW172109   0.026   0.231   2.598  0.1857 -3.2626 -1.3298
23303SOL    HW272110   0.043   0.209   2.449  1.3886  0.9034 -1.9319
23304SOL     OW72111   8.404   7.300   0.688 -0.1359 -0.1234  0.4657
23304SOL    HW172112   8.454   7.221   0.667  1.9920  0.7571  1.8763
23304SOL    HW272113   8.313   7.275   0.675  0.6038 -1.8172 -2.2764
23305SOL     OW72114   3.807   9.234   6.187  0.1032 -0.0735 -0.1754
23305SOL    HW172115   3.723   9.279   6.193  0.2630  0.1504  0.5066
23305SOL    HW272116   3.843   9.239   6.276  2.1310  2.3855 -1.0077
23306SOL     OW72117   0.638   2.342   7.284  0.0997 -0.0848 -0.1048
23306SOL    HW172118   0.685   2.295   7.353 -1.1461 -2.0200 -0.4682
23306SOL    HW272119   0.574   2.278   7.253 -2.1223  2.1207 -0.2681
23307SOL     OW72120   4.580   3.813   3.673  0.5095 -0.0712  0.4334
23307SOL    HW172121   4.523   3.736   3.671  1.9646 -1.1828  0.2044
23307SOL    HW272122   4.567   3.850   3.761  0.7574 -1.3469  1.0268
23308SOL     OW72123   4.270   8.359   2.159  0.0292 -0.3673 -0.1199
23308SOL    HW172124   4.322   8.422   2.110 -1.1650  2.1080  1.5649
23308SOL    HW272125   4.318   8.346   2.241 -0.9405  0.3706  0.5961
23309SOL     OW72126   6.809   8.936   2.270 -0.3807  0.6990 -0.8745
23309SOL    HW172127   6.798   8.899   2.358 -0.6655  1.8853 -0.3880
23309SOL    HW272128   6.755   8.882   2.214  0.3455 -0.5064 -0.4416
23310SOL     OW72129   3.142   5.596   3.170 -0.1681 -0.1328  0.0576
23310SOL    HW172130   3.191   5.586   3.088  2.0112  0.8912  1.1510
23310SOL    HW272131   3.129   5.691   3.179  2.2454  0.1042  2.2398
23311SOL     OW72132   9.465   2.970   5.631  0.1933  0.2873  0.1619
23311SOL    HW172133   9.453   3.000   5.541 -0.9651 -0.4890  0.0315
23311SOL    HW272134   9.488   3.049   5.679 -1.0124  1.0684 -0.4917
23312SOL     OW72135   0.886   3.835   1.760  1.0085 -0.2562  0.7416
23312SOL    HW172136   0.791   3.834   1.771  1.0286 -0.4611  0.9002
23312SOL    HW272137   0.910   3.928   1.764  0.4858  0.0972 -2.1336
23313SOL     OW72138   7.790   9.025   5.617  0.2099 -0.3323  0.1387
23313SOL    HW172139   7.711   8.970   5.624  0.0195 -0.0152  0.5070
23313SOL    HW272140   7.784   9.085   5.691  0.1423  0.5537 -0.5670
23314SOL     OW72141   0.556   3.168   1.862  0.4105 -0.2115  0.5003
23314SOL    HW172142   0.583   3.212   1.942  1.1822 -0.7669  0.5603
23314SOL    HW272143   0.636   3.164   1.809 -0.3788  1.3680 -0.8899
23315SOL     OW72144   8.544   0.027   1.609 -0.1989 -0.0245 -0.3092
23315SOL    HW172145   8.449   0.027   1.602 -0.1955  1.0748 -0.6229
23315SOL    HW272146   8.563   0.078   1.688  0.1521  1.9259 -1.5754
23316SOL     OW72147   8.637   4.969   9.487  0.3169 -0.2920 -0.3643
23316SOL    HW172148   8.671   4.927   9.566 -2.0045  0.6482  1.2446
23316SOL    HW272149   8.623   4.897   9.425  0.7135 -1.2543  0.6387
23317SOL     OW72150   3.661   7.527   0.945  0.0853  0.7253 -0.0748
23317SOL    HW172151   3.688   7.543   0.854 -0.0388  1.4415  0.0104
23317SOL    HW272152   3.699   7.599   0.994  0.7718 -0.0525  0.5723
23318SOL     OW72153   5.118   6.006   7.542 -0.7080 -0.5599  0.0163
23318SOL    HW172154   5.140   6.060   7.466  1.0633 -0.6757  0.3811
23318SOL    HW272155   5.117   6.067   7.616  0.7870 -0.8862  0.3508
23319SOL     OW72156   4.443   0.211   8.328 -0.2634 -0.1739  0.1017
23319SOL    HW172157   4.483   0.233   8.412  0.2247 -1.2362  0.1649
23319SOL    HW272158   4.506   0.152   8.287 -1.2312 -0.9212 -0.3267
23320SOL     OW72159   0.172   6.289   7.050 -0.1492  0.7562  0.4541
23320SOL    HW172160   0.158   6.371   7.098  1.1619  0.4556  1.3870
23320SOL    HW272161   0.196   6.317   6.962 -0.5970  1.3571  0.5131
23321SOL     OW72162   4.107   2.062   1.106  0.2430 -0.3016 -0.0487
23321SOL    HW172163   4.103   2.010   1.026  2.3687 -0.5210 -0.0672
23321SOL    HW272164   4.058   2.011   1.170  1.1440 -1.7065 -0.4271
23322SOL     OW72165   2.036   2.813   3.156  0.6882  0.2151  0.3639
23322SOL    HW172166   2.019   2.895   3.202  0.1797  0.3280 -0.0174
23322SOL    HW272167   2.121   2.826   3.113  0.1470  0.9243 -0.5242
23323SOL     OW72168   1.291   2.982   1.211  0.4231  0.5117 -0.3253
23323SOL    HW172169   1.374   2.949   1.246 -1.1321 -2.4373  1.0059
23323SOL    HW272170   1.236   2.994   1.288 -0.5585  2.0243 -1.2128
23324SOL     OW72171   2.279   6.013   1.923  0.6657  0.4823  0.4915
23324SOL    HW172172   2.236   5.939   1.881 -0.7994  1.5250  0.0613
23324SOL    HW272173   2.219   6.038   1.993  0.3099  2.2404 -0.3888
23325SOL     OW72174   4.263   7.842   8.110  0.3032  0.9202 -0.2854
23325SOL    HW172175   4.269   7.844   8.015 -0.4739 -1.6978 -0.4538
23325SOL    HW272176   4.185   7.790   8.129 -0.5598  2.7935  1.8227
23326SOL     OW72177   0.032   2.023   3.182 -0.2075 -0.1493 -0.1663
23326SOL    HW172178   0.121   1.988   3.183  0.4686  1.4583 -0.6877
23326SOL    HW272179   0.015   2.041   3.090 -1.8144 -2.1662 -0.3112
23327SOL     OW72180   0.039   9.537   5.809 -0.3471  0.0008  0.6922
23327SOL    HW172181   0.018   9.518   5.900 -0.2926 -2.0831  0.3284
23327SOL    HW272182   0.055   9.451   5.770  0.7651  0.9236 -1.0129
23328SOL     OW72183   5.979   3.144   7.294 -0.1869  0.2932 -0.3468
23328SOL    HW172184   6.063   3.185   7.313 -0.1159  1.0675 -2.1418
23328SOL    HW272185   5.996   3.085   7.220 -0.8678 -0.9151  0.4188
23329SOL     OW72186   1.878   8.419   7.718 -0.0359  0.5865 -0.1151
23329SOL    HW172187   1.957   8.412   7.772  1.1949  1.3508 -1.7586
23329SOL    HW272188   1.817   8.357   7.758  2.1852 -1.8016 -0.1469
23330SOL     OW72189   5.641   2.226   4.024  0.3545 -0.2038  0.2305
23330SOL    HW172190   5.633   2.254   4.115 -0.5596 -1.2344  0.5032
23330SOL    HW272191   5.734   2.208   4.012  0.4280 -0.4707  1.1072
23331SOL     OW72192   8.562   7.585   0.647  0.4680 -0.4595  0.0097
23331SOL    HW172193   8.639   7.569   0.594  0.5703 -0.3952  0.1385
23331SOL    HW272194   8.518   7.501   0.652 -0.0950 -0.2405 -1.0412
23332SOL     OW72195   0.302   8.861   1.723  0.3478 -0.2489  0.0803
23332SOL    HW172196   0.339   8.943   1.690  2.2121 -1.6151 -1.4427
23332SOL    HW272197   0.267   8.818   1.645  1.0102 -1.6811  0.5555
23333SOL     OW72198   2.834   3.508   5.469  0.4763 -0.4292 -0.1497
23333SOL    HW172199   2.837   3.524   5.564  3.1322 -0.6900 -0.1138
23333SOL    HW272200   2.813   3.415   5.461 -2.9921  0.1938 -0.0189
23334SOL     OW72201   9.305   3.278   6.412 -0.3699 -0.5921  0.5636
23334SOL    HW172202   9.319   3.238   6.326  0.2701 -0.4373  0.5936
23334SOL    HW272203   9.390   3.273   6.455 -0.3135  0.7000  0.6193
23335SOL     OW72204   4.070   2.163   9.238  0.0404 -0.3130 -0.3392
23335SOL    HW172205   4.047   2.252   9.213 -1.2356 -0.1026  1.3809
23335SOL    HW272206   4.159   2.151   9.206  1.7423  2.9083  2.5204
23336SOL     OW72207   8.445   8.277   8.081  0.4619  0.0540  0.1159
23336SOL    HW172208   8.531   8.244   8.058  0.6095  1.3162 -1.3080
23336SOL    HW272209   8.460   8.335   8.156  1.0031  0.8547 -0.5892
23337SOL     OW72210   1.127   9.161   8.153  0.2045  0.0052  0.4740
23337SOL    HW172211   1.093   9.093   8.211  0.0155 -0.3893 -0.0895
23337SOL    HW272212   1.220   9.139   8.144 -0.0921 -0.8498 -0.6075
23338SOL     OW72213   8.546   5.408   2.635  0.3772  0.1923  0.0053
23338SOL    HW172214   8.535   5.356   2.555 -0.8581  1.8567 -0.9680
23338SOL    HW272215   8.477   5.376   2.694 -0.8496  1.1522 -0.8577
23339SOL     OW72216   5.650   0.787   0.429  0.4406  0.4090 -0.1329
23339SOL    HW172217   5.609   0.709   0.392  0.8345  0.2629 -0.2639
23339SOL    HW272218   5.576   0.839   0.462  0.1957 -0.2260  0.3656
23340SOL     OW72219   9.483   0.980   9.413 -0.3835 -0.2341  0.4257
23340SOL    HW172220   9.394   0.974   9.449 -0.1728 -0.8281  0.8648
23340SOL    HW272221   9.497   1.073   9.400 -0.4223  0.0284  2.0277
23341SOL     OW72222   4.150   3.395   1.173  0.2794 -0.5901 -0.4782
23341SOL    HW172223   4.063   3.379   1.211  0.1686 -1.2663 -0.9874
23341SOL    HW272224   4.205   3.418   1.247 -0.1569 -0.9427 -0.0374
23342SOL     OW72225   9.283   9.046   6.632 -0.6613 -0.1155 -0.9600
23342SOL    HW172226   9.300   9.135   6.662 -0.9601  0.3496 -2.1114
23342SOL    HW272227   9.348   9.032   6.562 -0.4703 -0.8865 -0.6421
23343SOL     OW72228   7.736   8.571   2.763 -0.2144  0.1625 -0.6264
23343SOL    HW172229   7.674   8.499   2.773 -0.0652  0.1867  0.6157
23343SOL    HW272230   7.774   8.583   2.850  0.6887  0.9136 -1.0982
23344SOL     OW72231   1.353   3.353   8.413  0.3339 -0.1957  0.1173
23344SOL    HW172232   1.360   3.277   8.470  2.1967  0.0540  0.3111
23344SOL    HW272233   1.356   3.428   8.473 -2.7547  0.1095  0.0421
23345SOL     OW72234   2.562   5.725   4.160  0.5221 -0.4181  0.1230
23345SOL    HW172235   2.587   5.764   4.077 -0.5616 -2.1510 -1.0857
23345SOL    HW272236   2.637   5.741   4.218  1.3779  0.6487 -1.2277
23346SOL     OW72237   1.333   7.650   6.907  0.6367  0.0438 -0.0380
23346SOL    HW172238   1.424   7.678   6.912  0.4753  0.4181  1.2497
23346SOL    HW272239   1.283   7.728   6.933  0.1283 -1.0873  2.7034
23347SOL     OW72240   7.892   4.499   1.037 -0.0333 -0.2740  0.1631
23347SOL    HW172241   7.811   4.546   1.055 -0.0929 -0.2204 -0.2308
23347SOL    HW272242   7.874   4.452   0.956 -0.4689 -2.0924  1.2417
23348SOL     OW72243   5.419   5.105   3.026 -0.3635 -0.3247  0.3572
23348SOL    HW172244   5.401   5.191   3.065 -1.3030 -0.5425  0.4307
23348SOL    HW272245   5.359   5.045   3.071  0.3942 -1.0469  0.4093
23349SOL     OW72246   3.645   8.190   7.953 -0.4357  0.1394 -0.1319
23349SOL    HW172247   3.644   8.280   7.920  0.8263  0.2816  0.1489
23349SOL    HW272248   3.664   8.137   7.875 -0.2987  0.2003 -0.1405
23350SOL     OW72249   1.810   0.220   0.362 -0.0632  0.7908 -0.3829
23350SOL    HW172250   1.837   0.239   0.272 -1.0669 -0.0620 -0.8881
23350SOL    HW272251   1.891   0.217   0.412  0.7957 -1.4798 -1.7991
23351SOL     OW72252   7.083   8.802   5.109 -0.1099  0.5021  0.5315
23351SOL    HW172253   7.119   8.891   5.104 -1.6320  1.1051 -0.5449
23351SOL    HW272254   7.147   8.753   5.160  2.9602  1.1117 -2.4069
23352SOL     OW72255   2.479   8.141   4.627 -0.6581 -0.4413  0.2443
23352SOL    HW172256   2.478   8.053   4.663 -1.4549 -0.4958  0.1182
23352SOL    HW272257   2.434   8.194   4.693 -0.9688 -0.3011 -0.0776
23353SOL     OW72258   0.084   7.372   3.183  0.5171 -0.0785 -0.4879
23353SOL    HW172259   0.024   7.442   3.155 -1.5218 -0.8744  1.6040
23353SOL    HW272260   0.102   7.323   3.103 -1.5035  0.3239 -1.2499
23354SOL     OW72261   3.457   0.584   6.314 -0.5365  0.4832 -0.0160
23354SOL    HW172262   3.542   0.620   6.340  0.5292 -0.6956 -1.6781
23354SOL    HW272263   3.445   0.614   6.224 -0.9436 -0.9502 -0.4657
23355SOL     OW72264   7.064   5.541   1.272  0.4551  0.0467  0.2166
23355SOL    HW172265   7.058   5.635   1.256 -0.0000 -0.3122 -1.9562
23355SOL    HW272266   7.143   5.514   1.226  0.4894 -0.6725  0.6857
23356SOL     OW72267   1.455   1.693   8.533  0.2787 -0.2164 -0.5130
23356SOL    HW172268   1.498   1.757   8.475 -0.9711  0.2928 -0.9124
23356SOL    HW272269   1.446   1.738   8.616  1.7135 -0.8101  0.0055
23357SOL     OW72270   2.028   6.893   1.071 -0.5464 -0.4806 -0.3463
23357SOL    HW172271   2.063   6.804   1.074 -0.1330 -0.3157 -0.2032
23357SOL    HW272272   2.094   6.943   1.023 -0.6328 -0.1894 -0.1645
23358SOL     OW72273   6.443   5.070   0.010  0.7121  0.2239  0.2013
23358SOL    HW172274   6.364   5.111   0.045  0.6038 -1.2825  1.8795
23358SOL    HW272275   6.479   5.021   0.084  2.3959 -0.3570 -0.9420
23359SOL     OW72276   1.638   1.460   3.406 -0.1251 -0.3886 -0.6819
23359SOL    HW172277   1.561   1.407   3.387  0.3735 -0.7620 -1.7157
23359SOL    HW272278   1.661   1.437   3.497 -1.5045  0.1084 -0.1923
23360SOL     OW72279   2.449   4.068   7.998  0.0558  0.3053 -0.1376
23360SOL    HW172280   2.520   4.055   7.935  0.1223 -0.4409  0.0788
23360SOL    HW272281   2.370   4.045   7.950 -0.0044  0.8030 -0.2764
23361SOL     OW72282   5.516   2.996   1.006 -0.2589  0.6825  0.0527
23361SOL    HW172283   5.531   2.987   1.100  2.5736 -1.3504 -0.4482
23361SOL    HW272284   5.586   3.054   0.976  0.2174 -0.4258 -1.0625
23362SOL     OW72285   7.143   3.222   4.570 -0.0857  0.2845  0.4440
23362SOL    HW172286   7.220   3.246   4.622 -0.8029  0.4567  1.4549
23362SOL    HW272287   7.080   3.292   4.587  0.2508  1.3024 -2.0467
23363SOL     OW72288   2.075   9.135   7.974 -0.1085 -0.0990  0.7485
23363SOL    HW172289   2.014   9.177   7.913  2.3565  0.2835 -1.6859
23363SOL    HW272290   2.141   9.095   7.918  3.3803  1.8178  3.0966
23364SOL     OW72291   2.148   2.603   0.874 -0.0287  0.0075  0.0198
23364SOL    HW172292   2.241   2.613   0.854 -0.0119 -0.3053 -0.0696
23364SOL    HW272293   2.139   2.633   0.965  0.2699 -0.5484  0.2347
23365SOL     OW72294   1.603   0.006   0.301  0.0815 -0.5004 -0.2367
23365SOL    HW172295   1.574  -0.045   0.376  1.4932  1.0257  1.4456
23365SOL    HW272296   1.653   0.078   0.339 -1.8615  2.2276 -2.4362
23366SOL     OW72297   4.107   4.172   8.901 -0.0156  0.7848  0.3420
23366SOL    HW172298   4.166   4.221   8.843  1.3464 -0.2392  0.8107
23366SOL    HW272299   4.029   4.157   8.848  0.5285  1.3268 -0.6503
23367SOL     OW72300   4.190   3.390   8.811  0.0824  0.2940 -0.3049
23367SOL    HW172301   4.192   3.482   8.839 -1.3509  0.9855 -2.2198
23367SOL    HW272302   4.097   3.370   8.801  0.3393 -1.6064  0.7098
23368SOL     OW72303   7.851   5.805   5.147  0.0065 -0.3359  0.6026
23368SOL    HW172304   7.946   5.791   5.157  0.2538  0.3776 -0.5223
23368SOL    HW272305   7.843   5.848   5.062 -1.5119 -2.2267 -0.2847
23369SOL     OW72306   0.208   1.351   1.670 -0.2421  0.2358 -0.1380
23369SOL    HW172307   0.137   1.358   1.605 -0.1904  1.1807 -0.1025
23369SOL    HW272308   0.257   1.274   1.643 -0.0384  0.7877 -1.4213
23370SOL     OW72309   5.402   7.268   7.257 -0.1423 -0.6451  0.0095
23370SOL    HW172310   5.342   7.233   7.322 -1.8577 -0.4392 -1.3972
23370SOL    HW272311   5.489   7.256   7.296 -0.9522 -2.4522  1.4112
23371SOL     OW72312   5.397   6.700   8.878  0.3628  0.5885  0.3652
23371SOL    HW172313   5.347   6.625   8.846  1.7365 -0.3427  0.3542
23371SOL    HW272314   5.358   6.720   8.963  0.1908 -0.3378  0.5067
23372SOL     OW72315   7.769   0.170   6.180  0.4739 -0.2127 -0.7086
23372SOL    HW172316   7.728   0.104   6.125  0.7364 -0.3809 -0.7073
23372SOL    HW272317   7.743   0.254   6.142 -0.6355 -0.2888 -0.1560
23373SOL     OW72318   4.901   6.076   4.154 -0.6134 -0.0361  0.1420
23373SOL    HW172319   4.937   6.047   4.238  0.8083  2.0542  0.3151
23373SOL    HW272320   4.869   6.164   4.171 -1.5070 -0.0692 -1.2215
23374SOL     OW72321   4.040   8.693   2.771  0.3422  0.0375 -0.3572
23374SOL    HW172322   3.966   8.739   2.809  0.2983  1.2928 -1.8427
23374SOL    HW272323   4.007   8.605   2.752 -0.2014  0.0172  0.6519
23375SOL     OW72324   4.330   3.747   6.255 -0.1055  0.3314  0.4328
23375SOL    HW172325   4.290   3.787   6.332 -1.6320 -0.7458  0.2518
23375SOL    HW272326   4.262   3.749   6.188  1.2307  1.3672 -0.9751
23376SOL     OW72327   3.401   2.896   0.159 -0.3688  0.3720 -0.0068
23376SOL    HW172328   3.322   2.869   0.205 -0.5658  3.1595  1.5127
23376SOL    HW272329   3.379   2.887   0.066 -0.9917 -2.6190  0.3231
23377SOL     OW72330   0.804   4.895   3.343  0.0945  0.4117  0.4175
23377SOL    HW172331   0.784   4.870   3.433 -0.9957  0.0480  0.0962
23377SOL    HW272332   0.731   4.860   3.292  0.9038  0.2448 -0.6666
23378SOL     OW72333   8.751   7.805   0.891 -0.0101  0.3306  0.0166
23378SOL    HW172334   8.669   7.789   0.844 -0.3075  2.0753 -0.1215
23378SOL    HW272335   8.764   7.899   0.885  2.4465  0.0255 -0.6660
23379SOL     OW72336   7.233   1.578   3.132 -0.5041  0.5177 -0.1661
23379SOL    HW172337   7.231   1.637   3.057  0.2461 -0.6326 -1.1406
23379SOL    HW272338   7.302   1.614   3.189  0.2351  0.3854 -0.9483
23380SOL     OW72339   5.303   9.228   4.183 -0.5284  0.5464 -0.2670
23380SOL    HW172340   5.259   9.157   4.230 -0.0202  1.8291  2.2612
23380SOL    HW272341   5.241   9.300   4.184 -0.2517  0.8080 -1.0620
23381SOL     OW72342   4.132   0.341   4.264  0.4422 -0.0346  0.0260
23381SOL    HW172343   4.061   0.339   4.329  0.5242 -0.5974  0.1031
23381SOL    HW272344   4.098   0.398   4.194  0.0220 -0.0840  0.1845
23382SOL     OW72345   8.843   3.313   3.232 -0.0169  0.8988  0.5881
23382SOL    HW172346   8.782   3.286   3.163 -0.6169  0.8066  1.1558
23382SOL    HW272347   8.920   3.257   3.218 -1.8283 -2.4747  2.7603
23383SOL     OW72348   3.611   2.210   3.645 -0.3644  0.0096  0.2542
23383SOL    HW172349   3.694   2.167   3.666 -0.5021  0.5772  2.0996
23383SOL    HW272350   3.631   2.266   3.570  0.4267 -1.3206 -0.5688
23384SOL     OW72351   9.074   7.699   9.568  0.0872 -0.1306  0.3364
23384SOL    HW172352   9.071   7.715   9.663  0.5811  0.4064  0.2702
23384SOL    HW272353   9.166   7.709   9.545  0.0938 -1.0498 -0.0805
23385SOL     OW72354   2.586   3.601   8.193  0.5421 -0.6752 -0.2537
23385SOL    HW172355   2.578   3.507   8.172  2.2820 -0.7102 -0.8989
23385SOL    HW272356   2.560   3.607   8.285 -1.6941 -1.4217 -0.7640
23386SOL     OW72357   1.737   5.415   6.844  0.3991 -0.1152 -0.3044
23386SOL    HW172358   1.713   5.347   6.781  3.8287  0.8146 -2.9147
23386SOL    HW272359   1.794   5.370   6.906  1.6608  0.0395 -1.3082
23387SOL     OW72360   6.810   6.100   3.944 -0.4910  0.4922  0.0386
23387SOL    HW172361   6.745   6.112   4.014 -0.0912  1.2645  0.2928
23387SOL    HW272362   6.827   6.189   3.913  1.4359  0.4524  0.8838
23388SOL     OW72363   5.478   5.824   8.924 -0.1428 -0.1162 -0.3775
23388SOL    HW172364   5.390   5.787   8.917 -0.5466  0.8786 -0.7610
23388SOL    HW272365   5.497   5.857   8.836  0.9952 -1.1402 -0.5298
23389SOL     OW72366   6.103   0.037   0.642  0.3150 -0.0730  0.0476
23389SOL    HW172367   6.083  -0.056   0.658  1.8406 -0.7156 -1.5234
23389SOL    HW272368   6.017   0.076   0.624 -0.6267 -0.6817  2.6367
23390SOL     OW72369   9.164   6.380   8.605  0.3695 -0.0409  0.0381
23390SOL    HW172370   9.209   6.408   8.526 -0.0394  1.2226  0.2470
23390SOL    HW272371   9.075   6.414   8.597 -0.0573 -1.0099  0.4486
23391SOL     OW72372   1.675   8.571   9.232  0.0714  0.0128  0.8138
23391SOL    HW172373   1.625   8.651   9.216 -1.1312 -1.1792 -2.0601
23391SOL    HW272374   1.766   8.595   9.214 -0.4880  0.3844 -1.8578
23392SOL     OW72375   6.787   5.833   7.254  0.3595 -0.3502  0.3439
23392SOL    HW172376   6.865   5.833   7.309 -0.5629 -1.5610  1.7094
23392SOL    HW272377   6.748   5.920   7.267  1.1356  0.0320  0.1384
23393SOL     OW72378   9.175   3.994   5.994  0.1033 -0.7496 -0.5001
23393SOL    HW172379   9.250   3.944   6.025 -0.0359 -1.4888 -1.2904
23393SOL    HW272380   9.174   4.073   6.048  0.5573 -1.4221  0.5388
23394SOL     OW72381   5.663   1.897   6.551 -0.1043 -0.0134  0.2519
23394SOL    HW172382   5.637   1.951   6.476  0.1971 -1.4435 -0.9258
23394SOL    HW272383   5.752   1.868   6.530 -0.1754 -0.7865  0.9649
23395SOL     OW72384   4.431   1.244   9.419 -0.6388 -0.2878 -0.1122
23395SOL    HW172385   4.441   1.149   9.427 -2.4378 -0.5669 -0.7002
23395SOL    HW272386   4.477   1.266   9.338 -1.9898 -1.0301 -1.1282
23396SOL     OW72387   7.232   4.697   1.535 -0.3244  0.5322  0.0100
23396SOL    HW172388   7.322   4.696   1.501 -0.6922 -1.0065 -1.0510
23396SOL    HW272389   7.187   4.761   1.480 -0.4516 -0.5602 -1.2222
23397SOL     OW72390   8.134   1.151   1.505 -0.3989  0.4720  0.0011
23397SOL    HW172391   8.221   1.191   1.505 -1.3531  3.0464  3.5057
23397SOL    HW272392   8.112   1.141   1.412  3.6911 -0.7085 -1.0483
23398SOL     OW72393   0.101   2.780   7.266  0.1012  0.0335  0.0143
23398SOL    HW172394   0.157   2.839   7.217  0.6725 -0.5318 -0.0223
23398SOL    HW272395   0.020   2.776   7.215 -0.8679  2.5611  1.1801
23399SOL     OW72396   0.597   3.076   2.217 -0.1805  0.5859 -0.3193
23399SOL    HW172397   0.510   3.087   2.256 -0.5028 -0.2974 -0.7693
23399SOL    HW272398   0.591   2.995   2.167  0.7015  0.8761 -0.9188
23400SOL     OW72399   8.309   0.819   5.564 -0.6573 -0.1422  0.3933
23400SOL    HW172400   8.217   0.794   5.553 -0.9423  0.5990  0.9970
23400SOL    HW272401   8.310   0.871   5.644  0.0776  0.9645 -0.3075
23401SOL     OW72402   3.983   7.728   6.910  0.6784  0.2774  0.8071
23401SOL    HW172403   3.911   7.791   6.912  0.3997 -0.0368  2.3540
23401SOL    HW272404   4.059   7.778   6.943  0.5558 -0.0524  1.6186
23402SOL     OW72405   9.301   2.332   2.667 -0.0118 -0.3959  0.2997
23402SOL    HW172406   9.337   2.309   2.752  2.5727 -0.6677 -0.7799
23402SOL    HW272407   9.367   2.303   2.604 -1.8131 -0.1798 -1.8140
23403SOL     OW72408   3.361   9.076   2.309  0.9246 -0.5860 -0.3936
23403SOL    HW172409   3.431   9.125   2.351 -0.0014  0.6034 -0.2073
23403SOL    HW272410   3.349   9.119   2.224  1.3605 -1.6626 -1.0225
23404SOL     OW72411   7.779   8.660   2.172 -0.0281 -0.0680  0.1930
23404SOL    HW172412   7.744   8.666   2.261 -0.2643  0.6250  0.0537
23404SOL    HW272413   7.874   8.656   2.184 -0.0721 -0.2756  0.4863
23405SOL     OW72414   0.699   5.641   2.036  0.3213 -0.3890 -0.1335
23405SOL    HW172415   0.742   5.575   1.981  0.2689 -0.1606 -0.4536
23405SOL    HW272416   0.772   5.690   2.075  0.3584 -0.3532 -0.2450
23406SOL     OW72417   0.019   5.149   6.110  0.2362 -0.7034  0.1875
23406SOL    HW172418   0.017   5.067   6.059  1.4214 -1.4316  1.2684
23406SOL    HW272419   0.111   5.162   6.131  0.1191  1.1764 -0.3288
23407SOL     OW72420   7.111   3.649   6.237 -0.1776 -0.1840  0.2487
23407SOL    HW172421   7.061   3.572   6.208  0.2893 -0.8816  1.2356
23407SOL    HW272422   7.192   3.646   6.186 -0.1218 -0.3990  0.3496
23408SOL     OW72423   2.265   5.502   9.065 -0.2793 -0.1871 -0.2512
23408SOL    HW172424   2.222   5.467   8.988 -0.1963 -0.1811 -0.3008
23408SOL    HW272425   2.259   5.597   9.056  0.2539 -0.1751 -0.5528
23409SOL     OW72426   5.634   5.164   3.954 -0.4158  0.4416 -0.3323
23409SOL    HW172427   5.578   5.088   3.971  0.1206  0.1421  0.1349
23409SOL    HW272428   5.582   5.220   3.896 -0.7268 -0.3831 -0.8642
23410SOL     OW72429   2.636   2.361   1.088 -0.2132  0.4115 -0.3920
23410SOL    HW172430   2.547   2.388   1.113  0.4386  1.4976  0.8963
23410SOL    HW272431   2.665   2.306   1.161  0.3322  0.4355 -0.5907
23411SOL     OW72432   5.363   2.687   0.441 -0.3279 -0.2163 -0.1689
23411SOL    HW172433   5.280   2.727   0.413 -0.2747 -0.1581 -0.2450
23411SOL    HW272434   5.360   2.690   0.536 -0.7712 -0.9531 -0.1488
23412SOL     OW72435   5.490   4.457   5.682 -0.4609 -0.0264 -0.4714
23412SOL    HW172436   5.547   4.533   5.683  1.2285 -1.2459  0.6133
23412SOL    HW272437   5.484   4.432   5.590  1.4146 -0.3173 -0.5467
23413SOL     OW72438   0.667   1.382   6.077 -0.2766  0.3462 -0.3447
23413SOL    HW172439   0.752   1.377   6.121 -1.5133  1.6815  2.4792
23413SOL    HW272440   0.610   1.324   6.128 -1.5057  0.9091 -1.0346
23414SOL     OW72441   9.384   1.114   7.173  0.2223  0.1384  0.2236
23414SOL    HW172442   9.314   1.078   7.227  2.2919 -0.0667  3.0008
23414SOL    HW272443   9.425   1.037   7.134 -0.7030  0.2182 -0.9467
23415SOL     OW72444   5.457   6.922   6.076  0.2204 -0.4223 -0.0215
23415SOL    HW172445   5.447   6.830   6.054  0.6203 -0.4894  0.0729
23415SOL    HW272446   5.544   6.945   6.044 -0.3288  0.2247 -1.0945
23416SOL     OW72447   1.892   2.143   3.051  0.1738 -0.9916 -0.8121
23416SOL    HW172448   1.818   2.089   3.024 -1.3634  0.5725  0.0856
23416SOL    HW272449   1.875   2.229   3.012  0.8048 -0.2330  0.5234
23417SOL     OW72450   2.336   2.765   0.028  0.8970 -0.8724  0.2867
23417SOL    HW172451   2.269   2.748  -0.038 -0.6767 -1.3431  1.9241
23417SOL    HW272452   2.345   2.860   0.030  0.8393 -0.8493 -0.4731
23418SOL     OW72453   8.984   5.264   3.483 -0.5312 -0.0809 -0.4250
23418SOL    HW172454   9.008   5.195   3.545  0.3356  0.8539  0.3194
23418SOL    HW272455   8.972   5.342   3.537 -0.6797  0.5520 -1.3374
23419SOL     OW72456   1.583   0.827   5.921  0.2499  0.4973 -0.3673
23419SOL    HW172457   1.603   0.821   5.828 -0.9975 -1.3946 -0.5533
23419SOL    HW272458   1.553   0.917   5.934  1.5603  1.1311 -1.5227
23420SOL     OW72459   2.198   6.992   0.703 -0.4405 -0.2739  0.0610
23420SOL    HW172460   2.105   6.976   0.686 -0.5451  0.0309  0.3357
23420SOL    HW272461   2.213   6.955   0.790 -0.6015  0.7649  0.5503
23421SOL     OW72462   5.603   0.472   2.965 -0.0367 -0.6858 -0.8048
23421SOL    HW172463   5.660   0.394   2.972  0.0366 -0.5501  0.3098
23421SOL    HW272464   5.597   0.505   3.055 -0.1106  0.5754 -1.2569
23422SOL     OW72465   6.816   8.350   7.142 -0.2558  0.5370 -0.2107
23422SOL    HW172466   6.892   8.299   7.169  0.2014  0.4804 -1.5124
23422SOL    HW272467   6.845   8.441   7.150 -0.2281  0.5262 -0.1871
23423SOL     OW72468   6.106   4.439   1.976  0.2321 -0.1820  0.1433
23423SOL    HW172469   6.119   4.533   1.964  0.3446 -0.4039 -1.8701
23423SOL    HW272470   6.044   4.414   1.907 -0.2195 -1.4957  0.9829
23424SOL     OW72471   7.113   0.875   6.156  0.2015 -0.6077  0.9041
23424SOL    HW172472   7.208   0.882   6.145  0.1228 -0.5642  0.1577
23424SOL    HW272473   7.102   0.810   6.225  0.7770 -0.7601  0.8626
23425SOL     OW72474   2.977   0.941   4.675  0.2668  0.6322  0.7430
23425SOL    HW172475   2.890   0.973   4.700 -0.1152  0.7574 -0.6540
23425SOL    HW272476   3.037   0.989   4.732 -0.5709  0.4742  1.7951
23426SOL     OW72477   5.072   3.543   9.480 -0.0343 -0.1106  0.1138
23426SOL    HW172478   5.024   3.492   9.415 -2.3627  3.2781 -1.0929
23426SOL    HW272479   5.132   3.598   9.429  1.2971 -0.4747  1.2293
23427SOL     OW72480   6.890   0.395   6.587  0.1470 -0.8002 -0.5668
23427SOL    HW172481   6.922   0.471   6.538 -0.3131  0.3124  0.7830
23427SOL    HW272482   6.900   0.321   6.527  1.3340  0.1960 -1.6467
23428SOL     OW72483   3.819   6.951   3.232 -0.4426  0.0785  0.3832
23428SOL    HW172484   3.817   7.035   3.186  2.3271 -0.4419 -0.9103
23428SOL    HW272485   3.814   6.886   3.162 -0.0287 -0.8097  1.1570
23429SOL     OW72486   3.361   1.366   5.794 -0.5286  0.1866 -0.1777
23429SOL    HW172487   3.386   1.458   5.781 -1.7347  0.5721  0.1623
23429SOL    HW272488   3.291   1.368   5.859  0.1845 -1.0849  0.6899
23430SOL     OW72489   0.327   5.839   2.209 -0.1913  0.8052  0.7632
23430SOL    HW172490   0.379   5.804   2.281  0.6306 -0.3586 -0.3398
23430SOL    HW272491   0.367   5.923   2.187 -0.8780  1.5000  2.0865
23431SOL     OW72492   4.474   3.250   2.746 -0.4065  0.3849 -0.4930
23431SOL    HW172493   4.558   3.235   2.702  0.0221  0.4649  0.2828
23431SOL    HW272494   4.498   3.275   2.835 -1.2759 -1.2571  0.2382
23432SOL     OW72495   6.884   1.719   4.962 -0.5868  0.4128 -0.6768
23432SOL    HW172496   6.879   1.701   4.868 -2.7159  0.9875 -0.7315
23432SOL    HW272497   6.835   1.648   5.003 -1.3413  1.1982 -0.1807
23433SOL     OW72498   6.686   1.254   2.211 -0.2544 -0.8007  0.1381
23433SOL    HW172499   6.730   1.275   2.128 -0.0345 -0.5529  0.3138
23433SOL    HW272500   6.757   1.225   2.268 -0.5042 -1.6506  0.0242
23434SOL     OW72501   5.511   5.300   1.890  0.4180 -0.4988  0.6986
23434SOL    HW172502   5.589   5.246   1.875  0.2329 -0.8995  1.1372
23434SOL    HW272503   5.440   5.251   1.848  0.3140 -0.4049  0.7643
23435SOL     OW72504   6.914   6.622   6.915  0.8625  0.1894 -0.3909
23435SOL    HW172505   6.935   6.694   6.975  0.8062 -0.4307  0.4010
23435SOL    HW272506   6.983   6.623   6.850  0.9297  0.8822 -0.3096
23436SOL     OW72507   4.141   7.161   7.366  0.2581  0.8275 -0.4254
23436SOL    HW172508   4.117   7.213   7.289  2.4611  0.7539 -1.2471
23436SOL    HW272509   4.154   7.226   7.435  2.5129  1.4396 -1.3175
23437SOL     OW72510   2.844   4.166   0.596  0.0889 -0.3295 -0.8476
23437SOL    HW172511   2.805   4.205   0.674 -1.3707 -0.4946 -1.4456
23437SOL    HW272512   2.808   4.217   0.523 -0.5201 -1.6789 -1.5343
23438SOL     OW72513   9.099   5.790   5.871 -0.0377 -0.2262 -0.3613
23438SOL    HW172514   9.128   5.736   5.797 -1.7781 -0.5209 -0.8773
23438SOL    HW272515   9.056   5.728   5.930 -0.6443  0.3421 -0.1952
23439SOL     OW72516   3.983   8.199   4.086 -0.4135 -0.2074  0.3389
23439SOL    HW172517   4.060   8.256   4.092 -0.2480 -0.5807  2.7888
23439SOL    HW272518   4.019   8.111   4.074 -0.6073 -0.0826 -1.4340
23440SOL     OW72519   3.287   4.959   5.479  0.3738  0.2913 -0.7798
23440SOL    HW172520   3.244   5.000   5.553 -1.4339  0.0299 -1.6384
23440SOL    HW272521   3.375   4.998   5.477 -0.3474  2.0325  0.0711
23441SOL     OW72522   6.362   7.539   7.322 -0.6436  0.1474 -0.2368
23441SOL    HW172523   6.286   7.487   7.348 -1.1859  0.0247 -1.9743
23441SOL    HW272524   6.399   7.493   7.247  0.3316  0.9419 -0.2673
23442SOL     OW72525   7.763   2.340   1.953  0.7882 -0.1357 -0.0657
23442SOL    HW172526   7.694   2.373   2.010  1.5486  0.3868  0.5838
23442SOL    HW272527   7.739   2.371   1.865  1.4984  2.2963  0.5209
23443SOL     OW72528   6.628   3.460   9.546  0.1696 -0.1308 -0.0974
23443SOL    HW172529   6.623   3.381   9.493  0.3248  0.5595 -1.1893
23443SOL    HW272530   6.551   3.457   9.602 -1.3447  0.2566 -2.0369
23444SOL     OW72531   6.189   3.287   9.310  0.2502  0.1219 -0.2958
23444SOL    HW172532   6.188   3.248   9.398 -0.0328  0.7409 -0.0217
23444SOL    HW272533   6.225   3.374   9.323 -1.8983  1.0970 -0.4001
23445SOL     OW72534   0.954   1.607   2.962 -0.6768 -0.0066  0.1903
23445SOL    HW172535   0.896   1.676   2.927 -0.0120  0.4653  0.0019
23445SOL    HW272536   0.981   1.557   2.885 -0.4760  0.0551  0.2195
23446SOL     OW72537   2.212   1.157   3.474  0.4344  0.2659  0.4393
23446SOL    HW172538   2.134   1.212   3.467  0.5565  0.4157  0.2647
23446SOL    HW272539   2.282   1.208   3.433  0.4504 -0.1993 -0.1237
23447SOL     OW72540   0.217   8.903   8.647  0.4394  0.2091 -0.0023
23447SOL    HW172541   0.138   8.863   8.685  0.4269  0.2684  0.0320
23447SOL    HW272542   0.279   8.906   8.720  0.8037 -0.7122 -0.2544
23448SOL     OW72543   2.815   3.842   0.607  0.2694  0.0696 -0.0990
23448SOL    HW172544   2.803   3.936   0.592  0.4701 -0.1786 -1.9838
23448SOL    HW272545   2.741   3.801   0.562  0.8659 -0.7381 -0.3610
23449SOL     OW72546   0.312   8.256   8.984  0.3420  0.1113  0.7466
23449SOL    HW172547   0.367   8.318   9.032 -1.3293  1.7461  0.6661
23449SOL    HW272548   0.248   8.227   9.049 -0.6563  0.7310  0.0695
23450SOL     OW72549   3.164   8.465   7.842 -0.3435 -0.4979  0.0980
23450SOL    HW172550   3.135   8.461   7.750 -2.2139 -0.3260  0.6360
23450SOL    HW272551   3.162   8.374   7.872 -0.9890 -0.4191  0.3117
23451SOL     OW72552   1.033   5.829   8.270  0.8831 -0.2924  0.0478
23451SOL    HW172553   0.938   5.831   8.270  0.8175  0.2419  2.3649
23451SOL    HW272554   1.056   5.737   8.255 -0.1940 -1.1762  2.9943
23452SOL     OW72555   6.316   3.781   4.738 -0.1180  0.3404  0.6806
23452SOL    HW172556   6.361   3.697   4.745  0.4458  0.7364  2.1815
23452SOL    HW272557   6.337   3.813   4.650 -1.1252 -1.4950 -0.2938
23453SOL     OW72558   7.423   5.046   5.165  0.2392  0.4824 -0.1358
23453SOL    HW172559   7.497   5.106   5.155 -0.9110  2.0087  0.0854
23453SOL    HW272560   7.454   4.963   5.129  1.8916  1.1981 -0.4606
23454SOL     OW72561   3.460   8.460   8.668  0.2379 -0.0029  0.2219
23454SOL    HW172562   3.482   8.408   8.745  2.1060 -1.0569 -0.9295
23454SOL    HW272563   3.533   8.521   8.659  1.5807 -1.7997 -2.2443
23455SOL     OW72564   8.813   4.898   4.081  0.2724 -0.3287  0.0323
23455SOL    HW172565   8.865   4.928   4.156 -1.2305 -1.2541  1.5092
23455SOL    HW272566   8.852   4.815   4.056  0.3601 -0.3458  0.2249
23456SOL     OW72567   2.547   7.094   8.738 -0.3331 -0.0244  0.3333
23456SOL    HW172568   2.536   7.187   8.757  1.6443  0.2663  0.2993
23456SOL    HW272569   2.558   7.053   8.824 -2.0000 -0.3904  0.4064
23457SOL     OW72570   2.837   7.404   0.423 -0.3726 -0.0403 -0.3412
23457SOL    HW172571   2.886   7.333   0.464 -1.0263 -1.6685 -2.1820
23457SOL    HW272572   2.746   7.387   0.448 -0.5653 -0.0660 -1.0316
23458SOL     OW72573   7.099   7.482   2.242  0.1413  0.9259  0.0490
23458SOL    HW172574   7.062   7.507   2.158  0.3256 -0.4818 -0.4610
23458SOL    HW272575   7.041   7.523   2.307 -0.8889  0.7591 -0.7514
23459SOL     OW72576   1.942   1.295   8.939 -0.0770 -0.2706 -0.3012
23459SOL    HW172577   1.909   1.236   9.007 -0.7246 -0.7783 -1.0360
23459SOL    HW272578   2.037   1.282   8.940 -0.0478 -0.0788  0.6650
23460SOL     OW72579   9.308   4.292   7.041  0.4121 -0.9733 -0.3811
23460SOL    HW172580   9.214   4.293   7.027  0.6630 -1.4043 -2.4518
23460SOL    HW272581   9.344   4.340   6.967  1.8198 -0.4417  0.6029
23461SOL     OW72582   2.228   9.434   2.429 -0.2030  0.3865  0.2356
23461SOL    HW172583   2.273   9.469   2.506 -0.2906  0.5056  0.2330
23461SOL    HW272584   2.190   9.511   2.387  1.7052  0.6444 -1.1492
23462SOL     OW72585   2.776   0.438   3.580 -0.8597 -0.5359  0.3837
23462SOL    HW172586   2.851   0.413   3.526 -0.5680  1.2018 -0.0778
23462SOL    HW272587   2.786   0.386   3.660  0.7527 -0.4504  0.2679
23463SOL     OW72588   0.436   2.321   0.838  0.7285  0.2975  0.1781
23463SOL    HW172589   0.481   2.406   0.839  1.6791 -0.1124 -2.1603
23463SOL    HW272590   0.486   2.268   0.900  0.2650  1.3393  1.4948
23464SOL     OW72591   5.998   4.692   4.512  0.3356  0.5569 -0.2287
23464SOL    HW172592   6.043   4.750   4.573  2.7721 -0.3471 -1.0427
23464SOL    HW272593   6.014   4.730   4.426  0.6247 -0.4494 -0.6408
23465SOL     OW72594   7.628   5.999   3.218  0.7442 -0.3392  0.0486
23465SOL    HW172595   7.688   6.062   3.257  3.8220 -1.7256 -1.9718
23465SOL    HW272596   7.621   5.929   3.283  0.2750  0.3771  0.7910
23466SOL     OW72597   0.960   0.770   7.552  0.1647  0.3691 -0.3888
23466SOL    HW172598   0.946   0.809   7.466 -0.0602 -0.2432 -0.6406
23466SOL    HW272599   0.911   0.688   7.549  0.5362  0.1174  0.1554
23467SOL     OW72600   9.094   5.169   1.684  0.5417 -0.2242  0.3147
23467SOL    HW172601   9.055   5.129   1.606  0.8743 -0.8176  0.4492
23467SOL    HW272602   9.182   5.132   1.689  0.0230 -1.3769  1.8160
23468SOL     OW72603   9.396   8.852   6.826 -0.1454 -0.0240  0.0615
23468SOL    HW172604   9.348   8.917   6.773 -0.8268  0.3037  1.0613
23468SOL    HW272605   9.329   8.811   6.881  0.3256 -1.3870 -0.3343
23469SOL     OW72606   7.726   7.791   9.456 -0.1073  0.2715 -0.0359
23469SOL    HW172607   7.784   7.726   9.415  2.1033  3.1979 -1.9409
23469SOL    HW272608   7.785   7.847   9.506 -1.7594  1.5961  0.5071
23470SOL     OW72609   0.637   8.378   1.127 -0.0743  0.1834 -0.3571
23470SOL    HW172610   0.662   8.409   1.040  0.5779 -1.3834 -0.7597
23470SOL    HW272611   0.665   8.286   1.129 -2.6709 -0.6946  0.4352
23471SOL     OW72612   0.722   0.836   6.871 -0.7241 -0.1495  0.1291
23471SOL    HW172613   0.664   0.874   6.806  0.4430 -0.2289 -0.9872
23471SOL    HW272614   0.758   0.757   6.830 -0.9088 -0.8978  1.3314
23472SOL     OW72615   3.684   5.523   5.190 -0.0331  0.0096  0.2526
23472SOL    HW172616   3.699   5.431   5.166  0.8148 -0.6780  3.0487
23472SOL    HW272617   3.771   5.557   5.212 -0.4965  1.1131  0.4315
23473SOL     OW72618   9.283   3.829   8.937  0.4397 -0.1428  0.2899
23473SOL    HW172619   9.377   3.815   8.954  0.4453 -1.2328 -0.5180
23473SOL    HW272620   9.270   3.796   8.848 -0.8073 -0.4358  0.5715
23474SOL     OW72621   1.253   5.396   0.641 -0.0453  0.1191  0.2788
23474SOL    HW172622   1.328   5.343   0.669 -1.0934 -0.9974  1.0713
23474SOL    HW272623   1.226   5.357   0.558  0.9239  1.2574 -0.6176
23475SOL     OW72624   4.821   3.218   6.144  0.6430  0.0938 -0.0087
23475SOL    HW172625   4.897   3.276   6.137 -0.6098  1.6333 -2.6800
23475SOL    HW272626   4.804   3.211   6.238  2.6953  1.5827  0.5350
23476SOL     OW72627   1.157   4.458   8.602  0.1615  0.3030  0.2943
23476SOL    HW172628   1.096   4.464   8.529  1.1287  1.0725 -0.4719
23476SOL    HW272629   1.202   4.375   8.589 -0.1555  0.1092  0.4179
23477SOL     OW72630   8.107   6.635   0.193  0.3181 -0.0646  0.2530
23477SOL    HW172631   8.031   6.587   0.226 -0.5226  1.3259  0.3805
23477SOL    HW272632   8.073   6.687   0.120  0.6019  2.3793  1.7892
23478SOL     OW72633   2.909   5.036   4.235  0.3151  0.6875  0.5473
23478SOL    HW172634   2.867   4.952   4.220 -0.6407  1.2998 -0.3142
23478SOL    HW272635   2.994   5.014   4.272  0.2586 -0.6665 -0.0780
23479SOL     OW72636   4.474   1.672   4.529 -0.3284 -0.2543  0.1328
23479SOL    HW172637   4.399   1.674   4.589 -1.3463 -1.2836 -1.0547
23479SOL    HW272638   4.438   1.697   4.445  1.4935  3.3300  0.2385
23480SOL     OW72639   0.575   2.501   4.811  0.4796  0.0741  0.0912
23480SOL    HW172640   0.569   2.557   4.734  0.6784 -0.7449 -0.5311
23480SOL    HW272641   0.504   2.438   4.800  0.7314 -0.2671  0.3976
23481SOL     OW72642   3.809   3.455   7.600  0.1893 -0.2780 -0.5303
23481SOL    HW172643   3.833   3.520   7.535  0.8184 -0.4928 -0.5209
23481SOL    HW272644   3.762   3.387   7.551 -2.7852  1.3331 -0.1725
23482SOL     OW72645   1.415   0.661   2.960  0.2267 -0.4993 -0.4432
23482SOL    HW172646   1.354   0.734   2.971  0.2479 -0.5424 -0.0339
23482SOL    HW272647   1.399   0.629   2.871 -1.0166 -1.1200 -0.0123
23483SOL     OW72648   9.055   4.622   1.859 -0.5317 -0.3431 -0.5432
23483SOL    HW172649   9.054   4.647   1.952 -4.2887 -1.4404 -0.1400
23483SOL    HW272650   9.148   4.607   1.840  0.5951  1.6942  2.4783
23484SOL     OW72651   6.613   6.914   9.330 -0.1468  0.3426 -0.0959
23484SOL    HW172652   6.519   6.924   9.310  0.0672  1.8257 -0.5017
23484SOL    HW272653   6.642   6.844   9.272 -0.8342  0.4647 -0.6035
23485SOL     OW72654   6.154   7.372   3.075 -0.4914  0.1870  0.1274
23485SOL    HW172655   6.190   7.446   3.124 -0.8099  0.8849 -0.6700
23485SOL    HW272656   6.141   7.406   2.987  0.9165 -1.2911 -0.7006
23486SOL     OW72657   3.478   7.247   3.956  0.1521  0.1588 -0.3728
23486SOL    HW172658   3.424   7.200   3.892 -2.4331 -0.3066  1.9345
23486SOL    HW272659   3.464   7.339   3.937 -2.6330  0.0985  0.8823
23487SOL     OW72660   2.457   3.827   9.377  0.2062 -0.4697  0.1717
23487SOL    HW172661   2.419   3.853   9.460  1.4310  1.1632  0.2748
23487SOL    HW272662   2.529   3.769   9.400  0.7749  0.2749  0.2817
23488SOL     OW72663   2.560   4.754   3.676  0.3196  0.1753  0.2751
23488SOL    HW172664   2.482   4.701   3.695 -0.0196 -0.2168 -1.9373
23488SOL    HW272665   2.540   4.798   3.593  0.9602  3.1237  1.5649
23489SOL     OW72666   0.526   7.546   3.155  0.1667 -0.2431  0.6885
23489SOL    HW172667   0.607   7.543   3.206  1.4383 -0.8709 -1.2940
23489SOL    HW272668   0.513   7.639   3.137 -0.0563 -0.0560  1.7170
23490SOL     OW72669   5.093   9.107   4.333 -0.1776  0.0694 -0.0152
23490SOL    HW172670   5.028   9.168   4.301 -0.0193  1.7794  2.6171
23490SOL    HW272671   5.054   9.021   4.321 -2.7091  1.0083  0.9257
23491SOL     OW72672   5.947   6.916   1.938  0.3028  0.5584 -0.0114
23491SOL    HW172673   5.880   6.892   1.875  1.4478 -1.0661 -0.7041
23491SOL    HW272674   5.952   7.011   1.934 -0.3237  0.5458 -1.6614
23492SOL     OW72675   3.571   3.713   2.266  0.5177  0.4050  1.2316
23492SOL    HW172676   3.596   3.623   2.284 -2.2083 -0.2072  2.4221
23492SOL    HW272677   3.653   3.757   2.245  1.7205 -2.8964 -2.1632
23493SOL     OW72678   3.267   0.695   2.431  0.0316 -0.2555  0.3691
23493SOL    HW172679   3.285   0.645   2.510  0.0932 -2.2359 -0.8385
23493SOL    HW272680   3.173   0.685   2.416 -0.0132  0.2515  0.2622
23494SOL     OW72681   9.242   9.014   3.369  0.1907  0.2432 -0.2760
23494SOL    HW172682   9.337   9.020   3.372  0.2816 -1.0460 -0.0575
23494SOL    HW272683   9.220   8.944   3.432 -0.8971  0.5411 -0.2999
23495SOL     OW72684   1.563   2.523   4.870 -0.0652  0.0150 -0.9681
23495SOL    HW172685   1.515   2.548   4.791  0.2195 -0.3459 -1.2652
23495SOL    HW272686   1.574   2.428   4.862 -2.2343 -0.4533  0.7494
23496SOL     OW72687   0.871   5.436   1.267 -0.4618  0.1108  0.1554
23496SOL    HW172688   0.862   5.386   1.186  2.4097 -0.3548  0.0361
23496SOL    HW272689   0.782   5.437   1.304 -1.3605 -1.8144 -1.7254
23497SOL     OW72690   2.193   9.557   6.144  0.0844  0.6586  0.1811
23497SOL    HW172691   2.211   9.639   6.190  0.7953  1.1136 -0.8652
23497SOL    HW272692   2.145   9.584   6.066  1.7269  0.2866 -1.0148
23498SOL     OW72693   4.099   9.432   3.431  0.0350  0.1483 -0.3639
23498SOL    HW172694   4.067   9.351   3.392  1.3242 -0.2511 -0.6569
23498SOL    HW272695   4.148   9.475   3.361  1.1785  0.1115  0.3855
23499SOL     OW72696   1.787   3.038   3.943  0.1529 -0.1326  0.6628
23499SOL    HW172697   1.745   3.080   4.018 -1.7208 -0.4626 -0.1306
23499SOL    HW272698   1.751   3.083   3.867 -0.3244 -1.7569 -0.1356
23500SOL     OW72699   9.096   0.917   3.356 -0.3166  0.3506 -0.0959
23500SOL    HW172700   9.161   0.961   3.411 -0.1864  0.5838 -0.4356
23500SOL    HW272701   9.065   0.985   3.296 -0.5143  0.1162 -0.2620
23501SOL     OW72702   4.276   4.744   7.968  0.0884  0.2963  0.1590
23501SOL    HW172703   4.310   4.762   7.880  0.1063  1.4145  0.3824
23501SOL    HW272704   4.353   4.748   8.024 -0.0302  0.2550  0.3248
23502SOL     OW72705   7.627   3.131   3.345  0.8128  0.3104 -0.4497
23502SOL    HW172706   7.602   3.058   3.289 -0.6377  0.4861 -0.0729
23502SOL    HW272707   7.685   3.184   3.291 -0.9636  0.7667 -2.0293
23503SOL     OW72708   3.220   7.918   3.208  0.6376  0.5178 -0.5266
23503SOL    HW172709   3.168   7.966   3.143  0.0137  2.4856  1.3118
23503SOL    HW272710   3.241   7.983   3.275  1.7833 -1.2725  0.9556
23504SOL     OW72711   3.213   4.658   0.742 -0.6563 -0.1352  0.1682
23504SOL    HW172712   3.150   4.720   0.778 -2.4070 -0.4102 -2.1813
23504SOL    HW272713   3.275   4.713   0.694 -2.3138 -0.0701 -2.0744
23505SOL     OW72714   1.375   0.833   6.779  0.5037 -0.3293 -0.1220
23505SOL    HW172715   1.298   0.825   6.834  0.3443  2.5584  0.2677
23505SOL    HW272716   1.376   0.754   6.726 -2.4216 -0.7044  0.2279
23506SOL     OW72717   4.480   0.166   0.947 -0.0408 -0.3484  0.2077
23506SOL    HW172718   4.409   0.146   0.885 -0.9128 -4.0489  2.1568
23506SOL    HW272719   4.440   0.227   1.010 -0.6487 -0.3328 -0.1843
23507SOL     OW72720   5.539   9.578   5.624  0.3006 -0.1798  0.0684
23507SOL    HW172721   5.557   9.570   5.718  0.7940  1.8323  0.1961
23507SOL    HW272722   5.571   9.665   5.601 -0.1051 -0.5081 -1.9162
23508SOL     OW72723   0.302   2.034   7.578 -0.1798  0.2888 -0.4827
23508SOL    HW172724   0.319   2.017   7.671  0.6979 -0.3062 -0.7390
23508SOL    HW272725   0.289   1.947   7.540  0.6528  0.4305 -1.1286
23509SOL     OW72726   0.865   8.016   9.468 -0.4072 -0.3031 -0.0098
23509SOL    HW172727   0.820   8.099   9.451  0.0512  0.1151  0.7804
23509SOL    HW272728   0.800   7.949   9.444 -0.2995  0.2325 -2.0241
23510SOL     OW72729   0.440   4.447   4.908 -0.2655 -0.0986 -0.2226
23510SOL    HW172730   0.529   4.447   4.943 -0.6279 -1.1972  0.7822
23510SOL    HW272731   0.407   4.358   4.926 -1.1494 -0.0996 -1.6588
23511SOL     OW72732   0.085   8.018   8.086 -0.6169 -0.4384 -0.4504
23511SOL    HW172733   0.091   8.008   7.991  0.9080 -1.0665 -0.3049
23511SOL    HW272734   0.005   8.068   8.099 -0.2871  0.5980 -2.1271
23512SOL     OW72735   6.900   0.787   9.030  0.3936  0.2982 -0.4373
23512SOL    HW172736   6.814   0.750   9.011  0.7563 -0.0308 -1.5262
23512SOL    HW272737   6.897   0.874   8.990  0.3296  0.5610  0.1339
23513SOL     OW72738   4.762   5.940   4.511 -0.2244 -0.3258  0.2491
23513SOL    HW172739   4.835   5.993   4.478 -0.5985 -0.1830 -0.3509
23513SOL    HW272740   4.804   5.870   4.561  0.3383 -0.4299 -0.3603
23514SOL     OW72741   2.592   7.718   1.773 -0.7965 -0.2315 -0.2404
23514SOL    HW172742   2.616   7.626   1.760 -1.1753 -0.2185 -1.1032
23514SOL    HW272743   2.551   7.720   1.859  0.1325 -0.6764  0.2309
23515SOL     OW72744   2.108   8.340   0.815 -0.2063  0.4448 -0.0468
23515SOL    HW172745   2.166   8.326   0.890  0.4224 -0.3410 -0.6566
23515SOL    HW272746   2.049   8.410   0.843  0.2478  0.4184  1.0413
23516SOL     OW72747   1.210   4.809   7.626  0.1444 -0.5356 -0.5448
23516SOL    HW172748   1.164   4.851   7.699  0.6283 -0.8651 -0.0387
23516SOL    HW272749   1.269   4.746   7.668  0.4158 -0.7465 -1.2250
23517SOL     OW72750   6.744   0.682   4.909  0.6289 -0.1507 -0.7986
23517SOL    HW172751   6.779   0.689   4.998 -1.3087 -1.0724  0.0902
23517SOL    HW272752   6.808   0.628   4.862  2.1853  1.1790 -0.2842
23518SOL     OW72753   3.296   4.046   7.382 -0.0787  0.6430  0.0249
23518SOL    HW172754   3.376   4.052   7.330  0.2730  1.2704  0.6192
23518SOL    HW272755   3.322   4.078   7.468  0.1203 -3.1017  1.5097
23519SOL     OW72756   3.518   7.739   8.468 -0.6407  0.4602 -0.0512
23519SOL    HW172757   3.479   7.710   8.550 -0.3955 -0.0351 -0.1099
23519SOL    HW272758   3.603   7.695   8.464 -1.5837 -1.3499 -1.6497
23520SOL     OW72759   4.839   6.393   9.533  0.0958  0.6106  0.8342
23520SOL    HW172760   4.747   6.419   9.534 -0.5354 -0.8723 -2.5400
23520SOL    HW272761   4.880   6.455   9.472 -0.0781 -2.1059 -2.3052
23521SOL     OW72762   6.018   3.578   6.674  0.4820  0.2972  0.5768
23521SOL    HW172763   6.063   3.658   6.651 -0.1807  1.3054  2.5580
23521SOL    HW272764   6.058   3.550   6.756  0.0577 -0.8642  0.4112
23522SOL     OW72765   5.506   6.770   3.768  0.2590 -0.1614  0.5728
23522SOL    HW172766   5.453   6.716   3.709  0.3654  0.6310 -0.2838
23522SOL    HW272767   5.563   6.708   3.813 -0.9114 -0.9508  0.9925
23523SOL     OW72768   1.425   6.061   1.483  0.3912 -0.6859  0.6502
23523SOL    HW172769   1.356   6.092   1.541  0.6919 -3.0931  2.4491
23523SOL    HW272770   1.450   6.138   1.431 -2.2706  0.6992  1.2792
23524SOL     OW72771   8.302   8.651   8.944  0.4076 -0.8145 -0.0967
23524SOL    HW172772   8.208   8.661   8.960  0.3356 -1.2486 -0.2403
23524SOL    HW272773   8.335   8.741   8.935  0.1717 -0.6170  0.8960
23525SOL     OW72774   1.870   4.113   6.067 -0.3900  0.2324 -0.0767
23525SOL    HW172775   1.803   4.083   6.006  1.1248 -2.0143 -0.7676
23525SOL    HW272776   1.891   4.202   6.039 -2.2284  0.5431 -0.5537
23526SOL     OW72777   4.132   4.530   8.776  0.4923 -0.2918 -0.6609
23526SOL    HW172778   4.174   4.581   8.846  1.2828 -0.0578 -1.2858
23526SOL    HW272779   4.061   4.585   8.745 -0.1830 -0.6039  0.2749
23527SOL     OW72780   8.465   2.098   3.898  0.1378  0.4796  0.4719
23527SOL    HW172781   8.459   2.183   3.854  0.1185 -0.7587 -2.0690
23527SOL    HW272782   8.390   2.098   3.959 -0.7562  1.6894 -0.5669
23528SOL     OW72783   4.148   3.437   7.960  0.0737 -0.0696  0.1395
23528SOL    HW172784   4.192   3.500   8.017  2.6099  0.4860 -2.1681
23528SOL    HW272785   4.166   3.352   7.999  2.0027  0.2748  0.1076
23529SOL     OW72786   3.476   2.763   6.836 -0.0636  0.0222  0.4525
23529SOL    HW172787   3.500   2.740   6.926 -2.2197 -0.4391  0.9658
23529SOL    HW272788   3.423   2.842   6.844  1.7026  1.4211 -0.7052
23530SOL     OW72789   3.768   9.406   3.168  0.2316  0.7632  0.5994
23530SOL    HW172790   3.689   9.433   3.121  0.1270 -0.5402 -0.0049
23530SOL    HW272791   3.839   9.422   3.106  0.2750  0.4898  0.5815
23531SOL     OW72792   4.798   1.829   3.431 -0.2621  0.1963  0.7909
23531SOL    HW172793   4.750   1.855   3.510  0.6402  0.6358  1.2118
23531SOL    HW272794   4.775   1.896   3.367  0.9421  1.2741  1.4454
23532SOL     OW72795   1.259   9.046   3.580 -0.3358  0.4462  0.5756
23532SOL    HW172796   1.165   9.064   3.577 -0.9293 -2.3204 -1.7862
23532SOL    HW272797   1.268   8.977   3.646 -0.4111 -1.0286 -0.8919
23533SOL     OW72798   9.381   1.659   9.003 -0.2399 -0.1890  0.1844
23533SOL    HW172799   9.475   1.650   9.014 -0.1242  1.5157  0.9863
23533SOL    HW272800   9.363   1.751   9.023 -2.3112 -0.8535  1.7368
23534SOL     OW72801   6.039   4.020   1.626  0.5618 -0.3599 -0.5133
23534SOL    HW172802   6.054   4.065   1.709 -1.7978  1.4632 -0.9422
23534SOL    HW272803   5.998   3.937   1.650  2.9544 -1.4100  0.2076
23535SOL     OW72804   5.946   5.304   6.235 -0.4850  0.5885  0.4006
23535SOL    HW172805   5.938   5.301   6.330 -1.0441 -1.5719  0.3306
23535SOL    HW272806   5.867   5.350   6.206 -1.2502 -0.3763  0.9109
23536SOL     OW72807   1.159   9.079   9.199  0.5703  0.6035 -0.6693
23536SOL    HW172808   1.228   9.065   9.134  0.8456 -0.0707 -0.2471
23536SOL    HW272809   1.197   9.046   9.280 -0.0084  0.8477 -0.3005
23537SOL     OW72810   3.386   4.628   8.651  0.3851  0.2320  0.1837
23537SOL    HW172811   3.433   4.548   8.674 -1.4141 -1.2980 -1.0729
23537SOL    HW272812   3.442   4.671   8.586 -0.7351 -2.6965 -3.0125
23538SOL     OW72813   6.648   0.595   0.376  0.0634 -0.2953 -0.1579
23538SOL    HW172814   6.732   0.640   0.382  0.8123 -1.7001  0.4817
23538SOL    HW272815   6.672   0.503   0.364 -1.3924 -0.6735 -0.2985
23539SOL     OW72816   6.793   8.913   0.187 -0.1537 -0.2730 -0.1790
23539SOL    HW172817   6.765   8.822   0.194  2.4825 -1.2611 -1.1767
23539SOL    HW272818   6.872   8.918   0.240 -0.7415  1.6956  0.5762
23540SOL     OW72819   7.167   2.647   8.852  0.2503  0.5346  0.5392
23540SOL    HW172820   7.136   2.737   8.862 -1.0730  0.5921 -2.6246
23540SOL    HW272821   7.262   2.654   8.850  0.2629  1.5115  2.4895
23541SOL     OW72822   0.541   9.309   6.996  0.0046 -0.6069 -0.0978
23541SOL    HW172823   0.632   9.324   7.022 -0.1128  0.1676 -0.1149
23541SOL    HW272824   0.490   9.367   7.053 -0.4416 -0.6963 -0.4023
23542SOL     OW72825   6.614   2.665   2.853  0.3441  0.2509  0.6175
23542SOL    HW172826   6.588   2.626   2.770 -0.4836 -0.7599  1.3314
23542SOL    HW272827   6.611   2.593   2.916  1.5066  0.8651  1.4291
23543SOL     OW72828   0.871   4.404   2.589 -0.5206  0.0749  0.0371
23543SOL    HW172829   0.906   4.334   2.535  0.9235  1.0743 -0.3673
23543SOL    HW272830   0.778   4.407   2.566 -0.5884 -1.5662 -0.0525
23544SOL     OW72831   1.326   6.814   0.125  0.7079  0.6644 -0.4007
23544SOL    HW172832   1.361   6.776   0.044 -0.0858  0.8177 -0.8353
23544SOL    HW272833   1.400   6.818   0.184  1.0590 -0.5318 -0.7254
23545SOL     OW72834   4.771   6.175   1.429 -0.4381  0.0425  0.3595
23545SOL    HW172835   4.825   6.148   1.503 -0.7401 -2.1955 -0.1866
23545SOL    HW272836   4.832   6.217   1.368  0.3067 -0.6115  0.6466
23546SOL     OW72837   7.545   0.806   6.742 -0.4991 -0.3289  0.3896
23546SOL    HW172838   7.626   0.849   6.771 -0.6685 -0.1446  0.5980
23546SOL    HW272839   7.568   0.764   6.659 -0.2823  0.0217  0.2700
23547SOL     OW72840   4.114   2.906   2.621 -0.3900 -0.2652  0.3909
23547SOL    HW172841   4.158   2.887   2.704 -1.1634  0.2868  0.9395
23547SOL    HW272842   4.042   2.843   2.617 -0.9486  0.3527  0.6176
23548SOL     OW72843   1.980   0.697   7.279 -0.1252 -0.0232  0.1655
23548SOL    HW172844   1.922   0.704   7.203  0.5815 -1.4373 -0.5375
23548SOL    HW272845   1.955   0.771   7.335 -0.2804  1.3990 -1.6872
23549SOL     OW72846   7.236   1.382   3.615 -0.4144 -0.0589  0.3407
23549SOL    HW172847   7.159   1.357   3.665 -1.4680 -0.2354 -1.2997
23549SOL    HW272848   7.277   1.299   3.590 -0.1392  0.0139  0.5500
23550SOL     OW72849   4.232   8.435   4.771  0.1217 -0.1479 -0.1910
23550SOL    HW172850   4.171   8.361   4.772 -2.1485  1.6282  0.8020
23550SOL    HW272851   4.182   8.508   4.807  1.3675  2.5812 -3.4714
23551SOL     OW72852   8.173   1.988   3.898 -0.4669  0.4129 -0.6758
23551SOL    HW172853   8.134   2.074   3.914 -2.1248 -0.3589 -0.2543
23551SOL    HW272854   8.246   2.005   3.840 -0.3912  2.1734 -0.1259
23552SOL     OW72855   3.835   3.003   8.642 -0.3870 -0.0993 -0.1270
23552SOL    HW172856   3.897   2.937   8.671 -0.0614  0.1582 -0.2361
23552SOL    HW272857   3.799   2.968   8.560 -0.4348 -0.2776 -0.0304
23553SOL     OW72858   3.396   1.547   3.853 -0.0441 -0.4600  0.0086
23553SOL    HW172859   3.327   1.490   3.885  1.0149  0.3221  4.3801
23553SOL    HW272860   3.375   1.633   3.889  1.2585  0.6873 -1.7987
23554SOL     OW72861   9.370   8.868   2.544  0.0723  0.6516 -0.4917
23554SOL    HW172862   9.412   8.864   2.629 -1.6161 -0.3775  0.3580
23554SOL    HW272863   9.287   8.913   2.560 -1.7316 -2.2609 -0.8342
23555SOL     OW72864   7.348   7.569   2.231  0.3295 -0.0432 -0.0049
23555SOL    HW172865   7.267   7.521   2.218  0.9310 -1.2304  0.5133
23555SOL    HW272866   7.320   7.654   2.266 -0.7185 -0.1575 -0.5370
23556SOL     OW72867   9.176   5.770   2.117 -0.0863 -0.0530  0.6806
23556SOL    HW172868   9.085   5.743   2.128 -0.4950  1.0312  0.0590
23556SOL    HW272869   9.197   5.747   2.027 -0.5608  1.9586  0.0093
23557SOL     OW72870   7.565   0.237   4.986 -0.2944  0.0015 -0.7262
23557SOL    HW172871   7.594   0.326   5.001 -0.1909 -0.2974  1.0720
23557SOL    HW272872   7.542   0.234   4.893  0.4009  1.6756 -0.9741
23558SOL     OW72873   0.058   3.192   4.308 -0.6958  0.0869  0.3701
23558SOL    HW172874  -0.001   3.217   4.237 -0.2724  1.4961  0.4826
23558SOL    HW272875   0.041   3.257   4.376  0.2396 -0.1242  0.8100
23559SOL     OW72876   6.622   2.597   9.376 -0.3448  0.1489  0.1675
23559SOL    HW172877   6.650   2.509   9.351  0.7014  0.2364  0.9524
23559SOL    HW272878   6.538   2.585   9.419 -0.3095 -0.4443  0.0696
23560SOL     OW72879   1.144   4.342   7.406  0.7201  0.2387  0.3062
23560SOL    HW172880   1.091   4.350   7.327  0.5226 -0.3674  0.3711
23560SOL    HW272881   1.163   4.432   7.432  1.2794  0.4404 -0.7596
23561SOL     OW72882   7.970   7.986   2.173  0.4422 -0.1609 -0.5239
23561SOL    HW172883   7.922   8.052   2.223  0.9870  0.5879 -0.9645
23561SOL    HW272884   7.905   7.920   2.151 -0.2301  0.4895 -0.5169
23562SOL     OW72885   6.673   2.935   5.305  0.3309  0.3856 -0.1896
23562SOL    HW172886   6.670   2.951   5.211  1.7190 -0.0825 -0.3240
23562SOL    HW272887   6.763   2.954   5.331  0.9924 -2.8486  0.3848
23563SOL     OW72888   4.703   9.310   6.200  0.1697 -0.0760 -0.2839
23563SOL    HW172889   4.694   9.322   6.105  0.2689 -0.3494 -0.3276
23563SOL    HW272890   4.768   9.375   6.226 -1.7401  1.8534  0.0118
23564SOL     OW72891   1.790   1.743   1.803  0.3186  0.3701  0.3639
23564SOL    HW172892   1.718   1.775   1.748  1.7487  1.1491 -1.1651
23564SOL    HW272893   1.748   1.709   1.882 -1.7854 -0.0677 -0.8720
23565SOL     OW72894   0.090   6.247   0.939 -0.1986  0.0337  0.7313
23565SOL    HW172895   0.154   6.314   0.913 -0.7014  0.4383  0.5166
23565SOL    HW272896   0.064   6.206   0.856 -1.2839  0.8500  0.6500
23566SOL     OW72897   1.950   3.467   4.980  0.8221  0.3976  0.2832
23566SOL    HW172898   1.916   3.489   5.066  0.9608  0.0056  0.4402
23566SOL    HW272899   2.017   3.533   4.962 -0.6146  1.7167 -0.4114
23567SOL     OW72900   6.901   9.045   1.883 -0.3338 -0.1431  0.1162
23567SOL    HW172901   6.927   9.104   1.812 -0.1169  0.0887  0.3836
23567SOL    HW272902   6.984   9.013   1.919 -0.4489 -0.5707  0.0095
23568SOL     OW72903   9.134   6.153   4.096  0.4657  0.0283  0.2604
23568SOL    HW172904   9.195   6.167   4.168 -0.5224  1.8718  0.7979
23568SOL    HW272905   9.146   6.229   4.039 -0.8115  0.0831  0.0287
23569SOL     OW72906   4.550   8.651   7.491 -0.1667  0.0998  0.2151
23569SOL    HW172907   4.555   8.560   7.519  0.6894  0.3005  0.7263
23569SOL    HW272908   4.508   8.647   7.405 -0.8044 -0.7075  0.5495
23570SOL     OW72909   0.971   3.611   6.868 -0.5069  0.1634 -0.2487
23570SOL    HW172910   1.012   3.687   6.827  0.4479 -0.0112  0.3443
23570SOL    HW272911   1.027   3.538   6.844 -1.3809 -0.3562 -0.7573
23571SOL     OW72912   6.217   6.357   8.845  0.2039 -0.2345  0.4208
23571SOL    HW172913   6.184   6.447   8.852  0.7038  0.0351 -0.5014
23571SOL    HW272914   6.141   6.302   8.862  0.0596  0.3461  1.8096
23572SOL     OW72915   8.846   4.603   5.355 -0.1245  0.0290 -0.0391
23572SOL    HW172916   8.853   4.693   5.386 -0.7407 -0.0829  0.4191
23572SOL    HW272917   8.786   4.561   5.415  0.8736 -0.9441  0.3086
23573SOL     OW72918   0.042   5.424   3.479 -0.1937 -0.4025 -0.0759
23573SOL    HW172919   0.048   5.518   3.491 -0.6402  0.1457 -3.2456
23573SOL    HW272920  -0.043   5.400   3.516 -1.3333  0.9849 -1.6360
23574SOL     OW72921   5.979   9.013   7.861  0.3845 -0.1338 -0.0206
23574SOL    HW172922   5.927   9.073   7.809  0.6060  0.8785  0.8762
23574SOL    HW272923   5.944   8.926   7.842  0.0492  0.2785 -1.3293
23575SOL     OW72924   1.091   5.235   2.807 -0.2407  0.1072  0.0301
23575SOL    HW172925   1.044   5.153   2.798 -1.7452  1.0997 -1.7930
23575SOL    HW272926   1.173   5.222   2.759 -0.6348 -0.2043 -0.5509
23576SOL     OW72927   8.658   6.052   0.616 -0.2874  0.3100 -0.3948
23576SOL    HW172928   8.686   5.979   0.561  1.1608  0.7722 -0.3174
23576SOL    HW272929   8.670   6.130   0.562 -1.2676  0.5486 -0.2793
23577SOL     OW72930   5.004   9.209   6.331  0.0242 -0.0123  0.5488
23577SOL    HW172931   5.097   9.205   6.353 -0.2311  0.0278  1.6753
23577SOL    HW272932   4.960   9.158   6.399 -0.8184  0.3150  0.2699
23578SOL     OW72933   4.663   4.428   0.359 -0.3435  0.0982 -0.5002
23578SOL    HW172934   4.733   4.487   0.387 -0.3673 -0.2635  0.3584
23578SOL    HW272935   4.695   4.390   0.277  1.5836 -1.8315  1.0187
23579SOL     OW72936   6.901   6.692   9.373  0.2870 -0.4586 -0.7568
23579SOL    HW172937   6.955   6.645   9.436 -2.1948 -1.0558  1.0750
23579SOL    HW272938   6.896   6.633   9.297  0.7861 -1.1777 -0.2403
23580SOL     OW72939   3.633   6.786   0.683 -0.2793 -0.4486 -0.0617
23580SOL    HW172940   3.728   6.785   0.695 -0.4043  0.0866  1.0542
23580SOL    HW272941   3.601   6.847   0.749 -1.3538 -0.1731 -0.8150
23581SOL     OW72942   6.732   2.066   6.959 -0.1389 -0.1642  0.2799
23581SOL    HW172943   6.765   1.976   6.958  0.2522 -0.0171 -1.2450
23581SOL    HW272944   6.800   2.116   7.005  0.8266 -0.2261 -1.0365
23582SOL     OW72945   0.262   5.632   4.940 -0.0710 -0.2928 -0.0314
23582SOL    HW172946   0.265   5.590   4.854  0.8465  0.4846 -0.3924
23582SOL    HW272947   0.312   5.574   4.997 -2.1075 -1.7257  0.4413
23583SOL     OW72948   4.203   8.353   6.254  0.4116  0.0233  0.0733
23583SOL    HW172949   4.183   8.265   6.286  0.5020  0.1333  0.4350
23583SOL    HW272950   4.127   8.406   6.280  0.3527  0.0489 -0.1522
23584SOL     OW72951   6.693   7.865   7.797 -0.3495  0.9440  0.1033
23584SOL    HW172952   6.635   7.866   7.720  0.9258 -0.3532 -0.9150
23584SOL    HW272953   6.780   7.882   7.762  0.3900 -0.5245  1.1483
23585SOL     OW72954   4.266   2.161   7.166  0.5941 -0.5665  0.0783
23585SOL    HW172955   4.307   2.224   7.105 -0.0575 -0.5546 -0.3553
23585SOL    HW272956   4.200   2.116   7.113 -0.4724 -0.0674  0.9606
23586SOL     OW72957   2.529   7.331   5.110  0.4565  0.2628  0.3406
23586SOL    HW172958   2.616   7.294   5.097 -0.1309 -1.1302  0.2598
23586SOL    HW272959   2.469   7.262   5.083 -0.6888  1.0411  0.8202
23587SOL     OW72960   6.799   5.949   3.537  0.2101  0.2726 -0.6436
23587SOL    HW172961   6.810   5.886   3.467 -1.6621 -1.2173  0.3100
23587SOL    HW272962   6.743   6.017   3.500 -0.2143 -0.1615 -0.8142
23588SOL     OW72963   0.073   3.748   2.368  0.0204  0.1801  0.3451
23588SOL    HW172964   0.057   3.654   2.370  0.3402  0.0548 -1.4006
23588SOL    HW272965  -0.012   3.787   2.387 -0.6003 -0.4800 -0.9417
23589SOL     OW72966   5.978   3.210   6.993  0.1870 -0.1707  0.2608
23589SOL    HW172967   6.050   3.225   6.933 -0.5826 -0.7265 -0.8246
23589SOL    HW272968   5.984   3.117   7.015 -0.4246 -0.3104 -0.1461
23590SOL     OW72969   5.366   9.401   9.521 -0.1053 -0.0976  0.7173
23590SOL    HW172970   5.337   9.396   9.612  1.6381 -0.0161  1.3203
23590SOL    HW272971   5.462   9.402   9.527  0.0364 -0.0496 -1.1223
23591SOL     OW72972   0.650   0.135   7.955  0.2905  0.0091  0.2703
23591SOL    HW172973   0.663   0.159   8.047  0.2900  1.9510 -0.1918
23591SOL    HW272974   0.631   0.218   7.911  0.2643 -0.8822 -1.4855
23592SOL     OW72975   8.030   7.832   3.660 -0.2817 -0.3340  0.4666
23592SOL    HW172976   8.073   7.772   3.598  1.1023  1.5579 -0.5218
23592SOL    HW272977   7.953   7.864   3.613 -0.6672 -0.8562  0.7427
23593SOL     OW72978   6.097   8.248   6.068  0.7606 -0.1696  0.2458
23593SOL    HW172979   6.120   8.292   6.149 -2.6253 -0.4711  1.5335
23593SOL    HW272980   6.125   8.158   6.080  0.9272 -0.0499  0.7736
23594SOL     OW72981   3.768   3.554   0.694  0.5076 -0.2528 -0.0234
23594SOL    HW172982   3.673   3.544   0.697  0.5395 -2.7236 -2.5130
23594SOL    HW272983   3.783   3.631   0.639 -0.0947 -0.6596 -0.7741
23595SOL     OW72984   9.464   1.015   4.944  0.1780  0.2014  0.6036
23595SOL    HW172985   9.524   1.090   4.950  0.3150  0.1420  0.0476
23595SOL    HW272986   9.435   1.015   4.853  1.6638 -1.5395  0.0644
23596SOL     OW72987   2.270   2.250   7.820 -1.0615 -0.1690  0.5475
23596SOL    HW172988   2.355   2.285   7.847 -0.8102  0.0310 -0.4753
23596SOL    HW272989   2.290   2.163   7.786 -1.2159  0.0300 -0.0490
23597SOL     OW72990   4.363   4.139   1.689 -0.4385 -0.3300  0.1085
23597SOL    HW172991   4.288   4.080   1.684 -0.4438 -0.2937 -0.2746
23597SOL    HW272992   4.410   4.113   1.769 -0.7180 -0.5167  0.2120
23598SOL     OW72993   5.576   6.416   8.983  0.7016  0.2991 -0.0635
23598SOL    HW172994   5.571   6.426   8.887  0.1864  1.8512  0.0922
23598SOL    HW272995   5.495   6.370   9.006  0.0840  1.2648 -0.2438
23599SOL     OW72996   5.237   1.015   3.499 -0.2097  0.3273  0.3516
23599SOL    HW172997   5.318   1.008   3.550  0.6169  0.8874 -0.8384
23599SOL    HW272998   5.233   1.107   3.473 -0.3115 -0.0498 -1.0358
23600SOL     OW72999   8.308   9.017   8.384  0.1974 -0.0212  0.5183
23600SOL    HW173000   8.382   9.057   8.430  1.9867 -2.2430 -0.2508
23600SOL    HW273001   8.313   9.051   8.295 -0.5980  0.8910  0.8019
23601SOL     OW73002   0.353   8.577   0.598 -0.2853  0.2044 -0.1544
23601SOL    HW173003   0.408   8.580   0.676 -1.6616  0.4250  0.8361
23601SOL    HW273004   0.412   8.547   0.528  0.9405 -0.1018  0.9747
23602SOL     OW73005   8.009   0.813   8.261  0.7235  0.2182  0.7784
23602SOL    HW173006   8.089   0.762   8.250  0.3731  0.1540 -2.2537
23602SOL    HW273007   8.029   0.898   8.221 -0.7151  0.1369 -0.1899
23603SOL     OW73008   4.095   4.906   6.941  0.2924  0.2686  0.4121
23603SOL    HW173009   4.109   4.978   6.879 -0.1271 -1.4381 -1.7757
23603SOL    HW273010   4.002   4.888   6.937  0.3721 -0.3513  1.0354
23604SOL     OW73011   3.164   6.930   4.041  0.4480  0.1725 -0.2635
23604SOL    HW173012   3.082   6.908   4.085  1.0044 -0.5174  0.4543
23604SOL    HW273013   3.151   6.901   3.950  0.0488 -0.3283 -0.0546
23605SOL     OW73014   0.479   7.409   1.588  0.3141 -0.0500  0.3546
23605SOL    HW173015   0.399   7.458   1.570  0.3050 -0.0820  0.3035
23605SOL    HW273016   0.450   7.318   1.597  0.5637 -0.3698 -1.5894
23606SOL     OW73017   5.033   7.688   1.654 -0.2047 -0.3450 -0.1825
23606SOL    HW173018   4.989   7.773   1.662  0.3877 -0.0477 -0.0758
23606SOL    HW273019   5.091   7.684   1.730  0.1177 -0.6458 -0.4452
23607SOL     OW73020   0.526   3.206   6.518  0.2675 -0.5250 -0.2416
23607SOL    HW173021   0.543   3.169   6.432 -1.2102  1.5078 -1.5189
23607SOL    HW273022   0.512   3.300   6.502  1.1240  0.1578  2.3820
23608SOL     OW73023   0.564   1.940   2.570 -0.0341  0.0917 -0.0895
23608SOL    HW173024   0.635   1.967   2.512  0.5680 -0.3205  0.4385
23608SOL    HW273025   0.539   2.020   2.616  0.1297  0.2302 -0.2389
23609SOL     OW73026   8.137   1.956   7.661 -0.1975  0.2213  0.0119
23609SOL    HW173027   8.155   2.048   7.643 -0.7844 -0.1728 -3.1511
23609SOL    HW273028   8.222   1.913   7.653 -0.3812  0.1154 -1.7405
23610SOL     OW73029   6.371   8.919   4.003 -0.0781  0.0414  0.0695
23610SOL    HW173030   6.402   8.918   4.094 -0.2864 -1.3032  0.1472
23610SOL    HW273031   6.291   8.972   4.005  1.2323  2.1654  0.1700
23611SOL     OW73032   0.710   3.772   0.180  0.8976 -0.2732 -0.1973
23611SOL    HW173033   0.630   3.724   0.159 -0.0280  1.7071 -1.5694
23611SOL    HW273034   0.747   3.727   0.255 -0.8165 -2.0291 -0.3476
23612SOL     OW73035   8.672   9.280   0.664 -0.1885  0.3786 -0.0606
23612SOL    HW173036   8.707   9.196   0.632  1.3456  1.7627 -2.3105
23612SOL    HW273037   8.601   9.255   0.723  1.0132 -2.5147  0.3583
23613SOL     OW73038   2.799   3.661   0.150  0.3829 -0.3555  0.1854
23613SOL    HW173039   2.866   3.628   0.091  0.4537  0.0657  0.0277
23613SOL    HW273040   2.765   3.582   0.194  0.8209 -0.5910  0.1058
23614SOL     OW73041   3.747   2.253   0.368  0.2554  0.5546 -0.9318
23614SOL    HW173042   3.793   2.230   0.287  0.7529  1.2698 -0.8643
23614SOL    HW273043   3.695   2.175   0.389  1.6023 -0.3839 -0.8961
23615SOL     OW73044   8.275   4.022   1.791  0.3538 -0.4593  0.7005
23615SOL    HW173045   8.204   4.024   1.727  1.3222 -1.3595 -0.4757
23615SOL    HW273046   8.286   3.929   1.812  2.3508 -0.5978 -0.5913
23616SOL     OW73047   6.286   5.305   1.921  0.3136  0.2313  0.1447
23616SOL    HW173048   6.381   5.314   1.909  0.1942  0.2571 -0.8315
23616SOL    HW273049   6.263   5.225   1.875 -0.3340  0.9294 -0.7833
23617SOL     OW73050   6.493   6.127   5.399 -0.1469 -0.3238  0.2473
23617SOL    HW173051   6.543   6.187   5.343 -0.2513 -0.3932  0.0799
23617SOL    HW273052   6.410   6.116   5.354  0.1378 -1.1522 -0.0873
23618SOL     OW73053   6.739   0.554   2.758  0.8627 -0.1973  0.2928
23618SOL    HW173054   6.742   0.560   2.854 -0.4730 -1.0844  0.4150
23618SOL    HW273055   6.828   0.577   2.731  0.4950  3.2782  1.5054
23619SOL     OW73056   8.173   0.794   0.149  0.0361 -0.1902 -0.5736
23619SOL    HW173057   8.251   0.848   0.160  0.2162 -0.4658 -0.5188
23619SOL    HW273058   8.114   0.849   0.097 -0.3088  0.6101  0.5958
23620SOL     OW73059   0.419   2.802   7.856  0.1019  1.1788 -0.8031
23620SOL    HW173060   0.505   2.841   7.877 -0.1813  0.7749  1.4194
23620SOL    HW273061   0.416   2.800   7.761  3.1418 -0.0269 -0.9838
23621SOL     OW73062   6.619   9.260   4.933  0.3461  1.2377 -0.4053
23621SOL    HW173063   6.536   9.256   4.980 -0.3954  1.3190 -1.6815
23621SOL    HW273064   6.598   9.300   4.849  1.7644  1.7119 -0.5713
23622SOL     OW73065   3.709   4.953   8.485  0.1333 -0.3956  0.1620
23622SOL    HW173066   3.732   4.970   8.394  1.9831 -0.8773  0.5075
23622SOL    HW273067   3.792   4.953   8.532 -0.7800 -0.1044  1.8780
23623SOL     OW73068   4.425   8.872   8.815 -0.1864 -0.1965  0.0088
23623SOL    HW173069   4.446   8.809   8.746  2.2650  0.7170 -0.1535
23623SOL    HW273070   4.357   8.927   8.777 -0.9575 -1.5001 -0.5644
23624SOL     OW73071   1.479   3.629   2.894  0.2601  0.0216  0.1183
23624SOL    HW173072   1.448   3.607   2.982  0.2392 -3.0853 -0.5508
23624SOL    HW273073   1.572   3.608   2.895  0.3521  0.3707 -0.5086
23625SOL     OW73074   7.986   2.314   3.454  0.0627  0.1942  0.1646
23625SOL    HW173075   8.053   2.354   3.510  1.8984  1.8532 -2.9609
23625SOL    HW273076   8.035   2.258   3.394 -1.7756 -1.2593 -0.0739
23626SOL     OW73077   8.904   8.417   8.892 -0.2506  0.2329  0.1183
23626SOL    HW173078   8.817   8.424   8.852 -0.8696 -0.3809  1.2927
23626SOL    HW273079   8.948   8.349   8.842  0.1360  1.5874 -1.4567
23627SOL     OW73080   6.472   2.647   2.589 -0.0477  0.5625  0.3960
23627SOL    HW173081   6.459   2.734   2.627 -0.5626  1.2261 -1.2091
23627SOL    HW273082   6.492   2.664   2.497  0.7003 -0.9966  0.2373
23628SOL     OW73083   6.615   3.462   3.549  0.2717  0.1576  0.0452
23628SOL    HW173084   6.649   3.428   3.632  0.9460 -0.3594 -0.4319
23628SOL    HW273085   6.584   3.384   3.502 -0.9224  0.5417  0.1652
23629SOL     OW73086   3.229   8.899   1.860  0.6605 -0.7249  0.1376
23629SOL    HW173087   3.265   8.846   1.789  2.4989  0.5573  0.0273
23629SOL    HW273088   3.297   8.899   1.927  1.0684  1.9999 -0.1646
23630SOL     OW73089   0.022   2.245   7.367  0.1386 -0.2618 -0.2186
23630SOL    HW173090   0.069   2.165   7.349 -0.0103 -0.1741 -1.0146
23630SOL    HW273091   0.042   2.303   7.293 -1.4199 -0.3248 -0.7304
23631SOL     OW73092   0.329   9.180   9.322 -0.0055  0.2123 -0.1900
23631SOL    HW173093   0.234   9.169   9.312  0.1479 -2.3176  0.5160
23631SOL    HW273094   0.338   9.244   9.393 -1.1706  0.5530 -0.3324
23632SOL     OW73095   8.275   0.678   1.375 -0.7857 -0.0477 -0.1915
23632SOL    HW173096   8.205   0.616   1.391 -0.7492 -0.6183 -2.0214
23632SOL    HW273097   8.351   0.624   1.352 -0.3877  0.6184 -0.5060
23633SOL     OW73098   0.301   8.508   4.041 -0.0264 -0.2236  0.7570
23633SOL    HW173099   0.329   8.578   3.982  2.4299 -0.6980  1.2648
23633SOL    HW273100   0.250   8.553   4.109 -1.1353  0.5973 -0.5475
23634SOL     OW73101   8.650   8.183   9.380 -0.7083  0.1579  0.5976
23634SOL    HW173102   8.707   8.107   9.393 -3.4614 -2.1348  0.0300
23634SOL    HW273103   8.681   8.222   9.299  1.7990  0.7517  1.7339
23635SOL     OW73104   8.255   4.013   0.320 -0.2974 -0.2180  0.1445
23635SOL    HW173105   8.327   4.061   0.280 -0.3849  1.2626  1.6590
23635SOL    HW273106   8.276   3.921   0.305  1.5490  0.2004 -0.0580
23636SOL     OW73107   8.434   4.434   8.215  0.2235 -0.4313 -0.1499
23636SOL    HW173108   8.398   4.522   8.204  0.5246 -0.3578 -0.5757
23636SOL    HW273109   8.526   4.443   8.189  0.0726 -1.0375 -0.9190
23637SOL     OW73110   1.791   1.116   6.316 -0.4602 -0.5500 -0.2682
23637SOL    HW173111   1.876   1.156   6.337  0.2834 -2.2001  0.0094
23637SOL    HW273112   1.727   1.183   6.339  0.6718 -0.0136  1.5192
23638SOL     OW73113   0.716   3.451   7.507  0.1416  0.0735 -0.5011
23638SOL    HW173114   0.630   3.472   7.544  1.2665  2.3188  1.0004
23638SOL    HW273115   0.728   3.516   7.437  0.3859 -0.6610 -1.1636
23639SOL     OW73116   8.126   0.870   2.963  0.4896  0.0973 -0.3370
23639SOL    HW173117   8.083   0.934   2.906 -2.0187 -0.3281  0.9344
23639SOL    HW273118   8.093   0.889   3.051  1.0549 -1.7811  0.3385
23640SOL     OW73119   0.166   9.154   7.617  0.5349  0.3116 -0.2088
23640SOL    HW173120   0.197   9.231   7.664 -2.4020  0.2339  2.1330
23640SOL    HW273121   0.077   9.177   7.590 -0.2205 -2.0266  0.0563
23641SOL     OW73122   3.933   9.247   2.328  0.4469 -0.1928  0.8167
23641SOL    HW173123   3.894   9.160   2.333  0.3903 -0.2577 -0.5153
23641SOL    HW273124   3.982   9.256   2.410  0.7230 -1.6046  0.8267
23642SOL     OW73125   4.915   9.203   4.124  0.8482  0.4443 -0.0781
23642SOL    HW173126   4.931   9.112   4.098 -0.4715 -0.5756  2.4003
23642SOL    HW273127   4.822   9.217   4.106  1.2287  1.6670 -1.2899
23643SOL     OW73128   6.939   1.978   3.649 -0.7260 -0.5212  0.6936
23643SOL    HW173129   6.940   2.073   3.650 -0.6103 -0.4350 -1.7319
23643SOL    HW273130   7.009   1.952   3.709 -0.3147  0.9245  0.8692
23644SOL     OW73131   9.297   9.160   8.830  0.7922  0.0322 -0.1713
23644SOL    HW173132   9.387   9.185   8.854  1.2368 -0.1824 -1.5376
23644SOL    HW273133   9.253   9.243   8.814  1.2926  0.0858 -1.3379
23645SOL     OW73134   8.345   8.005   3.273 -0.4144 -0.5608 -0.1177
23645SOL    HW173135   8.392   7.995   3.190 -1.5482 -1.5821 -0.6617
23645SOL    HW273136   8.387   7.941   3.331 -0.0750 -0.3296 -0.1028
23646SOL     OW73137   7.287   8.781   5.683 -0.5535  0.2172 -0.5500
23646SOL    HW173138   7.262   8.856   5.629 -2.8704  0.0773  0.1987
23646SOL    HW273139   7.276   8.705   5.626 -2.5251  0.1137 -0.1225
23647SOL     OW73140   4.357   1.559   3.752 -0.4607  0.2238 -0.4191
23647SOL    HW173141   4.325   1.502   3.681 -0.3307 -0.1332 -0.1953
23647SOL    HW273142   4.286   1.559   3.816 -0.5760  0.5430 -0.5457
23648SOL     OW73143   0.364   5.714   5.516  0.5080 -0.6002 -0.5401
23648SOL    HW173144   0.428   5.778   5.548  0.9428 -0.3741 -1.8340
23648SOL    HW273145   0.298   5.767   5.471  1.2385 -1.0912 -2.2482
23649SOL     OW73146   0.759   9.577   6.940  0.5004 -0.8001  0.0920
23649SOL    HW173147   0.802   9.530   6.869  1.8238 -0.7129  0.7865
23649SOL    HW273148   0.741   9.664   6.905  3.0382 -0.0569  0.4389
23650SOL     OW73149   1.175   8.501   8.575 -0.1757  0.2050  0.0484
23650SOL    HW173150   1.108   8.566   8.552 -0.0176  0.4745  0.3466
23650SOL    HW273151   1.167   8.490   8.670  2.9367  3.3993  0.8996
23651SOL     OW73152   3.461   1.210   9.154  0.2851 -0.7017 -0.0358
23651SOL    HW173153   3.482   1.120   9.130  1.6852 -1.5270  3.7119
23651SOL    HW273154   3.519   1.230   9.227 -2.0399  2.2052  1.2270
23652SOL     OW73155   8.704   4.380   1.855  0.8279 -0.7982  0.0366
23652SOL    HW173156   8.610   4.360   1.847  0.2405  1.5405  0.4068
23652SOL    HW273157   8.721   4.375   1.950  0.8360 -0.2284  0.0648
23653SOL     OW73158   8.340   7.284   5.589 -0.1359  0.0346  0.2479
23653SOL    HW173159   8.378   7.202   5.557 -0.1761  0.9310 -2.2491
23653SOL    HW273160   8.291   7.319   5.515  0.9102  2.9787  0.8115
23654SOL     OW73161   1.737   8.315   8.762  0.1149 -0.4427  0.6060
23654SOL    HW173162   1.823   8.357   8.762  1.5270 -3.1308  0.0286
23654SOL    HW273163   1.701   8.333   8.849  2.0506 -0.7115  1.5106
23655SOL     OW73164   5.366   5.410   7.407 -0.0064  0.0372  0.2031
23655SOL    HW173165   5.282   5.401   7.450  0.0030 -0.0876  0.1960
23655SOL    HW273166   5.386   5.323   7.374 -0.3721  0.2834 -0.7171
23656SOL     OW73167   4.795   8.009   5.500 -0.8460 -0.9555 -0.7947
23656SOL    HW173168   4.712   8.019   5.453 -0.2819  1.5610 -1.4022
23656SOL    HW273169   4.840   8.092   5.487  0.8164 -1.4190  1.4349
23657SOL     OW73170   2.662   4.494   6.106  0.0668 -0.2425 -0.3804
23657SOL    HW173171   2.578   4.455   6.082  0.3361 -1.0402 -0.0801
23657SOL    HW273172   2.640   4.577   6.148 -0.4681  0.5149 -2.0715
23658SOL     OW73173   9.484   4.403   5.070 -0.1494 -0.2723 -0.2569
23658SOL    HW173174   9.520   4.319   5.098 -1.9222 -1.5352 -1.5710
23658SOL    HW273175   9.538   4.428   4.994  1.0409  0.3372  0.7580
23659SOL     OW73176   7.686   1.629   6.120 -0.3543 -0.5065  0.5955
23659SOL    HW173177   7.714   1.703   6.066 -1.1407 -0.8063 -0.2363
23659SOL    HW273178   7.660   1.561   6.058 -2.7212 -0.3255  1.2917
23660SOL     OW73179   9.488   5.490   2.058  0.5975  0.4056 -0.1413
23660SOL    HW173180   9.524   5.544   1.988 -1.2328 -1.1929 -2.4698
23660SOL    HW273181   9.438   5.552   2.112  0.6923  1.4499 -1.2078
23661SOL     OW73182   1.272   2.902   0.005  0.2011  0.2089  0.0569
23661SOL    HW173183   1.335   2.872   0.071 -0.2280  0.7688  0.7311
23661SOL    HW273184   1.297   2.854  -0.075  0.7318 -0.4686  0.6129
23662SOL     OW73185   3.503   0.321   6.922  0.4167 -0.0109 -0.8335
23662SOL    HW173186   3.593   0.348   6.907  1.5166 -2.0816  1.3919
23662SOL    HW273187   3.473   0.376   6.994  1.0727 -1.4541  0.5939
23663SOL     OW73188   5.791   5.405   6.722 -0.1075  0.1294  0.0831
23663SOL    HW173189   5.844   5.448   6.790  1.3067  0.5126 -1.1847
23663SOL    HW273190   5.750   5.478   6.675 -0.2261 -0.0656 -0.1156
23664SOL     OW73191   3.875   3.567   6.741 -0.5335  0.1661 -0.1734
23664SOL    HW173192   3.827   3.648   6.722  0.9385  1.2009  0.3697
23664SOL    HW273193   3.922   3.547   6.661 -0.1007  0.4240  0.0136
23665SOL     OW73194   8.678   7.420   2.457 -0.9146  0.4108 -0.1649
23665SOL    HW173195   8.683   7.416   2.362  0.6787 -1.2263 -0.0681
23665SOL    HW273196   8.589   7.392   2.478 -1.2973  0.8526 -1.1546
23666SOL     OW73197   9.574   8.907   2.788  0.2825 -0.1184  0.5169
23666SOL    HW173198   9.667   8.900   2.765 -0.1117 -0.4258 -1.1251
23666SOL    HW273199   9.553   8.999   2.773  0.2892 -0.0781  0.7566
23667SOL     OW73200   2.313   0.342   3.564  0.0453  0.0741  0.1344
23667SOL    HW173201   2.370   0.375   3.634 -0.1101 -0.7941  0.6884
23667SOL    HW273202   2.226   0.342   3.603  0.2313 -2.3602  0.6903
23668SOL     OW73203   0.518   3.843   8.677  0.2474 -0.2242 -0.3624
23668SOL    HW173204   0.509   3.881   8.590  0.7684  0.4166 -0.1452
23668SOL    HW273205   0.492   3.914   8.737 -0.5063 -0.7872 -0.0073
23669SOL     OW73206   5.729   2.467   1.386  0.0298  0.0490 -0.0447
23669SOL    HW173207   5.740   2.474   1.480  3.1144  0.8903 -0.3545
23669SOL    HW273208   5.814   2.438   1.353 -0.0750  2.2758 -2.7446
23670SOL     OW73209   2.108   3.592   4.161  0.1649 -0.3641 -0.5775
23670SOL    HW173210   2.090   3.515   4.214 -0.7500 -0.1154 -0.5072
23670SOL    HW273211   2.137   3.557   4.076 -1.4712 -0.8126 -0.9726
23671SOL     OW73212   4.114   3.919   1.960  0.6587  0.0669  0.0743
23671SOL    HW173213   4.149   3.995   2.007  0.8254  1.4605 -2.1989
23671SOL    HW273214   4.157   3.922   1.875  1.5130 -3.2412  0.2434
23672SOL     OW73215   0.533   8.067   7.338  0.1995 -0.5655 -0.3290
23672SOL    HW173216   0.590   8.046   7.264 -1.2189 -0.4340 -1.5128
23672SOL    HW273217   0.462   8.003   7.332 -0.4248  0.0443  0.3587
23673SOL     OW73218   4.603   4.122   9.544 -0.2411 -0.0094 -0.4304
23673SOL    HW173219   4.524   4.113   9.597  0.8380 -1.8300  1.0007
23673SOL    HW273220   4.612   4.216   9.529 -2.3201  0.2838 -0.1045
23674SOL     OW73221   8.349   4.265   6.829  0.5290 -0.0907  0.0183
23674SOL    HW173222   8.409   4.285   6.757  0.9058 -1.2190  0.0076
23674SOL    HW273223   8.350   4.344   6.883  1.1012  0.3477 -0.6143
23675SOL     OW73224   4.930   6.254   4.742  0.1510 -0.3456 -0.1340
23675SOL    HW173225   4.862   6.301   4.790  0.1985  0.0075 -0.4041
23675SOL    HW273226   4.959   6.316   4.674 -0.6928 -1.2208 -1.3279
23676SOL     OW73227   1.412   4.174   0.209 -0.3132 -0.3261  0.4582
23676SOL    HW173228   1.361   4.222   0.274 -0.2385  0.7072 -0.2270
23676SOL    HW273229   1.489   4.229   0.192 -0.9376  0.0661 -1.4092
23677SOL     OW73230   2.315   1.978   1.469  0.1460 -0.3164  0.1145
23677SOL    HW173231   2.331   1.988   1.375  3.6873 -2.5464  0.2967
23677SOL    HW273232   2.245   1.914   1.475 -1.4970  1.2891 -0.9107
23678SOL     OW73233   3.552   4.030   1.387 -0.4209 -0.3728  0.5886
23678SOL    HW173234   3.493   4.105   1.386  0.2815  0.1907 -0.7375
23678SOL    HW273235   3.495   3.954   1.375 -1.0542  0.0058  1.1331
23679SOL     OW73236   8.490   6.470   3.591  0.1269 -0.2680 -0.2546
23679SOL    HW173237   8.494   6.430   3.504 -0.2749 -2.0305  0.4940
23679SOL    HW273238   8.408   6.438   3.628 -0.4308  1.6285  0.2627
23680SOL     OW73239   7.914   4.577   0.014 -0.1411  0.2162 -0.5074
23680SOL    HW173240   7.863   4.611   0.088 -1.8046 -0.0144 -1.5058
23680SOL    HW273241   7.923   4.651  -0.045 -1.4826 -0.3335 -1.4584
23681SOL     OW73242   9.334   6.264   2.066 -0.1307 -0.2722 -0.5759
23681SOL    HW173243   9.316   6.292   2.156 -2.1827  1.3904 -1.4315
23681SOL    HW273244   9.335   6.169   2.070  0.3866 -0.2276  1.2961
23682SOL     OW73245   2.104   5.128   0.763  0.3232 -0.7002 -0.2274
23682SOL    HW173246   2.095   5.082   0.846  0.8981 -0.9947 -0.3254
23682SOL    HW273247   2.190   5.171   0.768 -0.1058  0.1889 -0.2233
23683SOL     OW73248   4.177   2.707   7.874 -0.4374 -0.6860  0.2858
23683SOL    HW173249   4.234   2.648   7.824 -1.7186 -0.5219 -1.4532
23683SOL    HW273250   4.106   2.651   7.904 -0.4975 -0.4565  0.5763
23684SOL     OW73251   9.451   0.733   2.517  0.6731 -0.2454  0.2091
23684SOL    HW173252   9.476   0.651   2.474  1.4166  0.0496  0.0734
23684SOL    HW273253   9.505   0.736   2.596 -1.8333 -1.5949  2.0935
23685SOL     OW73254   1.464   3.682   2.016  0.0794 -0.0334 -0.4113
23685SOL    HW173255   1.441   3.636   2.096  0.2539 -0.1907 -0.4499
23685SOL    HW273256   1.426   3.770   2.026  1.5237  0.5010  0.5652
23686SOL     OW73257   7.938   7.336   8.544  0.6587 -0.3490 -0.1560
23686SOL    HW173258   7.926   7.389   8.465  0.7167 -1.0806 -0.6605
23686SOL    HW273259   8.030   7.348   8.567  0.1989  1.4564  0.9735
23687SOL     OW73260   1.887   8.278   5.085  0.0342 -0.2615 -0.1126
23687SOL    HW173261   1.896   8.365   5.123  0.6216 -0.7676  0.9488
23687SOL    HW273262   1.949   8.277   5.012 -0.8373  0.5922 -0.9035
23688SOL     OW73263   8.194   5.486   5.030  0.6534 -0.1237 -0.5348
23688SOL    HW173264   8.238   5.533   5.101  1.6840  1.4572 -2.1411
23688SOL    HW273265   8.105   5.522   5.028  0.3517 -0.7773  0.4512
23689SOL     OW73266   5.188   5.173   6.582  0.5120 -0.0707 -0.4285
23689SOL    HW173267   5.246   5.103   6.609 -1.2639 -1.3437  0.2654
23689SOL    HW273268   5.117   5.129   6.535 -1.0767  1.1270  0.7165
23690SOL     OW73269   3.819   3.693   2.095 -0.0637  0.1453 -0.1756
23690SOL    HW173270   3.798   3.779   2.057 -3.3439 -0.1765  0.5604
23690SOL    HW273271   3.770   3.631   2.042 -0.5146 -0.8603  1.3472
23691SOL     OW73272   3.028   0.715   4.808  0.0025 -0.1896 -0.6523
23691SOL    HW173273   3.031   0.727   4.903 -0.7690 -0.8210 -0.5383
23691SOL    HW273274   3.002   0.800   4.773 -1.5927 -0.4421 -0.1463
23692SOL     OW73275   2.171   0.853   2.054 -0.0754 -0.2378  0.2254
23692SOL    HW173276   2.225   0.926   2.083 -1.2367  0.6387  0.2410
23692SOL    HW273277   2.187   0.847   1.960 -0.9029  0.8556 -0.0017
23693SOL     OW73278   3.060   6.202   2.296  0.3758 -0.0464  0.1563
23693SOL    HW173279   3.097   6.238   2.215  0.6405 -0.7587 -0.0397
23693SOL    HW273280   3.029   6.115   2.272  0.2517 -0.1771  0.7712
23694SOL     OW73281   1.002   8.841   3.235  0.0417  0.3128  0.0161
23694SOL    HW173282   0.914   8.805   3.247  0.7152 -1.1405  0.7434
23694SOL    HW273283   1.005   8.865   3.142 -0.4102 -1.6880 -0.5660
23695SOL     OW73284   8.844   6.217   3.300 -0.4081 -0.0934  0.3605
23695SOL    HW173285   8.868   6.127   3.322  2.1552  0.6094  0.8074
23695SOL    HW273286   8.864   6.226   3.207 -0.5503  0.0556  0.3428
23696SOL     OW73287   4.327   2.971   1.677  0.0736  0.0684 -0.4476
23696SOL    HW173288   4.260   2.907   1.651  0.4628 -0.0542 -1.1601
23696SOL    HW273289   4.282   3.055   1.676  0.4636  0.3044 -3.1408
23697SOL     OW73290   1.421   4.042   7.380 -0.4010 -0.2941 -0.0671
23697SOL    HW173291   1.329   4.036   7.406  0.2564 -0.6441  2.4275
23697SOL    HW273292   1.443   4.134   7.388 -0.2693 -0.3635  0.4062
23698SOL     OW73293   8.274   8.830   2.293  0.5584 -0.3100 -0.0467
23698SOL    HW173294   8.305   8.917   2.316  0.3841  0.0750 -1.2269
23698SOL    HW273295   8.351   8.786   2.256 -0.0864  0.4663 -2.4780
23699SOL     OW73296   7.479   1.590   3.317  0.0734 -0.3895 -0.5938
23699SOL    HW173297   7.449   1.583   3.408  0.9691 -1.8222 -0.3839
23699SOL    HW273298   7.541   1.663   3.318  1.2485 -1.3807  0.2847
23700SOL     OW73299   1.685   2.314   6.056 -0.1378 -0.3949  0.1193
23700SOL    HW173300   1.599   2.318   6.098  0.2622  0.4456  0.8817
23700SOL    HW273301   1.676   2.366   5.976  0.4646  2.3523  1.7249
23701SOL     OW73302   7.684   7.407   1.395 -0.3999  0.4433 -0.4422
23701SOL    HW173303   7.753   7.357   1.437 -0.3596  0.6351 -0.2742
23701SOL    HW273304   7.610   7.400   1.455 -0.7025 -0.2055 -0.8758
23702SOL     OW73305   1.125   2.097   7.704 -0.5301  0.4568 -0.0391
23702SOL    HW173306   1.192   2.071   7.641  0.2423 -0.5131  1.1432
23702SOL    HW273307   1.056   2.032   7.695  0.0961 -0.3626  0.8843
23703SOL     OW73308   1.813   2.840   6.533  0.0777 -0.2292 -0.2075
23703SOL    HW173309   1.811   2.767   6.470 -0.7654 -1.2666  0.9799
23703SOL    HW273310   1.799   2.799   6.618  1.5983  1.1088  0.7415
23704SOL     OW73311   1.122   7.896   3.175  0.2524 -0.6137 -0.5911
23704SOL    HW173312   1.097   7.807   3.200 -0.4747 -0.2363  0.0791
23704SOL    HW273313   1.209   7.908   3.211  0.0031 -0.7638  0.0734
23705SOL     OW73314   5.456   5.529   2.488  0.0118  0.1657 -0.4962
23705SOL    HW173315   5.363   5.554   2.485  0.1283  1.0146  1.3532
23705SOL    HW273316   5.464   5.477   2.568  0.8865 -1.1235 -1.3804
23706SOL     OW73317   0.572   8.217   0.108 -0.5351 -0.0489  0.2395
23706SOL    HW173318   0.560   8.194   0.200  1.5748 -0.6448  0.4151
23706SOL    HW273319   0.582   8.134   0.063 -1.3302  0.2497 -0.5285
23707SOL     OW73320   6.067   1.895   6.451  0.0734 -0.0845 -0.2394
23707SOL    HW173321   5.994   1.834   6.456  0.8146 -0.8775  1.1842
23707SOL    HW273322   6.074   1.915   6.357 -0.0621 -2.3211 -0.7824
23708SOL     OW73323   4.661   8.762   0.851  0.5591  0.0051  0.3895
23708SOL    HW173324   4.750   8.754   0.886  0.0926 -2.0664  1.1855
23708SOL    HW273325   4.663   8.714   0.768  0.4376  0.9085 -0.1551
23709SOL     OW73326   4.028   0.977   5.767 -0.3719  0.2298  0.1694
23709SOL    HW173327   4.059   1.049   5.822  1.4085  0.9699 -1.6613
23709SOL    HW273328   3.968   1.019   5.705  1.6710  0.5076 -1.7455
23710SOL     OW73329   2.216   0.286   1.400 -0.0897 -0.3120 -0.0764
23710SOL    HW173330   2.273   0.292   1.323  0.6875 -1.7173  0.3543
23710SOL    HW273331   2.253   0.214   1.452 -2.6334 -1.7360 -0.0916
23711SOL     OW73332   9.142   2.320   0.821 -0.0978 -0.4060 -0.2931
23711SOL    HW173333   9.052   2.294   0.801  0.6077 -0.9192 -3.4176
23711SOL    HW273334   9.134   2.379   0.896 -2.9735 -0.7594 -0.2005
23712SOL     OW73335   5.888   2.429   5.220  0.1206  0.1551  0.0897
23712SOL    HW173336   5.956   2.417   5.286  1.4055 -1.0707 -1.3684
23712SOL    HW273337   5.907   2.515   5.181 -0.8358  1.0298  1.4536
23713SOL     OW73338   2.591   9.546   7.762 -0.4256 -0.1961 -0.3195
23713SOL    HW173339   2.678   9.586   7.762 -1.1787  1.5367  0.3545
23713SOL    HW273340   2.532   9.616   7.789 -2.0761 -1.2727 -0.9408
23714SOL     OW73341   8.806   1.621   8.879  0.4420 -0.6962 -0.0952
23714SOL    HW173342   8.863   1.598   8.806 -0.7038  0.6084 -1.4390
23714SOL    HW273343   8.721   1.640   8.839 -0.0966  0.5107  1.5249
23715SOL     OW73344   4.590   6.688   1.258  0.4662 -0.1147 -0.3110
23715SOL    HW173345   4.500   6.686   1.291  0.9248  3.0282  1.5391
23715SOL    HW273346   4.642   6.646   1.326  0.7873  1.6732  0.6153
23716SOL     OW73347   5.468   1.956   4.047 -0.2905  0.5137  0.4219
23716SOL    HW173348   5.516   2.039   4.048  0.0455  0.3214  0.7856
23716SOL    HW273349   5.496   1.911   4.127  0.3834 -0.4171 -0.2995
23717SOL     OW73350   8.746   4.735   8.318  0.3615 -0.5465  0.3944
23717SOL    HW173351   8.663   4.752   8.361  0.0925 -1.9836  0.4952
23717SOL    HW273352   8.808   4.796   8.359 -0.4380 -0.1234  0.9864
23718SOL     OW73353   2.752   2.279   3.992  0.2253 -0.2500  0.7810
23718SOL    HW173354   2.768   2.263   4.085 -2.0284  2.2854  1.7727
23718SOL    HW273355   2.657   2.283   3.985  0.3682  1.1710 -1.3072
23719SOL     OW73356   3.938   9.579   8.709  0.3318 -0.5414  0.5215
23719SOL    HW173357   3.914   9.491   8.681  0.2642  0.3478 -2.4912
23719SOL    HW273358   3.856   9.627   8.711  0.5583 -0.1561  0.7080
23720SOL     OW73359   7.891   2.897   7.802 -0.3904 -0.0676  0.3597
23720SOL    HW173360   7.974   2.934   7.773 -0.8983 -0.8215 -2.3387
23720SOL    HW273361   7.855   2.962   7.863 -1.1322  3.9749 -3.8509
23721SOL     OW73362   4.681   7.641   1.141  1.0093 -0.5422  0.3030
23721SOL    HW173363   4.735   7.667   1.216  0.9563  0.0311  0.1495
23721SOL    HW273364   4.692   7.712   1.078  0.1904 -0.4882  0.2095
23722SOL     OW73365   4.521   6.469   4.429 -0.2714  0.7258 -0.0522
23722SOL    HW173366   4.456   6.399   4.423 -0.1662  0.3242  2.3030
23722SOL    HW273367   4.588   6.434   4.488 -0.2307  2.7604  1.2174
23723SOL     OW73368   4.696   3.219   5.405 -0.5519  0.3745 -0.4564
23723SOL    HW173369   4.691   3.127   5.432  0.3654  0.1418 -1.0303
23723SOL    HW273370   4.771   3.222   5.345 -1.1982  1.3050 -1.2413
23724SOL     OW73371   2.348   0.592   3.732  0.1196 -0.5008  1.0299
23724SOL    HW173372   2.371   0.684   3.721 -1.3562 -0.2369 -0.0822
23724SOL    HW273373   2.432   0.547   3.737  0.8605  0.7418  0.1944
23725SOL     OW73374   2.610   6.684   5.004  0.0059 -0.1872 -0.1025
23725SOL    HW173375   2.611   6.736   5.085  1.8018 -0.6826  0.2555
23725SOL    HW273376   2.688   6.715   4.956 -1.0303  0.0992 -1.6660
23726SOL     OW73377   8.170   7.019   8.752 -0.5683 -0.3951 -0.4811
23726SOL    HW173378   8.261   7.033   8.725 -0.5778 -0.1785 -0.3987
23726SOL    HW273379   8.126   6.988   8.672  0.0328 -2.5462 -0.0388
23727SOL     OW73380   5.060   7.226   5.993  0.0685 -0.5945 -0.3257
23727SOL    HW173381   5.077   7.235   5.899 -1.5276  1.1297 -0.5197
23727SOL    HW273382   4.988   7.164   5.999 -1.0068  0.5962 -0.4272
23728SOL     OW73383   6.626   0.086   7.039 -0.1712 -0.2067  0.1616
23728SOL    HW173384   6.666   0.152   7.095 -1.6990  0.9596 -0.0505
23728SOL    HW273385   6.676   0.090   6.957 -0.4847  0.9847  0.0134
23729SOL     OW73386   3.456   9.457   3.495 -0.6357  0.0576  0.1232
23729SOL    HW173387   3.367   9.428   3.515 -0.6208  0.9723  1.6490
23729SOL    HW273388   3.452   9.552   3.500  0.4259  0.1089  0.2304
23730SOL     OW73389   5.372   8.533   1.777 -0.0701  0.3200 -0.4170
23730SOL    HW173390   5.377   8.517   1.871  0.5916 -0.8579 -0.6337
23730SOL    HW273391   5.286   8.499   1.751 -0.2419  0.6229 -0.2504
23731SOL     OW73392   6.864   5.451   1.796  0.0101 -0.2775 -0.3855
23731SOL    HW173393   6.802   5.425   1.727  0.4948  1.0269 -1.3382
23731SOL    HW273394   6.950   5.445   1.754  0.3448  0.1806  0.2266
23732SOL     OW73395   4.030   4.050   5.321  0.4378 -0.0258  0.0226
23732SOL    HW173396   4.020   3.967   5.275  0.2025 -0.3425  0.6284
23732SOL    HW273397   4.110   4.089   5.285  0.3197 -0.3182 -0.5577
23733SOL     OW73398   5.960   3.280   5.108 -0.0218  0.4808  0.0289
23733SOL    HW173399   6.020   3.274   5.182  0.1860 -1.7577 -0.2284
23733SOL    HW273400   5.995   3.218   5.044 -2.1356 -0.2925 -0.4658
23734SOL     OW73401   7.030   2.193   4.879  0.2329  0.2967  0.1039
23734SOL    HW173402   6.967   2.130   4.917 -0.3340  1.1774  0.6636
23734SOL    HW273403   7.028   2.267   4.939  0.2666  1.2071 -0.9951
23735SOL     OW73404   9.517   0.297   3.086 -0.0069  0.2206  0.4396
23735SOL    HW173405   9.443   0.242   3.110  1.8756 -2.2043  1.0479
23735SOL    HW273406   9.567   0.245   3.023  0.4591  2.3978 -1.1391
23736SOL     OW73407   9.499   5.909   5.349 -0.1948  0.2528  0.5153
23736SOL    HW173408   9.470   5.993   5.384  1.3772  0.5714  1.1692
23736SOL    HW273409   9.508   5.925   5.255 -1.0379  0.4602  0.4649
23737SOL     OW73410   4.875   4.337   2.806  0.6368  0.3265  0.3613
23737SOL    HW173411   4.832   4.301   2.728 -0.7402  0.3916  1.0635
23737SOL    HW273412   4.914   4.419   2.775 -1.7943  1.5128  0.1720
23738SOL     OW73413   3.850   8.179   1.855 -0.2817 -0.0259  0.2681
23738SOL    HW173414   3.897   8.096   1.859  0.4623  0.1221 -2.6268
23738SOL    HW273415   3.899   8.237   1.914  0.2164 -1.1709  1.0143
23739SOL     OW73416   6.451   6.747   9.549  0.1721 -0.2179  0.2111
23739SOL    HW173417   6.358   6.724   9.550  0.4192 -1.2778  0.2820
23739SOL    HW273418   6.453   6.839   9.575 -0.8428 -0.2437  0.4393
23740SOL     OW73419   7.102   6.713   6.735 -0.4173 -0.4414  0.2084
23740SOL    HW173420   7.197   6.700   6.736 -0.1563  1.2651  0.5292
23740SOL    HW273421   7.091   6.808   6.730 -2.1218 -0.6691 -1.8633
23741SOL     OW73422   3.728   0.547   5.338  0.3633  0.3728  0.2642
23741SOL    HW173423   3.660   0.481   5.332  0.7160  0.0574 -0.2931
23741SOL    HW273424   3.697   0.606   5.407 -1.7202  1.6603 -1.6218
23742SOL     OW73425   3.880   2.791   6.210 -0.3402  0.5529  0.0964
23742SOL    HW173426   3.972   2.816   6.218  0.1481 -0.1495 -2.5345
23742SOL    HW273427   3.869   2.720   6.273  0.3926  1.8324  1.7348
23743SOL     OW73428   4.288   8.291   0.498 -1.1404  0.0329 -0.2274
23743SOL    HW173429   4.349   8.279   0.425 -0.5798 -0.2807  0.2804
23743SOL    HW273430   4.335   8.347   0.559 -1.1875 -0.5475  0.3540
23744SOL     OW73431   4.214   7.845   3.357 -0.1647  0.7648 -0.0223
23744SOL    HW173432   4.186   7.936   3.357 -0.1652  0.8065  1.8096
23744SOL    HW273433   4.190   7.813   3.445  0.2017 -0.8717 -0.4888
23745SOL     OW73434   8.776   4.820   7.616  1.3455  0.2952  0.1702
23745SOL    HW173435   8.804   4.866   7.695 -0.0769 -0.1781  0.9623
23745SOL    HW273436   8.714   4.880   7.574  2.8604  1.0172 -1.2029
23746SOL     OW73437   1.248   4.355   4.950 -0.2079  0.5988  0.1184
23746SOL    HW173438   1.252   4.296   5.025 -1.7534 -0.1639 -0.3560
23746SOL    HW273439   1.250   4.442   4.988  0.0715  0.2359  0.9700
23747SOL     OW73440   0.271   3.515   8.805  0.5824  0.1083 -0.3224
23747SOL    HW173441   0.311   3.597   8.835  2.9555 -1.1565  0.1777
23747SOL    HW273442   0.339   3.473   8.753 -1.0977 -0.9364 -1.8033
23748SOL     OW73443   2.072   4.606   2.584 -0.0001  0.2612 -0.1415
23748SOL    HW173444   2.060   4.691   2.627 -1.8473 -0.0664  0.0940
23748SOL    HW273445   2.027   4.544   2.642  0.5079 -0.7370 -0.7933
23749SOL     OW73446   9.182   2.423   0.133 -0.6216  0.0748 -0.2051
23749SOL    HW173447   9.221   2.341   0.103 -0.8635 -1.1463  2.4929
23749SOL    HW273448   9.089   2.402   0.145 -0.4821  0.3458  1.5953
23750SOL     OW73449   8.807   8.650   9.486 -0.1357  0.0717 -0.3314
23750SOL    HW173450   8.845   8.668   9.572  0.0048 -0.5442 -0.2607
23750SOL    HW273451   8.876   8.673   9.424  0.4656 -1.2586 -0.1958
23751SOL     OW73452   5.429   7.992   2.924  0.5163 -0.0164  0.2269
23751SOL    HW173453   5.344   7.952   2.905  1.2563 -1.0821 -1.0127
23751SOL    HW273454   5.452   8.040   2.845  1.5432 -0.6287  0.1278
23752SOL     OW73455   3.331   7.731   0.605 -0.8576 -0.2410  0.0107
23752SOL    HW173456   3.390   7.656   0.595 -0.9182 -0.4091  0.8043
23752SOL    HW273457   3.266   7.720   0.536 -0.3792 -0.4534 -0.4150
23753SOL     OW73458   6.975   2.994   3.426  0.5998 -0.0265  0.0943
23753SOL    HW173459   7.064   3.021   3.448  0.6482 -1.5219  2.0011
23753SOL    HW273460   6.960   3.031   3.339  3.2557 -0.1288 -0.5103
23754SOL     OW73461   5.076   2.757   2.405 -0.1445 -0.4258  0.0704
23754SOL    HW173462   5.043   2.789   2.489 -0.4442 -0.5757  0.0140
23754SOL    HW273463   5.155   2.708   2.427  0.1744  0.1339  0.1840
23755SOL     OW73464   5.507   1.786   1.310  0.7249  0.1456 -0.2600
23755SOL    HW173465   5.450   1.709   1.304 -1.0269  1.3136  0.5109
23755SOL    HW273466   5.537   1.800   1.221  0.1833 -0.7778 -0.6053
23756SOL     OW73467   8.694   3.380   2.799  0.2707  0.2577 -0.5793
23756SOL    HW173468   8.732   3.348   2.717  0.0317  2.3529 -1.5780
23756SOL    HW273469   8.759   3.441   2.834  1.6582 -2.6043  2.3549
23757SOL     OW73470   4.605   6.368   6.721 -0.0835  0.1778 -0.1365
23757SOL    HW173471   4.514   6.388   6.703  0.3804  2.5206 -0.1810
23757SOL    HW273472   4.655   6.427   6.664  1.4339  0.5392  1.4606
23758SOL     OW73473   3.311   9.351   7.633  0.6399  0.3740 -0.3122
23758SOL    HW173474   3.368   9.314   7.701 -1.4571 -1.3974  0.5844
23758SOL    HW273475   3.285   9.276   7.579 -1.3994  0.9639 -0.2425
23759SOL     OW73476   0.702   3.346   8.607 -0.1433  0.5005 -0.0364
23759SOL    HW173477   0.733   3.334   8.697 -0.1578  0.5557 -0.0240
23759SOL    HW273478   0.607   3.350   8.615 -0.1986 -0.4358 -0.1606
23760SOL     OW73479   7.378   1.144   3.694  0.0222 -0.4428  0.5137
23760SOL    HW173480   7.460   1.150   3.744  0.0245  0.5996  0.4001
23760SOL    HW273481   7.322   1.088   3.747  0.7613 -1.0741  0.6547
23761SOL     OW73482   0.978   5.570   1.596  0.1249 -0.3495 -0.4924
23761SOL    HW173483   1.007   5.649   1.552  0.0459 -0.3251 -0.4997
23761SOL    HW273484   0.996   5.499   1.534 -0.1958 -0.2894 -0.6537
23762SOL     OW73485   8.937   8.666   1.865  0.0006  0.0307 -0.1727
23762SOL    HW173486   9.030   8.690   1.862  0.7624 -2.7146 -1.0573
23762SOL    HW273487   8.896   8.724   1.800  0.7375  2.3022  1.2560
23763SOL     OW73488   5.053   3.541   1.729 -0.3623 -0.1538  0.0903
23763SOL    HW173489   5.112   3.612   1.703 -0.4276  0.8866  2.4591
23763SOL    HW273490   5.040   3.490   1.650  2.1265  0.7193 -0.9824
23764SOL     OW73491   7.826   2.864   2.902  0.1794  0.2633 -0.4004
23764SOL    HW173492   7.759   2.825   2.846  0.7439  0.4375 -1.2209
23764SOL    HW273493   7.830   2.807   2.979 -3.1134  1.9409  1.2137
23765SOL     OW73494   5.796   3.153   4.213 -0.0514 -0.4433 -1.0928
23765SOL    HW173495   5.735   3.201   4.157  0.3237  0.2909 -0.8820
23765SOL    HW273496   5.759   3.158   4.301  0.5698  0.4605 -0.8722
23766SOL     OW73497   7.705   9.507   9.318  0.2904  0.1986  0.1007
23766SOL    HW173498   7.743   9.429   9.358 -2.6841 -0.6181  1.6625
23766SOL    HW273499   7.767   9.577   9.337  2.2271 -1.4476  0.1513
23767SOL     OW73500   5.385   1.096   5.666 -0.2831  0.1663  0.1332
23767SOL    HW173501   5.472   1.107   5.705 -1.0120 -1.0497  2.2622
23767SOL    HW273502   5.330   1.159   5.712 -0.6934  0.4518 -0.7209
23768SOL     OW73503   6.669   0.333   0.121 -0.2896 -0.2381  0.0580
23768SOL    HW173504   6.691   0.247   0.086 -3.4768 -0.8059 -0.9235
23768SOL    HW273505   6.660   0.320   0.215 -0.0597 -0.8061  0.0024
23769SOL     OW73506   2.878   9.078   4.869  0.3746  0.2788  0.2578
23769SOL    HW173507   2.852   9.169   4.854  0.0136  0.2129  0.4719
23769SOL    HW273508   2.859   9.063   4.962 -0.7463 -0.3953 -0.0638
23770SOL     OW73509   8.627   3.925   1.031  0.3098  0.4096 -0.3902
23770SOL    HW173510   8.570   3.996   1.002  1.2741  0.9351 -1.0570
23770SOL    HW273511   8.714   3.964   1.035  0.5451 -0.2050  1.2475
23771SOL     OW73512   4.990   7.399   0.924 -0.7333  0.5225  0.5408
23771SOL    HW173513   5.079   7.414   0.954 -1.2512  0.9942  1.9693
23771SOL    HW273514   4.975   7.465   0.856  0.2420 -0.0748 -0.2764
23772SOL     OW73515   2.073   0.313   3.066  0.5354 -0.3458  0.5111
23772SOL    HW173516   2.130   0.378   3.107 -2.7096  0.9768  3.3665
23772SOL    HW273517   2.015   0.365   3.010  0.6867 -1.3963 -0.6611
23773SOL     OW73518   6.724   6.703   8.782 -0.3397  0.4063 -0.3243
23773SOL    HW173519   6.744   6.796   8.787 -0.2988  0.6298 -3.0135
23773SOL    HW273520   6.630   6.699   8.763 -0.1826 -0.0267 -1.0811
23774SOL     OW73521   3.124   8.463   1.292  0.8304  0.0491 -0.5046
23774SOL    HW173522   3.052   8.525   1.282  0.8746  0.3694  0.9381
23774SOL    HW273523   3.122   8.411   1.212  0.4167  1.5165 -1.4798
23775SOL     OW73524   6.461   2.495   0.301 -0.4077  0.4383 -0.1568
23775SOL    HW173525   6.415   2.519   0.382  0.9037  1.6363  0.2903
23775SOL    HW273526   6.547   2.538   0.310  0.1664 -0.3390 -1.6918
23776SOL     OW73527   2.880   7.769   2.584  0.9505 -0.4258 -0.0344
23776SOL    HW173528   2.932   7.809   2.515 -1.1626  0.4740 -1.1899
23776SOL    HW273529   2.807   7.726   2.538 -0.5362  0.2158  1.5988
23777SOL     OW73530   0.104   0.329   3.341 -0.2973 -0.3922  0.4784
23777SOL    HW173531   0.145   0.264   3.283  0.3422  0.3113  0.1092
23777SOL    HW273532   0.032   0.365   3.290 -0.4360 -0.5761  0.5480
23778SOL     OW73533   8.009   4.697   0.869  0.0215 -0.4392  0.5972
23778SOL    HW173534   7.953   4.634   0.916 -1.8208 -0.0571 -0.9483
23778SOL    HW273535   7.979   4.782   0.900  0.5033 -0.2487  0.5392
23779SOL     OW73536   7.802   8.139   2.424 -0.5118 -0.1404 -0.0434
23779SOL    HW173537   7.827   8.071   2.486 -2.6455 -1.2780 -0.3300
23779SOL    HW273538   7.803   8.220   2.475 -0.7591 -0.8235  1.0788
23780SOL     OW73539   5.362   6.235   7.619 -0.1531 -0.2485  0.0875
23780SOL    HW173540   5.399   6.151   7.645 -0.6359 -0.4740  0.0676
23780SOL    HW273541   5.399   6.298   7.681  0.3883 -0.4389 -0.0396
23781SOL     OW73542   7.446   7.198   8.887  0.1011  0.2170  0.1958
23781SOL    HW173543   7.527   7.240   8.914  0.4919 -1.0776  1.1256
23781SOL    HW273544   7.467   7.104   8.886 -1.1493 -0.0786 -0.3884
23782SOL     OW73545   4.031   6.872   2.135  0.5659  0.3398 -0.7776
23782SOL    HW173546   3.990   6.821   2.064  0.2270  0.6821 -0.8326
23782SOL    HW273547   3.992   6.959   2.127  0.6218  0.4167 -0.2482
23783SOL     OW73548   7.280   0.789   6.793  0.0036 -0.5957 -0.8767
23783SOL    HW173549   7.275   0.816   6.885  0.7721 -1.2325 -0.6343
23783SOL    HW273550   7.372   0.804   6.769 -0.4470  0.6987 -1.9117
23784SOL     OW73551   1.415   7.410   7.775  0.0024  0.3371 -0.3795
23784SOL    HW173552   1.508   7.427   7.794  0.0995 -0.2770 -0.2669
23784SOL    HW273553   1.382   7.365   7.853  0.0537 -0.9554 -1.0627
23785SOL     OW73554   8.865   7.503   0.823 -0.4534  0.6073 -0.3005
23785SOL    HW173555   8.934   7.538   0.880  0.8608 -0.3481 -1.2498
23785SOL    HW273556   8.794   7.480   0.883  1.2397 -1.2539  1.1333
23786SOL     OW73557   8.483   0.952   9.121 -0.7213 -0.0678  0.0517
23786SOL    HW173558   8.435   0.953   9.204 -1.0602 -0.1912 -0.1404
23786SOL    HW273559   8.564   1.000   9.139 -1.4931  1.2829  0.0457
23787SOL     OW73560   5.795   3.402   6.923  0.2634  0.3729 -0.1312
23787SOL    HW173561   5.858   3.341   6.962 -0.3765 -0.8249 -0.9160
23787SOL    HW273562   5.754   3.445   6.998  1.7893  0.9476  0.3968
23788SOL     OW73563   5.939   2.270   6.989  0.8117 -0.0442 -0.4287
23788SOL    HW173564   5.884   2.211   6.937  1.9749 -0.0355 -1.7114
23788SOL    HW273565   5.877   2.320   7.042 -0.2694 -1.6964 -0.0518
23789SOL     OW73566   0.176   5.479   8.649  0.0520  0.2321 -0.1622
23789SOL    HW173567   0.120   5.548   8.615 -0.4575  0.7601  1.6364
23789SOL    HW273568   0.162   5.481   8.744  1.4666 -1.0791  0.1174
23790SOL     OW73569   9.267   1.669   2.333 -0.2860  0.4645 -0.4401
23790SOL    HW173570   9.322   1.623   2.397 -1.0656 -1.4276 -1.0778
23790SOL    HW273571   9.200   1.713   2.386  1.0653  1.8129  0.2496
23791SOL     OW73572   1.812   8.846   3.490 -0.1736  0.4856  0.4694
23791SOL    HW173573   1.735   8.811   3.446  0.5512 -0.6786  0.0714
23791SOL    HW273574   1.852   8.770   3.532  0.8253  1.0416  0.5554
23792SOL     OW73575   8.493   0.736   8.512 -0.1456 -0.7207 -0.0503
23792SOL    HW173576   8.576   0.723   8.558  1.6563 -1.6656 -3.2356
23792SOL    HW273577   8.481   0.656   8.461 -2.0853  0.1271 -1.0297
23793SOL     OW73578   3.006   1.482   4.480  0.0687 -0.3652  0.4208
23793SOL    HW173579   3.034   1.555   4.425 -1.6128  0.3493  0.4622
23793SOL    HW273580   2.961   1.423   4.420  0.9057 -1.1114  0.5001
23794SOL     OW73581   8.424   1.621   1.416  0.6387 -0.0017 -0.3008
23794SOL    HW173582   8.342   1.587   1.453  0.1683  1.2875 -0.0751
23794SOL    HW273583   8.493   1.575   1.464  0.0888 -1.9643 -1.2878
23795SOL     OW73584   6.579   1.023   6.658 -0.6268  0.4139 -0.7160
23795SOL    HW173585   6.612   0.938   6.630  0.7021  1.0664 -1.2682
23795SOL    HW273586   6.588   1.079   6.580  0.4358  1.5530  0.1815
23796SOL     OW73587   4.338   8.704   9.503 -0.2286  0.2157 -0.9070
23796SOL    HW173588   4.314   8.619   9.466 -1.4612  0.5743 -0.9845
23796SOL    HW273589   4.432   8.711   9.488  0.3166 -2.0171  0.9275
23797SOL     OW73590   0.102   6.443   3.103  0.0269 -0.2512 -0.1605
23797SOL    HW173591   0.079   6.504   3.032  1.4040  1.9883  1.1792
23797SOL    HW273592   0.198   6.439   3.100  0.0079 -1.6493  0.4017
23798SOL     OW73593   5.108   6.169   7.297  0.5868  0.0926 -0.0886
23798SOL    HW173594   5.021   6.208   7.290  0.0164 -0.5613  2.3372
23798SOL    HW273595   5.099   6.081   7.260 -0.0857 -0.3469  1.0800
23799SOL     OW73596   8.810   1.096   1.180 -0.0740 -0.6255  0.4486
23799SOL    HW173597   8.860   1.054   1.251 -0.1836 -0.4704  0.6190
23799SOL    HW273598   8.728   1.124   1.222 -0.9414 -2.1526 -0.1244
23800SOL     OW73599   2.532   5.265   4.067  0.2125 -0.2144 -0.9212
23800SOL    HW173600   2.483   5.346   4.074  0.5214 -0.1641  1.2199
23800SOL    HW273601   2.466   5.197   4.059 -0.1496  0.0209  0.0219
23801SOL     OW73602   3.173   4.804   3.989  0.0678 -0.2655  0.1878
23801SOL    HW173603   3.198   4.712   3.985  0.4542 -0.1435 -0.2910
23801SOL    HW273604   3.188   4.829   4.080  1.5004 -0.2610 -0.0299
23802SOL     OW73605   2.396   7.755   3.528  0.0238  0.4159 -0.3586
23802SOL    HW173606   2.458   7.827   3.520  1.5474 -0.2848  3.0875
23802SOL    HW273607   2.323   7.792   3.577 -0.1003  0.1015 -0.3060
23803SOL     OW73608   1.714   8.038   2.227 -0.4088  0.1797  0.4989
23803SOL    HW173609   1.696   8.098   2.299 -1.5693  1.2634 -0.6416
23803SOL    HW273610   1.781   7.979   2.261  1.5310  2.7051  1.3566
23804SOL     OW73611   9.377   9.534   7.461  0.6437  0.0191 -0.0595
23804SOL    HW173612   9.323   9.457   7.445  0.2735  0.2345  0.1324
23804SOL    HW273613   9.452   9.524   7.402 -0.2942  0.4144 -1.3433
23805SOL     OW73614   1.980   4.428   4.289  0.6584 -0.0822 -0.1721
23805SOL    HW173615   1.932   4.347   4.306 -0.4232  0.4487 -0.6234
23805SOL    HW273616   2.072   4.401   4.288  0.2880 -1.4218 -0.9520
23806SOL     OW73617   8.828   7.918   3.425 -0.4850  0.0290  0.8107
23806SOL    HW173618   8.892   7.922   3.496  0.2258  2.2367  0.1298
23806SOL    HW273619   8.756   7.865   3.460  0.9664 -1.1396  2.1932
23807SOL     OW73620   6.863   0.934   1.011 -0.0111  0.0030  0.3636
23807SOL    HW173621   6.878   0.957   1.103  1.0125  0.7558  0.0252
23807SOL    HW273622   6.934   0.978   0.963  0.8800 -2.2311 -0.5471
23808SOL     OW73623   0.274   7.251   3.811 -0.4574  0.5260 -0.1394
23808SOL    HW173624   0.264   7.304   3.732 -1.9133  1.8634  0.8666
23808SOL    HW273625   0.368   7.247   3.826 -0.1429  0.1899 -1.9422
23809SOL     OW73626   8.414   3.439   6.385  0.2749  0.1431 -0.6664
23809SOL    HW173627   8.460   3.367   6.428  1.0155  1.9804  1.8078
23809SOL    HW273628   8.483   3.488   6.339 -0.0226  0.0380 -1.2356
23810SOL     OW73629   1.229   0.443   8.824 -0.2244 -0.0249 -0.8408
23810SOL    HW173630   1.243   0.354   8.792  1.6039  0.0728 -0.3903
23810SOL    HW273631   1.141   0.466   8.792 -0.4003 -1.6736 -1.6515
23811SOL     OW73632   9.542   8.242   6.197 -0.0496 -0.1592 -0.9963
23811SOL    HW173633   9.607   8.172   6.187  0.7189  0.4767 -0.5496
23811SOL    HW273634   9.530   8.277   6.108 -0.3371 -0.7549 -1.1992
23812SOL     OW73635   1.833   0.605   4.492  0.2896  0.4667 -0.1799
23812SOL    HW173636   1.909   0.570   4.538  0.0680 -1.9519 -1.5448
23812SOL    HW273637   1.773   0.531   4.483 -1.5965  1.9359 -0.4978
23813SOL     OW73638   2.580   0.501   7.272  0.1158 -0.9346  0.3119
23813SOL    HW173639   2.596   0.593   7.291 -2.4679 -0.2875 -0.2804
23813SOL    HW273640   2.590   0.494   7.177 -2.0074 -0.6746  0.0264
23814SOL     OW73641   3.712   7.624   4.558  0.1726  0.1557  0.1485
23814SOL    HW173642   3.728   7.709   4.516 -0.8239  1.1894  1.7200
23814SOL    HW273643   3.617   7.621   4.570  0.2559 -0.9221  0.6563
23815SOL     OW73644   4.064   9.505   4.285  0.0860  0.2148  0.3430
23815SOL    HW173645   4.036   9.460   4.364  1.2802 -0.3572  0.4583
23815SOL    HW273646   4.111   9.438   4.234  2.4400  1.4011  0.7915
23816SOL     OW73647   1.808   1.667   5.142  0.1682  0.1264  0.3893
23816SOL    HW173648   1.756   1.702   5.214 -0.5302 -0.9795  0.4386
23816SOL    HW273649   1.862   1.599   5.183  1.8353  1.3660  0.3794
23817SOL     OW73650   1.506   1.262   2.744 -0.4601 -0.0940  0.9249
23817SOL    HW173651   1.543   1.332   2.690 -3.0769  1.0435  0.4869
23817SOL    HW273652   1.425   1.238   2.700 -0.7372 -1.8592  2.2969
23818SOL     OW73653   7.733   0.159   4.387 -0.1883  0.4793  0.4094
23818SOL    HW173654   7.680   0.080   4.397 -0.7946  0.7365 -0.5801
23818SOL    HW273655   7.669   0.230   4.383  0.2236  0.8231 -0.5408
23819SOL     OW73656   2.814   5.427   3.639  0.5747 -0.1156  0.8792
23819SOL    HW173657   2.855   5.353   3.685 -0.8208 -0.5348  1.5033
23819SOL    HW273658   2.740   5.451   3.695 -1.0290 -0.4781 -0.9999
23820SOL     OW73659   6.749   8.461   4.048  0.0763 -0.8771  0.9637
23820SOL    HW173660   6.727   8.412   3.969 -0.3253 -2.0227  1.7698
23820SOL    HW273661   6.665   8.492   4.082  0.4252  2.1868 -0.6108
23821SOL     OW73662   4.547   1.342   4.552 -0.0626  0.1208  0.1273
23821SOL    HW173663   4.486   1.415   4.547  0.8027  0.8484 -0.0191
23821SOL    HW273664   4.620   1.375   4.604 -0.7182 -1.4212  2.1224
23822SOL     OW73665   3.191   3.780   6.086  0.3177 -0.2661 -0.4281
23822SOL    HW173666   3.164   3.756   6.174 -0.6899  1.5350 -0.1905
23822SOL    HW273667   3.110   3.805   6.042  0.8096 -1.0554 -1.8588
23823SOL     OW73668   6.093   6.043   7.273 -0.6800 -0.0619  0.3700
23823SOL    HW173669   6.131   6.090   7.200 -0.8889 -0.9400 -0.3178
23823SOL    HW273670   6.157   5.975   7.294 -0.9521 -0.2734  0.5267
23824SOL     OW73671   1.693   3.579   2.526  0.3808 -0.1250 -0.1941
23824SOL    HW173672   1.786   3.597   2.519  0.1269  0.6955 -1.9626
23824SOL    HW273673   1.672   3.527   2.449 -0.7057  0.1243 -0.0909
23825SOL     OW73674   7.757   6.682   7.674  0.1654 -0.0837 -0.0555
23825SOL    HW173675   7.851   6.689   7.687  0.0597 -0.1622  0.8694
23825SOL    HW273676   7.727   6.626   7.746 -0.6913  0.6418  0.1858
23826SOL     OW73677   7.270   2.013   7.789  0.6023 -0.1834  0.3253
23826SOL    HW173678   7.204   1.997   7.856  2.0271  2.3930  2.5462
23826SOL    HW273679   7.315   1.928   7.779 -0.7154 -1.0534  1.3877
23827SOL     OW73680   3.285   9.418   1.459 -0.5358  0.8029  0.7773
23827SOL    HW173681   3.312   9.509   1.472 -1.6668  1.1694  0.6496
23827SOL    HW273682   3.197   9.424   1.421  0.0529 -0.3208 -0.8628
23828SOL     OW73683   1.117   6.055   6.142  0.0656  0.0227 -0.3723
23828SOL    HW173684   1.059   6.070   6.067  1.0816 -0.0858 -1.1995
23828SOL    HW273685   1.132   6.142   6.179 -1.3830 -0.0433  0.4626
23829SOL     OW73686   0.588   2.995   6.252 -0.0228  0.3495  0.6767
23829SOL    HW173687   0.641   3.067   6.220  1.8859 -0.5510  1.5787
23829SOL    HW273688   0.632   2.968   6.333 -1.3007 -1.1177  0.9317
23830SOL     OW73689   4.380   7.286   8.495  0.3881  0.6529  0.3530
23830SOL    HW173690   4.454   7.249   8.447 -0.5851 -0.0273 -0.6869
23830SOL    HW273691   4.349   7.357   8.440 -1.2657 -0.6698 -0.5191
23831SOL     OW73692   0.669   5.048   1.863  0.6026  0.7943 -0.0503
23831SOL    HW173693   0.611   5.114   1.900  1.0958  0.7580  0.8108
23831SOL    HW273694   0.739   5.039   1.928  0.2507 -0.9949  0.1257
23832SOL     OW73695   8.256   8.156   5.147  0.6849  0.1572 -0.3820
23832SOL    HW173696   8.188   8.210   5.107  1.2790  0.8004 -0.5156
23832SOL    HW273697   8.207   8.093   5.201 -0.0212  0.5212 -0.5927
23833SOL     OW73698   4.828   2.790   6.371 -0.7187  0.6102 -0.2379
23833SOL    HW173699   4.760   2.778   6.437 -0.5229 -0.5789 -0.2333
23833SOL    HW273700   4.885   2.859   6.407 -1.0290  0.4977  0.4801
23834SOL     OW73701   4.684   8.780   4.246 -0.5040  0.0207  0.2628
23834SOL    HW173702   4.676   8.694   4.205 -1.7809  0.4532 -0.4712
23834SOL    HW273703   4.745   8.828   4.190  0.5555 -0.5199  0.9189
23835SOL     OW73704   1.183   9.010   6.182  0.3385 -0.1398  0.3070
23835SOL    HW173705   1.144   8.923   6.185 -0.0226 -0.0007 -0.1407
23835SOL    HW273706   1.249   9.010   6.251  0.3822 -0.7898  0.2667
23836SOL     OW73707   2.215   6.112   7.778  0.1659  0.4490 -0.5370
23836SOL    HW173708   2.178   6.086   7.694  1.2045  1.5742 -1.3654
23836SOL    HW273709   2.309   6.110   7.766  0.3208  1.6637  0.2632
23837SOL     OW73710   0.387   9.219   4.595 -0.4762  0.4955 -0.6602
23837SOL    HW173711   0.360   9.129   4.616 -1.8059  0.7395 -1.2459
23837SOL    HW273712   0.478   9.210   4.567 -0.4457 -0.6066 -0.2773
23838SOL     OW73713   1.742   5.803   0.057 -0.1224 -0.1726  0.3797
23838SOL    HW173714   1.672   5.868   0.051 -0.4789 -0.5645  0.2691
23838SOL    HW273715   1.810   5.837  -0.001 -0.7001 -0.3791 -0.4319
23839SOL     OW73716   4.134   9.318   8.609  0.4723  0.7374 -0.3167
23839SOL    HW173717   4.205   9.379   8.589  1.6097 -1.0489 -2.1531
23839SOL    HW273718   4.084   9.312   8.527 -2.3160  2.4693  1.1180
23840SOL     OW73719   9.447   3.350   5.353  0.0972  0.3186 -0.5608
23840SOL    HW173720   9.499   3.384   5.425 -0.2549 -0.5119  0.0999
23840SOL    HW273721   9.436   3.257   5.373 -0.6952  0.2515 -1.2644
23841SOL     OW73722   5.927   4.398   5.408 -0.1725  0.4628 -0.3430
23841SOL    HW173723   5.917   4.390   5.503  0.5826 -1.1581 -0.3658
23841SOL    HW273724   6.001   4.457   5.396 -0.0963  0.4548  0.0796
23842SOL     OW73725   1.250   3.332   0.239  0.7867  0.0939 -0.5991
23842SOL    HW173726   1.316   3.397   0.262  1.1658 -0.2694 -0.6368
23842SOL    HW273727   1.273   3.304   0.150  0.3234  0.2796 -0.7784
23843SOL     OW73728   3.609   2.776   1.517  0.2950 -0.1586 -0.3018
23843SOL    HW173729   3.596   2.856   1.466 -0.1208 -0.3311 -0.4676
23843SOL    HW273730   3.609   2.806   1.608  2.9750  0.4391 -0.4181
23844SOL     OW73731   0.856   7.771   0.753 -0.7684  0.2016 -0.1150
23844SOL    HW173732   0.778   7.766   0.808 -0.2548 -0.5787  0.5764
23844SOL    HW273733   0.928   7.749   0.812 -0.0661  0.5369 -0.8315
23845SOL     OW73734   4.157   6.803   8.944  0.9246 -0.4429 -0.2639
23845SOL    HW173735   4.121   6.890   8.925 -0.2167 -0.8879 -0.1462
23845SOL    HW273736   4.222   6.789   8.874  0.0992 -0.0948 -1.1214
23846SOL     OW73737   5.394   2.556   6.554  0.0497  0.0729 -0.5743
23846SOL    HW173738   5.371   2.478   6.503  0.8739 -1.2665  1.0247
23846SOL    HW273739   5.327   2.621   6.530 -1.4623 -1.5490 -0.9316
23847SOL     OW73740   6.822   6.006   6.239 -0.7171 -0.0856 -0.2529
23847SOL    HW173741   6.739   5.967   6.212 -0.9701 -0.3851  0.9421
23847SOL    HW273742   6.820   6.007   6.334  0.2279  0.8415 -0.2175
23848SOL     OW73743   2.935   3.474   9.200  0.6161  0.2745  0.5101
23848SOL    HW173744   2.958   3.442   9.113  0.2869 -2.8593  1.4477
23848SOL    HW273745   3.005   3.444   9.256 -0.8714 -0.8691  1.8461
23849SOL     OW73746   2.401   2.183   5.108 -0.2215  0.0568 -0.0644
23849SOL    HW173747   2.426   2.140   5.190  3.4583  1.9030  0.0131
23849SOL    HW273748   2.394   2.276   5.131 -1.5385  0.3196 -1.4108
23850SOL     OW73749   6.041   4.862   5.352  0.6208 -0.1638 -0.5929
23850SOL    HW173750   6.079   4.781   5.318 -0.0286 -0.0082 -1.7540
23850SOL    HW273751   6.018   4.842   5.443  2.2513 -0.6576 -0.2461
23851SOL     OW73752   0.600   6.974   1.463 -0.2136 -0.0448  0.1899
23851SOL    HW173753   0.617   6.953   1.555 -1.0212  1.1641  0.6401
23851SOL    HW273754   0.558   6.895   1.428 -0.5767 -0.2513  1.0599
23852SOL     OW73755   9.326   8.076   8.751 -0.0373 -0.3333  0.0421
23852SOL    HW173756   9.394   8.056   8.816  0.6348  0.4879 -0.3981
23852SOL    HW273757   9.277   7.994   8.743  0.1298 -0.5737  1.2696
23853SOL     OW73758   0.723   3.999   8.814 -0.1611  0.4775  0.1886
23853SOL    HW173759   0.663   4.071   8.796 -0.1618  0.0828 -1.5852
23853SOL    HW273760   0.809   4.032   8.788 -0.1356 -0.0874 -0.4711
23854SOL     OW73761   2.895   5.148   7.140 -0.7307 -0.5206  0.1018
23854SOL    HW173762   2.979   5.114   7.108 -0.1021  1.0648 -0.0297
23854SOL    HW273763   2.872   5.090   7.212  0.7717 -0.6605  0.5072
23855SOL     OW73764   2.521   0.137   5.077 -0.1908  0.5576  0.0668
23855SOL    HW173765   2.526   0.105   4.986 -1.2119  1.6664 -0.4093
23855SOL    HW273766   2.584   0.083   5.125 -1.4523 -1.8126 -0.7750
23856SOL     OW73767   0.291   3.533   4.944  0.7443 -0.0382  0.1954
23856SOL    HW173768   0.306   3.596   4.874 -1.7083  1.0409  0.5273
23856SOL    HW273769   0.374   3.529   4.991  2.2145 -0.2267 -2.2703
23857SOL     OW73770   5.889   7.614   6.129 -0.1228  0.1313  0.2385
23857SOL    HW173771   5.965   7.582   6.178 -0.4257  0.5644  1.0002
23857SOL    HW273772   5.881   7.553   6.056 -1.1047 -2.0065  2.0187
23858SOL     OW73773   4.459   5.247   4.736 -0.2367 -0.2717 -0.4944
23858SOL    HW173774   4.521   5.185   4.777 -0.6277 -0.9336 -0.8894
23858SOL    HW273775   4.451   5.318   4.800 -0.3615 -0.9947  0.3196
23859SOL     OW73776   1.896   3.754   4.238  0.2290  0.1249  0.0052
23859SOL    HW173777   1.941   3.838   4.245 -1.2210  1.0067 -0.7955
23859SOL    HW273778   1.954   3.699   4.186  2.3868 -0.2778  2.6462
23860SOL     OW73779   0.819   8.983   6.516 -0.1995 -0.3365  1.0126
23860SOL    HW173780   0.850   9.008   6.429  0.5221 -1.1271  1.0365
23860SOL    HW273781   0.810   8.888   6.513  0.4751 -0.4452  2.0086
23861SOL     OW73782   7.388   2.161   7.329 -0.0577 -0.5046 -0.0319
23861SOL    HW173783   7.303   2.172   7.371  0.3148  1.7875  0.2624
23861SOL    HW273784   7.371   2.174   7.236  0.0933  1.1205  0.1372
23862SOL     OW73785   4.171   6.311   1.824  0.0328 -0.1948  0.1570
23862SOL    HW173786   4.256   6.299   1.867 -1.0919 -0.3813  2.4575
23862SOL    HW273787   4.154   6.227   1.781  0.9659 -0.1603 -0.3137
23863SOL     OW73788   2.725   7.184   1.045  0.1899  0.0059 -0.0136
23863SOL    HW173789   2.689   7.148   0.964 -0.9393  0.7739  0.1283
23863SOL    HW273790   2.649   7.202   1.099  0.9731 -1.6803  1.7582
23864SOL     OW73791   4.187   4.708   5.986 -0.3715  0.4043 -0.1706
23864SOL    HW173792   4.219   4.674   5.902 -1.2046  0.2910 -0.4502
23864SOL    HW273793   4.154   4.630   6.031  1.8316  0.1258  1.1075
23865SOL     OW73794   3.689   6.077   4.711  0.7917 -0.0568 -0.3837
23865SOL    HW173795   3.635   6.145   4.671  3.6911  1.3611 -2.2524
23865SOL    HW273796   3.637   5.997   4.704 -0.8931  1.1293 -2.3973
23866SOL     OW73797   1.611   2.517   1.255  0.6504  0.5195  0.3518
23866SOL    HW173798   1.575   2.480   1.335  0.6954  0.4929  0.3601
23866SOL    HW273799   1.627   2.442   1.198  1.0281  0.4960  0.4849
23867SOL     OW73800   3.596   2.064   2.183 -0.2020 -0.0235 -0.1004
23867SOL    HW173801   3.571   1.971   2.190  0.6398 -0.4825 -2.1599
23867SOL    HW273802   3.691   2.062   2.181 -0.1890  0.8493 -0.4928
23868SOL     OW73803   5.507   7.539   3.004 -0.2828 -0.1551 -0.2746
23868SOL    HW173804   5.476   7.553   3.093  0.3892 -0.5453  0.0225
23868SOL    HW273805   5.577   7.474   3.012 -0.1554 -0.1291 -1.0719
23869SOL     OW73806   0.121   3.088   2.641  0.1270  0.0895  0.2612
23869SOL    HW173807   0.123   3.183   2.631  0.7671  0.1930  1.2187
23869SOL    HW273808   0.052   3.072   2.706  0.1846 -0.0786  0.2828
23870SOL     OW73809   2.733   0.896   8.696  0.0246  0.0025  0.7188
23870SOL    HW173810   2.712   0.983   8.664  1.3030  0.5671  1.3474
23870SOL    HW273811   2.685   0.887   8.778 -0.6489 -0.1611  0.3096
23871SOL     OW73812   4.650   3.706   1.188 -0.1276  0.1490 -0.2295
23871SOL    HW173813   4.581   3.672   1.131 -1.5188 -1.1739  2.0601
23871SOL    HW273814   4.607   3.774   1.240  0.9421  0.9378 -0.3500
23872SOL     OW73815   6.772   8.766   5.193  0.2171 -0.2924  0.1392
23872SOL    HW173816   6.750   8.824   5.266 -0.3571 -0.7295  0.3197
23872SOL    HW273817   6.867   8.771   5.187  0.2084  0.3476  0.4152
23873SOL     OW73818   2.678   3.363   0.246  0.3852 -0.2303  0.0816
23873SOL    HW173819   2.667   3.331   0.156  2.7205 -1.4654  0.1697
23873SOL    HW273820   2.712   3.288   0.294  0.0559  0.6738  1.8146
23874SOL     OW73821   9.478   9.565   6.319 -0.4467 -0.0553 -0.4927
23874SOL    HW173822   9.412   9.508   6.358 -0.9299  1.1415  0.5101
23874SOL    HW273823   9.435   9.651   6.313  1.1901  0.9264  0.7764
23875SOL     OW73824   4.240   2.876   5.711 -0.2767 -0.3452 -0.4132
23875SOL    HW173825   4.150   2.901   5.733  0.5289  2.0934  0.4432
23875SOL    HW273826   4.290   2.957   5.720  1.3648 -0.6083 -4.9043
23876SOL     OW73827   4.321   1.707   6.493 -0.4750 -0.0664 -0.3179
23876SOL    HW173828   4.285   1.619   6.485 -1.1534  0.1568  0.2235
23876SOL    HW273829   4.390   1.710   6.427 -0.4377 -1.0030 -0.3435
23877SOL     OW73830   7.364   6.582   1.391  0.2055 -0.1688  0.0534
23877SOL    HW173831   7.302   6.643   1.349 -0.0144  0.6606  1.5137
23877SOL    HW273832   7.315   6.546   1.464  1.3779  0.3705  1.1333
23878SOL     OW73833   3.217   1.514   8.322 -0.1947  0.2464  0.1288
23878SOL    HW173834   3.239   1.605   8.342 -0.6573 -0.0262  2.0794
23878SOL    HW273835   3.278   1.462   8.375 -0.3158 -0.5690 -0.5153
23879SOL     OW73836   9.230   6.834   0.218 -0.4634 -0.3868  0.2210
23879SOL    HW173837   9.277   6.870   0.143 -1.3919  1.0210  0.2797
23879SOL    HW273838   9.273   6.873   0.294 -1.5613  0.7668  0.2805
23880SOL     OW73839   8.567   8.343   7.232  0.1727 -0.3257  0.0724
23880SOL    HW173840   8.488   8.381   7.193  0.8423  0.0185 -1.0045
23880SOL    HW273841   8.591   8.271   7.173 -0.3745 -1.6524  1.4167
23881SOL     OW73842   1.335   1.558   2.460  0.2580  0.3554  0.6062
23881SOL    HW173843   1.305   1.532   2.372  2.3038  0.6663 -0.2397
23881SOL    HW273844   1.270   1.520   2.519 -0.3736 -1.1472 -0.9522
23882SOL     OW73845   2.282   9.287   4.921 -0.1543 -0.3660 -0.3905
23882SOL    HW173846   2.229   9.364   4.899 -1.4018 -1.2648 -0.6514
23882SOL    HW273847   2.312   9.304   5.010 -2.3442 -0.5757  0.4490
23883SOL     OW73848   3.564   8.772   6.070 -0.5139  0.0247  0.6376
23883SOL    HW173849   3.529   8.707   6.010  1.3024 -0.4724  0.0497
23883SOL    HW273850   3.490   8.795   6.126 -1.5097 -1.6351  0.0829
23884SOL     OW73851   1.008   5.984   2.099  0.0655  0.1230  0.5099
23884SOL    HW173852   1.005   5.928   2.021 -0.4776 -0.0911  0.6835
23884SOL    HW273853   1.017   6.072   2.064  2.6551 -0.1775  0.2637
23885SOL     OW73854   8.750   7.413   1.054  0.1702 -0.4352 -0.5471
23885SOL    HW173855   8.676   7.356   1.074  0.3104 -0.5430 -0.3259
23885SOL    HW273856   8.825   7.354   1.052  0.3199 -0.2550 -0.2854
23886SOL     OW73857   7.247   1.425   9.567 -0.6520 -0.2840  0.6174
23886SOL    HW173858   7.288   1.363   9.507  1.4968  0.4802  1.2108
23886SOL    HW273859   7.209   1.370   9.635  0.5634 -1.0251  0.7329
23887SOL     OW73860   1.663   3.923   5.875 -0.0641  0.1960 -0.5635
23887SOL    HW173861   1.617   3.911   5.959  0.4301  1.3988 -0.0965
23887SOL    HW273862   1.704   3.838   5.858 -0.0932 -0.0427  0.4612
23888SOL     OW73863   3.541   8.753   8.835  0.1521 -0.5998 -0.2455
23888SOL    HW173864   3.625   8.728   8.796 -0.6043 -0.0654 -2.3253
23888SOL    HW273865   3.565   8.812   8.906  1.5340  0.1202 -1.2643
23889SOL     OW73866   9.045   1.781   8.045  0.6829  1.0813  0.0070
23889SOL    HW173867   9.011   1.837   8.115  1.2039  0.3419  0.8819
23889SOL    HW273868   9.137   1.806   8.037  0.8421  0.5635  0.1965
23890SOL     OW73869   1.493   4.844   0.007 -0.1822  0.1410 -0.0655
23890SOL    HW173870   1.424   4.794  -0.035  0.1737  0.0682 -0.5875
23890SOL    HW273871   1.457   4.870   0.092  0.7194 -3.6852  1.6974
23891SOL     OW73872   3.267   0.638   3.227 -0.1624 -0.2567 -0.0556
23891SOL    HW173873   3.268   0.577   3.154  1.1948 -0.3325 -0.0023
23891SOL    HW273874   3.241   0.722   3.188  2.6910  0.2440 -1.1535
23892SOL     OW73875   8.298   5.629   1.507  0.4877  0.1332  1.0027
23892SOL    HW173876   8.383   5.641   1.465 -0.4517 -1.6387 -1.5947
23892SOL    HW273877   8.254   5.713   1.497  0.7141  0.0774 -0.6373
23893SOL     OW73878   2.856   6.669   1.886 -0.5065 -0.1304  0.4630
23893SOL    HW173879   2.939   6.704   1.916 -0.1509  0.4834 -1.1248
23893SOL    HW273880   2.849   6.584   1.928  1.2145 -0.4518  0.1683
23894SOL     OW73881   0.532   1.654   0.890  0.2270  0.4616  0.1366
23894SOL    HW173882   0.477   1.660   0.968 -0.6664 -0.2276 -0.4133
23894SOL    HW273883   0.598   1.722   0.901 -0.0847  0.5885  1.3322
23895SOL     OW73884   6.469   6.946   3.147  0.2157 -0.0193  0.5838
23895SOL    HW173885   6.426   6.866   3.179  0.2495  0.4523  1.8623
23895SOL    HW273886   6.398   7.007   3.130  0.1111 -0.6331 -1.4013
23896SOL     OW73887   7.838   8.331   6.713 -0.3360  0.5774 -0.1886
23896SOL    HW173888   7.784   8.400   6.751  0.0304  1.1532 -0.6826
23896SOL    HW273889   7.799   8.315   6.627 -1.4661 -1.0675  0.5939
23897SOL     OW73890   0.269   1.902   9.115 -0.5398  0.0172  0.0529
23897SOL    HW173891   0.233   1.988   9.096 -0.2037 -0.0485 -0.9532
23897SOL    HW273892   0.229   1.877   9.198 -1.6754  0.5730 -0.3039
23898SOL     OW73893   1.861   2.578   5.623 -0.2741 -0.2120  0.2385
23898SOL    HW173894   1.849   2.645   5.556  1.7029 -0.1349 -0.0890
23898SOL    HW273895   1.819   2.500   5.587  2.5004 -0.7577 -2.1175
23899SOL     OW73896   7.676   1.411   3.523  0.4111 -0.0363 -0.2326
23899SOL    HW173897   7.591   1.444   3.494 -0.0751 -1.6839 -0.8072
23899SOL    HW273898   7.685   1.443   3.613 -0.5466  0.6423 -0.3652
23900SOL     OW73899   1.062   5.212   6.714  0.1891 -0.3498  0.0081
23900SOL    HW173900   1.017   5.278   6.662 -0.8712 -0.5201  0.6792
23900SOL    HW273901   1.148   5.250   6.732 -0.3663  0.8181  0.3082
23901SOL     OW73902   5.691   5.550   5.901  0.2734 -0.2258  0.0553
23901SOL    HW173903   5.597   5.534   5.888  0.7289 -2.5335 -0.6996
23901SOL    HW273904   5.735   5.480   5.854  2.5025  2.0826 -1.5982
23902SOL     OW73905   1.084   3.685   3.103 -0.1652 -0.2203  0.2076
23902SOL    HW173906   1.070   3.594   3.127  1.4271 -0.8130 -0.9350
23902SOL    HW273907   1.120   3.681   3.015  1.1877  1.4336  0.6338
23903SOL     OW73908   6.128   6.212   3.222  0.5707  0.6618  0.0143
23903SOL    HW173909   6.185   6.205   3.299  0.9003  0.0219 -0.2823
23903SOL    HW273910   6.166   6.283   3.171  1.4741 -0.1471 -0.4748
23904SOL     OW73911   6.150   9.555   8.011  0.3298  0.2905 -0.0209
23904SOL    HW173912   6.083   9.544   8.079  0.8812  0.4971  0.5630
23904SOL    HW273913   6.122   9.496   7.941 -0.0266 -0.2416  0.5530
23905SOL     OW73914   3.776   9.557   6.199 -0.0984  0.8427 -0.2203
23905SOL    HW173915   3.765   9.475   6.247 -1.1685  1.7773  1.2299
23905SOL    HW273916   3.819   9.615   6.263 -0.7800  1.8675 -0.6729
23906SOL     OW73917   2.595   6.686   0.662  0.2804 -0.0430 -0.1693
23906SOL    HW173918   2.596   6.597   0.626  0.6938  0.5791 -1.7919
23906SOL    HW273919   2.513   6.724   0.629 -1.1252 -0.5479  2.5125
23907SOL     OW73920   2.368   1.217   5.772  0.1687 -0.0665 -0.3762
23907SOL    HW173921   2.356   1.293   5.829 -0.6500 -0.0897 -0.5040
23907SOL    HW273922   2.424   1.249   5.701 -0.0763  0.3907 -0.3679
23908SOL     OW73923   3.693   4.709   8.134 -0.3384 -0.2185  0.2666
23908SOL    HW173924   3.688   4.770   8.061 -1.7352 -0.6440 -0.0269
23908SOL    HW273925   3.619   4.650   8.120  0.1332 -1.0857  1.3332
23909SOL     OW73926   4.730   1.960   7.476 -0.2214  0.0540  0.2076
23909SOL    HW173927   4.810   1.977   7.426 -0.0091  3.1350  1.4020
23909SOL    HW273928   4.686   2.045   7.480 -0.8138 -0.2794  4.2088
23910SOL     OW73929   3.536   7.154   4.469 -0.5008  0.3287 -0.5880
23910SOL    HW173930   3.566   7.140   4.379 -0.5974  0.0405 -0.5772
23910SOL    HW273931   3.581   7.233   4.497  2.9713 -1.8850  0.6077
23911SOL     OW73932   9.017   0.504   8.862 -0.0403  0.3181  0.2586
23911SOL    HW173933   8.959   0.446   8.911 -0.1568 -0.3091 -0.6122
23911SOL    HW273934   9.008   0.589   8.906  0.6126 -0.4409  1.9424
23912SOL     OW73935   1.540   2.296   7.310  0.4465  0.1636 -0.1658
23912SOL    HW173936   1.540   2.387   7.340 -0.6116 -0.0522  0.5490
23912SOL    HW273937   1.528   2.245   7.390 -2.8562 -0.4333 -0.9155
23913SOL     OW73938   5.109   8.865   6.642 -0.1879 -0.4235 -0.8024
23913SOL    HW173939   5.132   8.958   6.635 -0.2496 -0.4060 -0.7740
23913SOL    HW273940   5.060   8.858   6.724 -0.1241 -0.4930 -0.7702
23914SOL     OW73941   3.061   4.393   5.022 -0.0163  0.1226 -0.4728
23914SOL    HW173942   3.118   4.465   5.047  0.1542 -0.0434 -0.3823
23914SOL    HW273943   2.973   4.432   5.019 -0.2580 -0.1537  1.7767
23915SOL     OW73944   7.731   5.735   6.546  0.4609  0.0265 -0.2971
23915SOL    HW173945   7.665   5.722   6.479 -1.3191  0.2691  1.3096
23915SOL    HW273946   7.773   5.817   6.523 -0.5727  0.4371 -0.7909
23916SOL     OW73947   2.399   3.257   5.443  0.4929 -0.1368 -0.3824
23916SOL    HW173948   2.329   3.290   5.388  1.7304 -0.7876 -2.4632
23916SOL    HW273949   2.388   3.162   5.442  0.5815 -0.1655  0.4538
23917SOL     OW73950   0.764   6.495   7.069 -0.2831  0.3844 -0.2720
23917SOL    HW173951   0.680   6.465   7.036 -0.4465 -1.3420  1.4994
23917SOL    HW273952   0.742   6.547   7.147  0.2630  0.8629 -0.4266
23918SOL     OW73953   4.927   6.368   5.927  0.2427  0.3666  0.1276
23918SOL    HW173954   4.891   6.414   6.003  0.4124 -0.3829  0.6739
23918SOL    HW273955   4.939   6.278   5.957 -1.1657 -0.3391 -1.2550
23919SOL     OW73956   0.886   2.720   8.462  0.0153  0.4371  0.1475
23919SOL    HW173957   0.801   2.681   8.478  0.5390 -0.3563  1.0770
23919SOL    HW273958   0.936   2.652   8.417  0.9318  0.0006  1.7687
23920SOL     OW73959   7.881   9.098   3.489  0.5949  0.4463 -0.0947
23920SOL    HW173960   7.818   9.031   3.514  1.7177 -1.5893 -2.3215
23920SOL    HW273961   7.933   9.113   3.568 -0.3884 -0.4925  0.7536
23921SOL     OW73962   4.558   5.590   4.784  0.5959 -0.0828 -0.4504
23921SOL    HW173963   4.527   5.597   4.875  0.4187 -0.6061 -0.4671
23921SOL    HW273964   4.490   5.630   4.732  0.1406 -0.8376 -0.4498
23922SOL     OW73965   6.791   5.913   4.909  0.3797  0.4517 -0.5601
23922SOL    HW173966   6.761   5.923   4.818 -0.6922 -1.0952 -0.3965
23922SOL    HW273967   6.712   5.896   4.959  1.0425  0.6610  0.5915
23923SOL     OW73968   6.094   3.803   5.102  0.2676 -0.3468 -0.1025
23923SOL    HW173969   6.057   3.744   5.037 -1.4133  0.8247 -0.2889
23923SOL    HW273970   6.032   3.800   5.175  0.3639  0.8231  0.0600
23924SOL     OW73971   7.970   1.198   4.528  0.0741 -0.1848  0.0764
23924SOL    HW173972   7.892   1.253   4.535 -0.3567 -0.7077 -0.4850
23924SOL    HW273973   7.953   1.141   4.453  0.5451 -1.0305  0.5918
23925SOL     OW73974   6.024   8.275   2.835 -0.5198  0.3408 -0.2258
23925SOL    HW173975   5.942   8.325   2.828 -0.7159  0.1945  0.8127
23925SOL    HW273976   6.057   8.270   2.745 -2.7483 -1.4243 -1.0586
23926SOL     OW73977   4.579   5.069   7.569  0.0900  0.2533 -0.0883
23926SOL    HW173978   4.511   5.048   7.505  0.2428  0.4828 -0.3308
23926SOL    HW273979   4.659   5.076   7.517 -0.0637  2.1153 -0.1630
23927SOL     OW73980   2.777   1.478   3.856 -0.2180  0.0427  0.7472
23927SOL    HW173981   2.783   1.388   3.886  1.0645  0.5674  2.1793
23927SOL    HW273982   2.808   1.475   3.765  1.3317 -0.7440  1.2610
23928SOL     OW73983   6.802   5.135   0.052 -0.0023  0.3001  0.3607
23928SOL    HW173984   6.773   5.219   0.086  1.1523  0.8004  0.1589
23928SOL    HW273985   6.736   5.073   0.082 -0.9903  1.3019  0.3305
23929SOL     OW73986   1.635   6.719   8.099  0.2753  0.1092  0.2911
23929SOL    HW173987   1.597   6.632   8.085  1.0273 -0.5199  1.8686
23929SOL    HW273988   1.725   6.710   8.068 -0.5404  1.4283 -2.8930
23930SOL     OW73989   0.474   2.989   8.116 -0.6302 -0.1009 -0.4025
23930SOL    HW173990   0.508   3.078   8.109 -1.0569  0.1078  0.1067
23930SOL    HW273991   0.529   2.948   8.183 -1.0767  0.1038  0.1049
23931SOL     OW73992   9.039   2.540   8.713 -0.2575 -0.6873  0.2457
23931SOL    HW173993   9.084   2.498   8.786 -1.3797  0.4891  1.6832
23931SOL    HW273994   9.101   2.604   8.680  0.3274 -1.3572  0.0099
23932SOL     OW73995   7.466   5.606   4.537 -0.1786 -0.5307  0.0051
23932SOL    HW173996   7.530   5.677   4.543 -0.5830 -0.2590  1.2175
23932SOL    HW273997   7.401   5.625   4.605 -2.0258 -0.3464 -1.7129
23933SOL     OW73998   4.377   3.517   0.826  0.0643  0.3287 -0.0947
23933SOL    HW173999   4.328   3.590   0.788  0.5124  0.1324 -1.0862
23933SOL    HW274000   4.415   3.472   0.750 -0.5685 -1.2023  0.4628
23934SOL     OW74001   5.612   0.780   2.477 -0.1927  0.2622  0.5269
23934SOL    HW174002   5.551   0.751   2.410 -0.7883 -1.8705  1.8928
23934SOL    HW274003   5.558   0.829   2.540 -0.1744 -0.1246  0.8484
23935SOL     OW74004   0.169   9.036   8.206 -0.5435  0.1639  0.1786
23935SOL    HW174005   0.169   9.090   8.286 -0.9963  2.8480 -1.5191
23935SOL    HW274006   0.083   9.051   8.167 -0.5389 -1.5693 -0.5507
23936SOL     OW74007   4.432   4.148   3.337 -0.7988  0.3196  0.2822
23936SOL    HW174008   4.515   4.169   3.379 -1.4585  0.1417  1.7711
23936SOL    HW274009   4.456   4.105   3.255  0.5950 -0.8847  1.2645
23937SOL     OW74010   1.713   1.165   0.174 -0.5090 -0.0906 -0.1833
23937SOL    HW174011   1.627   1.130   0.149 -1.3035  2.0586 -0.6949
23937SOL    HW274012   1.718   1.249   0.128  2.2306 -0.5150 -0.8154
23938SOL     OW74013   0.147   6.166   0.329 -0.0318 -0.0519  0.7564
23938SOL    HW174014   0.216   6.232   0.320  1.5662 -1.5306  1.4956
23938SOL    HW274015   0.172   6.116   0.407  0.0223 -2.8684 -0.9543
23939SOL     OW74016   3.814   7.929   6.906 -0.6703  0.1838 -0.2256
23939SOL    HW174017   3.759   7.859   6.872 -0.1406  0.8884 -2.7538
23939SOL    HW274018   3.781   8.008   6.864  0.2300  1.1235  0.7541
23940SOL     OW74019   6.611   4.830   4.905 -0.3351  0.0064  0.2209
23940SOL    HW174020   6.543   4.769   4.877 -0.3894 -0.5296  1.4754
23940SOL    HW274021   6.570   4.916   4.902 -0.8226 -0.2266  0.2409
23941SOL     OW74022   5.612   9.045   3.083 -0.3149 -0.2528 -0.9583
23941SOL    HW174023   5.702   9.043   3.116  0.0557  0.9361 -1.8094
23941SOL    HW274024   5.621   9.078   2.993 -1.6616  0.6175 -0.7955
23942SOL     OW74025   1.919   2.809   4.004  0.7451 -0.1109  0.3129
23942SOL    HW174026   2.003   2.850   4.024  0.9419  0.2251 -1.0808
23942SOL    HW274027   1.867   2.878   3.962 -0.1977 -0.3396  1.0606
23943SOL     OW74028   2.687   7.504   4.290 -0.0649 -0.1963 -0.5824
23943SOL    HW174029   2.775   7.537   4.310  0.3634 -2.7541  2.7198
23943SOL    HW274030   2.640   7.511   4.373 -2.0440 -1.5922 -1.5034
23944SOL     OW74031   1.346   5.435   6.842 -0.1146 -0.0178  0.3613
23944SOL    HW174032   1.401   5.396   6.774  1.2726  0.5630  1.1083
23944SOL    HW274033   1.308   5.512   6.800 -0.9296 -0.7915 -0.3692
23945SOL     OW74034   4.589   8.024   5.240  0.2000 -0.2088  0.1856
23945SOL    HW174035   4.602   7.937   5.202  2.2962  0.0703  0.1517
23945SOL    HW274036   4.505   8.018   5.286 -0.1254 -1.9623 -0.5778
23946SOL     OW74037   3.012   9.487   0.939 -0.4576 -0.0369  0.0954
23946SOL    HW174038   3.101   9.522   0.936 -0.6163  0.3680 -2.7583
23946SOL    HW274039   2.965   9.545   0.999  0.8321  0.6858  0.4375
23947SOL     OW74040   0.390   0.865   0.650  0.1466 -0.3561  0.0702
23947SOL    HW174041   0.319   0.870   0.586  0.1689 -0.0993  0.0679
23947SOL    HW274042   0.460   0.817   0.605 -0.1918 -1.0159  0.2263
23948SOL     OW74043   7.237   2.834   1.209 -0.1782 -0.0617  0.5104
23948SOL    HW174044   7.286   2.803   1.285  0.7744  1.0277  0.3620
23948SOL    HW274045   7.288   2.907   1.175  0.0720 -1.2463 -1.8948
23949SOL     OW74046   6.610   9.228   8.071  0.2173 -0.1335 -0.0683
23949SOL    HW174047   6.643   9.141   8.092 -0.6651 -0.4118  0.2067
23949SOL    HW274048   6.641   9.283   8.143 -0.4617 -0.5261  0.5397
23950SOL     OW74049   8.706   2.289   8.745  0.2296 -0.3652  0.4754
23950SOL    HW174050   8.643   2.270   8.814 -2.1683 -1.5480 -1.8569
23950SOL    HW274051   8.716   2.384   8.747 -1.3207 -0.1870  1.2052
23951SOL     OW74052   1.208   5.368   5.214 -0.9826 -0.5921 -0.1817
23951SOL    HW174053   1.224   5.462   5.213 -2.3080 -0.3527 -1.3951
23951SOL    HW274054   1.279   5.332   5.160 -0.2299 -0.3666  0.6215
23952SOL     OW74055   4.315   2.456   1.676 -0.3040 -0.1554  0.1736
23952SOL    HW174056   4.337   2.527   1.616 -0.8527  2.0265  2.3880
23952SOL    HW274057   4.219   2.456   1.679 -0.2834 -0.0648  1.1984
23953SOL     OW74058   8.650   6.534   1.238 -0.1435 -0.8279 -0.4501
23953SOL    HW174059   8.708   6.482   1.182  0.5893 -0.0806 -0.3913
23953SOL    HW274060   8.565   6.490   1.230 -0.3866 -0.0393 -3.1452
23954SOL     OW74061   8.837   8.654   2.565  0.1868 -1.0741 -0.0803
23954SOL    HW174062   8.856   8.674   2.657  1.4939  2.2337 -0.9291
23954SOL    HW274063   8.899   8.586   2.541  2.4620  0.6571  0.5815
23955SOL     OW74064   5.384   8.188   1.247 -0.0589 -0.1777 -0.3629
23955SOL    HW174065   5.410   8.271   1.287  1.5589 -0.6310 -0.3854
23955SOL    HW274066   5.310   8.158   1.299  0.0047  0.7731  0.2985
23956SOL     OW74067   5.056   1.895   8.395  0.6032 -0.4431  0.6912
23956SOL    HW174068   5.013   1.971   8.433 -0.3511 -0.8502  0.4485
23956SOL    HW274069   5.150   1.910   8.411  0.6925  1.8959 -1.3144
23957SOL     OW74070   7.905   6.658   6.337 -0.2982 -0.6148 -0.1056
23957SOL    HW174071   7.865   6.647   6.423 -1.8994  0.8442 -0.6090
23957SOL    HW274072   7.840   6.623   6.276  1.4357 -3.0322 -0.7148
23958SOL     OW74073   1.208   6.546   0.621 -0.3120 -0.1668 -0.2820
23958SOL    HW174074   1.137   6.605   0.597 -0.6882 -0.7027 -0.4986
23958SOL    HW274075   1.244   6.583   0.702 -1.4276 -0.3836  0.3304
23959SOL     OW74076   5.065   8.096   8.765  0.0094  0.2143  0.1929
23959SOL    HW174077   5.014   8.077   8.686  0.3755  0.6676 -0.1598
23959SOL    HW274078   5.110   8.179   8.745  2.2204 -0.9825 -0.1934
23960SOL     OW74079   6.168   4.127   4.583 -0.2208  0.1695 -0.4482
23960SOL    HW174080   6.094   4.117   4.643 -0.3236 -1.2212 -0.7918
23960SOL    HW274081   6.237   4.072   4.620  0.0068 -0.0195 -1.1403
23961SOL     OW74082   2.944   1.968   1.262  0.0251  0.3804 -0.4750
23961SOL    HW174083   2.988   1.944   1.343  0.1683  1.0698 -0.3453
23961SOL    HW274084   3.013   1.972   1.196 -0.0490  0.1036 -0.5717
23962SOL     OW74085   5.491   3.856   8.666  0.3946 -0.6280  0.0320
23962SOL    HW174086   5.426   3.865   8.736  1.2620 -0.1897  0.8116
23962SOL    HW274087   5.559   3.800   8.703  1.2701  0.2855 -0.1301
23963SOL     OW74088   4.803   7.338   3.571  0.2957 -0.2062 -0.2117
23963SOL    HW174089   4.865   7.349   3.643  1.2678 -0.0547 -1.0443
23963SOL    HW274090   4.717   7.346   3.612  0.7987  2.6605  0.5515
23964SOL     OW74091   1.435   2.026   1.333  0.2443  0.2184 -0.4502
23964SOL    HW174092   1.386   1.944   1.327 -1.9882  1.5053 -0.9818
23964SOL    HW274093   1.440   2.043   1.427  0.3810 -0.3141 -0.3546
23965SOL     OW74094   1.845   0.398   8.698  0.4832 -0.1379  0.0507
23965SOL    HW174095   1.753   0.405   8.674  0.8266  0.1604 -1.2568
23965SOL    HW274096   1.869   0.308   8.675  0.5424 -0.2051  0.3594
23966SOL     OW74097   6.338   3.999   9.013  0.0699  0.1216  0.0821
23966SOL    HW174098   6.346   4.054   8.936  1.6462  1.8157  1.3766
23966SOL    HW274099   6.353   4.058   9.087 -0.4227 -1.6163  1.6559
23967SOL     OW74100   8.091   4.082   4.592  0.0477  0.1464  0.3804
23967SOL    HW174101   8.008   4.103   4.551  0.4625  0.2016 -0.4520
23967SOL    HW274102   8.077   3.998   4.635 -1.0183  1.0944  1.9826
23968SOL     OW74103   9.045   3.073   7.980  1.0515 -0.5127 -0.6772
23968SOL    HW174104   9.030   3.127   7.902 -1.4293 -0.8200 -0.4863
23968SOL    HW274105   9.121   3.114   8.023  1.1432  0.9530 -2.1332
23969SOL     OW74106   6.454   3.346   3.987 -0.3601  0.1180  0.0621
23969SOL    HW174107   6.479   3.386   4.070  1.1258 -2.5933  1.0414
23969SOL    HW274108   6.416   3.261   4.011 -0.9404 -0.2646 -1.9939
23970SOL     OW74109   1.188   4.923   1.885  0.2607 -0.4664  0.4448
23970SOL    HW174110   1.160   4.947   1.973 -3.1865  1.1725 -0.9089
23970SOL    HW274111   1.179   4.828   1.882  0.0819 -0.5058  1.7139
23971SOL     OW74112   3.452   7.788   4.168  0.1721 -0.7591  0.2135
23971SOL    HW174113   3.408   7.715   4.124  0.0683  0.8273 -2.5843
23971SOL    HW274114   3.447   7.860   4.105 -0.3055  1.9059  3.0742
23972SOL     OW74115   1.579   6.550   8.482  0.4236  0.0652 -0.2416
23972SOL    HW174116   1.620   6.632   8.455  0.0074  0.4655  0.3219
23972SOL    HW274117   1.492   6.576   8.514  1.2472 -0.1950  2.4611
23973SOL     OW74118   4.784   8.962   8.335 -0.1057 -0.2858  0.0286
23973SOL    HW174119   4.772   8.872   8.364 -0.0410  0.0692  1.2159
23973SOL    HW274120   4.695   8.996   8.325 -0.3530  0.9868  4.4606
23974SOL     OW74121   1.170   7.645   2.049  0.2729  0.3032 -0.3454
23974SOL    HW174122   1.162   7.610   1.960 -0.4109  1.0224 -0.5806
23974SOL    HW274123   1.173   7.567   2.104  0.4777 -0.1515 -0.9796
23975SOL     OW74124   2.208   8.767   5.990 -0.4181 -0.1005  0.2614
23975SOL    HW174125   2.234   8.721   5.910 -0.4772 -0.0788  0.2293
23975SOL    HW274126   2.133   8.820   5.963 -0.0831  0.3522  0.1874
23976SOL     OW74127   2.524   6.501   3.525  0.3835  0.0782  0.4657
23976SOL    HW174128   2.450   6.547   3.565 -0.2608  0.8369 -1.4788
23976SOL    HW274129   2.542   6.428   3.585 -0.7275  0.9491  1.9237
23977SOL     OW74130   1.565   1.700   3.282  0.3140 -0.7415  0.2107
23977SOL    HW174131   1.535   1.660   3.363  0.7886 -0.7451  0.3859
23977SOL    HW274132   1.590   1.625   3.227 -0.9819 -0.8066 -0.3486
23978SOL     OW74133   2.038   0.844   8.875 -0.0290  0.4059  0.2652
23978SOL    HW174134   1.983   0.766   8.870  0.7194 -0.0730 -0.8337
23978SOL    HW274135   2.068   0.846   8.966 -1.2074  0.2361  0.6747
23979SOL     OW74136   2.627   5.023   3.086  0.1846 -0.2958  0.4572
23979SOL    HW174137   2.611   5.020   3.180  0.1436 -0.5492  0.4420
23979SOL    HW274138   2.633   5.117   3.066  1.2409 -0.2642  0.8850
23980SOL     OW74139   7.552   8.309   0.417 -0.4138 -0.3484  0.1488
23980SOL    HW174140   7.543   8.404   0.416 -0.4721 -0.3594 -0.2815
23980SOL    HW274141   7.473   8.277   0.373 -1.3227 -0.6650  1.8941
23981SOL     OW74142   0.981   2.983   3.326  0.5972 -0.3658  0.3123
23981SOL    HW174143   0.896   3.026   3.321  0.6860 -0.3181 -1.2046
23981SOL    HW274144   1.040   3.050   3.362  0.4797  0.4315 -0.8961
23982SOL     OW74145   9.383   0.228   6.595 -0.3323  0.0749  0.5245
23982SOL    HW174146   9.306   0.195   6.550 -0.3022  0.6725  0.0288
23982SOL    HW274147   9.444   0.251   6.525  0.8217 -1.5882  0.9241
23983SOL     OW74148   3.056   0.755   5.818  0.1667 -0.6815  0.2298
23983SOL    HW174149   2.962   0.748   5.799  0.4543 -2.0871 -0.9062
23983SOL    HW274150   3.081   0.666   5.843  1.4014 -0.5580 -0.5125
23984SOL     OW74151   2.160   0.701   4.341 -0.1646 -0.4475  0.0725
23984SOL    HW174152   2.102   0.701   4.264 -0.2735  2.0828  0.0820
23984SOL    HW274153   2.118   0.642   4.403 -1.9997  0.2405 -0.4664
23985SOL     OW74154   7.535   7.717   6.518  0.1288 -0.0624 -0.0659
23985SOL    HW174155   7.565   7.687   6.432 -1.1648  1.0408 -0.9525
23985SOL    HW274156   7.537   7.813   6.512  1.1871  0.0504  1.5900
23986SOL     OW74157   2.823   5.916   3.193  0.2273 -0.4640 -0.8053
23986SOL    HW174158   2.784   5.862   3.262 -0.1897 -0.3363 -0.9391
23986SOL    HW274159   2.917   5.896   3.198  0.6130  1.4414  1.5158
23987SOL     OW74160   1.914   2.886   0.852 -1.0088 -0.4288 -0.2085
23987SOL    HW174161   1.901   2.816   0.915  1.2285 -1.1449 -0.4520
23987SOL    HW274162   1.826   2.919   0.834 -1.9087 -1.7428  1.5094
23988SOL     OW74163   6.414   8.755   7.153 -0.3213 -0.3893 -0.9279
23988SOL    HW174164   6.431   8.666   7.123 -1.1642 -1.0811  0.5068
23988SOL    HW274165   6.495   8.803   7.136  0.0363 -1.3386 -2.0007
23989SOL     OW74166   5.988   8.895   4.292  0.1869  0.2411  0.2903
23989SOL    HW174167   5.923   8.845   4.243  1.3103  0.3083 -1.3372
23989SOL    HW274168   6.039   8.828   4.338 -0.2640  0.1086  0.5989
23990SOL     OW74169   0.220   4.900   8.026  0.3597 -0.8856  0.4938
23990SOL    HW174170   0.234   4.833   8.092  0.0966 -0.8060  0.6290
23990SOL    HW274171   0.248   4.859   7.944  0.6284 -1.0021  0.6433
23991SOL     OW74172   8.242   5.134   7.635 -0.1111  0.4763 -0.6264
23991SOL    HW174173   8.215   5.043   7.638  1.3061 -0.1491 -3.6689
23991SOL    HW274174   8.183   5.175   7.572  0.6038  1.1290 -0.8849
23992SOL     OW74175   7.183   1.466   2.406 -0.8674 -0.4914  0.1484
23992SOL    HW174176   7.213   1.391   2.353 -0.8059 -1.1871  1.1421
23992SOL    HW274177   7.088   1.458   2.406 -0.8848 -0.2875 -0.1455
23993SOL     OW74178   2.625   2.100   9.352 -0.3974 -0.4784 -0.2900
23993SOL    HW174179   2.671   2.094   9.436  1.1443  2.0531 -0.8454
23993SOL    HW274180   2.690   2.075   9.287 -1.4502 -1.9871 -0.8153
23994SOL     OW74181   8.807   1.017   6.854  0.3366 -0.5075 -0.3489
23994SOL    HW174182   8.864   1.067   6.913  0.0129 -0.3345 -0.1796
23994SOL    HW274183   8.744   1.081   6.821  1.5643 -0.2251 -2.2558
23995SOL     OW74184   2.131   3.069   0.247 -0.0351  0.3449 -0.2261
23995SOL    HW174185   2.151   2.984   0.287 -2.9479  0.0463  0.8613
23995SOL    HW274186   2.127   3.051   0.153  0.8142 -0.3716 -0.1384
23996SOL     OW74187   0.947   9.452   3.440  0.6896 -0.0178  0.4253
23996SOL    HW174188   1.001   9.373   3.436  0.4931 -0.1210 -3.0106
23996SOL    HW274189   1.003   9.521   3.403 -0.4872  0.5001 -0.4648
23997SOL     OW74190   5.304   2.617   2.511  0.1308  0.0007 -0.0464
23997SOL    HW174191   5.381   2.668   2.539 -0.3757 -0.0670  1.5911
23997SOL    HW274192   5.325   2.527   2.536  0.8738 -0.6261 -2.6118
23998SOL     OW74193   9.472   6.586   2.063 -0.3835  0.7964 -0.3332
23998SOL    HW174194   9.474   6.491   2.056  0.1122  0.5736  1.9654
23998SOL    HW274195   9.391   6.605   2.111 -1.2814  1.7104 -2.0919
23999SOL     OW74196   0.916   0.893   3.590  0.5331 -0.5748  0.1896
23999SOL    HW174197   0.844   0.840   3.559 -0.2696  0.0678  0.8886
23999SOL    HW274198   0.929   0.865   3.681  0.2435  0.2523  0.4959
24000SOL     OW74199   3.045   5.837   6.351 -0.0466  0.5520 -0.1272
24000SOL    HW174200   3.071   5.754   6.390  1.0409  0.5935 -0.7033
24000SOL    HW274201   3.041   5.898   6.425  1.2703  0.4664  0.0437
24001SOL     OW74202   6.570   1.858   1.042  0.4929  0.2649 -0.5714
24001SOL    HW174203   6.586   1.943   1.000 -0.8156  0.8709  0.1046
24001SOL    HW274204   6.582   1.794   0.972 -0.0759  1.1338 -1.4875
24002SOL     OW74205   8.914   5.836   3.843 -0.1662  0.3118  0.4324
24002SOL    HW174206   8.880   5.918   3.805  0.1003  0.9496  1.5130
24002SOL    HW274207   9.005   5.857   3.866 -0.3466 -0.0090  1.4840
24003SOL     OW74208   8.210   5.274   5.487 -0.3493 -0.1178 -0.3153
24003SOL    HW174209   8.131   5.328   5.477 -1.4128 -1.4425  0.5771
24003SOL    HW274210   8.281   5.330   5.456 -1.5037  1.4825 -0.2008
24004SOL     OW74211   7.719   8.053   1.879 -0.3401 -0.1382  0.1603
24004SOL    HW174212   7.734   8.075   1.971 -1.9342 -0.0473  0.4219
24004SOL    HW274213   7.727   7.957   1.876 -0.2059 -0.1343  0.3681
24005SOL     OW74214   2.362   5.506   4.117 -0.8710  0.3005  0.6722
24005SOL    HW174215   2.342   5.459   4.197 -0.4432  1.5460  1.5413
24005SOL    HW274216   2.409   5.584   4.146  0.3023  0.2188 -0.8772
24006SOL     OW74217   7.163   5.907   6.564 -0.5145  0.4604 -0.3623
24006SOL    HW174218   7.091   5.910   6.501 -1.4130  2.8252  0.6545
24006SOL    HW274219   7.121   5.928   6.648  1.1930  0.8577  0.4231
24007SOL     OW74220   8.023   3.092   3.856 -0.5101 -0.1973  0.5363
24007SOL    HW174221   8.037   3.186   3.867  2.7738 -0.7594  2.5526
24007SOL    HW274222   8.081   3.067   3.785 -2.1308 -0.6293 -0.6947
24008SOL     OW74223   1.205   0.299   4.664 -0.4630 -0.2729 -0.2139
24008SOL    HW174224   1.195   0.249   4.582 -0.6955 -1.5547  0.5620
24008SOL    HW274225   1.195   0.233   4.733 -2.1621  1.0880  0.9098
24009SOL     OW74226   0.945   0.637   8.138  0.2055 -0.2412 -0.4526
24009SOL    HW174227   0.946   0.709   8.075  1.4664 -0.9907 -1.3253
24009SOL    HW274228   0.920   0.678   8.220 -1.1816  0.8219 -1.3524
24010SOL     OW74229   6.203   3.317   6.537  0.3249 -0.3216 -0.2637
24010SOL    HW174230   6.149   3.283   6.608  0.8066 -0.2725  0.1337
24010SOL    HW274231   6.251   3.390   6.576 -0.4822  0.6421 -1.0230
24011SOL     OW74232   4.421   5.852   8.032  0.2025 -0.4630 -0.5129
24011SOL    HW174233   4.389   5.763   8.020 -2.5101  0.4001 -0.3173
24011SOL    HW274234   4.417   5.891   7.944  1.3508 -0.4827 -0.5935
24012SOL     OW74235   0.122   2.255   0.394  0.0905 -0.1850  0.1437
24012SOL    HW174236   0.091   2.171   0.363  1.4788 -0.7915  0.3128
24012SOL    HW274237   0.055   2.285   0.455 -1.1200 -0.4629 -1.0228
24013SOL     OW74238   6.367   9.347   4.372 -0.0940 -0.2065 -0.8381
24013SOL    HW174239   6.321   9.431   4.364  0.5865  0.2040 -0.5104
24013SOL    HW274240   6.297   9.282   4.374 -0.6550  0.3941 -0.5265
24014SOL     OW74241   7.925   0.500   8.801  0.2769 -0.0092  0.4272
24014SOL    HW174242   7.835   0.491   8.770  0.9773 -1.4330 -1.4006
24014SOL    HW274243   7.948   0.590   8.780 -0.1521 -0.1690 -0.8399
24015SOL     OW74244   0.770   8.237   0.473 -0.0243  0.6487 -0.4936
24015SOL    HW174245   0.725   8.240   0.558 -0.3948  0.1447 -0.6644
24015SOL    HW274246   0.861   8.218   0.495  0.0048  1.1380 -0.1727
24016SOL     OW74247   0.401   3.587   8.140  1.2146 -0.3106  0.1445
24016SOL    HW174248   0.361   3.516   8.191 -1.1753  0.5014 -0.4658
24016SOL    HW274249   0.494   3.567   8.140  1.0037 -1.7087  2.6804
24017SOL     OW74250   1.070   3.386   6.711 -0.3558 -0.4001 -0.3363
24017SOL    HW174251   1.038   3.316   6.768 -0.3393  0.5700  0.9050
24017SOL    HW274252   1.157   3.358   6.685 -0.1737 -0.6543  0.5124
24018SOL     OW74253   6.632   9.255   3.601 -0.4870 -0.1395 -0.1480
24018SOL    HW174254   6.551   9.231   3.555 -0.7339  0.2415  0.0877
24018SOL    HW274255   6.604   9.277   3.689 -0.2208  0.7295 -0.2739
24019SOL     OW74256   5.470   1.454   2.959 -0.0345  0.5832 -0.8799
24019SOL    HW174257   5.390   1.406   2.938 -0.0326  0.0125  0.3631
24019SOL    HW274258   5.449   1.545   2.939 -0.8022  0.3633 -1.1008
24020SOL     OW74259   3.920   3.334   7.826  0.3445 -0.0801  0.2083
24020SOL    HW174260   3.997   3.378   7.863  0.6371  0.3957 -0.9423
24020SOL    HW274261   3.896   3.387   7.751 -0.2003 -1.0764 -0.3384
24021SOL     OW74262   5.356   9.251   6.114 -0.8076 -0.1195 -0.1702
24021SOL    HW174263   5.356   9.277   6.022 -1.9760  1.4483  0.2346
24021SOL    HW274264   5.417   9.177   6.118 -0.0793  0.3271 -2.0333
24022SOL     OW74265   6.959   0.823   5.913 -0.0120  0.0608  0.2151
24022SOL    HW174266   6.873   0.834   5.953  0.0541  4.5343 -0.2891
24022SOL    HW274267   7.020   0.851   5.982  0.3008  4.5455 -1.5244
24023SOL     OW74268   1.747   2.962   9.176  0.5931 -0.0950  0.1609
24023SOL    HW174269   1.683   2.917   9.121 -0.1121 -1.9020  2.3451
24023SOL    HW274270   1.722   2.940   9.266  1.6170  2.8184  1.2827
24024SOL     OW74271   1.016   6.340   4.347 -0.2029 -0.6637 -0.1763
24024SOL    HW174272   1.088   6.377   4.398  0.0692 -0.4410 -0.7124
24024SOL    HW274273   1.059   6.287   4.279 -0.5220 -0.1452 -0.7958
24025SOL     OW74274   0.786   2.369   5.314 -0.8109 -0.7021  0.8486
24025SOL    HW174275   0.736   2.298   5.353 -1.3536 -1.1112 -0.5577
24025SOL    HW274276   0.722   2.422   5.267 -0.2350  0.0082  0.8405
24026SOL     OW74277   3.623   5.096   4.735 -0.0892 -0.3305  0.2687
24026SOL    HW174278   3.688   5.027   4.724  0.0619 -0.2343  0.5380
24026SOL    HW274279   3.603   5.124   4.646 -1.8860 -2.2994 -0.0197
24027SOL     OW74280   9.303   6.430   4.021 -0.2192 -0.1443 -0.3989
24027SOL    HW174281   9.386   6.479   4.019 -0.2271 -0.0812  0.4226
24027SOL    HW274282   9.323   6.352   4.072 -0.8877  0.2934  0.5422
24028SOL     OW74283   6.669   2.424   5.491 -0.2418 -0.2387 -0.5468
24028SOL    HW174284   6.628   2.491   5.437 -2.0375 -0.9058 -0.0596
24028SOL    HW274285   6.666   2.345   5.437  0.7847 -0.2190 -0.6541
24029SOL     OW74286   9.320   6.420   5.609  0.5793  0.1645  0.5538
24029SOL    HW174287   9.274   6.496   5.644  0.3586  0.2157  0.1616
24029SOL    HW274288   9.393   6.457   5.559 -0.0041  0.1527 -0.3170
24030SOL     OW74289   7.523   1.685   1.643  0.3048 -0.0627 -0.2352
24030SOL    HW174290   7.576   1.660   1.568  0.8002  1.9846 -0.6354
24030SOL    HW274291   7.440   1.715   1.606 -0.3557 -1.2527  0.2349
24031SOL     OW74292   5.591   6.533   9.466  0.6061  0.5222 -0.0078
24031SOL    HW174293   5.568   6.622   9.493  1.3667  0.4098  1.0563
24031SOL    HW274294   5.521   6.508   9.405 -0.4448  1.2879  0.8400
24032SOL     OW74295   4.964   3.583   2.399 -0.0011  0.2810 -0.1429
24032SOL    HW174296   5.004   3.670   2.403 -1.8261  1.1493  0.3476
24032SOL    HW274297   4.920   3.574   2.484 -1.0520 -0.5171 -0.7608
24033SOL     OW74298   2.914   8.015   1.194  0.7686  0.5292  0.1787
24033SOL    HW174299   2.860   8.039   1.270 -0.7806 -2.8420  0.3033
24033SOL    HW274300   2.907   8.090   1.135 -2.0087  1.2862  1.3122
24034SOL     OW74301   4.297   3.574   8.184 -0.1337  0.0257  0.5731
24034SOL    HW174302   4.345   3.496   8.157  1.1447  1.6397 -2.3449
24034SOL    HW274303   4.340   3.602   8.265  0.8421 -1.0782  0.4627
24035SOL     OW74304   4.857   0.124   5.158  0.0202 -0.2179  0.3468
24035SOL    HW174305   4.795   0.185   5.198  2.7436  2.0467  1.5045
24035SOL    HW274306   4.865   0.153   5.067  0.9279  0.9445  0.7663
24036SOL     OW74307   7.051   8.630   4.432  0.4314 -0.0062  0.0768
24036SOL    HW174308   7.058   8.671   4.519  0.6716  0.7792 -0.3091
24036SOL    HW274309   7.139   8.597   4.414  0.2243 -0.7732  0.4139
24037SOL     OW74310   7.860   6.923   6.559 -0.1019 -0.3142  0.0961
24037SOL    HW174311   7.823   6.940   6.472  0.9310 -0.4271 -0.3905
24037SOL    HW274312   7.800   6.966   6.620 -1.4203 -1.1139 -0.5858
24038SOL     OW74313   2.623   1.790   5.052 -0.3037 -0.3885 -0.0650
24038SOL    HW174314   2.647   1.807   5.143  0.3338 -0.1911 -0.2640
24038SOL    HW274315   2.644   1.871   5.006  1.5070 -1.2061 -0.7913
24039SOL     OW74316   0.296   1.894   4.445  0.2396 -0.4505 -0.3052
24039SOL    HW174317   0.372   1.895   4.386  0.6872 -0.5199  0.2528
24039SOL    HW274318   0.265   1.985   4.445  1.7002  0.1032  1.1614
24040SOL     OW74319   7.132   2.948   7.062 -0.1755  0.7994  0.3516
24040SOL    HW174320   7.066   2.995   7.010 -0.7414  0.8658  1.1110
24040SOL    HW274321   7.185   3.018   7.101  0.9278  0.7289 -0.9779
24041SOL     OW74322   7.283   5.821   3.457 -0.1611 -0.6016  0.2358
24041SOL    HW174323   7.246   5.880   3.523  0.4013  0.3233 -0.2364
24041SOL    HW274324   7.286   5.875   3.377  0.7726 -1.1281 -0.1008
24042SOL     OW74325   3.800   3.442   4.017  0.1313  0.3085  0.5305
24042SOL    HW174326   3.849   3.472   4.093 -1.0767  0.1264  1.4217
24042SOL    HW274327   3.804   3.516   3.955 -1.0452  1.5396  1.8484
24043SOL     OW74328   8.081   3.412   7.861 -0.4683 -0.8064  0.3304
24043SOL    HW174329   8.151   3.349   7.843 -1.6451 -2.2882  0.7874
24043SOL    HW274330   8.043   3.431   7.775  0.2692 -0.2059  0.1160
24044SOL     OW74331   8.431   3.988   9.278  0.4468 -0.3495  0.1744
24044SOL    HW174332   8.403   3.985   9.369 -4.4079 -2.1676 -1.0906
24044SOL    HW274333   8.404   4.074   9.247  1.2856 -0.0701  0.1985
24045SOL     OW74334   4.399   1.859   5.765 -0.0535 -0.1403  0.7900
24045SOL    HW174335   4.462   1.890   5.699  1.6438 -1.8011  1.5313
24045SOL    HW274336   4.405   1.923   5.836  0.7102 -0.2108  0.7935
24046SOL     OW74337   3.842   5.705   1.886 -0.2249  0.3391 -0.7102
24046SOL    HW174338   3.840   5.799   1.908  0.1306  0.5523 -1.5664
24046SOL    HW274339   3.888   5.701   1.802  0.3554 -0.6721 -0.3525
24047SOL     OW74340   6.258   6.118   0.654  0.1137 -0.2247 -0.2067
24047SOL    HW174341   6.180   6.118   0.709  0.3390  0.3451  0.1265
24047SOL    HW274342   6.321   6.172   0.702  0.2489  0.4600 -1.1217
24048SOL     OW74343   2.988   7.402   4.430  0.7701  0.0841 -0.1198
24048SOL    HW174344   2.927   7.332   4.407 -1.2749  1.6704  0.1596
24048SOL    HW274345   3.074   7.367   4.407 -0.3879 -1.4477 -2.6664
24049SOL     OW74346   3.827   2.088   3.759 -0.3442  0.4678 -0.5639
24049SOL    HW174347   3.893   2.050   3.702 -1.4030 -0.0501 -1.4727
24049SOL    HW274348   3.877   2.141   3.822  0.9058  0.2438 -1.3432
24050SOL     OW74349   8.270   6.397   3.746  0.5368 -0.6213 -0.0037
24050SOL    HW174350   8.182   6.435   3.748  0.6277 -0.3786 -0.4206
24050SOL    HW274351   8.255   6.303   3.736  0.3203 -0.4828 -1.1911
24051SOL     OW74352   0.916   9.172   3.256 -0.2523  0.7095 -0.0515
24051SOL    HW174353   0.929   9.203   3.166 -1.3524  3.7053  0.7020
24051SOL    HW274354   0.831   9.128   3.254 -1.3509  2.7294 -0.1116
24052SOL     OW74355   5.548   5.032   3.450 -0.0479  0.4916  0.4424
24052SOL    HW174356   5.462   5.065   3.475  0.4085  1.8547  0.2510
24052SOL    HW274357   5.584   4.996   3.531 -0.1590  1.3441  0.8765
24053SOL     OW74358   4.590   1.282   9.196  0.4061 -0.2959  0.2326
24053SOL    HW174359   4.674   1.260   9.156  0.1698 -1.2049  0.2042
24053SOL    HW274360   4.560   1.358   9.148 -0.2505 -1.8212 -1.9443
24054SOL     OW74361   8.917   7.358   7.031 -0.9016  0.1758 -0.0820
24054SOL    HW174362   8.925   7.269   7.066 -1.1722  0.7330  1.4651
24054SOL    HW274363   9.003   7.397   7.047 -0.9270  0.3405 -0.3454
24055SOL     OW74364   8.472   2.751   8.369  0.0116 -0.4245 -0.0301
24055SOL    HW174365   8.535   2.684   8.341 -1.0859 -1.6938  0.3908
24055SOL    HW274366   8.511   2.789   8.448  0.9431 -0.1082 -0.6249
24056SOL     OW74367   3.356   1.668   6.384  0.5419  0.3819  0.4388
24056SOL    HW174368   3.419   1.626   6.443 -0.8947 -0.5100  1.4052
24056SOL    HW274369   3.315   1.736   6.438  0.1292  0.4360  0.0574
24057SOL     OW74370   3.101   7.302   2.031  0.0031  0.6734  0.4089
24057SOL    HW174371   3.174   7.264   1.982 -0.7109  1.0166 -0.9614
24057SOL    HW274372   3.066   7.369   1.973 -1.9367 -0.0590  0.6777
24058SOL     OW74373   8.040   3.491   0.727  0.2345 -0.6740  0.3194
24058SOL    HW174374   8.069   3.497   0.635  0.0602 -1.8654  0.1727
24058SOL    HW274375   8.121   3.502   0.778  0.3834 -0.3454  0.0213
24059SOL     OW74376   3.772   6.284   8.749  0.2330 -0.9530  0.5074
24059SOL    HW174377   3.708   6.330   8.803 -0.5454 -0.4221 -0.8173
24059SOL    HW274378   3.850   6.339   8.752 -0.8644  0.8493 -1.5237
24060SOL     OW74379   1.903   5.762   4.141 -0.3916  0.4247  1.0211
24060SOL    HW174380   1.867   5.823   4.077 -0.5735  1.2788  1.9187
24060SOL    HW274381   1.994   5.752   4.116 -0.9713 -1.0568 -0.7349
24061SOL     OW74382   5.182   7.586   8.719 -0.0901 -0.6894 -0.5038
24061SOL    HW174383   5.169   7.583   8.624 -0.4942  0.5610 -0.5076
24061SOL    HW274384   5.194   7.679   8.738 -0.8250 -0.8429  0.7795
24062SOL     OW74385   0.156   6.314   4.935 -0.3568  0.2434  0.3461
24062SOL    HW174386   0.084   6.302   4.996  0.4853  0.3477  1.4041
24062SOL    HW274387   0.218   6.370   4.982  0.1089  0.7156 -0.7921
24063SOL     OW74388   3.768   6.031   7.262 -0.2954 -0.6218 -0.1738
24063SOL    HW174389   3.677   6.012   7.286 -0.1461  0.7806  1.7675
24063SOL    HW274390   3.818   5.957   7.296 -0.7125 -1.7187 -1.8068
24064SOL     OW74391   8.354   3.086   9.548 -0.1120 -0.5266 -0.3763
24064SOL    HW174392   8.417   3.021   9.580 -1.4477 -1.4085  0.5369
24064SOL    HW274393   8.373   3.093   9.455  0.6258 -1.5914 -0.3256
24065SOL     OW74394   4.869   4.338   4.353 -0.6643  0.5793  0.4395
24065SOL    HW174395   4.836   4.404   4.414  2.8786  1.5807  1.4838
24065SOL    HW274396   4.892   4.263   4.408 -0.5008  0.2041 -0.1247
24066SOL     OW74397   9.257   9.468   2.707 -0.1721  0.2074 -0.5757
24066SOL    HW174398   9.163   9.479   2.690  0.0922  0.2070 -2.2031
24066SOL    HW274399   9.289   9.417   2.632  1.1531  0.3354 -0.1168
24067SOL     OW74400   2.272   1.426   3.863  0.4238  0.7578 -0.5473
24067SOL    HW174401   2.219   1.495   3.902 -0.6566  0.4062 -1.3633
24067SOL    HW274402   2.310   1.467   3.785  1.0934  0.9058 -0.1512
24068SOL     OW74403   9.112   4.457   4.576 -0.3730  0.7501  0.7736
24068SOL    HW174404   9.069   4.438   4.660 -0.5292 -1.2557  0.2880
24068SOL    HW274405   9.043   4.449   4.511  0.2230 -0.0753  0.2249
24069SOL     OW74406   6.690   3.757   4.871  0.5313  0.3858 -0.1583
24069SOL    HW174407   6.697   3.850   4.852 -0.5650  0.8900  1.6879
24069SOL    HW274408   6.598   3.744   4.895  0.7641 -1.0903  0.0392
24070SOL     OW74409   0.928   6.520   2.719 -0.4917  0.5797 -0.6013
24070SOL    HW174410   1.007   6.574   2.722 -1.0477  1.3935 -0.4106
24070SOL    HW274411   0.938   6.460   2.793  0.4732 -0.1022 -1.2444
24071SOL     OW74412   8.637   3.541   5.586 -0.8106  0.2257  0.3116
24071SOL    HW174413   8.666   3.618   5.537  1.1159  0.4781  1.7421
24071SOL    HW274414   8.546   3.528   5.558 -0.5658  1.8114 -1.4286
24072SOL     OW74415   6.363   3.455   6.288 -0.0855 -0.1624 -0.0970
24072SOL    HW174416   6.310   3.514   6.342  0.8289 -0.2086  0.8851
24072SOL    HW274417   6.378   3.503   6.207  1.0456  1.1873  0.8622
24073SOL     OW74418   3.034   6.535   8.867  0.7255  0.2056 -0.3682
24073SOL    HW174419   3.073   6.618   8.893  0.6172 -0.5719  2.7493
24073SOL    HW274420   3.074   6.471   8.927 -1.7703 -1.3810 -0.2670
24074SOL     OW74421   1.971   8.388   1.454  0.3663 -0.0372 -0.3495
24074SOL    HW174422   2.058   8.428   1.462  0.6594 -0.5327 -0.9476
24074SOL    HW274423   1.913   8.448   1.501  0.9459  0.5657 -0.3764
24075SOL     OW74424   2.411   3.478   4.033  0.4893 -0.7601 -0.3186
24075SOL    HW174425   2.384   3.405   4.089 -0.7486 -0.2359 -0.2147
24075SOL    HW274426   2.375   3.458   3.947 -1.8070  0.7701  0.2124
24076SOL     OW74427   4.594   9.545   8.259  0.2678  0.3521  0.3720
24076SOL    HW174428   4.625   9.463   8.299  0.9320 -0.3621 -1.4869
24076SOL    HW274429   4.524   9.517   8.199 -0.3021  1.3050  0.5762
24077SOL     OW74430   4.688   2.914   6.604 -0.0801  0.9345  0.1714
24077SOL    HW174431   4.637   2.876   6.676 -0.0947 -0.9514 -0.7633
24077SOL    HW274432   4.634   2.897   6.527  1.2141  0.3674 -0.6265
24078SOL     OW74433   9.398   0.993   2.817 -0.2021 -0.5733  0.1969
24078SOL    HW174434   9.423   1.045   2.894  0.4465 -0.8378  0.1643
24078SOL    HW274435   9.397   0.903   2.848 -1.8370 -0.5319  0.3923
24079SOL     OW74436   6.903   6.632   7.919 -0.1104  0.5728 -0.3503
24079SOL    HW174437   6.862   6.577   7.853 -0.0723 -0.2108  0.2683
24079SOL    HW274438   6.833   6.651   7.981  0.2401 -0.0778  0.2624
24080SOL     OW74439   5.911   7.611   6.751  0.2552 -0.1342  0.0123
24080SOL    HW174440   5.945   7.656   6.673 -1.7028  0.2652 -0.6633
24080SOL    HW274441   5.923   7.673   6.822 -1.8881  1.3340 -0.8044
24081SOL     OW74442   6.487   6.841   6.269 -0.6015  0.0850 -0.0104
24081SOL    HW174443   6.580   6.861   6.272 -0.5279 -0.3018  0.4051
24081SOL    HW274444   6.456   6.857   6.359 -1.1215  1.0715 -0.3459
24082SOL     OW74445   0.483   2.601   0.488 -0.0338  0.3862 -0.7007
24082SOL    HW174446   0.505   2.508   0.499 -1.0236  0.2844  0.6564
24082SOL    HW274447   0.392   2.601   0.459 -0.2758  0.9363  0.0290
24083SOL     OW74448   6.125   9.531   9.424  0.1328 -0.0785 -0.3976
24083SOL    HW174449   6.042   9.511   9.468  0.4234 -0.3090  0.0525
24083SOL    HW274450   6.099   9.559   9.337 -0.3655 -1.4636 -0.7263
24084SOL     OW74451   7.303   8.873   3.146 -0.4578  0.0394  0.3726
24084SOL    HW174452   7.229   8.860   3.087 -0.4488  1.7170 -0.0656
24084SOL    HW274453   7.277   8.947   3.201  1.0755  1.0339 -0.1720
24085SOL     OW74454   1.573   7.449   2.829  0.1923 -0.0019  0.0723
24085SOL    HW174455   1.488   7.467   2.870  1.0873  0.2111  1.9664
24085SOL    HW274456   1.634   7.507   2.874  1.9938 -2.7601  1.4830
24086SOL     OW74457   3.629   1.780   4.024  0.1037  0.2156  0.2141
24086SOL    HW174458   3.625   1.728   3.944  1.6291  0.3975 -0.0199
24086SOL    HW274459   3.551   1.835   4.020  0.5693  0.8424 -1.6189
24087SOL     OW74460   0.286   3.650   8.533 -0.7536  0.3996  0.2448
24087SOL    HW174461   0.331   3.721   8.487 -1.4163  0.7379  0.0973
24087SOL    HW274462   0.252   3.594   8.464 -1.3704  0.6659  0.3265
24088SOL     OW74463   2.938   0.301   1.830  0.5263 -0.2270 -0.3439
24088SOL    HW174464   2.941   0.207   1.847  1.1291 -0.0140  0.8592
24088SOL    HW274465   3.030   0.327   1.820  0.2742 -0.1337 -3.0604
24089SOL     OW74466   4.207   8.357   1.394 -0.1427 -0.1014 -0.0389
24089SOL    HW174467   4.160   8.438   1.374 -0.6551  0.6030  3.4133
24089SOL    HW274468   4.145   8.287   1.370  0.4422  0.3627 -3.3844
24090SOL     OW74469   6.401   0.435   0.344 -0.0702  0.2337  0.2582
24090SOL    HW174470   6.469   0.498   0.368 -0.0763 -0.1107  1.2049
24090SOL    HW274471   6.327   0.456   0.401 -0.6527  0.3729 -0.5172
24091SOL     OW74472   1.821   7.489   6.095  0.1889  0.3320 -0.4202
24091SOL    HW174473   1.890   7.442   6.049  1.1631  0.7527  0.5499
24091SOL    HW274474   1.808   7.569   6.045  1.6044  1.0308  0.2769
24092SOL     OW74475   5.147   8.809   7.769  0.0392 -0.3653 -0.0989
24092SOL    HW174476   5.168   8.738   7.709 -0.0824 -2.1100  1.8034
24092SOL    HW274477   5.118   8.881   7.713 -0.1673 -1.9226 -2.0888
24093SOL     OW74478   4.245   0.666   1.424  1.0216  0.1283  0.1817
24093SOL    HW174479   4.228   0.650   1.517 -0.2329  0.9098  0.1095
24093SOL    HW274480   4.159   0.660   1.383  1.7107 -1.3871 -1.1352
24094SOL     OW74481   4.051   9.189   3.264  0.0225 -0.1778 -0.9611
24094SOL    HW174482   3.989   9.134   3.216 -2.5364  1.2821  0.3952
24094SOL    HW274483   4.079   9.255   3.200  1.3216 -1.6497 -1.9660
24095SOL     OW74484   5.851   6.648   7.309  0.3536  0.0835  0.1108
24095SOL    HW174485   5.763   6.687   7.307 -0.0288 -0.7967 -1.3865
24095SOL    HW274486   5.836   6.557   7.335  0.8129 -0.0803 -0.1861
24096SOL     OW74487   6.310   7.698   6.288 -0.0745  0.0245 -0.0080
24096SOL    HW174488   6.362   7.730   6.214 -2.8411  2.4870 -1.1388
24096SOL    HW274489   6.241   7.645   6.248 -0.8240  0.2551  0.9200
24097SOL     OW74490   9.389   9.346   1.083  0.3245  0.5744 -0.3049
24097SOL    HW174491   9.480   9.355   1.056  0.8943 -1.6224  0.6120
24097SOL    HW274492   9.375   9.416   1.147  1.4494  0.7806 -0.2730
24098SOL     OW74493   0.133   0.334   8.369  0.1735  0.2761 -0.3351
24098SOL    HW174494   0.108   0.284   8.448  0.9118 -0.7714 -0.7369
24098SOL    HW274495   0.144   0.424   8.400  0.7055 -0.1630  0.8221
24099SOL     OW74496   8.723   2.047   8.355  0.2850  0.6311 -0.4190
24099SOL    HW174497   8.794   1.988   8.331  0.4855  1.3607 -1.6900
24099SOL    HW274498   8.722   2.046   8.451 -1.4579 -3.4816 -0.3078
24100SOL     OW74499   0.813   2.611   4.206 -0.1820  0.0435 -0.2537
24100SOL    HW174500   0.801   2.581   4.296 -0.1782  1.0895  0.1144
24100SOL    HW274501   0.904   2.642   4.202  0.0633 -0.7288 -0.8477
24101SOL     OW74502   0.760   1.921   5.264  0.4765 -0.1815 -0.1028
24101SOL    HW174503   0.838   1.890   5.309  1.7342  2.5623 -0.2094
24101SOL    HW274504   0.743   2.008   5.301 -1.1288  0.2780 -1.7496
24102SOL     OW74505   6.682   2.262   1.496 -0.0286 -0.5141  0.3712
24102SOL    HW174506   6.629   2.185   1.474  0.7329 -0.9600  0.0790
24102SOL    HW274507   6.728   2.237   1.577  0.0615 -0.2903  0.3889
24103SOL     OW74508   1.549   5.386   2.319 -0.4344 -0.3478  0.1505
24103SOL    HW174509   1.583   5.462   2.367 -2.1536  0.4606  0.1783
24103SOL    HW274510   1.562   5.409   2.227 -0.3722 -0.3180  0.1659
24104SOL     OW74511   3.273   9.255   4.669 -0.1715 -0.0546  0.3496
24104SOL    HW174512   3.185   9.293   4.661  0.3710  1.3141  0.5088
24104SOL    HW274513   3.268   9.198   4.745 -1.4672 -1.6709 -0.8737
24105SOL     OW74514   0.726   4.739   6.997  0.0738 -0.0832 -0.4773
24105SOL    HW174515   0.782   4.814   7.017 -1.1002  1.0826 -1.3512
24105SOL    HW274516   0.736   4.726   6.903 -1.2673  0.3033 -0.6916
24106SOL     OW74517   6.226   1.908   5.257  0.4768 -0.6220  0.1293
24106SOL    HW174518   6.149   1.924   5.313  1.2384  0.1174  1.0066
24106SOL    HW274519   6.189   1.875   5.175 -0.7678 -0.4506  0.5863
24107SOL     OW74520   0.327   5.184   2.478 -0.1667  0.6234 -0.0218
24107SOL    HW174521   0.368   5.223   2.401  1.8057 -0.7027  0.2870
24107SOL    HW274522   0.298   5.098   2.449 -1.9630  1.1611  0.0333
24108SOL     OW74523   0.261   5.558   1.660 -0.4346 -0.3119  0.1353
24108SOL    HW174524   0.237   5.487   1.601 -1.3594  0.2445 -0.1865
24108SOL    HW274525   0.177   5.590   1.694 -0.0895  0.9282 -0.1067
24109SOL     OW74526   7.008   7.583   7.594 -0.6455 -0.0344  0.2128
24109SOL    HW174527   6.977   7.500   7.631 -2.2672 -0.2765 -1.5632
24109SOL    HW274528   7.090   7.560   7.549  0.7403  0.0519  2.5379
24110SOL     OW74529   7.593   0.031   1.521 -0.4996 -0.2271  0.7909
24110SOL    HW174530   7.604   0.126   1.522  2.6395 -0.4840  0.1578
24110SOL    HW274531   7.498   0.018   1.521 -1.0391  2.8555  1.9410
24111SOL     OW74532   2.858   6.055   2.912 -0.6817  0.5972  0.0582
24111SOL    HW174533   2.836   6.057   3.005  1.0276  0.2407  0.5139
24111SOL    HW274534   2.775   6.070   2.867 -1.4317  1.4261  1.6452
24112SOL     OW74535   3.669   1.253   2.712  0.3158 -0.2934 -0.1585
24112SOL    HW174536   3.606   1.181   2.715 -0.4424  0.3818  0.9011
24112SOL    HW274537   3.617   1.330   2.686  0.8962  0.0776 -0.2338
24113SOL     OW74538   1.407   1.080   5.606 -0.2576 -0.0680 -0.1979
24113SOL    HW174539   1.436   1.033   5.528  0.1113  0.7334 -0.5457
24113SOL    HW274540   1.333   1.133   5.576 -1.3925 -1.2214  0.4331
24114SOL     OW74541   0.416   1.892   2.321 -0.1554  0.0463  0.0593
24114SOL    HW174542   0.454   1.950   2.255  0.6070 -0.4514  0.0486
24114SOL    HW274543   0.420   1.942   2.402  0.5296  0.0047  0.0564
24115SOL     OW74544   6.748   7.067   2.493  0.3287  0.2233 -0.3200
24115SOL    HW174545   6.772   7.154   2.525 -2.6774  1.0307 -0.0159
24115SOL    HW274546   6.793   7.007   2.553  1.3419  1.5752  0.3312
24116SOL     OW74547   6.293   4.311   8.973  0.1371 -0.2616 -0.1302
24116SOL    HW174548   6.364   4.298   8.911  0.3777 -0.9790  0.2800
24116SOL    HW274549   6.213   4.306   8.921  0.3922  1.8283 -0.8106
24117SOL     OW74550   0.502   4.825   1.731 -1.1167 -0.1893 -0.0449
24117SOL    HW174551   0.514   4.781   1.815 -1.6638  0.9115  0.6227
24117SOL    HW274552   0.555   4.904   1.737 -2.6683  0.8928  0.0464
24118SOL     OW74553   3.727   6.425   7.464  0.3723  0.4655  0.8426
24118SOL    HW174554   3.738   6.388   7.377 -0.6808  0.2348  0.7952
24118SOL    HW274555   3.649   6.382   7.499  1.0821  0.1751  2.1078
24119SOL     OW74556   4.133   0.315   7.455  0.2753 -0.3811 -0.1679
24119SOL    HW174557   4.216   0.305   7.501 -0.7993  0.3203  2.0351
24119SOL    HW274558   4.148   0.273   7.370  2.9239 -0.0851  0.0772
24120SOL     OW74559   1.062   4.787   7.275 -0.3124 -0.0822  0.1978
24120SOL    HW174560   1.127   4.735   7.323 -2.0084 -3.2936 -0.6827
24120SOL    HW274561   0.981   4.737   7.282 -2.2059  2.6294 -0.6182
24121SOL     OW74562   4.525   1.980   6.812 -0.1108  0.2175 -0.4082
24121SOL    HW174563   4.490   1.891   6.818 -1.0998  0.6486  0.8373
24121SOL    HW274564   4.458   2.029   6.763 -0.7519  0.7906  0.9895
24122SOL     OW74565   4.203   5.169   4.669  0.2077 -0.5247  0.6315
24122SOL    HW174566   4.295   5.187   4.687  0.8115 -1.1171 -1.5546
24122SOL    HW274567   4.170   5.250   4.630  0.4212 -0.9996 -0.5861
24123SOL     OW74568   0.889   2.155   1.960  0.4193  0.3463  0.0102
24123SOL    HW174569   0.859   2.186   1.875 -0.5535  0.8493  0.5315
24123SOL    HW274570   0.852   2.067   1.968 -0.5328  0.7727  0.4350
24124SOL     OW74571   0.722   4.283   4.116  0.0605  0.3390 -0.0882
24124SOL    HW174572   0.778   4.335   4.059  1.6971 -1.3223 -0.1026
24124SOL    HW274573   0.774   4.205   4.135 -1.4267 -0.2768  1.6927
24125SOL     OW74574   4.242   8.137   5.858  0.7371  0.0019  0.2346
24125SOL    HW174575   4.306   8.070   5.884  0.7578  0.2384  0.8127
24125SOL    HW274576   4.164   8.117   5.910 -0.1640 -1.1066 -1.4460
24126SOL     OW74577   1.058   0.424   6.583  0.1865 -0.3334 -0.0122
24126SOL    HW174578   1.016   0.438   6.668  0.5410  0.3556  0.0637
24126SOL    HW274579   1.090   0.334   6.586  0.1086 -0.3464  0.5446
24127SOL     OW74580   4.237   4.234   8.499 -0.0063 -0.0782 -0.3767
24127SOL    HW174581   4.307   4.273   8.446 -2.3670  2.3839 -1.9994
24127SOL    HW274582   4.239   4.284   8.581 -1.7542  2.3760 -1.6857
24128SOL     OW74583   8.358   3.909   2.520 -0.2779  0.2901 -0.1489
24128SOL    HW174584   8.306   3.888   2.443  0.0503  1.5693 -0.7546
24128SOL    HW274585   8.449   3.898   2.492 -0.0217  3.2476 -0.8353
24129SOL     OW74586   6.092   5.032   6.574  0.1485 -0.2794 -0.2134
24129SOL    HW174587   6.055   4.945   6.555 -1.1098  0.2438 -0.2609
24129SOL    HW274588   6.186   5.017   6.576 -0.0493 -1.7155  0.0867
24130SOL     OW74589   2.588   2.845   7.110 -0.2062  0.0673  0.1965
24130SOL    HW174590   2.629   2.841   7.197 -0.3149  1.7242  0.3741
24130SOL    HW274591   2.621   2.927   7.073  0.4918 -1.0315 -1.6912
24131SOL     OW74592   2.393   5.424   8.533 -0.1141  0.2457  0.0441
24131SOL    HW174593   2.374   5.353   8.594 -3.1396  0.6047 -0.3213
24131SOL    HW274594   2.377   5.386   8.446  1.4294  0.5042 -0.3757
24132SOL     OW74595   0.574   6.960   1.040  0.4409  0.2447 -0.2224
24132SOL    HW174596   0.622   7.000   1.112 -0.1823  1.5967 -0.5197
24132SOL    HW274597   0.640   6.916   0.987  1.0638  0.3172  0.4903
24133SOL     OW74598   2.918   5.662   3.590  0.1342 -0.6195 -0.2860
24133SOL    HW174599   2.846   5.720   3.567 -0.4380 -1.0803  0.2738
24133SOL    HW274600   2.877   5.577   3.603  1.1085 -1.4569 -2.2261
24134SOL     OW74601   8.369   5.950   7.041 -0.2981  0.8156  0.1356
24134SOL    HW174602   8.382   6.009   7.115  1.0826 -1.5212  1.9132
24134SOL    HW274603   8.458   5.924   7.015 -0.7801  1.0417 -1.9377
24135SOL     OW74604   8.165   9.332   2.452 -0.2643  0.8153 -0.0890
24135SOL    HW174605   8.076   9.300   2.470 -0.3652  0.5071 -1.0642
24135SOL    HW274606   8.216   9.305   2.528 -0.8902  0.5017  0.2246
24136SOL     OW74607   4.239   8.880   6.302 -0.0852  0.1463 -0.3045
24136SOL    HW174608   4.296   8.804   6.288 -1.9137 -1.0280 -1.8968
24136SOL    HW274609   4.295   8.956   6.287  1.7307 -0.8437  1.0506
24137SOL     OW74610   8.821   2.618   4.584 -0.0365  0.4653  0.3794
24137SOL    HW174611   8.875   2.565   4.642  0.2420  0.2499 -0.0716
24137SOL    HW274612   8.839   2.709   4.610  2.2485  0.5505 -1.1705
24138SOL     OW74613   7.705   2.457   7.464  0.3012  0.0383 -0.5513
24138SOL    HW174614   7.756   2.434   7.541 -0.7640 -1.4167 -0.2179
24138SOL    HW274615   7.617   2.424   7.483 -0.2235  0.5268 -1.9847
24139SOL     OW74616   1.129   9.213   4.300 -0.3063 -0.1926  0.1891
24139SOL    HW174617   1.180   9.141   4.337 -1.5763 -0.3506  1.8053
24139SOL    HW274618   1.135   9.201   4.206  1.9442 -0.6420  0.3331
24140SOL     OW74619   4.734   3.284   2.640 -0.2578 -0.1580  0.1119
24140SOL    HW174620   4.726   3.306   2.548 -1.6672  1.2088  0.5243
24140SOL    HW274621   4.807   3.339   2.672 -1.4578  1.3678  0.3479
24141SOL     OW74622   7.456   0.820   3.691 -0.4805  0.4793 -0.1050
24141SOL    HW174623   7.497   0.759   3.752 -0.3966  0.0783 -0.5616
24141SOL    HW274624   7.380   0.854   3.739 -0.2092  0.4415  0.3565
24142SOL     OW74625   0.449   3.464   6.327 -0.0493  0.2655  0.4731
24142SOL    HW174626   0.501   3.415   6.264 -0.3614  1.4564 -0.7576
24142SOL    HW274627   0.509   3.530   6.362 -0.3132  0.6524  0.2026
24143SOL     OW74628   7.882   3.002   1.197  0.3997  0.5948 -0.0201
24143SOL    HW174629   7.818   3.030   1.262  1.1050  2.7175 -0.1796
24143SOL    HW274630   7.842   2.926   1.155 -0.7332  0.1310  1.8174
24144SOL     OW74631   1.817   8.774   1.506  0.0794 -0.0684  0.1123
24144SOL    HW174632   1.751   8.787   1.574 -2.5567  1.4247 -2.5401
24144SOL    HW274633   1.841   8.862   1.478  0.2935 -0.6337 -1.5795
24145SOL     OW74634   3.068   3.865   3.863 -0.3334  0.4114  0.0238
24145SOL    HW174635   3.009   3.802   3.903 -0.8859 -0.3866 -1.9464
24145SOL    HW274636   3.010   3.931   3.824  0.0822 -0.0050 -1.3297
24146SOL     OW74637   0.446   6.841   5.406 -0.0363  0.1625 -0.1323
24146SOL    HW174638   0.519   6.783   5.430 -1.0316 -1.0715  0.0012
24146SOL    HW274639   0.452   6.913   5.469  0.1668 -0.7020  0.8659
24147SOL     OW74640   5.705   5.115   8.107  0.7922  0.3515  0.4475
24147SOL    HW174641   5.718   5.024   8.081  1.8398  0.5517  0.2089
24147SOL    HW274642   5.688   5.161   8.025  0.9205  0.4758  0.4906
24148SOL     OW74643   1.226   2.151   1.725 -0.1159  0.3294 -0.7367
24148SOL    HW174644   1.232   2.180   1.816 -0.6566 -2.4426  0.2944
24148SOL    HW274645   1.154   2.201   1.688 -0.3840  0.9674  0.6054
24149SOL     OW74646   6.001   8.789   6.880 -0.4145  0.0593  0.0100
24149SOL    HW174647   6.057   8.864   6.860 -0.6719 -0.4096 -3.0609
24149SOL    HW274648   5.931   8.825   6.934  0.3796  1.6488  0.0431
24150SOL     OW74649   4.581   6.714   8.947 -0.0317 -0.2639 -0.0826
24150SOL    HW174650   4.554   6.674   9.029 -0.1141 -0.3540 -0.1538
24150SOL    HW274651   4.513   6.780   8.929  0.2489  0.1037  0.1778
24151SOL     OW74652   5.226   1.437   4.097 -0.3334  0.2388  0.0525
24151SOL    HW174653   5.293   1.488   4.142  0.2121  0.2336 -0.7479
24151SOL    HW274654   5.259   1.348   4.098 -1.1245 -0.0746  1.1360
24152SOL     OW74655   0.237   7.221   7.329 -0.2940  0.2613  0.0136
24152SOL    HW174656   0.245   7.295   7.389  0.4166  0.8638 -0.8109
24152SOL    HW274657   0.231   7.261   7.242 -0.2149 -0.6370 -0.4169
24153SOL     OW74658   8.353   8.473   7.903  0.1185  0.2335 -0.3008
24153SOL    HW174659   8.350   8.408   7.832 -0.0129 -0.2480  0.1440
24153SOL    HW274660   8.380   8.423   7.980  1.4687  0.9862 -0.2597
24154SOL     OW74661   0.244   7.033   4.698 -0.2074 -0.3313 -0.2796
24154SOL    HW174662   0.306   7.105   4.708 -0.5189 -0.2302  1.0623
24154SOL    HW274663   0.164   7.064   4.739 -1.0355 -0.6380 -1.5998
24155SOL     OW74664   5.759   3.887   3.148 -0.3050  0.0148 -0.1035
24155SOL    HW174665   5.811   3.921   3.221  1.3100 -0.1036 -1.1504
24155SOL    HW274666   5.686   3.842   3.190  0.9447 -0.6472  1.4754
24156SOL     OW74667   9.247   6.128   3.594  0.0299  0.4840  0.2411
24156SOL    HW174668   9.162   6.097   3.562  1.0700 -0.4011 -1.7999
24156SOL    HW274669   9.233   6.222   3.611 -1.4010  0.3013  0.2181
24157SOL     OW74670   2.948   5.075   9.163 -0.1152  0.0870  0.0642
24157SOL    HW174671   2.925   5.001   9.219  0.7853  0.7299  1.3334
24157SOL    HW274672   2.882   5.142   9.182  1.4772  1.1825  2.2069
24158SOL     OW74673   6.998   6.011   5.491 -0.1438 -0.1022 -0.2191
24158SOL    HW174674   6.970   5.921   5.476  1.1466 -0.4934 -0.4107
24158SOL    HW274675   6.984   6.025   5.585 -0.7918 -0.3404 -0.2786
24159SOL     OW74676   3.182   7.239   9.146  0.2479  0.1436  0.1538
24159SOL    HW174677   3.143   7.194   9.071 -2.0429  2.6255 -0.2876
24159SOL    HW274678   3.251   7.179   9.177  1.0876 -1.1097 -3.6644
24160SOL     OW74679   6.709   8.008   4.504  0.4540 -0.0074 -0.7136
24160SOL    HW174680   6.743   8.067   4.437  0.2978  0.2782 -0.5412
24160SOL    HW274681   6.623   8.043   4.526  0.1137 -0.6334 -1.0209
24161SOL     OW74682   4.556   8.702   5.799 -0.1637  0.4147 -0.1943
24161SOL    HW174683   4.636   8.730   5.843 -0.0727  0.0131 -0.1031
24161SOL    HW274684   4.586   8.665   5.715 -0.1317 -0.8479  0.3445
24162SOL     OW74685   2.759   5.169   1.993 -0.6242 -0.1600 -0.3102
24162SOL    HW174686   2.740   5.194   2.083  0.0929 -1.0807  0.1177
24162SOL    HW274687   2.754   5.250   1.944  1.2820  0.8006  0.9567
24163SOL     OW74688   6.040   0.219   5.215  0.2316  0.1990 -0.2573
24163SOL    HW174689   6.069   0.297   5.261  0.6177 -0.1885  0.1706
24163SOL    HW274690   5.977   0.178   5.274  1.8336 -1.1006  0.6596
24164SOL     OW74691   6.021   7.020   0.147  0.2976  0.5061  0.1571
24164SOL    HW174692   6.115   7.035   0.154  0.0873  1.3359  1.5143
24164SOL    HW274693   5.984   7.106   0.131 -0.2355  0.1499 -0.6174
24165SOL     OW74694   3.564   5.380   1.373  0.0701 -0.5985  0.0004
24165SOL    HW174695   3.522   5.362   1.288 -1.4372  0.5136  0.4628
24165SOL    HW274696   3.624   5.452   1.354  0.8636 -1.3604 -0.4181
24166SOL     OW74697   4.139   4.467   3.720 -0.0331  0.2737  0.1237
24166SOL    HW174698   4.112   4.384   3.759  1.5507 -0.6893 -0.7366
24166SOL    HW274699   4.230   4.478   3.747  0.4907  0.5751 -1.5986
24167SOL     OW74700   3.281   5.895   5.525  0.5969 -0.1413 -0.1803
24167SOL    HW174701   3.255   5.807   5.553 -1.5609  0.6793  0.4945
24167SOL    HW274702   3.359   5.914   5.577  1.1674 -1.6715 -0.4115
24168SOL     OW74703   0.004   4.496   4.245 -0.0796 -0.0543 -0.0590
24168SOL    HW174704  -0.034   4.497   4.333 -0.3137  1.6210 -0.1487
24168SOL    HW274705   0.061   4.419   4.244 -1.6730 -1.3061  0.8495
24169SOL     OW74706   8.907   1.717   2.717  0.2060 -0.4876 -0.1136
24169SOL    HW174707   8.893   1.743   2.808  0.7120  3.7166 -1.0239
24169SOL    HW274708   8.995   1.679   2.717  0.5040  0.1389  1.0487
24170SOL     OW74709   0.990   7.810   6.711 -0.0972 -0.5220  0.3061
24170SOL    HW174710   0.921   7.755   6.673 -0.8852  1.2640 -0.9791
24170SOL    HW274711   1.018   7.762   6.789 -0.3820 -2.9744 -0.9889
24171SOL     OW74712   4.160   0.109   1.493  0.5223 -0.1967  0.1181
24171SOL    HW174713   4.161   0.040   1.559  0.6273  0.4752  0.8311
24171SOL    HW274714   4.166   0.062   1.409 -0.0245 -1.0792  0.5555
24172SOL     OW74715   3.247   5.259   7.714  0.5430  0.0341 -0.2401
24172SOL    HW174716   3.158   5.240   7.685 -0.0299  1.8544  0.1607
24172SOL    HW274717   3.258   5.207   7.794 -0.3776  0.2171  0.0160
24173SOL     OW74718   7.068   0.400   6.907 -0.4451  0.4947  0.0169
24173SOL    HW174719   7.102   0.444   6.829 -0.0930  0.4287  0.1304
24173SOL    HW274720   7.093   0.308   6.895 -1.8487  0.1747 -0.5918
24174SOL     OW74721   3.293   1.064   5.100  0.1157 -0.2132 -0.6050
24174SOL    HW174722   3.321   1.073   5.191 -0.3737 -0.0226 -0.4651
24174SOL    HW274723   3.198   1.075   5.104 -0.2821 -2.8640 -0.7831
24175SOL     OW74724   7.458   9.538   3.579  0.2145 -0.1910  0.2349
24175SOL    HW174725   7.480   9.614   3.633  2.1325 -1.3925  1.2371
24175SOL    HW274726   7.508   9.551   3.499 -2.9639  1.8131 -1.6203
24176SOL     OW74727   5.972   6.962   3.944 -0.0425 -0.3928  0.2361
24176SOL    HW174728   5.912   7.028   3.980 -0.6461 -1.5250  1.4051
24176SOL    HW274729   6.055   6.979   3.989 -0.3361 -0.7443  0.9189
24177SOL     OW74730   8.559   8.070   3.627  0.3095  0.1826 -0.3636
24177SOL    HW174731   8.574   7.993   3.573 -0.5052  0.0509 -0.4206
24177SOL    HW274732   8.468   8.061   3.657  0.1812  1.1328 -0.4108
24178SOL     OW74733   4.086   8.014   7.837  0.3268  0.3679  0.5829
24178SOL    HW174734   4.115   7.928   7.808  0.3382  0.8009 -0.7636
24178SOL    HW274735   4.163   8.070   7.828  0.6910  0.2931  2.6620
24179SOL     OW74736   9.196   1.166   2.728 -0.0452  1.3073  0.1327
24179SOL    HW174737   9.231   1.089   2.773 -1.3774  1.4215  1.4503
24179SOL    HW274738   9.269   1.228   2.727  0.7802  0.3715 -0.1622
24180SOL     OW74739   9.505   3.618   7.049  0.0417 -0.1715 -0.3751
24180SOL    HW174740   9.546   3.563   7.116 -0.5806 -0.9529 -0.6216
24180SOL    HW274741   9.433   3.662   7.095 -0.7194 -1.1102 -0.6261
24181SOL     OW74742   7.659   0.466   6.720  0.0166 -0.1428 -0.4131
24181SOL    HW174743   7.589   0.425   6.668  0.1280  1.7681 -2.1884
24181SOL    HW274744   7.736   0.463   6.663  0.1821  1.9005 -0.3457
24182SOL     OW74745   4.842   7.211   0.370 -0.2910  0.0473 -0.1341
24182SOL    HW174746   4.819   7.211   0.464 -0.8831 -1.4877 -0.2366
24182SOL    HW274747   4.794   7.136   0.335  1.1684 -0.3567 -1.3582
24183SOL     OW74748   8.428   3.166   9.024  0.4304  0.4158  0.3480
24183SOL    HW174749   8.466   3.133   8.942  1.2180  1.1148  0.4207
24183SOL    HW274750   8.372   3.238   8.997 -0.6615 -0.4372  0.2689
24184SOL     OW74751   3.922   9.205   0.657  0.2862 -0.1502 -0.2119
24184SOL    HW174752   3.932   9.135   0.592 -0.6186  0.5690 -1.1490
24184SOL    HW274753   4.011   9.239   0.670  0.3435  0.4151 -1.9036
24185SOL     OW74754   2.328   2.652   7.115  0.0495 -0.2200 -0.6352
24185SOL    HW174755   2.371   2.606   7.043  1.8803 -1.3287  1.0300
24185SOL    HW274756   2.401   2.685   7.168 -1.1885 -0.4664  1.3108
24186SOL     OW74757   6.129   5.799   5.376  0.4010  0.7018 -0.0126
24186SOL    HW174758   6.056   5.817   5.316 -0.7660 -1.8183  0.5058
24186SOL    HW274759   6.097   5.828   5.462  1.0863  1.9708 -0.1528
24187SOL     OW74760   6.699   2.128   3.826  0.3967  0.9097  0.4374
24187SOL    HW174761   6.794   2.136   3.820  0.3583  0.7593 -0.5793
24187SOL    HW274762   6.667   2.146   3.738 -0.4948  0.6124  0.6815
24188SOL     OW74763   5.242   9.094   3.925 -0.0265  0.1755  0.0169
24188SOL    HW174764   5.173   9.146   3.884 -2.0248 -1.0574  1.5734
24188SOL    HW274765   5.288   9.155   3.982 -0.6126  0.8049 -0.1764
24189SOL     OW74766   2.693   8.042   9.197 -0.1812  0.2520 -0.3000
24189SOL    HW174767   2.747   8.110   9.237 -1.0290  0.6616  0.1860
24189SOL    HW274768   2.613   8.041   9.250  0.1563 -1.7345  0.2384
24190SOL     OW74769   1.876   9.270   8.160  0.2239  0.2466  0.1312
24190SOL    HW174770   1.957   9.227   8.132  0.1793  1.9547 -3.1510
24190SOL    HW274771   1.807   9.226   8.110 -0.4606  0.8860  0.4888
24191SOL     OW74772   0.343   8.453   9.503  0.2141  0.0692  0.0533
24191SOL    HW174773   0.436   8.464   9.481  0.1922  1.3559  0.5248
24191SOL    HW274774   0.313   8.541   9.524 -1.4414 -0.1131 -1.2970
24192SOL     OW74775   2.709   5.973   2.104  0.2871 -0.3401 -0.3339
24192SOL    HW174776   2.614   5.973   2.113  0.1943 -0.8817 -1.1668
24192SOL    HW274777   2.724   5.959   2.011  1.1791  1.7052 -0.5514
24193SOL     OW74778   0.933   7.797   9.114  0.0135 -0.6957 -0.3443
24193SOL    HW174779   0.919   7.782   9.021 -1.5737 -0.9767 -0.0880
24193SOL    HW274780   0.858   7.849   9.142  0.1453 -1.1317  0.8963
24194SOL     OW74781   8.784   6.608   7.582 -0.8839 -0.8235 -0.1018
24194SOL    HW174782   8.710   6.567   7.538 -1.3905 -0.9582  0.8523
24194SOL    HW274783   8.805   6.685   7.529 -1.2138 -1.2036 -0.7927
24195SOL     OW74784   6.805   3.801   7.407 -0.4717 -0.2594 -0.0233
24195SOL    HW174785   6.778   3.850   7.330 -1.7254  1.5453  1.4444
24195SOL    HW274786   6.724   3.764   7.442 -0.3180  0.8165  1.5914
24196SOL     OW74787   8.292   9.289   3.181  0.0922  0.2969 -0.0513
24196SOL    HW174788   8.205   9.294   3.221  0.6204  2.7277  0.9784
24196SOL    HW274789   8.309   9.196   3.172 -2.6610 -0.2515 -0.4243
24197SOL     OW74790   6.476   6.033   4.738  0.0797  0.7684  0.7786
24197SOL    HW174791   6.511   5.947   4.714 -0.2139  0.8318  0.0823
24197SOL    HW274792   6.501   6.089   4.664 -3.1228  0.4092 -0.7535
24198SOL     OW74793   0.997   0.903   6.173 -0.2601 -0.1076 -0.4453
24198SOL    HW174794   0.911   0.928   6.207 -1.1826 -0.8470 -2.1203
24198SOL    HW274795   1.006   0.810   6.196  0.5595  0.2022  0.5859
24199SOL     OW74796   7.117   7.107   1.837 -0.4613  0.8782  0.0930
24199SOL    HW174797   7.086   7.019   1.819 -0.6097  1.1435 -1.0643
24199SOL    HW274798   7.060   7.139   1.907 -1.6192  0.7008 -0.7351
24200SOL     OW74799   0.798   1.785   2.807 -0.3522  0.4195  0.1734
24200SOL    HW174800   0.832   1.821   2.726 -1.0586  2.4080  0.7082
24200SOL    HW274801   0.707   1.762   2.787 -0.3067  0.2091  0.2053
24201SOL     OW74802   2.362   7.264   0.061 -0.0310 -0.1835  0.0741
24201SOL    HW174803   2.340   7.229  -0.025  1.5978  1.1068 -0.9500
24201SOL    HW274804   2.287   7.243   0.117 -0.2425 -2.8705 -1.1034
24202SOL     OW74805   8.479   5.661   3.541  0.3082 -0.2529  0.2347
24202SOL    HW174806   8.427   5.737   3.568  0.4857 -0.0652  0.0465
24202SOL    HW274807   8.415   5.591   3.529  0.2435 -0.4403  1.4745
24203SOL     OW74808   4.725   4.668   1.255  0.4273 -0.2207  0.0926
24203SOL    HW174809   4.744   4.618   1.176 -0.2510 -1.1280  0.4894
24203SOL    HW274810   4.810   4.688   1.293  0.9594  2.6207 -2.2813
24204SOL     OW74811   0.607   3.336   3.451  0.2818  0.3700 -0.0902
24204SOL    HW174812   0.683   3.299   3.496 -0.2693 -0.3137  0.3043
24204SOL    HW274813   0.578   3.408   3.507 -1.5776 -1.6935  1.7378
24205SOL     OW74814   8.674   1.766   0.788  0.1360  0.9134  0.2451
24205SOL    HW174815   8.583   1.742   0.806  0.3736  0.5169  0.9752
24205SOL    HW274816   8.673   1.803   0.700 -0.8780  1.7399  0.5971
24206SOL     OW74817   4.394   8.402   6.454 -0.2497 -0.3644  0.4199
24206SOL    HW174818   4.341   8.356   6.389 -1.0727  0.0062  0.8191
24206SOL    HW274819   4.361   8.492   6.453 -0.8158 -0.5237  1.8923
24207SOL     OW74820   3.386   4.167   6.236  0.0508  0.1580  0.5933
24207SOL    HW174821   3.379   4.100   6.168  1.1452 -0.3632  0.9704
24207SOL    HW274822   3.467   4.213   6.216 -0.0573  0.5559  1.0595
24208SOL     OW74823   3.450   7.197   6.712  0.2162 -0.1899 -0.5060
24208SOL    HW174824   3.475   7.289   6.719 -2.8299  0.8014 -1.2382
24208SOL    HW274825   3.501   7.153   6.781  0.5179  2.2993  0.9870
24209SOL     OW74826   1.787   8.014   9.096  0.4353 -0.0306  0.1282
24209SOL    HW174827   1.714   8.075   9.084  0.7608  1.1159  3.1097
24209SOL    HW274828   1.844   8.057   9.161  2.3420 -2.1141 -0.0461
24210SOL     OW74829   5.955   6.969   9.346  0.5029  0.2670  0.5212
24210SOL    HW174830   5.962   7.043   9.284 -0.9841 -1.5613 -2.0359
24210SOL    HW274831   5.877   6.989   9.398  1.1585  1.3336  1.1329
24211SOL     OW74832   8.899   8.877   7.109 -0.1403  0.5339 -0.3102
24211SOL    HW174833   8.806   8.898   7.120 -0.0928  0.8792 -0.5470
24211SOL    HW274834   8.932   8.871   7.199 -0.4807 -0.0133 -0.2204
24212SOL     OW74835   5.488   1.484   8.332  0.6694  0.6464 -0.6500
24212SOL    HW174836   5.440   1.566   8.329  0.8159  1.0621  3.0238
24212SOL    HW274837   5.433   1.422   8.284 -2.4361  1.6603  1.2583
24213SOL     OW74838   5.763   0.592   6.230 -0.2460  0.1751 -0.2892
24213SOL    HW174839   5.784   0.535   6.156  0.6188 -1.1532  0.9309
24213SOL    HW274840   5.678   0.630   6.207 -0.4935 -1.0083 -1.4822
24214SOL     OW74841   7.065   0.049   9.069  0.0813  0.1992 -0.8344
24214SOL    HW174842   6.988   0.066   9.014 -0.5698 -0.7703 -0.2549
24214SOL    HW274843   7.031   0.050   9.158  0.8551  0.3082 -0.5367
24215SOL     OW74844   2.399   4.572   6.830 -0.1414 -0.1930  0.1114
24215SOL    HW174845   2.446   4.606   6.753  3.4134 -2.2711  1.1309
24215SOL    HW274846   2.398   4.645   6.892  0.5725  0.3084 -0.4538
24216SOL     OW74847   0.332   4.772   2.947 -0.1381 -0.0170  0.1780
24216SOL    HW174848   0.312   4.863   2.923  1.3880  0.1095 -0.7331
24216SOL    HW274849   0.250   4.725   2.930 -0.2784  0.7832 -1.5818
24217SOL     OW74850   6.795   0.261   0.726 -0.3930 -0.0720 -0.6622
24217SOL    HW174851   6.821   0.340   0.774 -3.0698  0.8417 -0.5410
24217SOL    HW274852   6.722   0.290   0.671 -0.8866 -2.2952 -1.2674
24218SOL     OW74853   2.287   4.702   6.252 -0.2996 -0.2790  0.3575
24218SOL    HW174854   2.232   4.764   6.300  0.6909 -0.2060  1.4498
24218SOL    HW274855   2.230   4.667   6.183 -1.0630  1.3546  0.1252
24219SOL     OW74856   1.176   6.967   4.130  0.3190  0.3247  0.3400
24219SOL    HW174857   1.115   6.973   4.204 -1.7281 -0.4403 -1.1942
24219SOL    HW274858   1.260   6.944   4.170 -0.1268  2.2547  2.6332
24220SOL     OW74859   6.164   7.640   9.128 -0.1543  0.0536 -0.1043
24220SOL    HW174860   6.223   7.705   9.090  0.1648 -0.3652 -0.3185
24220SOL    HW274861   6.184   7.559   9.083  1.1885 -0.7959  1.8835
24221SOL     OW74862   7.256   8.351   4.696  0.0439  0.3615 -0.1324
24221SOL    HW174863   7.293   8.325   4.611 -1.4519  0.6253 -0.9045
24221SOL    HW274864   7.304   8.431   4.719  1.9726 -0.8607  0.3780
24222SOL     OW74865   0.785   7.349   0.746 -0.6990 -0.1581  0.5463
24222SOL    HW174866   0.825   7.351   0.833 -2.9683  0.5212  1.6624
24222SOL    HW274867   0.743   7.263   0.740  1.0488 -0.9890 -0.7331
24223SOL     OW74868   9.468   4.266   8.021 -0.1488  0.2495 -0.0452
24223SOL    HW174869   9.393   4.273   7.962  0.1792  0.8754 -0.4023
24223SOL    HW274870   9.500   4.356   8.030  0.8538 -0.0602 -0.2924
24224SOL     OW74871   3.112   5.223   1.477 -0.3749  0.2187 -0.3602
24224SOL    HW174872   3.105   5.304   1.528  0.7973  0.7758 -1.0469
24224SOL    HW274873   3.030   5.177   1.494  0.2715 -0.0272  2.7105
24225SOL     OW74874   9.361   8.644   0.249 -0.1801  0.1396  0.2461
24225SOL    HW174875   9.322   8.585   0.313  0.0661 -0.9946 -0.6064
24225SOL    HW274876   9.286   8.676   0.198 -0.4298  1.4151  1.3496
24226SOL     OW74877   5.220   2.790   7.559  0.2188 -0.5978 -0.1474
24226SOL    HW174878   5.184   2.734   7.628  2.1120 -1.6923  0.0297
24226SOL    HW274879   5.314   2.792   7.577  0.4457  1.0940 -1.2973
24227SOL     OW74880   8.831   6.396   7.096 -0.4998 -0.1068 -0.2521
24227SOL    HW174881   8.818   6.339   7.020  0.1730 -1.0212  0.2942
24227SOL    HW274882   8.879   6.471   7.062  0.1920 -0.7190 -0.6546
24228SOL     OW74883   2.067   7.431   8.235 -0.4596  0.7099  0.3945
24228SOL    HW174884   2.122   7.437   8.157 -2.3367  1.4569 -0.9445
24228SOL    HW274885   2.057   7.337   8.251  3.4770  0.4331  2.4736
24229SOL     OW74886   8.120   6.601   5.231  0.0491  0.6081 -0.6354
24229SOL    HW174887   8.060   6.664   5.192 -1.4943  0.1486  0.8611
24229SOL    HW274888   8.094   6.596   5.323  1.1028 -1.0944 -0.3790
24230SOL     OW74889   1.644   6.845   5.463  0.2990  0.1525  0.9111
24230SOL    HW174890   1.700   6.892   5.401  0.6425 -0.0323  1.0814
24230SOL    HW274891   1.686   6.857   5.548 -0.6924  1.2339  1.2817
24231SOL     OW74892   8.976   6.583   6.967 -0.0878  0.0237  0.2615
24231SOL    HW174893   9.064   6.579   7.005  0.1328  1.0816 -0.1121
24231SOL    HW274894   8.989   6.624   6.881 -0.9760  0.3845  0.2969
24232SOL     OW74895   7.328   5.390   6.231 -0.0493  0.1552  0.2889
24232SOL    HW174896   7.362   5.315   6.279  2.7349  0.0986 -1.5150
24232SOL    HW274897   7.299   5.451   6.299 -0.8725 -1.8477  1.8270
24233SOL     OW74898   1.473   8.211   1.343  0.3861  0.0793  0.2893
24233SOL    HW174899   1.463   8.118   1.367  0.3733  0.0474  0.1627
24233SOL    HW274900   1.554   8.238   1.386  0.2621  0.0754  0.5268
24234SOL     OW74901   0.440   6.978   7.059  0.1726  0.5448 -0.0863
24234SOL    HW174902   0.405   6.956   7.145  0.0699  1.3512  0.0891
24234SOL    HW274903   0.518   7.030   7.078  0.7965 -0.2272 -0.4808
24235SOL     OW74904   3.457   1.163   7.255 -0.1978  0.3874 -1.1015
24235SOL    HW174905   3.474   1.089   7.197 -0.0873 -1.1654  0.8162
24235SOL    HW274906   3.413   1.124   7.331 -0.0791  2.2941 -0.0011
24236SOL     OW74907   6.141   5.785   4.518  0.4525  0.0145  0.9406
24236SOL    HW174908   6.180   5.872   4.526 -0.9898  0.8500 -0.5530
24236SOL    HW274909   6.054   5.794   4.556  0.3738 -0.8404  0.9771
24237SOL     OW74910   4.725   3.069   3.705 -0.1575 -0.3640 -0.4696
24237SOL    HW174911   4.650   3.025   3.667 -0.0412 -0.0275 -1.0977
24237SOL    HW274912   4.735   3.149   3.653  0.7092 -0.4697 -0.4793
24238SOL     OW74913   5.625   8.288   0.410 -0.1195 -0.0230 -1.0070
24238SOL    HW174914   5.550   8.347   0.408 -1.0634 -1.2245 -1.8302
24238SOL    HW274915   5.587   8.200   0.412  1.2669 -0.6446 -1.0067
24239SOL     OW74916   8.246   1.193   8.565 -0.5256  0.1892 -0.3589
24239SOL    HW174917   8.249   1.097   8.562 -0.2821  0.1488  0.7908
24239SOL    HW274918   8.330   1.220   8.528 -0.6602 -0.0284 -0.8356
24240SOL     OW74919   6.544   4.754   8.322  0.4899  0.0172  0.9121
24240SOL    HW174920   6.617   4.759   8.384 -0.8520  1.8127  2.4641
24240SOL    HW274921   6.495   4.675   8.349 -0.2840  0.9815  2.4542
24241SOL     OW74922   3.654   6.910   6.368 -0.5788 -0.4230 -0.7444
24241SOL    HW174923   3.603   6.973   6.317 -1.6229 -1.1891 -0.6840
24241SOL    HW274924   3.737   6.954   6.384 -1.6509  1.3816  0.2307
24242SOL     OW74925   1.296   5.431   2.152  0.2771  0.6082  0.1707
24242SOL    HW174926   1.359   5.369   2.188  0.0842  0.9334  1.1117
24242SOL    HW274927   1.239   5.379   2.097  1.1891  0.2622 -0.4626
24243SOL     OW74928   4.197   8.072   6.335 -0.4311 -0.0457  0.2927
24243SOL    HW174929   4.247   8.008   6.385 -1.0726  2.0749  4.0310
24243SOL    HW274930   4.117   8.026   6.311  0.4403 -1.5149  0.0832
24244SOL     OW74931   4.622   7.715   4.059  0.2225  0.2048  0.4529
24244SOL    HW174932   4.544   7.668   4.030 -0.1380  0.6763  0.6523
24244SOL    HW274933   4.639   7.683   4.147 -0.1832  0.6442  0.6930
24245SOL     OW74934   7.537   1.457   1.797 -0.5086  0.0667 -0.5830
24245SOL    HW174935   7.615   1.464   1.853  1.2718  0.3781 -2.9514
24245SOL    HW274936   7.512   1.547   1.779 -2.3516 -0.0035  1.2565
24246SOL     OW74937   7.069   2.280   4.193 -0.5469  0.5913 -0.0790
24246SOL    HW174938   7.044   2.302   4.283 -2.1296  1.7888 -0.7464
24246SOL    HW274939   7.125   2.353   4.165 -1.6416  1.2588 -0.6444
24247SOL     OW74940   1.123   8.801   3.460 -0.5524  0.7269  0.4722
24247SOL    HW174941   1.081   8.809   3.375 -0.9189  1.1179  0.6867
24247SOL    HW274942   1.131   8.891   3.492 -2.6919  0.4692  1.9422
24248SOL     OW74943   3.891   8.461   2.696 -0.3583 -0.0242  0.1204
24248SOL    HW174944   3.870   8.381   2.745 -0.1080 -1.2261 -1.6158
24248SOL    HW274945   3.966   8.436   2.642  1.1006  2.0577  1.0564
24249SOL     OW74946   1.493   3.770   0.044  0.3484 -0.0873 -0.3564
24249SOL    HW174947   1.458   3.699  -0.011 -0.1901 -0.4810  0.4766
24249SOL    HW274948   1.582   3.783   0.011  0.1401 -0.5141 -1.1296
24250SOL     OW74949   3.401   5.398   3.865 -0.7442  0.2288 -0.2802
24250SOL    HW174950   3.329   5.397   3.928  1.0548  0.4759  1.8934
24250SOL    HW274951   3.472   5.352   3.909  0.9573  1.3904 -1.6798
24251SOL     OW74952   8.549   1.438   7.531 -0.4755 -0.1054 -0.1419
24251SOL    HW174953   8.464   1.412   7.566 -0.6534  1.5952  0.7906
24251SOL    HW274954   8.596   1.356   7.519 -2.0724 -1.0475 -0.2523
24252SOL     OW74955   7.364   8.213   2.924  0.1949  0.2315  0.2446
24252SOL    HW174956   7.303   8.158   2.875 -1.3430  0.5901  1.6546
24252SOL    HW274957   7.444   8.161   2.931 -0.3854 -0.7952 -0.5398
24253SOL     OW74958   2.929   0.507   2.121  0.3238 -0.7596  0.9486
24253SOL    HW174959   2.949   0.414   2.118  0.9385 -0.6273 -1.8502
24253SOL    HW274960   2.834   0.512   2.111  0.1461 -1.0766  2.3080
24254SOL     OW74961   5.427   7.428   2.271  0.5463  0.0836 -0.4312
24254SOL    HW174962   5.476   7.511   2.269 -0.3270  0.6014 -0.9163
24254SOL    HW274963   5.344   7.450   2.313  0.7480 -0.8151  0.4836
24255SOL     OW74964   7.935   8.057   1.540  0.0176 -0.6510 -0.6403
24255SOL    HW174965   7.873   7.993   1.576 -0.4178  0.8402  1.4526
24255SOL    HW274966   8.003   8.004   1.499 -0.4521 -2.4635  0.8073
24256SOL     OW74967   4.259   7.837   2.710 -0.1458  0.2065  0.1611
24256SOL    HW174968   4.175   7.881   2.704 -0.4471 -0.2478  0.9843
24256SOL    HW274969   4.311   7.875   2.639 -1.9164 -1.4299 -2.1746
24257SOL     OW74970   3.369   0.757   6.049 -0.4234  0.2911  0.2860
24257SOL    HW174971   3.438   0.701   6.012 -0.0514 -0.0245  1.4149
24257SOL    HW274972   3.303   0.761   5.980 -0.3024 -1.2691  0.0356
24258SOL     OW74973   0.277   3.929   3.856  0.4967  0.0673  0.2894
24258SOL    HW174974   0.371   3.947   3.861  0.4220  0.5052  0.1401
24258SOL    HW274975   0.247   3.981   3.781 -0.0439  0.7170  0.9454
24259SOL     OW74976   2.554   7.593   3.073 -0.2911  0.2388 -0.2893
24259SOL    HW174977   2.602   7.517   3.105  2.2527  2.7191  2.2657
24259SOL    HW274978   2.473   7.593   3.124  0.3327  0.0033  0.7298
24260SOL     OW74979   4.011   7.897   3.773 -0.9099  0.1141 -0.0969
24260SOL    HW174980   4.082   7.960   3.765 -0.9712  0.2360  0.2990
24260SOL    HW274981   4.010   7.873   3.865 -0.3556 -1.1071 -0.3953
24261SOL     OW74982   2.701   5.599   2.457 -0.1087  0.0443  0.2784
24261SOL    HW174983   2.707   5.622   2.365 -1.2629  0.0108  0.1793
24261SOL    HW274984   2.736   5.510   2.462  1.7998  0.7394  0.2224
24262SOL     OW74985   0.387   0.722   3.105 -0.1640  0.3739  0.7598
24262SOL    HW174986   0.293   0.737   3.095 -0.4395 -0.4432  1.8793
24262SOL    HW274987   0.393   0.634   3.142  1.1311 -0.2736 -0.8931
24263SOL     OW74988   3.708   5.972   8.823 -0.3893 -0.4440 -0.4323
24263SOL    HW174989   3.723   6.062   8.793 -1.6695 -0.0047  0.1710
24263SOL    HW274990   3.627   5.946   8.780  0.2355 -1.5194 -1.0107
24264SOL     OW74991   6.131   7.897   9.287 -0.3075 -0.4885 -0.2574
24264SOL    HW174992   6.082   7.961   9.234  0.0999 -1.2722 -1.6077
24264SOL    HW274993   6.132   7.818   9.234 -2.9843 -2.5392  2.3756
24265SOL     OW74994   2.325   4.250   2.214  0.4268 -0.0788 -0.2772
24265SOL    HW174995   2.308   4.329   2.162 -0.8305 -0.9216 -1.2117
24265SOL    HW274996   2.270   4.261   2.292 -0.9596 -0.6806 -1.1225
24266SOL     OW74997   3.989   0.487   5.019 -0.0250 -0.0582  0.4272
24266SOL    HW174998   3.905   0.443   5.030  0.2399 -0.4183  1.0812
24266SOL    HW274999   4.019   0.503   5.109  0.8430 -0.3952  0.1998
24267SOL     OW75000   3.754   2.878   9.538 -0.1048  0.3000 -0.0703
24267SOL    HW175001   3.772   2.820   9.464  0.1658  1.3794 -0.8703
24267SOL    HW275002   3.838   2.889   9.581 -0.0444  0.5144 -0.2384
24268SOL     OW75003   8.950   4.662   2.529  0.0582  0.6391  0.5012
24268SOL    HW175004   8.873   4.674   2.584 -0.2196 -0.4932  0.3810
24268SOL    HW275005   9.003   4.597   2.576 -0.7193 -1.2218 -1.0555
24269SOL     OW75006   0.009   9.177   1.838 -0.4683 -0.4639  0.0261
24269SOL    HW175007  -0.038   9.208   1.916 -0.3068 -1.1737  0.4104
24269SOL    HW275008  -0.059   9.167   1.772 -0.5403  0.6089 -0.0792
24270SOL     OW75009   2.185   5.414   0.779 -0.4544  0.0420  0.5187
24270SOL    HW175010   2.180   5.508   0.792  1.5267  0.3376 -0.5425
24270SOL    HW275011   2.170   5.377   0.865 -0.9985  1.3198  0.9994
24271SOL     OW75012   8.699   1.131   5.231  0.3571  0.2330  0.3237
24271SOL    HW175013   8.666   1.219   5.251  0.4259  0.0806  1.1353
24271SOL    HW275014   8.679   1.119   5.138 -0.9887  0.5258  0.5531
24272SOL     OW75015   7.588   7.012   4.926 -0.2930 -0.8361 -0.6594
24272SOL    HW175016   7.562   6.969   5.007  1.0604 -0.6514 -0.1099
24272SOL    HW275017   7.531   7.089   4.920  0.5429 -0.0570  0.8778
24273SOL     OW75018   5.946   2.877   2.487  0.3030  0.5737  0.0030
24273SOL    HW175019   6.022   2.914   2.532 -0.2060  0.6632  0.8122
24273SOL    HW275020   5.969   2.785   2.472 -0.1001  0.1145  1.8686
24274SOL     OW75021   1.422   3.201   8.642  0.0156 -0.1103 -0.4487
24274SOL    HW175022   1.334   3.164   8.650  0.3738 -0.8851  0.0047
24274SOL    HW275023   1.449   3.218   8.732  1.3291 -2.2995 -0.3715
24275SOL     OW75024   5.915   3.096   1.158  0.5496 -0.1331  0.0242
24275SOL    HW175025   5.885   3.092   1.067 -0.2135  0.5188  0.2382
24275SOL    HW275026   5.835   3.103   1.209  0.8359 -2.4112  0.9073
24276SOL     OW75027   3.565   9.530   2.975 -0.4012 -0.8381 -0.0253
24276SOL    HW175028   3.555   9.566   2.887 -3.2632  1.4170  1.0620
24276SOL    HW275029   3.605   9.601   3.025 -0.1719 -1.5496  0.8233
24277SOL     OW75030   2.036   5.032   5.034  0.1762  0.0949  0.5098
24277SOL    HW175031   2.029   5.127   5.044 -0.9138 -0.0009  0.7524
24277SOL    HW275032   2.114   5.019   4.980  0.2098  1.1347  0.2919
24278SOL     OW75033   3.460   8.575   5.423  0.0761  0.4535 -0.1189
24278SOL    HW175034   3.478   8.482   5.428 -1.1290  0.2511  0.7742
24278SOL    HW275035   3.514   8.606   5.350 -0.1726 -1.1027 -1.0052
24279SOL     OW75036   0.310   0.021   2.429 -0.0836  0.3506 -0.0838
24279SOL    HW175037   0.242  -0.026   2.476  1.8964 -1.9099  0.7212
24279SOL    HW275038   0.263   0.086   2.377 -2.9209 -1.8797 -0.5256
24280SOL     OW75039   5.338   1.276   6.681 -0.1031 -0.7425 -0.0928
24280SOL    HW175040   5.397   1.339   6.641  0.6720 -1.4594 -0.0901
24280SOL    HW275041   5.328   1.207   6.616 -1.3800 -0.3715 -0.3121
24281SOL     OW75042   0.825   7.279   3.870  0.2161 -0.0826  0.1637
24281SOL    HW175043   0.893   7.233   3.820  0.3380  0.2036  0.0637
24281SOL    HW275044   0.835   7.245   3.959 -0.9230 -1.6516 -0.2586
24282SOL     OW75045   3.781   6.391   4.722  0.3697 -0.0397  0.2388
24282SOL    HW175046   3.691   6.367   4.701  0.0398  1.8929 -0.8372
24282SOL    HW275047   3.780   6.404   4.817 -0.7918  0.9386  0.1253
24283SOL     OW75048   9.034   6.336   2.703 -0.6833  0.0105  0.0597
24283SOL    HW175049   9.023   6.328   2.798  0.4760  0.3440  0.2346
24283SOL    HW275050   9.103   6.402   2.692 -0.9417  0.1162 -1.0194
24284SOL     OW75051   6.220   6.218   0.401 -0.9073  0.2338  0.0024
24284SOL    HW175052   6.237   6.180   0.487  2.4445 -2.6543 -1.6779
24284SOL    HW275053   6.131   6.191   0.380 -1.2216 -0.3481  1.8758
24285SOL     OW75054   5.397   3.362   8.331  0.1140  0.1878 -0.5178
24285SOL    HW175055   5.427   3.417   8.258  2.1319  1.1041  0.9036
24285SOL    HW275056   5.452   3.284   8.326  0.5236  0.4241  0.2313
24286SOL     OW75057   2.524   0.395   3.742  0.0942 -0.4182  0.2573
24286SOL    HW175058   2.615   0.373   3.763 -0.3351 -1.0452  1.5300
24286SOL    HW275059   2.473   0.359   3.814 -0.8541  3.0919  1.5652
24287SOL     OW75060   2.857   8.794   4.541  0.2771 -0.1493  0.3826
24287SOL    HW175061   2.818   8.712   4.512  1.1482 -0.1787 -0.7452
24287SOL    HW275062   2.949   8.772   4.557  1.0321  1.0154 -1.9331
24288SOL     OW75063   2.590   8.847   3.093 -0.0103  0.3952  0.5587
24288SOL    HW175064   2.535   8.901   3.149 -1.1319 -0.7729  0.6299
24288SOL    HW275065   2.644   8.796   3.154 -0.3213  0.0476  0.5434
24289SOL     OW75066   9.093   3.356   2.237  0.1622 -0.4158  0.1605
24289SOL    HW175067   9.001   3.349   2.215  0.0037 -0.8755  0.9030
24289SOL    HW275068   9.103   3.444   2.274  0.5915  0.6607 -2.3319
24290SOL     OW75069   9.017   7.853   2.575 -0.2290  0.6283 -0.5254
24290SOL    HW175070   9.081   7.823   2.639  0.0767 -1.0162 -1.5269
24290SOL    HW275071   8.961   7.776   2.559 -1.3934  1.5271 -0.9292
24291SOL     OW75072   1.329   2.922   0.687  0.2171 -0.4818 -0.4528
24291SOL    HW175073   1.313   2.904   0.780 -2.5531  1.4099 -0.4457
24291SOL    HW275074   1.393   2.993   0.688 -2.4960  2.1910  0.3414
24292SOL     OW75075   8.752   3.998   0.072  0.2891  0.4532 -0.2034
24292SOL    HW175076   8.710   4.034   0.150  1.0939  2.7163 -0.7388
24292SOL    HW275077   8.690   3.933   0.039 -1.3989  1.5370  0.7001
24293SOL     OW75078   4.943   4.864   5.011  0.4198 -0.0838  0.0236
24293SOL    HW175079   4.945   4.774   5.044  2.5782 -1.0763 -2.4697
24293SOL    HW275080   4.915   4.855   4.920  0.2777  1.8485 -0.1485
24294SOL     OW75081   6.244   4.279   1.110 -0.3816  0.4494  0.2225
24294SOL    HW175082   6.271   4.187   1.104  0.8097  0.8494 -3.9055
24294SOL    HW275083   6.314   4.321   1.160  0.2300 -0.5359  0.2383
24295SOL     OW75084   8.837   5.652   0.206 -0.4601 -0.3574 -0.2411
24295SOL    HW175085   8.923   5.612   0.209 -0.9219 -1.6744 -2.2504
24295SOL    HW275086   8.819   5.664   0.113 -1.5421  1.9730  0.2022
24296SOL     OW75087   5.116   5.000   8.668  0.3107 -0.0225 -0.2338
24296SOL    HW175088   5.035   4.957   8.696 -0.5162  1.2521 -0.5958
24296SOL    HW275089   5.088   5.068   8.607  1.6337  0.6131 -0.1844
24297SOL     OW75090   3.391   2.191   3.367  0.0219  0.0962 -0.8732
24297SOL    HW175091   3.466   2.132   3.375  0.3670  0.5947 -0.3455
24297SOL    HW275092   3.413   2.265   3.424 -0.5899  0.5391 -1.2052
24298SOL     OW75093   2.369   7.993   3.899 -0.4687 -0.0995 -0.0682
24298SOL    HW175094   2.430   7.923   3.923 -0.3125 -0.0170 -0.2219
24298SOL    HW275095   2.359   8.045   3.980  0.0195  0.1506 -0.1631
24299SOL     OW75096   0.575   3.295   3.101 -0.3988  0.0347  0.1078
24299SOL    HW175097   0.573   3.390   3.110 -0.6734  0.1963 -1.3963
24299SOL    HW275098   0.485   3.271   3.077 -0.7060 -0.7996  1.8901
24300SOL     OW75099   3.277   2.543   4.350  0.0484 -0.3461  0.0595
24300SOL    HW175100   3.328   2.556   4.431 -0.4213  0.7478  0.2021
24300SOL    HW275101   3.338   2.499   4.291  0.6710 -0.4264  0.7369
24301SOL     OW75102   6.297   7.751   0.337 -0.1973 -0.0277 -0.6096
24301SOL    HW175103   6.224   7.762   0.276 -0.2401 -1.1776 -0.8035
24301SOL    HW275104   6.367   7.715   0.283 -0.1648 -0.8573 -0.0353
24302SOL     OW75105   2.127   7.616   6.183  0.1667  0.4124  0.0799
24302SOL    HW175106   2.120   7.522   6.201  0.7371  0.4125  0.3283
24302SOL    HW275107   2.188   7.622   6.110 -0.2938  0.5580 -0.2911
24303SOL     OW75108   7.218   8.789   0.240 -0.0414  0.1663  0.1999
24303SOL    HW175109   7.306   8.827   0.249 -0.0308  0.8453 -2.1568
24303SOL    HW275110   7.159   8.864   0.245 -0.3946 -0.1173  0.3263
24304SOL     OW75111   7.898   0.935   3.465  0.0346 -0.8311 -0.5000
24304SOL    HW175112   7.809   0.959   3.492  0.3818  1.6203 -1.3289
24304SOL    HW275113   7.890   0.846   3.432 -1.4652 -1.8919  2.3717
24305SOL     OW75114   4.840   8.516   3.419  0.0832 -0.3262  0.4491
24305SOL    HW175115   4.745   8.520   3.425 -0.0152 -1.9303  0.4551
24305SOL    HW275116   4.866   8.460   3.493  0.9342 -0.7144 -0.1280
24306SOL     OW75117   9.226   4.048   3.247 -0.1381  0.1806  0.0703
24306SOL    HW175118   9.294   4.024   3.184  1.1115  0.4682  1.2738
24306SOL    HW275119   9.252   4.006   3.329 -0.1255  2.1617  1.1603
24307SOL     OW75120   1.911   8.760   7.645 -0.0044  0.1432 -0.1603
24307SOL    HW175121   1.894   8.855   7.643 -1.2185 -0.0339  0.3934
24307SOL    HW275122   1.854   8.728   7.716  0.3977 -1.0016 -0.3404
24308SOL     OW75123   8.204   2.706   7.631  0.4956 -0.3675  0.2338
24308SOL    HW175124   8.297   2.691   7.616  0.4361 -0.9236  0.4010
24308SOL    HW275125   8.163   2.622   7.614 -0.3544  0.5098 -2.7390
24309SOL     OW75126   1.749   7.770   5.617  0.1381  0.0794  0.0286
24309SOL    HW175127   1.835   7.754   5.577 -0.4619 -2.0366 -0.5717
24309SOL    HW275128   1.688   7.765   5.543 -0.7623 -1.4812  0.8290
24310SOL     OW75129   8.707   7.402   5.459  0.2369  0.0552 -0.7035
24310SOL    HW175130   8.750   7.335   5.405  2.4185 -0.7766  1.8479
24310SOL    HW275131   8.680   7.355   5.538  0.0887  1.8069  0.3426
24311SOL     OW75132   1.905   3.929   1.306  0.7446  0.1009  0.1811
24311SOL    HW175133   1.983   3.953   1.356  0.7656 -2.4446  1.5702
24311SOL    HW275134   1.833   3.933   1.369  0.2866 -0.4394 -0.2923
24312SOL     OW75135   2.528   5.497   1.341  0.0959  0.3930 -0.3359
24312SOL    HW175136   2.529   5.490   1.245  2.2876 -1.8050 -0.2529
24312SOL    HW275137   2.580   5.576   1.359 -1.1679  1.3975 -0.9247
24313SOL     OW75138   3.161   2.021   4.784  0.3744 -0.3671  0.0456
24313SOL    HW175139   3.255   2.037   4.794  0.1283  1.2782 -0.0412
24313SOL    HW275140   3.127   2.020   4.873  0.4395 -0.8111  0.0688
24314SOL     OW75141   5.674   0.322   0.264 -0.0509  0.4312  0.2820
24314SOL    HW175142   5.585   0.348   0.240 -0.0522 -0.0307 -0.2277
24314SOL    HW275143   5.680   0.229   0.240  0.4013  0.3190  0.7923
24315SOL     OW75144   9.326   2.834   3.243  0.3323  0.2960 -0.2322
24315SOL    HW175145   9.304   2.894   3.172  0.6412  0.5473 -0.1213
24315SOL    HW275146   9.343   2.751   3.200  0.9833  0.5644 -0.5078
24316SOL     OW75147   2.440   7.025   8.035 -0.4301 -0.1676  0.4022
24316SOL    HW175148   2.526   6.996   8.065  0.0955 -0.4050 -1.2077
24316SOL    HW275149   2.441   7.120   8.046  0.3465 -0.0829 -0.2694
24317SOL     OW75150   2.589   8.941   3.966  0.3044  0.3981 -0.3832
24317SOL    HW175151   2.495   8.934   3.981  0.1857  0.1532 -1.1813
24317SOL    HW275152   2.606   8.882   3.893  1.0641  0.5092 -0.3042
24318SOL     OW75153   1.727   5.147   0.841 -0.8906  0.6532  0.5333
24318SOL    HW175154   1.784   5.077   0.872 -0.4004  1.6469  1.9869
24318SOL    HW275155   1.773   5.184   0.766  0.2650  1.2258  1.4903
24319SOL     OW75156   1.294   7.033   1.962  0.3705 -0.0392 -0.0645
24319SOL    HW175157   1.217   7.081   1.932  1.1748  1.8204  0.7199
24319SOL    HW275158   1.334   6.999   1.881 -0.8906 -0.4791 -0.5254
24320SOL     OW75159   2.600   1.606   8.050 -0.3878  0.1862  0.1127
24320SOL    HW175160   2.682   1.556   8.053 -1.3207 -1.6920 -2.3885
24320SOL    HW275161   2.535   1.548   8.089 -1.2913 -0.2136 -1.8668
24321SOL     OW75162   6.805   3.631   1.110 -0.0489 -0.0060  0.0505
24321SOL    HW175163   6.848   3.717   1.115 -1.3350  0.6331  0.4662
24321SOL    HW275164   6.712   3.649   1.123 -0.6267 -1.2245 -1.8404
24322SOL     OW75165   4.556   0.291   8.553 -0.1412  0.1339 -0.0715
24322SOL    HW175166   4.579   0.380   8.580  1.6785 -0.0781 -0.8257
24322SOL    HW275167   4.543   0.244   8.635 -1.7839  1.2125  0.3430
24323SOL     OW75168   8.894   9.109   2.328  0.0468  0.1398 -0.1348
24323SOL    HW175169   8.874   9.201   2.345 -1.5436 -0.2488  0.2139
24323SOL    HW275170   8.880   9.098   2.234  0.7282  0.3503 -0.2698
24324SOL     OW75171   9.158   7.979   3.532 -0.5657  0.6319  0.0881
24324SOL    HW175172   9.221   8.045   3.500 -0.2291  0.6165  0.6865
24324SOL    HW275173   9.128   7.934   3.453  0.6666  0.2057 -0.1684
24325SOL     OW75174   1.203   2.258   5.713  0.3480  0.0356  0.2543
24325SOL    HW175175   1.144   2.195   5.671 -3.2016  2.9722  0.2849
24325SOL    HW275176   1.181   2.342   5.671  1.9921  1.8882  2.8141
24326SOL     OW75177   0.576   4.565   3.767 -0.0601  0.1817  0.2805
24326SOL    HW175178   0.591   4.570   3.862  0.3564  1.3761  0.1679
24326SOL    HW275179   0.559   4.655   3.741 -2.2271 -0.3837 -0.4737
24327SOL     OW75180   3.190   7.492   3.591  0.2010 -0.6744  0.1948
24327SOL    HW175181   3.162   7.457   3.506 -1.4696  0.7767  0.0769
24327SOL    HW275182   3.140   7.441   3.655 -1.8902  1.0409  0.0433
24328SOL     OW75183   6.020   7.834   3.749 -0.1293 -0.4926  0.9567
24328SOL    HW175184   6.050   7.745   3.768 -0.1048 -0.2728  2.0169
24328SOL    HW275185   5.926   7.831   3.767 -0.4598 -0.7244 -0.6548
24329SOL     OW75186   4.749   6.483   3.626 -0.1229 -0.0327  0.5398
24329SOL    HW175187   4.798   6.458   3.704 -0.7269  0.1826  0.9923
24329SOL    HW275188   4.706   6.402   3.598 -0.3135  0.0066  0.7226
24330SOL     OW75189   5.085   1.324   6.772  0.6052 -0.4727 -0.0045
24330SOL    HW175190   5.166   1.302   6.727  0.2770  0.2510 -0.9833
24330SOL    HW275191   5.059   1.408   6.735  0.2605  0.1024  1.4672
24331SOL     OW75192   9.094   1.512   0.153  0.3152 -0.3058  0.6551
24331SOL    HW175193   9.023   1.538   0.095  0.7656 -1.7936 -0.6401
24331SOL    HW275194   9.160   1.581   0.143  0.3012 -0.4382 -0.4764
24332SOL     OW75195   5.072   7.728   9.048 -0.1506 -0.6153 -0.0769
24332SOL    HW175196   5.158   7.753   9.012  0.1994 -1.6791 -0.0171
24332SOL    HW275197   5.049   7.800   9.107 -0.6404  1.0725 -2.1998
24333SOL     OW75198   4.014   7.672   4.343  0.1190 -0.5167 -0.0227
24333SOL    HW175199   3.926   7.664   4.309  0.6767  0.1206 -1.6810
24333SOL    HW275200   4.066   7.706   4.270  1.9769 -1.9801  0.5341
24334SOL     OW75201   2.496   1.837   4.573 -0.2766 -0.1741  0.1928
24334SOL    HW175202   2.576   1.804   4.531 -0.2535 -1.8188  1.4249
24334SOL    HW275203   2.526   1.868   4.658 -0.6776  0.9649 -0.0728
24335SOL     OW75204   5.067   1.304   8.803 -0.3408 -0.0034 -0.5001
24335SOL    HW175205   5.055   1.346   8.718 -2.2133 -0.6228 -0.5658
24335SOL    HW275206   5.081   1.212   8.783  0.6811  0.0580 -0.1772
24336SOL     OW75207   4.197   7.798   6.129 -0.2192 -0.0978  0.3337
24336SOL    HW175208   4.201   7.838   6.216 -0.7820  1.0174 -0.1366
24336SOL    HW275209   4.127   7.733   6.136  0.8705 -1.2429  1.1773
24337SOL     OW75210   6.664   6.279   6.880 -0.0269 -0.1157  0.6931
24337SOL    HW175211   6.650   6.365   6.920 -2.2993  0.1690 -0.5591
24337SOL    HW275212   6.707   6.298   6.797 -1.6536 -0.0224 -0.1618
24338SOL     OW75213   6.974   1.406   4.542 -0.0660  0.4341  0.4340
24338SOL    HW175214   6.950   1.368   4.627  0.2192 -3.3159 -0.9681
24338SOL    HW275215   6.895   1.396   4.488  0.9850 -1.2682 -0.8930
24339SOL     OW75216   8.682   0.293   9.398  0.4714  0.0573 -0.1986
24339SOL    HW175217   8.684   0.372   9.452 -0.6937  0.3107 -0.4925
24339SOL    HW275218   8.659   0.324   9.311 -1.1128 -0.6937 -0.0877
24340SOL     OW75219   0.700   1.810   3.076  0.2340 -0.4537 -0.5956
24340SOL    HW175220   0.622   1.844   3.032 -0.3868 -2.8482 -1.5059
24340SOL    HW275221   0.739   1.749   3.013  1.8609 -0.6089  0.5046
24341SOL     OW75222   4.039   0.592   7.231 -0.5895 -0.1474 -0.3216
24341SOL    HW175223   4.028   0.613   7.324 -2.5451  2.3458 -0.9891
24341SOL    HW275224   3.969   0.530   7.212 -1.0974  0.4274 -0.3809
24342SOL     OW75225   9.406   4.844   0.551 -0.0468  0.1541 -0.1773
24342SOL    HW175226   9.386   4.937   0.557  1.9373  0.6064 -0.1709
24342SOL    HW275227   9.431   4.830   0.460  1.3150 -0.0036  0.2062
24343SOL     OW75228   9.453   5.042   3.130 -1.0232  0.0190  0.2586
24343SOL    HW175229   9.415   4.954   3.130 -0.1969 -0.3567  1.5193
24343SOL    HW275230   9.493   5.051   3.216  1.5477  0.4763 -0.8859
24344SOL     OW75231   7.466   9.321   2.963  0.0969  0.2931 -0.6265
24344SOL    HW175232   7.534   9.370   2.914  1.5929 -0.7570  0.3223
24344SOL    HW275233   7.510   9.293   3.043 -1.1504 -1.4055 -0.4997
24345SOL     OW75234   1.800   2.736   2.311  0.5954 -0.4712 -0.1612
24345SOL    HW175235   1.788   2.653   2.357  1.7926 -1.6983 -1.9265
24345SOL    HW275236   1.890   2.732   2.278  0.4707  1.2647 -0.8201
24346SOL     OW75237   1.645   4.101   8.192 -0.2634  0.3716 -0.5212
24346SOL    HW175238   1.709   4.050   8.241 -1.9797 -2.6837 -1.1599
24346SOL    HW275239   1.676   4.097   8.101  0.4148  1.9209 -0.3834
24347SOL     OW75240   2.096   2.781   3.658  0.0010 -0.5138 -0.3050
24347SOL    HW175241   2.034   2.741   3.596 -1.3256 -1.8229  1.7359
24347SOL    HW275242   2.051   2.859   3.689  0.2884 -0.3246 -0.3661
24348SOL     OW75243   2.185   2.911   7.138 -0.5315  0.1393  0.3733
24348SOL    HW175244   2.240   2.847   7.091 -2.0152 -0.6459 -0.3821
24348SOL    HW275245   2.222   2.914   7.226  1.2539  0.3194 -0.3276
24349SOL     OW75246   0.742   2.512   4.513 -0.2350  0.5319 -0.3237
24349SOL    HW175247   0.780   2.444   4.568  1.3344  0.6221 -1.2329
24349SOL    HW275248   0.704   2.464   4.439 -0.8107  0.5366 -0.0414
24350SOL     OW75249   5.397   5.629   1.470 -0.3738 -0.2184  0.1358
24350SOL    HW175250   5.448   5.710   1.463 -0.3293 -0.2527  0.0587
24350SOL    HW275251   5.434   5.584   1.546  0.7254 -0.9514 -0.7851
24351SOL     OW75252   4.415   4.778   5.505 -0.3715 -0.2908 -0.6096
24351SOL    HW175253   4.473   4.796   5.579 -0.0516 -1.1299 -0.6554
24351SOL    HW275254   4.467   4.799   5.428 -1.0363  1.5722 -0.6032
24352SOL     OW75255   3.546   1.203   6.004  0.1170 -0.4449  0.2899
24352SOL    HW175256   3.593   1.143   5.947  1.0385  2.2474 -2.0152
24352SOL    HW275257   3.544   1.286   5.955 -1.1272  1.4052  3.2121
24353SOL     OW75258   4.715   8.895   5.449 -0.2565  0.1810 -0.3810
24353SOL    HW175259   4.752   8.912   5.536  0.9437 -0.5107 -0.7346
24353SOL    HW275260   4.774   8.938   5.388 -0.1009 -0.7996 -0.9497
24354SOL     OW75261   3.311   5.767   7.824  0.2874  0.1514  0.7027
24354SOL    HW175262   3.253   5.691   7.817  1.2616 -0.4857 -1.4558
24354SOL    HW275263   3.397   5.729   7.847  0.6751  0.6506  0.0964
24355SOL     OW75264   3.296   0.052   7.222  0.0403  0.4220  0.7625
24355SOL    HW175265   3.360  -0.004   7.265 -0.2003  0.2043  0.8428
24355SOL    HW275266   3.214   0.036   7.269 -0.6757 -1.2546 -0.9351
24356SOL     OW75267   3.183   4.804   8.591 -0.2797 -0.4119  0.1272
24356SOL    HW175268   3.227   4.888   8.576 -1.3678  0.0309 -0.7741
24356SOL    HW275269   3.252   4.746   8.622  1.0644  0.0958 -1.7389
24357SOL     OW75270   1.446   3.775   5.286  0.0871 -0.0480  0.1958
24357SOL    HW175271   1.448   3.692   5.333  0.5828 -0.7888 -1.0751
24357SOL    HW275272   1.532   3.781   5.245 -0.8613 -0.2787 -1.9761
24358SOL     OW75273   8.638   9.033   5.686  0.3402  0.0299 -0.0769
24358SOL    HW175274   8.681   9.059   5.767  0.5378  0.3450 -0.2818
24358SOL    HW275275   8.608   8.943   5.703 -1.0245  0.6479  0.8959
24359SOL     OW75276   8.382   5.402   1.632 -0.7727 -0.0369  0.3444
24359SOL    HW175277   8.459   5.434   1.679  0.0977 -1.6999  0.1100
24359SOL    HW275278   8.341   5.481   1.599  1.5914  0.8554 -0.6954
24360SOL     OW75279   2.539   0.186   3.524  0.2433  0.4839 -1.0805
24360SOL    HW175280   2.452   0.226   3.521 -0.0116 -0.0534 -0.8535
24360SOL    HW275281   2.589   0.241   3.584 -0.3478 -0.0122 -0.1237
24361SOL     OW75282   5.270   4.695   4.828 -0.1456 -0.3705  0.0378
24361SOL    HW175283   5.270   4.733   4.740  0.2437 -0.1947  0.1128
24361SOL    HW275284   5.350   4.641   4.831  0.3789  0.4170  0.6179
24362SOL     OW75285   5.912   0.445   8.652  0.2550  0.0690  0.4060
24362SOL    HW175286   5.976   0.497   8.700 -0.2506 -0.8793  2.2175
24362SOL    HW275287   5.850   0.510   8.617  0.2287  0.7914  1.6984
24363SOL     OW75288   0.208   7.666   5.162  0.2163  0.5473 -0.0098
24363SOL    HW175289   0.161   7.659   5.245 -2.2307 -0.3351 -1.3798
24363SOL    HW275290   0.301   7.669   5.187 -0.0479 -4.2088  2.6504
24364SOL     OW75291   7.412   0.689   1.009 -0.0123 -0.3242 -0.0264
24364SOL    HW175292   7.425   0.784   1.008 -0.9543 -0.1756  0.0719
24364SOL    HW275293   7.327   0.677   0.966  0.2752 -1.1565 -0.3683
24365SOL     OW75294   4.308   4.035   9.059  0.2030 -0.2786 -0.1364
24365SOL    HW175295   4.241   4.055   8.994  0.4814 -1.6074 -0.8639
24365SOL    HW275296   4.367   4.110   9.056  0.0424 -0.1816 -1.1998
24366SOL     OW75297   6.673   2.091   9.399  0.3634  0.6415 -0.3981
24366SOL    HW175298   6.736   2.044   9.454  0.2891 -0.8533 -1.5127
24366SOL    HW275299   6.653   2.030   9.328 -1.5295  1.4922 -0.6721
24367SOL     OW75300   9.505   3.030   0.197  0.2097 -0.6526  0.4877
24367SOL    HW175301   9.547   3.014   0.113  0.6403  0.2446  0.5213
24367SOL    HW275302   9.451   3.108   0.183 -2.0576 -2.1706  0.2409
24368SOL     OW75303   7.393   9.248   4.876  0.5185 -0.2345  0.2696
24368SOL    HW175304   7.418   9.313   4.811  1.4612 -0.3829  0.4810
24368SOL    HW275305   7.475   9.218   4.914 -0.0285  0.5375  2.2071
24369SOL     OW75306   6.874   8.948   1.536  0.1805 -0.0600 -0.6071
24369SOL    HW175307   6.830   8.909   1.612  0.4288 -2.0129 -1.4078
24369SOL    HW275308   6.929   9.016   1.573 -0.4471 -0.3048  0.8610
24370SOL     OW75309   4.342   1.095   6.369  0.1695  0.3382 -0.1246
24370SOL    HW175310   4.425   1.063   6.405  0.6588  0.9675 -0.6582
24370SOL    HW275311   4.298   1.135   6.444  0.5523  0.3949  0.0770
24371SOL     OW75312   5.684   4.675   7.066  0.1421 -0.3523 -0.0556
24371SOL    HW175313   5.609   4.623   7.037 -0.8108  0.5154  0.8107
24371SOL    HW275314   5.658   4.711   7.150  0.6613  1.7333 -0.7307
24372SOL     OW75315   5.926   3.402   3.279 -0.3284 -0.2096  0.6363
24372SOL    HW175316   6.003   3.443   3.319 -0.4017  0.9430 -0.3643
24372SOL    HW275317   5.911   3.324   3.333  1.5782 -0.5127  0.8136
24373SOL     OW75318   6.681   9.503   5.057  0.4159 -0.1704 -0.0018
24373SOL    HW175319   6.744   9.511   5.128  0.8079 -1.4192 -0.1936
24373SOL    HW275320   6.672   9.409   5.043 -0.0288  0.0429 -1.2675
24374SOL     OW75321   4.453   5.804   0.556  0.4922  0.0507  0.1995
24374SOL    HW175322   4.426   5.815   0.465 -0.8184  0.4273  0.6170
24374SOL    HW275323   4.515   5.876   0.570  1.0177 -0.2511 -0.5016
24375SOL     OW75324   3.870   2.103   7.939 -0.5348 -0.3220  0.4047
24375SOL    HW175325   3.941   2.113   8.002  0.9730 -1.3120 -1.0577
24375SOL    HW275326   3.866   2.008   7.923 -0.6726 -0.0734 -1.1823
24376SOL     OW75327   9.232   6.613   1.605 -0.0595 -0.0557  0.1485
24376SOL    HW175328   9.160   6.582   1.550 -0.8619  1.1490  0.4849
24376SOL    HW275329   9.216   6.572   1.690  0.6446 -1.1549 -0.2226
24377SOL     OW75330   6.913   7.823   8.613 -0.3135 -0.6318 -0.6431
24377SOL    HW175331   6.880   7.905   8.651  1.1812 -0.2493 -0.1229
24377SOL    HW275332   6.857   7.755   8.651 -1.0596  0.0694 -0.4628
24378SOL     OW75333   4.488   0.909   9.210  0.0662 -0.0075 -0.2017
24378SOL    HW175334   4.476   0.815   9.225 -1.1014  0.0738 -0.5283
24378SOL    HW275335   4.570   0.915   9.161  1.3599 -0.6593  1.7841
24379SOL     OW75336   7.723   1.517   4.964  0.7687 -0.4539 -0.5050
24379SOL    HW175337   7.773   1.565   5.030  0.0170  0.3856 -0.5254
24379SOL    HW275338   7.645   1.486   5.010  0.5309 -0.3804 -0.8534
24380SOL     OW75339   2.539   4.120   4.137 -0.3716  0.7760  0.3121
24380SOL    HW175340   2.619   4.069   4.123  1.5868  3.1620  1.9537
24380SOL    HW275341   2.499   4.080   4.214 -0.5400 -0.1700 -0.2567
24381SOL     OW75342   8.965   4.356   7.860 -0.0292  0.3595  0.0655
24381SOL    HW175343   9.000   4.396   7.780  1.0961 -0.5860  0.0610
24381SOL    HW275344   8.965   4.426   7.925  2.3474  0.2947  0.1927
24382SOL     OW75345   7.936   9.268   2.660 -0.6699 -0.9009  0.2364
24382SOL    HW175346   7.921   9.361   2.675 -1.1514 -0.9920  0.3391
24382SOL    HW275347   7.994   9.241   2.731  1.5123 -0.1603 -1.1446
24383SOL     OW75348   3.353   5.483   0.274 -0.7060 -0.4233 -0.4602
24383SOL    HW175349   3.322   5.557   0.327  1.1535  1.3325 -1.6724
24383SOL    HW275350   3.429   5.450   0.322 -1.1542 -1.1763 -0.2505
24384SOL     OW75351   5.666   8.974   1.573 -0.1021  0.2574 -0.0679
24384SOL    HW175352   5.727   9.010   1.509  0.2780  0.2975  0.3104
24384SOL    HW275353   5.695   8.884   1.585  1.0577  0.7838  1.4762
24385SOL     OW75354   7.306   9.530   7.851 -0.5417 -0.5100 -0.0168
24385SOL    HW175355   7.266   9.598   7.905 -1.5750  0.8461 -2.3637
24385SOL    HW275356   7.281   9.552   7.762  0.6701 -2.9459 -1.0482
24386SOL     OW75357   2.135   7.502   0.023 -0.2968 -0.1950 -0.2820
24386SOL    HW175358   2.177   7.576  -0.021  0.3704  0.4504  1.3491
24386SOL    HW275359   2.207   7.458   0.070 -0.9659 -0.8897  0.1187
24387SOL     OW75360   1.541   9.389   5.909  0.2969  0.2685 -0.2533
24387SOL    HW175361   1.486   9.433   5.844  1.4323  1.3115 -0.5425
24387SOL    HW275362   1.480   9.333   5.957 -1.0477  1.4530 -0.4870
24388SOL     OW75363   1.925   7.107   6.795  0.5516  0.8202  0.1821
24388SOL    HW175364   1.851   7.137   6.847 -0.6062 -1.2266 -0.1931
24388SOL    HW275365   1.917   7.155   6.712  1.0405  2.3147  0.9455
24389SOL     OW75366   7.698   4.402   0.426 -0.2892 -0.1614  0.4075
24389SOL    HW175367   7.711   4.353   0.508 -1.4086 -1.4124 -0.1317
24389SOL    HW275368   7.611   4.440   0.435 -0.0198  0.5248  0.1889
24390SOL     OW75369   1.721   3.262   6.950  0.1529 -0.3690 -0.2769
24390SOL    HW175370   1.791   3.311   6.994 -0.1552  0.1003 -0.2959
24390SOL    HW275371   1.681   3.210   7.019 -1.3353  1.5234  0.3682
24391SOL     OW75372   5.765   4.213   0.635  0.0631 -0.0516 -0.2606
24391SOL    HW175373   5.706   4.272   0.682  2.2314  0.9621  1.3497
24391SOL    HW275374   5.850   4.257   0.637  0.8996 -1.3651 -2.6266
24392SOL     OW75375   0.772   8.240   8.661  0.3850 -0.0596 -0.0969
24392SOL    HW175376   0.779   8.221   8.754  2.4653 -0.3492 -0.2711
24392SOL    HW275377   0.855   8.210   8.624  0.7082  2.4512 -1.6189
24393SOL     OW75378   1.882   1.174   6.894 -0.0699  0.1797 -0.2524
24393SOL    HW175379   1.976   1.181   6.878  0.1426 -2.2738 -0.4166
24393SOL    HW275380   1.844   1.155   6.808 -0.5731 -0.0237  0.0084
24394SOL     OW75381   7.859   9.169   8.362  0.5761 -0.4782 -0.7361
24394SOL    HW175382   7.902   9.086   8.340 -0.5456 -1.7077  1.4490
24394SOL    HW275383   7.790   9.178   8.296 -0.5130 -2.3046  0.0759
24395SOL     OW75384   1.156   3.741   8.931 -0.2147  0.3353 -0.0200
24395SOL    HW175385   1.130   3.649   8.924  1.6408 -0.2801  0.7308
24395SOL    HW275386   1.220   3.753   8.861  1.5886  0.2608  1.5317
24396SOL     OW75387   9.312   2.930   1.243  0.3717  0.0327  0.2115
24396SOL    HW175388   9.337   3.019   1.219 -0.2938  0.1610 -0.0252
24396SOL    HW275389   9.312   2.930   1.339  0.6539  0.2050  0.2120
24397SOL     OW75390   7.577   6.862   7.513 -0.6645  0.5788 -0.2588
24397SOL    HW175391   7.564   6.824   7.600 -1.0520 -0.5057 -0.7731
24397SOL    HW275392   7.499   6.915   7.499 -1.1519 -0.1487 -0.3855
24398SOL     OW75393   2.790   3.995   4.665 -0.1092 -0.3663  0.4601
24398SOL    HW175394   2.783   4.090   4.659  0.1591 -0.2978  1.0770
24398SOL    HW275395   2.882   3.980   4.690 -0.0115 -0.8123 -0.1663
24399SOL     OW75396   8.849   0.683   4.254 -0.1863  0.2279  0.0488
24399SOL    HW175397   8.760   0.720   4.258 -0.7684 -0.9414 -1.1103
24399SOL    HW275398   8.878   0.702   4.165  0.4693  0.0365  0.2208
24400SOL     OW75399   6.663   7.042   4.566 -0.4845 -0.2538 -0.6160
24400SOL    HW175400   6.714   7.016   4.643 -1.8219 -1.0375  0.0203
24400SOL    HW275401   6.587   7.087   4.602 -0.6189  0.2846 -1.5392
24401SOL     OW75402   7.950   6.055   3.064 -0.3053  0.5598  0.0443
24401SOL    HW175403   7.945   5.965   3.096 -0.7184  1.0640  1.4603
24401SOL    HW275404   8.031   6.057   3.012 -0.9841 -0.9471 -1.1315
24402SOL     OW75405   3.915   3.242   4.370  0.2378  0.6139 -0.5588
24402SOL    HW175406   3.969   3.192   4.432 -0.5315  1.1024  0.5354
24402SOL    HW275407   3.849   3.179   4.340  1.1535  0.1191 -1.6181
24403SOL     OW75408   8.903   2.557   7.618  0.5931 -0.2207 -0.3193
24403SOL    HW175409   8.918   2.649   7.598  0.8147 -0.5913 -2.0781
24403SOL    HW275410   8.961   2.538   7.691 -1.4446  1.6492  1.9154
24404SOL     OW75411   0.226   3.277   9.372 -0.3757  0.5489  0.3027
24404SOL    HW175412   0.193   3.214   9.436  0.3313 -1.1424 -0.9137
24404SOL    HW275413   0.313   3.300   9.405 -0.4759  0.5744  0.5495
24405SOL     OW75414   2.364   6.461   6.440 -0.0814  0.1863  0.1479
24405SOL    HW175415   2.447   6.417   6.460  0.6207  1.0149 -0.8778
24405SOL    HW275416   2.386   6.554   6.434 -1.1334  0.4493  0.0638
24406SOL     OW75417   1.499   4.334   3.168 -0.7428  0.2388  0.5780
24406SOL    HW175418   1.418   4.385   3.166 -0.5288  0.6372  1.5424
24406SOL    HW275419   1.566   4.398   3.192 -0.0721 -0.0106 -0.5430
24407SOL     OW75420   2.117   1.521   6.249 -0.0544  0.1357 -0.4250
24407SOL    HW175421   2.096   1.614   6.238 -2.2099 -0.0894  1.0407
24407SOL    HW275422   2.202   1.520   6.292 -0.2836  1.4760  0.1017
24408SOL     OW75423   4.428   8.611   1.280 -0.3925  0.1981 -0.8591
24408SOL    HW175424   4.493   8.583   1.215 -1.3347 -0.4677 -1.5440
24408SOL    HW275425   4.441   8.551   1.354  1.3602  1.5913  0.0413
24409SOL     OW75426   2.977   2.392   8.991 -0.4638 -0.0527  0.4157
24409SOL    HW175427   3.048   2.425   9.046  0.6589  0.1887 -1.1070
24409SOL    HW275428   2.940   2.470   8.950 -0.1637 -0.3418 -0.4417
24410SOL     OW75429   8.576   7.651   1.108 -0.2130 -0.2364  0.0369
24410SOL    HW175430   8.483   7.628   1.114 -0.4486 -0.2077 -2.4195
24410SOL    HW275431   8.617   7.575   1.067  1.2467 -0.9428  2.5515
24411SOL     OW75432   1.300   8.806   3.092 -0.3129  0.4593 -0.9445
24411SOL    HW175433   1.246   8.727   3.085 -2.6010  1.6492  1.3756
24411SOL    HW275434   1.383   8.776   3.129 -0.8719 -0.9262 -0.7556
24412SOL     OW75435   7.378   9.304   5.434  0.2134  0.1164 -0.5128
24412SOL    HW175436   7.297   9.345   5.405  0.5003 -0.0438 -1.5722
24412SOL    HW275437   7.393   9.340   5.522 -0.3850  1.0398 -0.7773
24413SOL     OW75438   8.695   2.634   1.497  0.6452 -0.4908 -0.7346
24413SOL    HW175439   8.604   2.660   1.507  0.7579 -0.0789 -0.7631
24413SOL    HW275440   8.703   2.607   1.405  0.1725 -2.0589 -0.3454
24414SOL     OW75441   3.367   0.741   0.969 -0.8213 -0.1736 -0.0823
24414SOL    HW175442   3.290   0.782   0.929 -0.1570  0.1610 -1.0443
24414SOL    HW275443   3.418   0.814   1.005 -0.8941 -0.3876  0.4745
24415SOL     OW75444   1.222   0.656   9.227  0.3592 -0.6883 -0.6651
24415SOL    HW175445   1.287   0.719   9.195 -0.7757  1.5464  1.1273
24415SOL    HW275446   1.140   0.682   9.183 -0.0889 -1.0105 -0.0321
24416SOL     OW75447   2.395   3.271   3.354  0.0647  0.2894 -0.6257
24416SOL    HW175448   2.449   3.218   3.413  0.7660  0.2597 -1.2715
24416SOL    HW275449   2.309   3.272   3.395 -0.5668 -3.0581 -1.5693
24417SOL     OW75450   8.718   2.297   1.817  0.1273  0.4056 -0.2131
24417SOL    HW175451   8.722   2.348   1.898  0.3562 -1.2740  0.8814
24417SOL    HW275452   8.793   2.328   1.766  2.0691 -0.8258  1.7174
24418SOL     OW75453   8.973   9.068   1.941  0.2627  0.5687  0.5548
24418SOL    HW175454   8.891   9.104   1.973  0.2460  0.7930  0.2591
24418SOL    HW275455   8.950   9.023   1.859  0.7207  2.1312 -0.4677
24419SOL     OW75456   4.451   7.500   0.044  0.2634 -0.1995 -0.2817
24419SOL    HW175457   4.510   7.575   0.046  0.9065 -0.6966 -0.4358
24419SOL    HW275458   4.371   7.531   0.087  0.9675  0.1922  0.7780
24420SOL     OW75459   7.337   1.599   3.859  0.8803 -0.1866  0.1010
24420SOL    HW175460   7.335   1.513   3.900 -3.4338 -0.9711 -1.2510
24420SOL    HW275461   7.308   1.659   3.928  1.5621 -0.1854  0.3906
24421SOL     OW75462   2.455   5.823   6.514 -0.2786 -0.6355  0.1681
24421SOL    HW175463   2.535   5.875   6.526  0.0333 -1.3426  1.2355
24421SOL    HW275464   2.480   5.734   6.537 -2.1914 -0.3633  4.3434
24422SOL     OW75465   1.410   9.175   7.192 -0.5005  0.5844 -0.2516
24422SOL    HW175466   1.370   9.128   7.119  0.2398  0.3276 -0.4896
24422SOL    HW275467   1.498   9.139   7.199 -0.4807  0.7758  0.6159
24423SOL     OW75468   1.275   7.118   1.024 -0.1372  0.0342 -0.0377
24423SOL    HW175469   1.325   7.178   0.969 -0.3557  1.1572  0.9666
24423SOL    HW275470   1.341   7.066   1.069  0.0690  0.0275 -0.3471
24424SOL     OW75471   3.793   6.625   8.879  0.0194  0.3329 -0.8044
24424SOL    HW175472   3.798   6.670   8.964  0.2832 -0.8508 -0.1806
24424SOL    HW275473   3.797   6.532   8.900  1.5995  0.0317 -2.2029
24425SOL     OW75474   4.607   2.691   2.065  0.3017 -0.1148  0.1520
24425SOL    HW175475   4.619   2.712   2.158 -2.0011 -1.5037  0.8399
24425SOL    HW275476   4.637   2.601   2.056 -2.2100 -1.0290  0.2768
24426SOL     OW75477   0.146   1.458   6.513 -0.6363 -0.2236 -0.5821
24426SOL    HW175478   0.139   1.477   6.607 -0.7033  1.5010 -0.9053
24426SOL    HW275479   0.190   1.373   6.509 -1.7822 -0.9423  1.0295
24427SOL     OW75480   1.304   6.979   4.626 -0.5327 -0.3622 -0.3168
24427SOL    HW175481   1.213   6.950   4.624 -0.5402 -0.3150 -1.2078
24427SOL    HW275482   1.353   6.902   4.653 -0.4617 -1.5478 -3.4335
24428SOL     OW75483   7.105   1.443   5.465  0.5099 -0.9218 -0.1021
24428SOL    HW175484   7.195   1.476   5.467  0.7677 -1.6186  0.2521
24428SOL    HW275485   7.097   1.391   5.545 -0.7087  0.3931  0.6748
24429SOL     OW75486   6.864   0.551   5.802 -0.8153  0.1115  0.2244
24429SOL    HW175487   6.941   0.516   5.845  0.5821 -0.6377 -2.6312
24429SOL    HW275488   6.873   0.646   5.810 -0.4809 -0.0006  1.2930
24430SOL     OW75489   4.632   5.921   4.228 -0.0978  0.2534 -0.1316
24430SOL    HW175490   4.652   5.880   4.312  1.6067 -0.7770 -0.9642
24430SOL    HW275491   4.687   5.999   4.225 -0.0701  0.2280 -0.3323
24431SOL     OW75492   0.506   6.254   4.996 -0.2839  0.4824  0.5442
24431SOL    HW175493   0.480   6.344   4.981  0.0783  0.7329  1.3702
24431SOL    HW275494   0.443   6.220   5.060  0.2628  0.5027  1.0960
24432SOL     OW75495   5.594   9.485   0.704 -0.2497 -0.0411 -0.0568
24432SOL    HW175496   5.596   9.474   0.800 -1.6695 -0.0750 -0.0100
24432SOL    HW275497   5.564   9.575   0.691  1.1416  0.3851 -0.4886
24433SOL     OW75498   7.312   3.536   5.008 -0.4410  0.2348  0.1882
24433SOL    HW175499   7.380   3.535   5.075  0.1110  2.4772 -0.2738
24433SOL    HW275500   7.356   3.507   4.928 -0.3941  0.3162  0.1851
24434SOL     OW75501   0.556   3.512   2.443 -0.3118 -0.1714 -0.2932
24434SOL    HW175502   0.628   3.492   2.383 -1.0443 -0.5005 -1.0808
24434SOL    HW275503   0.485   3.454   2.415 -0.7582 -0.1227  0.7175
24435SOL     OW75504   6.445   0.623   0.653  0.3849 -0.1911 -0.0780
24435SOL    HW175505   6.460   0.576   0.735 -1.3775  0.1351  0.4838
24435SOL    HW275506   6.376   0.574   0.609 -1.4272  1.7013  0.4610
24436SOL     OW75507   6.121   6.568   2.142 -0.3828  0.3043 -0.0977
24436SOL    HW175508   6.087   6.609   2.221  0.2438 -0.4820  0.6060
24436SOL    HW275509   6.151   6.641   2.087  1.7414  0.8195  1.5818
24437SOL     OW75510   1.768   3.303   1.514  0.0105  0.1906  0.1935
24437SOL    HW175511   1.786   3.341   1.600  2.6931  0.9803 -0.6307
24437SOL    HW275512   1.725   3.220   1.533  1.7675 -0.3141  2.3850
24438SOL     OW75513   8.137   8.535   1.824 -0.2706 -0.6197  0.0578
24438SOL    HW175514   8.193   8.581   1.887  1.1729 -0.8543 -1.0075
24438SOL    HW275515   8.084   8.476   1.878  0.4695 -0.3670  1.0992
24439SOL     OW75516   0.187   7.466   2.119  0.2330  0.0780  0.4211
24439SOL    HW175517   0.222   7.537   2.066  0.0232 -1.0194 -1.2555
24439SOL    HW275518   0.227   7.479   2.205  0.9367  1.6503 -0.1037
24440SOL     OW75519   0.234   4.838   3.316  0.0863  0.0514  0.4887
24440SOL    HW175520   0.232   4.896   3.392  1.4191  0.0841  0.5138
24440SOL    HW275521   0.260   4.753   3.352  0.0661 -0.0963  0.1601
24441SOL     OW75522   0.516   2.828   1.615  0.1001  0.3293  0.2995
24441SOL    HW175523   0.611   2.837   1.614  0.0720  0.6978  0.9170
24441SOL    HW275524   0.494   2.795   1.528  0.6772  1.4890 -0.3076
24442SOL     OW75525   7.430   8.196   8.206 -0.1331  0.2176  0.0704
24442SOL    HW175526   7.424   8.171   8.298 -0.8414  1.4081  0.3780
24442SOL    HW275527   7.344   8.232   8.186  0.2888  0.7661 -0.8044
24443SOL     OW75528   7.468   8.326   3.679 -0.5043  0.1946 -0.4971
24443SOL    HW175529   7.445   8.414   3.710  0.1505  0.4451 -0.6976
24443SOL    HW275530   7.507   8.284   3.755  0.1910  0.4672 -0.6883
24444SOL     OW75531   3.848   7.170   1.523  0.6506  0.2798  0.2522
24444SOL    HW175532   3.808   7.108   1.584  1.0866  1.3024  1.6571
24444SOL    HW275533   3.932   7.130   1.499  0.6736  0.0461  0.6991
24445SOL     OW75534   1.356   6.821   5.782  0.0064 -0.3690 -0.2167
24445SOL    HW175535   1.337   6.838   5.875  0.7909 -0.0924 -0.1031
24445SOL    HW275536   1.372   6.727   5.778 -1.0214 -0.5609 -0.2611
24446SOL     OW75537   1.381   3.135   1.539 -0.3193 -0.4196 -0.1460
24446SOL    HW175538   1.467   3.094   1.551 -0.4957 -1.0011 -0.7718
24446SOL    HW275539   1.322   3.061   1.523 -0.6290  0.0684 -1.3874
24447SOL     OW75540   2.029   1.964   1.055  0.0937 -0.6704  0.7680
24447SOL    HW175541   1.975   1.929   1.126 -0.4670  0.8925  1.1665
24447SOL    HW275542   2.047   2.055   1.081  0.2663 -0.1969 -0.8720
24448SOL     OW75543   5.291   3.225   5.427  0.1816  0.1090  0.5161
24448SOL    HW175544   5.369   3.278   5.446 -0.0918  0.4077  0.8413
24448SOL    HW275545   5.296   3.153   5.489  1.3854 -1.1537 -0.9770
24449SOL     OW75546   6.698   7.739   4.511 -0.3275  0.2429 -0.0062
24449SOL    HW175547   6.642   7.723   4.587 -0.0452  1.5499  0.5011
24449SOL    HW275548   6.696   7.834   4.499 -0.2576  0.0727 -1.5668
24450SOL     OW75549   1.151   5.030   2.152 -0.0118  0.2048 -0.0372
24450SOL    HW175550   1.216   5.069   2.209 -1.3363  1.0786  0.9466
24450SOL    HW275551   1.068   5.045   2.197 -0.8477 -1.3775 -0.9591
24451SOL     OW75552   1.508   3.665   7.171  0.0396  0.7288  0.1111
24451SOL    HW175553   1.484   3.686   7.080  1.0705  2.0741  0.1241
24451SOL    HW275554   1.594   3.624   7.164  0.9556  2.4779  0.5755
24452SOL     OW75555   4.510   3.495   9.292 -0.5451  1.0576 -0.6392
24452SOL    HW175556   4.482   3.551   9.221  0.5774  0.5203 -1.5529
24452SOL    HW275557   4.588   3.450   9.258  0.0059  0.7545  0.9055
24453SOL     OW75558   0.124   3.228   8.656  0.3346  0.5282  0.4591
24453SOL    HW175559   0.096   3.253   8.745 -2.2896  3.7236 -1.0574
24453SOL    HW275560   0.049   3.180   8.621  0.6557  0.7768 -0.5830
24454SOL     OW75561   0.282   8.472   6.644  0.2032 -0.1300  0.7570
24454SOL    HW175562   0.323   8.484   6.729  0.3234 -0.9184  0.8226
24454SOL    HW275563   0.201   8.423   6.663  0.3561 -0.5293  0.3955
24455SOL     OW75564   6.301   4.434   5.078 -0.5946  0.1858 -0.0819
24455SOL    HW175565   6.341   4.516   5.108 -0.8245 -0.4797  2.2508
24455SOL    HW275566   6.369   4.391   5.028  0.4204  0.6856  0.8239
24456SOL     OW75567   0.911   3.852   5.354  0.8371 -0.2738 -0.2820
24456SOL    HW175568   1.006   3.855   5.359  0.8525  0.0380 -0.6416
24456SOL    HW275569   0.893   3.832   5.262  0.5571  0.2199 -0.3419
24457SOL     OW75570   1.803   3.999   4.672 -0.1434 -0.0581  0.1247
24457SOL    HW175571   1.767   4.036   4.592  0.9213  1.2216  0.2045
24457SOL    HW275572   1.815   3.905   4.653 -0.9498  0.0199 -0.8075
24458SOL     OW75573   2.163   4.238   7.353  0.4123 -0.3250 -0.3407
24458SOL    HW175574   2.165   4.190   7.435  1.3699  1.9976  1.1241
24458SOL    HW275575   2.240   4.208   7.305  0.1496 -1.3013 -0.1633
24459SOL     OW75576   7.412   1.424   1.133 -0.0779  0.3110 -0.5765
24459SOL    HW175577   7.435   1.515   1.149 -0.7799  0.4284 -0.1604
24459SOL    HW275578   7.490   1.386   1.093  0.7968  0.6961  0.6923
24460SOL     OW75579   2.044   3.713   3.617 -0.5366  0.3287  0.6601
24460SOL    HW175580   1.972   3.694   3.678 -0.6267 -0.4972  0.3062
24460SOL    HW275581   2.123   3.702   3.670 -0.4876 -2.7049  0.1324
24461SOL     OW75582   2.491   1.704   8.811  0.2715 -0.1666 -0.4127
24461SOL    HW175583   2.434   1.626   8.809  1.4061 -1.0157 -0.6930
24461SOL    HW275584   2.495   1.733   8.720  2.4249 -1.7683 -0.9246
24462SOL     OW75585   9.355   5.276   7.153 -0.0952  0.0528 -0.0705
24462SOL    HW175586   9.394   5.226   7.082  1.0435  1.2909 -0.3665
24462SOL    HW275587   9.305   5.345   7.109  0.0641  0.4291  0.3292
24463SOL     OW75588   2.595   4.069   3.818 -0.3827 -0.2923  0.0332
24463SOL    HW175589   2.556   4.149   3.855  0.3337 -0.5422  1.3728
24463SOL    HW275590   2.683   4.066   3.855 -0.2682 -1.5141 -0.3148
24464SOL     OW75591   8.921   7.402   8.232  0.0351 -0.4522 -0.4010
24464SOL    HW175592   8.847   7.439   8.185 -0.3313 -1.4512 -0.6349
24464SOL    HW275593   8.882   7.353   8.304  0.5841  0.9185  0.8894
24465SOL     OW75594   5.975   6.709   2.384 -0.1843 -0.4019  0.0179
24465SOL    HW175595   6.020   6.635   2.424  1.8148  1.3890  1.3331
24465SOL    HW275596   5.946   6.762   2.458 -1.5794  0.1472 -0.8838
24466SOL     OW75597   2.242   2.099   3.357  0.0928 -0.2371  0.1735
24466SOL    HW175598   2.296   2.140   3.425 -2.0302  1.4745  0.9232
24466SOL    HW275599   2.152   2.116   3.385 -0.8438 -0.9087 -2.2561
24467SOL     OW75600   5.289   3.723   6.353 -0.3872  0.5376  0.3558
24467SOL    HW175601   5.198   3.697   6.341 -0.2301  0.0166  0.2785
24467SOL    HW275602   5.314   3.688   6.439  0.1635 -0.5767 -0.2310
24468SOL     OW75603   1.408   6.976   5.549 -0.4556 -0.1781 -0.0244
24468SOL    HW175604   1.387   6.934   5.632  1.4191  0.8074  1.0100
24468SOL    HW275605   1.488   6.934   5.519 -0.4307  0.3277 -0.7144
24469SOL     OW75606   4.464   7.966   5.929 -0.4549 -0.7738 -0.0983
24469SOL    HW175607   4.532   7.976   5.996 -0.0166 -0.1217 -0.6293
24469SOL    HW275608   4.445   7.872   5.928  1.0587 -1.1109 -0.5409
24470SOL     OW75609   6.320   7.419   9.083 -0.8748  0.0751 -0.2429
24470SOL    HW175610   6.371   7.362   9.140 -0.3711  0.9948  0.2553
24470SOL    HW275611   6.229   7.402   9.108 -0.6477  0.7734  1.1657
24471SOL     OW75612   1.905   2.235   6.612 -0.4049 -0.6166  0.3202
24471SOL    HW175613   1.839   2.193   6.556  0.0155  0.7137 -1.2574
24471SOL    HW275614   1.883   2.206   6.701 -1.4423 -2.3663 -0.4491
24472SOL     OW75615   3.138   2.781   4.292  0.3386 -0.2577  0.0235
24472SOL    HW175616   3.057   2.807   4.336 -0.3872 -0.5229 -1.1006
24472SOL    HW275617   3.154   2.691   4.322  1.1505  0.3515  1.5178
24473SOL     OW75618   4.417   2.486   6.319  0.4209  0.9540  0.1841
24473SOL    HW175619   4.509   2.463   6.308  0.4937  1.7362 -0.9023
24473SOL    HW275620   4.390   2.522   6.235 -0.9490  0.5361  0.4118
24474SOL     OW75621   4.657   7.021   4.012 -0.0620 -0.2028 -0.4223
24474SOL    HW175622   4.690   6.943   4.057  1.6481  0.4832 -0.3943
24474SOL    HW275623   4.712   7.028   3.934 -1.1117  0.2189 -1.1456
24475SOL     OW75624   4.366   4.409   3.303  0.5318  0.4650  0.3804
24475SOL    HW175625   4.384   4.456   3.385 -0.0219  2.1563 -0.4260
24475SOL    HW275626   4.382   4.318   3.324 -0.8003  0.6962  2.7381
24476SOL     OW75627   1.724   1.965   8.905 -0.4268  0.1609 -0.2722
24476SOL    HW175628   1.648   1.973   8.963 -0.0668  0.8733  0.1225
24476SOL    HW275629   1.770   2.048   8.915  0.8842 -0.5870  0.1796
24477SOL     OW75630   1.120   2.552   5.693 -0.3151 -0.3014  0.4691
24477SOL    HW175631   1.100   2.623   5.631  1.5645 -3.0139 -3.7428
24477SOL    HW275632   1.197   2.582   5.740 -0.0031  0.7889 -0.6717
24478SOL     OW75633   1.269   7.217   7.616 -0.4097 -0.3389  0.0256
24478SOL    HW175634   1.349   7.262   7.645  1.0073 -1.7676 -1.4827
24478SOL    HW275635   1.262   7.141   7.675  0.9179 -1.7073 -1.4979
24479SOL     OW75636   6.597   0.080   2.686  0.6318 -0.8904 -0.2470
24479SOL    HW175637   6.600   0.161   2.636 -1.2595 -0.7995 -0.2996
24479SOL    HW275638   6.613   0.106   2.776 -1.3324 -0.1974 -0.0562
24480SOL     OW75639   5.776   0.990   3.488  0.1684 -0.2463  0.4633
24480SOL    HW175640   5.854   0.936   3.505 -0.1164 -0.4112  1.3284
24480SOL    HW275641   5.710   0.955   3.548 -0.7100 -0.3825 -0.5575
24481SOL     OW75642   3.724   2.118   5.330  0.2477  0.0247 -0.0904
24481SOL    HW175643   3.696   2.045   5.274 -0.7589  0.9727 -0.8669
24481SOL    HW275644   3.813   2.138   5.299 -0.2212  0.4129 -1.2466
24482SOL     OW75645   3.482   8.486   3.335 -0.1548  0.3040 -0.6014
24482SOL    HW175646   3.524   8.448   3.258 -0.8838  0.3904 -1.0547
24482SOL    HW275647   3.515   8.576   3.338 -0.4606  0.4345 -1.0737
24483SOL     OW75648   6.283   6.724   8.274  0.0338  0.1738 -0.3166
24483SOL    HW175649   6.303   6.698   8.184  0.6179 -0.2091 -0.0824
24483SOL    HW275650   6.291   6.644   8.325 -4.1212 -0.5160 -0.4461
24484SOL     OW75651   8.175   6.886   5.296  0.0751 -0.2313  0.1164
24484SOL    HW175652   8.145   6.894   5.206  0.2131  1.6448  0.1969
24484SOL    HW275653   8.256   6.834   5.290  1.4430  1.9031 -1.2110
24485SOL     OW75654   7.101   5.363   2.872 -0.2828  0.1363 -0.0950
24485SOL    HW175655   7.109   5.347   2.966  1.2447 -0.3880 -0.2873
24485SOL    HW275656   7.109   5.277   2.832  0.1612  0.4707 -0.7474
24486SOL     OW75657   0.011   0.098   8.939  0.0876 -0.1639 -0.5679
24486SOL    HW175658  -0.006   0.141   9.023  1.6405 -0.5424 -0.0236
24486SOL    HW275659   0.016   0.170   8.876 -0.7689  0.1486 -0.2972
24487SOL     OW75660   9.527   8.053   2.441  0.7078  0.1167 -0.5726
24487SOL    HW175661   9.498   8.015   2.524  0.0031 -0.0937 -0.9001
24487SOL    HW275662   9.483   8.138   2.437 -0.6949 -0.6052 -1.5103
24488SOL     OW75663   8.861   7.449   5.720 -0.5420 -0.2090 -0.2062
24488SOL    HW175664   8.768   7.473   5.716 -0.4715  0.4356  1.3019
24488SOL    HW275665   8.897   7.506   5.788  1.0580 -0.1642 -1.0584
24489SOL     OW75666   3.524   4.305   5.724 -0.7563  0.5027 -0.9122
24489SOL    HW175667   3.565   4.357   5.656 -1.0253  0.3651 -1.1796
24489SOL    HW275668   3.441   4.349   5.742 -1.5616 -0.5026 -2.0113
24490SOL     OW75669   7.021   3.710   4.632  0.1438 -0.1285 -0.0926
24490SOL    HW175670   7.113   3.732   4.651  0.0753  1.2867 -1.1653
24490SOL    HW275671   6.996   3.772   4.564 -1.9335  0.1852  0.8822
24491SOL     OW75672   5.103   8.723   4.559  0.2401  0.5302 -0.4323
24491SOL    HW175673   5.118   8.798   4.616 -1.8966 -0.4987  1.6398
24491SOL    HW275674   5.021   8.743   4.513  0.9550  0.5015 -1.7931
24492SOL     OW75675   0.747   8.354   7.500 -0.4615 -0.2443 -0.0924
24492SOL    HW175676   0.774   8.445   7.489  2.4826 -0.9739  0.2806
24492SOL    HW275677   0.711   8.329   7.415  0.6220  0.7006 -0.8610
24493SOL     OW75678   8.424   7.825   8.262  0.6213 -0.3239  0.3541
24493SOL    HW175679   8.465   7.893   8.316 -0.6709  1.0843 -0.3373
24493SOL    HW275680   8.457   7.743   8.297 -0.3095  0.4916  3.4665
24494SOL     OW75681   5.144   7.233   5.707  0.3795 -0.4482  0.6116
24494SOL    HW175682   5.211   7.164   5.701  0.6575 -0.3686  2.3718
24494SOL    HW275683   5.082   7.212   5.637  0.8506 -2.0679  0.6418
24495SOL     OW75684   0.983   9.415   4.031  0.6071 -0.5551  0.0788
24495SOL    HW175685   0.973   9.342   3.971 -0.1721 -0.6053  0.2593
24495SOL    HW275686   1.020   9.485   3.977 -1.1537 -0.2287 -0.7651
24496SOL     OW75687   3.095   6.798   2.012 -0.3262 -0.2980 -0.1370
24496SOL    HW175688   3.140   6.883   2.015 -2.2771  0.8455 -0.9035
24496SOL    HW275689   3.132   6.749   2.085 -0.3208  1.8794  1.4482
24497SOL     OW75690   0.211   7.791   0.290  0.2013  0.0147  0.0235
24497SOL    HW175691   0.285   7.819   0.343  0.5883 -1.0005  0.0473
24497SOL    HW275692   0.141   7.853   0.310  0.7953  0.5032  0.6099
24498SOL     OW75693   6.387   6.990   8.582 -0.1761 -0.7265  0.0309
24498SOL    HW175694   6.294   7.007   8.570 -0.0035 -0.4433 -1.0363
24498SOL    HW275695   6.424   6.999   8.494  1.2579  1.6070  0.8031
24499SOL     OW75696   2.506   4.962   7.102  0.5315 -0.2332  0.0798
24499SOL    HW175697   2.536   4.977   7.012 -0.3850  2.5635  0.1532
24499SOL    HW275698   2.469   4.874   7.100  1.9616 -0.8543 -1.8514
24500SOL     OW75699   7.074   3.339   0.709 -0.0677 -0.1861 -0.0808
24500SOL    HW175700   7.165   3.342   0.738  0.0465 -0.9354 -0.3415
24500SOL    HW275701   7.071   3.396   0.633  0.1151  0.0698  0.1014
24501SOL     OW75702   4.045   0.341   8.657  0.3550 -0.6051  0.4737
24501SOL    HW175703   4.084   0.273   8.712 -0.3066 -1.1286  0.3078
24501SOL    HW275704   4.042   0.302   8.570  0.5086 -0.1412  0.2632
24502SOL     OW75705   3.777   1.608   8.484  0.0256 -0.1483 -0.6459
24502SOL    HW175706   3.784   1.632   8.576  1.1239  0.4914 -0.8791
24502SOL    HW275707   3.798   1.515   8.481 -3.5644 -1.1354  0.1757
24503SOL     OW75708   8.261   0.494   9.212  0.2187  0.6422  0.2911
24503SOL    HW175709   8.276   0.572   9.159 -0.3535  0.9713  0.5987
24503SOL    HW275710   8.311   0.508   9.292  3.1141 -0.9365 -1.0791
24504SOL     OW75711   4.714   6.503   2.538 -0.1116  0.7541  0.0408
24504SOL    HW175712   4.709   6.588   2.495 -2.1101  1.7494  2.0514
24504SOL    HW275713   4.745   6.522   2.626 -1.8479 -0.3590  0.9548
24505SOL     OW75714   7.541   3.761   2.212 -0.7213  0.4762 -0.1256
24505SOL    HW175715   7.611   3.812   2.171  0.3992  0.3018  1.4782
24505SOL    HW275716   7.578   3.731   2.295 -1.0958 -3.4536 -1.1788
24506SOL     OW75717   2.263   2.933   6.151 -0.2078 -0.0052  0.0587
24506SOL    HW175718   2.345   2.979   6.167  1.0449 -1.8958 -0.5947
24506SOL    HW275719   2.210   2.950   6.229  2.4112 -2.0404  2.4865
24507SOL     OW75720   6.475   8.401   4.738 -0.3595 -0.3308  0.6508
24507SOL    HW175721   6.559   8.446   4.729  0.2601 -0.9670  2.6754
24507SOL    HW275722   6.498   8.309   4.747 -1.4556 -0.7990 -0.8814
24508SOL     OW75723   0.262   4.654   4.956 -0.5344  0.0087  0.0071
24508SOL    HW175724   0.283   4.675   5.047  1.3082 -0.0599 -0.3520
24508SOL    HW275725   0.334   4.597   4.928 -1.5098 -0.6525 -1.2545
24509SOL     OW75726   8.250   2.428   8.123 -0.5336 -0.0019  0.1285
24509SOL    HW175727   8.308   2.476   8.064 -0.7836  0.0895 -0.0441
24509SOL    HW275728   8.219   2.354   8.071 -0.7099  0.0466  0.1662
24510SOL     OW75729   7.613   4.487   3.791 -0.1999  0.4327 -0.0516
24510SOL    HW175730   7.585   4.409   3.743  3.4716 -0.8360 -0.4405
24510SOL    HW275731   7.645   4.547   3.724  0.1777  0.8320  0.4764
24511SOL     OW75732   0.071   5.338   8.406 -0.1312 -0.5374 -0.5946
24511SOL    HW175733   0.107   5.361   8.491 -0.2849  3.1285 -1.3764
24511SOL    HW275734   0.041   5.248   8.416  1.8085 -0.9631  2.5192
24512SOL     OW75735   4.714   3.790   5.793  1.1411 -0.8964  0.2052
24512SOL    HW175736   4.629   3.826   5.766  0.4756 -1.8778  0.8867
24512SOL    HW275737   4.778   3.837   5.740  0.0562 -1.2555 -1.5120
24513SOL     OW75738   6.122   1.269   4.451  0.5017 -0.3684  0.2224
24513SOL    HW175739   6.027   1.278   4.465  0.3818  0.0514 -0.7833
24513SOL    HW275740   6.140   1.176   4.465  0.2505 -0.1712  2.1543
24514SOL     OW75741   5.975   6.120   5.082  0.1889  0.6426  0.2941
24514SOL    HW175742   5.935   6.054   5.138 -1.5175  1.3479 -0.0429
24514SOL    HW275743   5.985   6.197   5.139  0.2960  0.7356  0.1511
24515SOL     OW75744   4.337   3.938   0.608 -0.4317 -0.2455 -0.1747
24515SOL    HW175745   4.424   3.926   0.645 -0.5975  0.8329  0.6072
24515SOL    HW275746   4.299   4.012   0.656 -2.2955 -1.5064  0.4225
24516SOL     OW75747   3.174   1.170   3.567  0.1978  0.0015  0.5400
24516SOL    HW175748   3.110   1.100   3.550  0.0509  0.6773 -2.0347
24516SOL    HW275749   3.121   1.248   3.581  0.4088  0.2065  0.2154
24517SOL     OW75750   0.813   2.416   1.115  0.3986  0.0548 -0.5339
24517SOL    HW175751   0.841   2.456   1.033  0.0321  0.6511 -0.3777
24517SOL    HW275752   0.839   2.325   1.108  0.3992  0.1098 -1.3022
24518SOL     OW75753   3.599   6.205   3.476  0.1929 -0.1967 -0.0735
24518SOL    HW175754   3.568   6.118   3.500  1.2074 -0.6103 -0.2425
24518SOL    HW275755   3.688   6.192   3.444 -1.2590  0.1270 -5.0062
24519SOL     OW75756   0.884   6.422   8.919 -0.3383  0.5152 -0.3725
24519SOL    HW175757   0.932   6.340   8.905 -1.9938 -0.6238  0.3510
24519SOL    HW275758   0.897   6.443   9.011 -0.4585  0.7128 -0.3994
24520SOL     OW75759   2.272   6.234   3.913 -0.0562 -0.0589 -0.2549
24520SOL    HW175760   2.278   6.149   3.955 -3.3234  0.1830  1.0002
24520SOL    HW275761   2.306   6.296   3.978 -0.3727 -0.1541  0.0038
24521SOL     OW75762   6.963   3.811   1.699  0.0577  0.4474  0.0707
24521SOL    HW175763   7.005   3.897   1.701  0.4285  0.2937  2.1689
24521SOL    HW275764   6.995   3.770   1.619 -0.5938  2.4549 -1.2802
24522SOL     OW75765   8.629   8.868   3.838  0.1203  0.0053  0.1282
24522SOL    HW175766   8.648   8.820   3.918  0.7957 -0.2401 -0.1701
24522SOL    HW275767   8.603   8.801   3.775 -2.2980  0.3623  0.6405
24523SOL     OW75768   4.422   4.336   0.958 -0.0250 -0.3107 -0.0322
24523SOL    HW175769   4.428   4.245   0.987  1.3101  0.0616  0.9257
24523SOL    HW275770   4.510   4.357   0.925 -0.8713 -0.0049 -2.2574
24524SOL     OW75771   5.448   1.959   6.729  0.3022 -0.9251 -0.0786
24524SOL    HW175772   5.515   1.952   6.662 -2.9326  0.6325 -3.8866
24524SOL    HW275773   5.397   1.879   6.720  0.2797 -1.0677  1.1662
24525SOL     OW75774   8.482   7.471   5.331  0.0507  0.2499 -0.4689
24525SOL    HW175775   8.520   7.448   5.246  0.2687 -0.1952 -0.2570
24525SOL    HW275776   8.550   7.447   5.394 -0.0068  0.8200 -0.1853
24526SOL     OW75777   5.311   2.693   5.724 -0.2197  0.2575  0.1520
24526SOL    HW175778   5.225   2.705   5.765 -0.7747  0.6499 -1.0762
24526SOL    HW275779   5.309   2.604   5.690 -0.4577  0.5263 -0.5603
24527SOL     OW75780   0.907   6.149   1.092  0.4418 -0.0692 -0.3226
24527SOL    HW175781   0.906   6.239   1.127  1.0452 -0.5809  1.0708
24527SOL    HW275782   0.992   6.114   1.118 -0.1691 -1.3681  0.0002
24528SOL     OW75783   4.159   7.291   6.038  0.3547 -0.3025 -0.4568
24528SOL    HW175784   4.128   7.296   6.129 -0.5974  0.2832 -0.7920
24528SOL    HW275785   4.209   7.210   6.034  0.0057 -0.5824  0.4765
24529SOL     OW75786   8.953   2.725   9.247 -0.9017 -0.6088  0.7052
24529SOL    HW175787   8.981   2.796   9.305 -1.2346 -0.9751  1.3222
24529SOL    HW275788   9.015   2.654   9.264 -0.3884 -0.3694 -0.1280
24530SOL     OW75789   2.960   6.144   7.978 -0.1317 -0.1702  0.2870
24530SOL    HW175790   2.952   6.238   7.962  0.3543 -0.1864 -0.0652
24530SOL    HW275791   2.954   6.104   7.892  0.0800 -0.4364  0.3951
24531SOL     OW75792   3.726   0.940   7.451 -0.2466 -0.3914 -0.0101
24531SOL    HW175793   3.642   0.955   7.494  0.7174  0.3065  1.7139
24531SOL    HW275794   3.783   1.010   7.483  1.3103 -1.4762 -0.2894
24532SOL     OW75795   1.253   9.524   9.482 -0.4694 -0.2646  0.4606
24532SOL    HW175796   1.204   9.589   9.430 -2.0283 -0.3297  1.7694
24532SOL    HW275797   1.270   9.568   9.565  1.6514 -0.3055  0.0859
24533SOL     OW75798   6.349   3.692   2.417 -0.0565  0.0531  0.2117
24533SOL    HW175799   6.401   3.623   2.458 -0.6789 -1.3673 -1.2924
24533SOL    HW275800   6.349   3.763   2.482  0.5208 -1.3667  1.8557
24534SOL     OW75801   9.505   8.537   1.760  0.0008 -0.4949 -0.3532
24534SOL    HW175802   9.543   8.547   1.672 -0.2747 -3.6732 -0.9443
24534SOL    HW275803   9.554   8.599   1.814  1.1648  0.5489 -2.4726
24535SOL     OW75804   9.360   1.127   4.095  0.0589  0.5272  0.6710
24535SOL    HW175805   9.285   1.165   4.140 -1.0689 -0.5806 -0.1882
24535SOL    HW275806   9.435   1.147   4.151 -0.6544  2.7902  0.9195
24536SOL     OW75807   4.207   1.366   9.501 -0.0190  0.0701 -0.2866
24536SOL    HW175808   4.200   1.348   9.595  1.3973 -1.5039 -0.4371
24536SOL    HW275809   4.294   1.334   9.477 -0.6277 -0.2075 -2.2704
24537SOL     OW75810   2.757   7.602   7.832 -0.3475  0.0060 -0.8683
24537SOL    HW175811   2.760   7.620   7.738  0.6917 -0.7084 -0.9831
24537SOL    HW275812   2.823   7.660   7.869  1.3156 -1.7205 -0.9561
24538SOL     OW75813   8.221   5.518   9.362  0.0928 -0.0535  0.0488
24538SOL    HW175814   8.285   5.589   9.370  0.9063 -0.6614 -0.9037
24538SOL    HW275815   8.236   5.463   9.438 -0.1959  0.4944  0.5182
24539SOL     OW75816   6.926   2.986   7.746 -0.1473 -0.4651  0.2944
24539SOL    HW175817   6.975   2.912   7.709 -0.2317  0.1160 -1.0631
24539SOL    HW275818   6.839   2.979   7.708 -0.0354  0.5549 -0.1914
24540SOL     OW75819   2.050   9.114   7.493  0.2329 -0.2271 -0.4533
24540SOL    HW175820   2.095   9.089   7.413  0.9630  1.4316 -0.5960
24540SOL    HW275821   2.109   9.175   7.536 -1.2237  0.8693  0.0896
24541SOL     OW75822   0.492   7.222   2.545  0.5254  0.1941 -0.6064
24541SOL    HW175823   0.553   7.148   2.552 -1.3730 -1.5653 -1.5628
24541SOL    HW275824   0.407   7.184   2.565 -0.5099  2.1868 -1.0508
24542SOL     OW75825   5.141   5.034   4.894  0.1197 -0.3688  0.8424
24542SOL    HW175826   5.063   5.078   4.859  0.5688 -0.5958 -0.5006
24542SOL    HW275827   5.106   4.967   4.953 -0.6793 -0.0739  0.7198
24543SOL     OW75828   4.352   8.131   8.448  0.1326 -0.2748  0.1852
24543SOL    HW175829   4.354   8.192   8.523 -0.2385  0.1259 -0.1235
24543SOL    HW275830   4.383   8.048   8.484 -0.2624 -0.1446  0.8446
24544SOL     OW75831   3.823   7.751   3.279 -0.0849 -0.0896 -0.4930
24544SOL    HW175832   3.833   7.845   3.268 -0.0696 -0.1395 -0.8998
24544SOL    HW275833   3.736   7.741   3.319  0.0354  0.1123 -0.1770
24545SOL     OW75834   5.567   3.219   4.459 -0.4999  0.1942 -0.0871
24545SOL    HW175835   5.494   3.272   4.426 -0.9040 -0.8093 -0.8326
24545SOL    HW275836   5.620   3.281   4.510 -1.5230  1.0784 -0.0621
24546SOL     OW75837   3.973   0.890   1.136  0.1612  0.2041 -0.4606
24546SOL    HW175838   3.966   0.982   1.162 -0.5743 -0.0361  0.2423
24546SOL    HW275839   4.022   0.892   1.054 -0.4889  1.2862 -0.8477
24547SOL     OW75840   5.077   9.173   1.527 -0.2307  0.3608 -0.2661
24547SOL    HW175841   5.130   9.093   1.526  0.5383  0.8479  0.3634
24547SOL    HW275842   5.125   9.233   1.584 -0.3472  1.5835 -1.4245
24548SOL     OW75843   8.469   7.959   9.538 -0.4198 -0.2225  0.5390
24548SOL    HW175844   8.511   7.984   9.620  0.2360  0.4030  0.0319
24548SOL    HW275845   8.407   8.030   9.520 -0.5496 -0.3490  0.4786
24549SOL     OW75846   2.280   1.534   7.636  0.4609  0.2069 -0.0537
24549SOL    HW175847   2.363   1.576   7.659  0.6104  0.1139 -0.4226
24549SOL    HW275848   2.263   1.562   7.546  0.2706 -0.0612 -0.1018
24550SOL     OW75849   7.778   5.466   2.282  0.1713  0.4074 -0.3303
24550SOL    HW175850   7.819   5.449   2.367 -0.7131  0.7877  0.1897
24550SOL    HW275851   7.734   5.384   2.260  2.6015 -0.6166 -1.7463
24551SOL     OW75852   0.175   2.361   2.023 -0.1075  0.0754 -0.2988
24551SOL    HW175853   0.113   2.379   1.952  0.0971 -0.3428 -0.5918
24551SOL    HW275854   0.193   2.446   2.063 -2.4182 -0.0121  1.0999
24552SOL     OW75855   3.419   7.861   5.670  0.0903 -0.1830  0.0605
24552SOL    HW175856   3.372   7.884   5.750  0.0321 -2.8906  0.9048
24552SOL    HW275857   3.458   7.776   5.689 -0.0554 -0.9940 -2.8645
24553SOL     OW75858   1.157   5.249   1.987  0.5605 -0.6658 -0.0675
24553SOL    HW175859   1.137   5.164   2.026  0.6633 -0.3879  0.6019
24553SOL    HW275860   1.080   5.271   1.934  0.6870 -1.3419 -0.5421
24554SOL     OW75861   0.577   3.169   0.833 -0.1799  0.0509  0.0987
24554SOL    HW175862   0.624   3.243   0.871 -0.3990 -1.2166  3.0827
24554SOL    HW275863   0.635   3.094   0.845 -2.1135 -1.2333  2.3520
24555SOL     OW75864   7.869   9.001   0.774 -0.3439  0.2275  0.3055
24555SOL    HW175865   7.823   8.990   0.690  1.6153 -0.6940 -0.7098
24555SOL    HW275866   7.798   9.009   0.838 -1.9908 -2.5426 -0.9626
24556SOL     OW75867   2.021   6.928   6.547  0.6017 -0.1859 -0.3792
24556SOL    HW175868   2.066   6.844   6.552  2.3517  0.6994 -0.5793
24556SOL    HW275869   1.930   6.907   6.568  1.0587 -2.0583 -0.0561
24557SOL     OW75870   4.065   3.067   3.729 -0.3668 -0.6415 -0.2931
24557SOL    HW175871   4.002   3.114   3.783  0.1823  0.9456 -0.9651
24557SOL    HW275872   4.015   2.995   3.690 -1.6459  0.2810 -0.4067
24558SOL     OW75873   7.996   5.807   6.696  0.3843 -0.4744 -0.1580
24558SOL    HW175874   8.055   5.824   6.769 -0.9111 -0.8003  1.0036
24558SOL    HW275875   8.043   5.744   6.641  1.3148 -0.3341  0.4581
24559SOL     OW75876   4.267   1.458   1.044  0.2391 -0.3620  0.0285
24559SOL    HW175877   4.285   1.544   1.081 -2.1330  0.2175  0.0177
24559SOL    HW275878   4.199   1.422   1.101  0.8602 -2.0428 -0.2464
24560SOL     OW75879   3.971   7.028   0.398  0.1532  0.0806 -0.3008
24560SOL    HW175880   3.882   7.024   0.433 -0.1212 -1.2518 -1.0779
24560SOL    HW275881   4.017   7.087   0.458 -1.1831  0.6397  0.2373
24561SOL     OW75882   2.822   0.359   6.286 -0.1753  0.0861  0.3770
24561SOL    HW175883   2.858   0.412   6.215 -0.2631 -1.1562 -0.6345
24561SOL    HW275884   2.772   0.421   6.339  0.6082  1.1991 -0.1459
24562SOL     OW75885   5.756   5.097   2.683 -0.1684  0.4736  0.2499
24562SOL    HW175886   5.674   5.106   2.732  0.3375 -1.9070  1.6905
24562SOL    HW275887   5.744   5.018   2.630  0.6735  0.9413 -0.6802
24563SOL     OW75888   6.632   2.551   8.928  0.0032 -0.7367  0.0463
24563SOL    HW175889   6.567   2.483   8.946 -1.3178  0.8889  1.8137
24563SOL    HW275890   6.583   2.619   8.882  1.4263 -1.1284 -2.2090
24564SOL     OW75891   2.297   6.758   4.395  0.2209 -0.1728 -0.0350
24564SOL    HW175892   2.251   6.812   4.459 -0.8868  0.1738 -1.0906
24564SOL    HW275893   2.303   6.672   4.437 -0.5431  0.0241  0.5127
24565SOL     OW75894   1.379   4.063   1.776 -0.3279 -0.8581 -0.3068
24565SOL    HW175895   1.382   3.973   1.806  1.2763 -0.6797  0.1535
24565SOL    HW275896   1.331   4.110   1.843 -0.2237 -1.1820 -0.0048
24566SOL     OW75897   4.100   4.873   0.178 -0.1056  0.3081  0.1802
24566SOL    HW175898   4.072   4.917   0.258  0.0990  2.3738 -0.8376
24566SOL    HW275899   4.022   4.826   0.148  0.1235 -1.5509  2.1668
24567SOL     OW75900   4.026   6.485   4.105  0.2386  0.0528 -0.3642
24567SOL    HW175901   4.054   6.479   4.196  0.7651 -3.8090 -0.6191
24567SOL    HW275902   4.103   6.458   4.054 -0.6027  0.2747 -1.8200
24568SOL     OW75903   9.202   7.405   1.869  0.3406 -0.2312  0.1504
24568SOL    HW175904   9.285   7.452   1.865 -0.2093  0.8660  1.0346
24568SOL    HW275905   9.165   7.415   1.781  0.4694  0.5807  0.1775
24569SOL     OW75906   8.465   1.710   2.105  0.4874  0.0043  0.5233
24569SOL    HW175907   8.445   1.672   2.019  0.8442  1.2817 -0.1531
24569SOL    HW275908   8.387   1.760   2.128  1.6493  2.6885 -0.8245
24570SOL     OW75909   2.906   1.207   7.072 -0.1123 -0.2856 -0.4878
24570SOL    HW175910   2.972   1.222   7.004  1.8537  1.9142  1.7176
24570SOL    HW275911   2.955   1.211   7.154 -3.0787  2.2807  1.3636
24571SOL     OW75912   6.873   2.332   2.585  0.2088  0.3329 -0.2841
24571SOL    HW175913   6.779   2.319   2.599  0.4893 -0.4211  1.1451
24571SOL    HW275914   6.911   2.324   2.673  1.5504  1.1779 -0.7693
24572SOL     OW75915   8.678   5.108   4.890 -0.2370 -0.5683  0.2338
24572SOL    HW175916   8.599   5.093   4.942 -1.2622  0.6891 -0.8876
24572SOL    HW275917   8.706   5.021   4.864 -0.3596 -1.1493  1.8904
24573SOL     OW75918   3.908   3.147   3.044  0.2367 -0.0829  0.4034
24573SOL    HW175919   3.817   3.128   3.069 -0.5710  3.7349  1.0020
24573SOL    HW275920   3.912   3.124   2.951 -0.2971 -3.1919  1.0263
24574SOL     OW75921   3.846   6.156   1.339  0.2929 -0.3235 -0.0625
24574SOL    HW175922   3.847   6.090   1.408  2.0316 -1.6136 -1.2306
24574SOL    HW275923   3.868   6.238   1.383 -0.2609 -0.8249  1.1651
24575SOL     OW75924   4.381   2.034   1.633 -0.5984  0.3611  0.8992
24575SOL    HW175925   4.385   1.941   1.655 -3.7121  0.3394  1.8535
24575SOL    HW275926   4.406   2.079   1.714 -1.3226  0.3299  1.1441
24576SOL     OW75927   6.739   5.634   6.772 -0.0754  0.1049 -0.1098
24576SOL    HW175928   6.649   5.618   6.743  0.1718 -0.3979 -0.6401
24576SOL    HW275929   6.737   5.621   6.867 -0.3969 -0.7526 -0.2198
24577SOL     OW75930   0.075   6.276   0.658 -0.5065  0.3789 -0.5836
24577SOL    HW175931   0.115   6.361   0.639 -1.2361  0.2464 -2.9615
24577SOL    HW275932   0.149   6.216   0.664 -0.1379  0.4749 -3.0640
24578SOL     OW75933   8.180   0.504   7.975 -0.0049  0.4030  0.6693
24578SOL    HW175934   8.095   0.543   7.952 -0.1996 -0.3353  0.1081
24578SOL    HW275935   8.212   0.468   7.892 -0.8358 -2.5526  1.5262
24579SOL     OW75936   5.618   4.967   8.690  0.0557  0.0177 -0.3356
24579SOL    HW175937   5.679   4.971   8.764  1.3509 -3.3139 -1.0543
24579SOL    HW275938   5.561   4.892   8.710 -2.0759  1.3430 -1.0301
24580SOL     OW75939   7.305   5.857   8.535 -0.5690 -0.2789  0.0545
24580SOL    HW175940   7.295   5.840   8.441 -1.6078  0.0320  0.0952
24580SOL    HW275941   7.216   5.858   8.569 -0.2729  0.5734  0.8764
24581SOL     OW75942   9.117   7.169   2.651 -0.3355  0.3129  0.1405
24581SOL    HW175943   9.184   7.103   2.633  0.7938  1.2686  0.7290
24581SOL    HW275944   9.096   7.157   2.744 -0.5224  0.4250  0.1124
24582SOL     OW75945   7.418   9.256   3.448  0.1990 -0.3647 -0.3426
24582SOL    HW175946   7.373   9.335   3.480 -0.6951 -0.8366 -0.4229
24582SOL    HW275947   7.348   9.194   3.430  0.8339 -0.8427 -1.2259
24583SOL     OW75948   5.953   3.736   2.738 -0.0566 -0.1339 -0.0358
24583SOL    HW175949   5.904   3.711   2.816  0.5548 -1.0205  0.0840
24583SOL    HW275950   5.906   3.812   2.703 -0.4674  0.1339  1.0592
24584SOL     OW75951   5.062   3.998   6.044 -0.0733  0.2426  0.5193
24584SOL    HW175952   5.129   3.992   6.112  1.4011  1.5464 -0.7488
24584SOL    HW275953   5.081   3.926   5.985 -0.1215  0.3034  0.4298
24585SOL     OW75954   4.613   0.761   5.521 -0.1857 -0.0716 -0.3153
24585SOL    HW175955   4.685   0.753   5.583 -0.0161 -0.6928 -0.5870
24585SOL    HW275956   4.634   0.839   5.470  0.3089 -0.2571 -0.4026
24586SOL     OW75957   2.151   6.936   9.472  0.6683 -0.0765 -0.8295
24586SOL    HW175958   2.244   6.926   9.490  0.6049  0.2026 -0.3200
24586SOL    HW275959   2.146   6.967   9.381  1.1001  0.5347 -0.6493
24587SOL     OW75960   1.022   7.577   4.837  0.0738 -0.1817 -0.0602
24587SOL    HW175961   1.101   7.525   4.851  0.5429  0.1772 -1.2515
24587SOL    HW275962   0.954   7.533   4.888  0.7849 -1.1547  0.0552
24588SOL     OW75963   9.461   1.140   2.524 -0.0765  0.3669 -0.3143
24588SOL    HW175964   9.456   1.093   2.607 -1.2033 -0.2291 -0.6907
24588SOL    HW275965   9.513   1.083   2.468  2.9080  1.9409  0.6767
24589SOL     OW75966   7.917   4.596   7.746 -0.0852  0.2513 -0.4664
24589SOL    HW175967   7.905   4.592   7.651  2.3255 -0.1434 -0.8171
24589SOL    HW275968   7.993   4.540   7.763 -1.7763 -1.5173  2.0083
24590SOL     OW75969   1.211   9.305   5.199  0.0755 -0.0703  0.0885
24590SOL    HW175970   1.199   9.398   5.217  0.0504 -0.5577  2.9976
24590SOL    HW275971   1.138   9.262   5.244  1.8462 -1.6938  1.5968
24591SOL     OW75972   7.919   1.524   8.077  0.2687  0.6627 -0.1688
24591SOL    HW175973   7.867   1.511   8.156 -2.4621  2.0579 -1.5956
24591SOL    HW275974   7.938   1.618   8.076  1.1272  0.4886 -0.6808
24592SOL     OW75975   8.191   1.454   1.763  0.1874  0.1842 -0.5948
24592SOL    HW175976   8.199   1.393   1.837  0.2321  1.8830  0.8943
24592SOL    HW275977   8.141   1.406   1.697 -0.5907 -1.1278  0.8714
24593SOL     OW75978   2.298   1.981   9.187 -0.2415 -0.2248 -0.4358
24593SOL    HW175979   2.222   1.996   9.131 -0.3520  1.4009  0.0898
24593SOL    HW275980   2.373   1.985   9.127 -0.3982  0.9143 -0.5824
24594SOL     OW75981   7.737   3.785   1.877 -0.4147 -0.1525  0.2998
24594SOL    HW175982   7.821   3.814   1.913 -0.6838  0.3562  0.5365
24594SOL    HW275983   7.672   3.845   1.915 -0.4622  2.1253 -2.9421
24595SOL     OW75984   9.087   6.388   5.105 -0.0342 -0.1761 -0.6629
24595SOL    HW175985   9.008   6.337   5.122  1.1279 -2.0507 -0.6042
24595SOL    HW275986   9.125   6.404   5.191  0.3568 -0.4848 -0.7747
24596SOL     OW75987   2.841   6.951   5.585 -0.8351  0.1934  0.0922
24596SOL    HW175988   2.819   6.859   5.572  0.4885  0.0367 -1.4058
24596SOL    HW275989   2.828   6.966   5.678 -1.1829 -1.4829  0.3460
24597SOL     OW75990   0.485   5.732   2.403  1.0323  0.0758 -0.2735
24597SOL    HW175991   0.454   5.646   2.433  0.2809  1.0170  1.8375
24597SOL    HW275992   0.552   5.757   2.466  0.2513  1.6430 -0.0064
24598SOL     OW75993   4.223   6.438   7.936 -0.2434  0.1639 -0.2815
24598SOL    HW175994   4.308   6.474   7.962 -0.3587 -0.0176  0.3913
24598SOL    HW275995   4.186   6.404   8.018 -1.4801  1.2915 -0.3352
24599SOL     OW75996   0.157   6.005   4.559  0.0666 -0.3492 -0.5013
24599SOL    HW175997   0.232   6.048   4.517 -0.0689  0.7876  0.3598
24599SOL    HW275998   0.179   6.004   4.652 -0.1999 -1.6632 -0.4421
24600SOL     OW75999   6.670   7.787   0.505  0.2973 -0.1123 -0.3351
24600SOL    HW176000   6.717   7.776   0.422 -1.4559 -0.4563 -1.3554
24600SOL    HW276001   6.674   7.700   0.546 -1.2738 -0.8049 -1.5013
24601SOL     OW76002   9.158   6.724   1.246  1.0168  0.4645  0.1964
24601SOL    HW176003   9.201   6.662   1.305  0.2948 -0.3918 -0.1505
24601SOL    HW276004   9.152   6.678   1.163  0.0897  0.8411  0.0438
24602SOL     OW76005   3.512   2.451   8.860  0.0417  0.6803  0.0462
24602SOL    HW176006   3.574   2.478   8.792 -0.2654  0.2874 -0.3912
24602SOL    HW276007   3.519   2.519   8.927 -1.7958  2.6706 -1.6748
24603SOL     OW76008   5.693   8.594   9.342 -0.5041 -0.2477  0.2775
24603SOL    HW176009   5.645   8.516   9.316 -2.2286  0.9796 -0.4106
24603SOL    HW276010   5.727   8.629   9.259  1.9433 -1.2547  0.7747
24604SOL     OW76011   3.226   9.078   8.468 -0.6424  0.0292  0.3563
24604SOL    HW176012   3.274   9.028   8.534 -2.4678 -0.3034  1.5128
24604SOL    HW276013   3.215   9.016   8.395  0.7906  0.1783 -0.0199
24605SOL     OW76014   8.168   8.123   9.287  0.1901 -0.2400  0.1647
24605SOL    HW176015   8.121   8.202   9.260 -2.6811 -1.5993  0.7891
24605SOL    HW276016   8.243   8.118   9.228 -0.0592  2.4171 -0.5012
24606SOL     OW76017   6.073   5.499   8.798 -0.5955 -0.0102 -0.2181
24606SOL    HW176018   6.011   5.426   8.791  0.0014 -0.3807 -2.8492
24606SOL    HW276019   6.046   5.559   8.729 -0.2357  1.6531  1.0259
24607SOL     OW76020   2.002   9.347   7.215 -0.7724  0.4514 -0.3577
24607SOL    HW176021   1.993   9.361   7.309  0.9467  0.3874 -0.1464
24607SOL    HW276022   2.033   9.431   7.181 -1.2942  0.4460 -0.8469
24608SOL     OW76023   1.633   4.983   5.150  0.1368  0.1684  0.2179
24608SOL    HW176024   1.679   4.925   5.090 -0.6813 -1.1032  0.7765
24608SOL    HW276025   1.702   5.021   5.204  0.5348 -2.1571  1.4501
24609SOL     OW76026   5.726   1.507   3.645  0.2770 -0.1585  0.6776
24609SOL    HW176027   5.713   1.439   3.579 -0.2054  0.6542 -0.0947
24609SOL    HW276028   5.689   1.586   3.605  1.7930  0.8047  1.0934
24610SOL     OW76029   0.429   0.387   5.266 -0.1000 -0.6400 -0.4016
24610SOL    HW176030   0.387   0.424   5.188  0.5631  0.1687 -0.3892
24610SOL    HW276031   0.518   0.423   5.265  0.1808 -1.2686  0.2928
24611SOL     OW76032   7.570   3.858   5.699 -0.1880  0.1833 -0.1842
24611SOL    HW176033   7.606   3.915   5.630  0.3594 -1.8121 -1.6563
24611SOL    HW276034   7.646   3.808   5.730 -0.5266  0.6873  1.5825
24612SOL     OW76035   2.756   4.268   2.136 -0.5401  0.3185 -0.5551
24612SOL    HW176036   2.744   4.360   2.112  0.1312  0.4663 -0.3463
24612SOL    HW276037   2.710   4.259   2.220  0.5278  0.8001  0.0909
24613SOL     OW76038   0.868   0.252   5.572  0.3554  0.4169 -0.3098
24613SOL    HW176039   0.830   0.302   5.644  2.3163  2.8605 -0.8412
24613SOL    HW276040   0.828   0.288   5.493  1.4451  0.8487 -0.6767
24614SOL     OW76041   0.139   7.808   6.848 -0.1104 -0.1696  0.2731
24614SOL    HW176042   0.139   7.780   6.756  0.4286 -1.1962  0.5578
24614SOL    HW276043   0.225   7.780   6.880  0.7761  2.5065  0.4316
24615SOL     OW76044   8.485   3.730   1.181  0.4201  0.2441 -0.9785
24615SOL    HW176045   8.535   3.746   1.261 -0.2349  0.6141 -0.6373
24615SOL    HW276046   8.534   3.777   1.113  0.9771 -0.0677 -0.8026
24616SOL     OW76047   1.535   3.751   6.906 -0.4917 -0.4435 -0.2757
24616SOL    HW176048   1.572   3.689   6.844 -0.4857  0.3258 -1.0549
24616SOL    HW276049   1.577   3.834   6.885 -3.0488  0.6219 -1.5902
24617SOL     OW76050   3.088   0.246   8.951 -0.5694 -0.1736 -0.4656
24617SOL    HW176051   3.006   0.241   8.903 -0.6527  0.2944 -0.3786
24617SOL    HW276052   3.137   0.169   8.924 -0.5220  0.1992 -1.4598
24618SOL     OW76053   1.956   3.977   2.498  0.0374  0.0626 -0.0660
24618SOL    HW176054   1.869   4.014   2.481 -0.9022 -1.9542 -0.0236
24618SOL    HW276055   2.013   4.018   2.434 -0.7129  2.1767  0.5341
24619SOL     OW76056   3.290   5.720   0.416  0.0700 -0.0117 -0.2327
24619SOL    HW176057   3.204   5.762   0.414  0.5250  0.9849  0.3550
24619SOL    HW276058   3.350   5.791   0.438  1.0337 -0.7207 -0.5435
24620SOL     OW76059   7.149   1.372   8.206  0.1576 -0.2789 -0.0114
24620SOL    HW176060   7.209   1.400   8.137  1.0040 -1.1890  0.3211
24620SOL    HW276061   7.134   1.279   8.188 -0.0072 -0.4041  0.7364
24621SOL     OW76062   5.781   4.196   2.991  0.3619  0.1118 -0.2798
24621SOL    HW176063   5.717   4.201   3.063 -1.4150 -1.7039 -1.6391
24621SOL    HW276064   5.740   4.140   2.926  1.9821  1.5436 -2.6951
24622SOL     OW76065   0.645   4.252   3.499 -0.0370  0.0492 -0.3393
24622SOL    HW176066   0.576   4.312   3.527  0.6136 -0.1022  1.7874
24622SOL    HW276067   0.656   4.193   3.574  2.8531  0.5109 -0.3073
24623SOL     OW76068   2.801   8.331   7.726 -0.0113 -0.1287  0.1619
24623SOL    HW176069   2.748   8.346   7.648  1.3301  2.4007 -0.3684
24623SOL    HW276070   2.848   8.249   7.708  0.8981  0.8276 -2.0981
24624SOL     OW76071   1.266   1.470   0.510 -0.2645 -0.0032 -0.5116
24624SOL    HW176072   1.331   1.400   0.517  0.3134  0.6891  1.7964
24624SOL    HW276073   1.182   1.426   0.523  0.0437 -0.3818  0.2293
24625SOL     OW76074   1.720   9.231   0.333 -0.1641  0.1036  0.1159
24625SOL    HW176075   1.702   9.141   0.361 -0.5148  0.2535  0.3850
24625SOL    HW276076   1.679   9.238   0.247  0.8160 -0.3235 -0.3966
24626SOL     OW76077   2.842   9.216   1.112 -0.0923  0.0574  0.0012
24626SOL    HW176078   2.814   9.295   1.065  0.8856  0.7322  0.5256
24626SOL    HW276079   2.806   9.226   1.200 -0.1750 -0.2012 -0.0026
24627SOL     OW76080   4.884   0.442   4.005  0.1290  1.1321  1.2825
24627SOL    HW176081   4.792   0.463   3.990  0.8626  2.1580 -3.5004
24627SOL    HW276082   4.882   0.365   4.061 -3.8544 -0.6751 -0.8833
24628SOL     OW76083   0.961   2.618   6.860  0.5054 -0.2892 -0.0750
24628SOL    HW176084   0.904   2.660   6.924 -0.0626 -1.0729 -0.0571
24628SOL    HW276085   1.042   2.599   6.909  0.5040  0.1391  0.0985
24629SOL     OW76086   7.180   5.585   9.183 -0.0308 -0.0505 -0.2183
24629SOL    HW176087   7.241   5.630   9.241 -1.3287  1.9549 -0.3001
24629SOL    HW276088   7.141   5.517   9.238 -0.3596  1.0349  0.9691
24630SOL     OW76089   3.831   2.241   6.483 -0.2729 -0.2969 -0.6340
24630SOL    HW176090   3.742   2.277   6.479 -0.0317  0.7492  1.7621
24630SOL    HW276091   3.825   2.169   6.546  1.1688  2.0932  2.4961
24631SOL     OW76092   7.718   6.299   7.411  0.4112  0.9178  0.2771
24631SOL    HW176093   7.739   6.295   7.504 -0.7973  1.6215  0.6078
24631SOL    HW276094   7.714   6.393   7.392 -1.1731  0.8200 -0.0147
24632SOL     OW76095   5.361   3.210   3.131  0.3645 -0.0938 -0.6815
24632SOL    HW176096   5.270   3.211   3.101  0.0946  2.0071  0.0286
24632SOL    HW276097   5.409   3.253   3.061 -0.0883  3.7318  1.1096
24633SOL     OW76098   1.540   6.302   0.422 -0.4802  0.3310 -0.5833
24633SOL    HW176099   1.445   6.292   0.422 -0.6354  0.5508  3.0746
24633SOL    HW276100   1.573   6.222   0.463  0.8190  0.7876 -0.6854
24634SOL     OW76101   1.912   6.898   5.372 -0.4113 -0.0559 -0.5769
24634SOL    HW176102   1.984   6.952   5.336  0.8548 -1.4964 -0.3046
24634SOL    HW276103   1.888   6.840   5.300 -0.8702 -0.0225 -0.4512
24635SOL     OW76104   6.846   0.517   9.132 -0.6404  0.0250  0.5839
24635SOL    HW176105   6.862   0.453   9.202  1.6591  0.1360  0.2407
24635SOL    HW276106   6.914   0.583   9.144  1.3490 -1.0934 -3.0194
24636SOL     OW76107   6.273   4.216   8.340 -0.0256  0.3245  0.3988
24636SOL    HW176108   6.368   4.215   8.345 -0.0037  1.8841  0.9345
24636SOL    HW276109   6.253   4.269   8.263 -0.4487 -0.1408  0.1889
24637SOL     OW76110   0.590   0.239   8.784  0.3605  0.2014  0.1643
24637SOL    HW176111   0.540   0.169   8.741  0.5218 -0.0407  0.3691
24637SOL    HW276112   0.610   0.204   8.871 -0.3726  0.8755  0.6191
24638SOL     OW76113   5.520   0.068   4.339 -0.5887 -0.0316  0.4682
24638SOL    HW176114   5.594   0.081   4.397 -1.0908  1.7246  0.7691
24638SOL    HW276115   5.525  -0.025   4.314  0.0751 -0.6495  2.6867
24639SOL     OW76116   0.065   3.485   3.931  0.1103 -0.0756 -0.1953
24639SOL    HW176117   0.030   3.565   3.970  0.1998 -0.5420  0.9038
24639SOL    HW276118   0.158   3.503   3.917  0.3166 -0.2621  0.8525
24640SOL     OW76119   2.939   4.686   1.659 -0.5194  0.1259  0.4297
24640SOL    HW176120   2.973   4.766   1.619  0.6647  1.7225  4.1223
24640SOL    HW276121   2.996   4.616   1.627 -0.5163  0.9805 -1.5759
24641SOL     OW76122   1.522   3.965   2.891 -0.2127  0.1380  0.4972
24641SOL    HW176123   1.599   3.919   2.924 -0.0260  1.4468  2.0267
24641SOL    HW276124   1.554   4.053   2.870 -0.6537 -0.2161 -1.9162
24642SOL     OW76125   3.385   8.626   0.265 -0.2131 -0.3867 -0.0980
24642SOL    HW176126   3.382   8.548   0.320 -2.4425  1.8830  3.3673
24642SOL    HW276127   3.460   8.675   0.298  0.0541 -0.1689 -0.9936
24643SOL     OW76128   8.651   0.493   2.491 -0.2734 -0.3350  0.2542
24643SOL    HW176129   8.572   0.547   2.487 -0.5998 -0.8698 -1.7646
24643SOL    HW276130   8.698   0.524   2.568 -0.6165  2.5866 -0.6201
24644SOL     OW76131   9.320   8.167   3.448  0.5850  0.3055 -0.1011
24644SOL    HW176132   9.289   8.256   3.431  1.9176  0.7957 -0.1152
24644SOL    HW276133   9.361   8.139   3.366 -0.2377 -0.5214 -0.2483
24645SOL     OW76134   0.364   2.999   1.765 -0.8204 -0.2911 -0.5717
24645SOL    HW176135   0.425   3.068   1.792 -1.1043 -0.6515  1.1498
24645SOL    HW276136   0.420   2.932   1.726 -0.4094  0.4105 -1.2179
24646SOL     OW76137   7.393   0.468   5.205  0.2586 -0.1230 -0.0729
24646SOL    HW176138   7.485   0.444   5.219  0.9027  1.0423 -1.9328
24646SOL    HW276139   7.367   0.419   5.127 -1.4976 -2.2463  1.7071
24647SOL     OW76140   5.842   0.671   9.012  0.2949 -0.1928  0.5515
24647SOL    HW176141   5.754   0.638   8.992  0.7122 -0.1963 -1.4551
24647SOL    HW276142   5.898   0.594   9.005  0.7761  0.2416 -0.6721
24648SOL     OW76143   1.735   1.508   5.662 -0.6110 -0.3464  0.0766
24648SOL    HW176144   1.788   1.465   5.595  0.3943  0.1541  0.5233
24648SOL    HW276145   1.775   1.595   5.672 -1.4086 -0.0213  0.5572
24649SOL     OW76146   5.268   4.135   0.959 -0.0981  0.2345  0.0843
24649SOL    HW176147   5.247   4.067   0.894 -1.0160  0.2501  0.3504
24649SOL    HW276148   5.205   4.121   1.029  1.0834  0.0358  1.1248
24650SOL     OW76149   7.304   1.689   0.964 -0.4911 -0.8067  0.0829
24650SOL    HW176150   7.262   1.647   1.039 -1.3755  0.7718  0.5057
24650SOL    HW276151   7.398   1.686   0.985 -0.7937  0.7765  1.9283
24651SOL     OW76152   8.428   4.784   0.990 -0.1169  0.5718  0.4792
24651SOL    HW176153   8.341   4.808   0.958  0.0465 -1.2194 -1.4602
24651SOL    HW276154   8.483   4.780   0.912  0.8757 -1.6967  1.1999
24652SOL     OW76155   0.279   8.248   4.172 -0.4207  0.2033 -0.1299
24652SOL    HW176156   0.260   8.327   4.121 -2.8763 -0.3548 -0.2309
24652SOL    HW276157   0.374   8.241   4.172 -0.2044  2.3615 -1.3340
24653SOL     OW76158   4.992   4.728   2.015 -0.1504 -0.3997 -0.0187
24653SOL    HW176159   5.041   4.697   2.091  0.8917  0.2373 -0.4030
24653SOL    HW276160   5.057   4.731   1.944 -0.6089  0.9474 -0.4148
24654SOL     OW76161   5.288   9.423   5.010 -0.3807 -0.1311 -0.2293
24654SOL    HW176162   5.261   9.495   5.066  0.8667  0.2614 -0.1118
24654SOL    HW276163   5.289   9.347   5.068 -2.2002 -0.3987 -0.4648
24655SOL     OW76164   7.735   8.382   6.453 -0.0638  0.3903  0.0143
24655SOL    HW176165   7.772   8.422   6.375  0.8305  1.3647  0.9038
24655SOL    HW276166   7.653   8.429   6.467  0.9211  1.9032  0.9801
24656SOL     OW76167   6.613   3.983   6.850  0.1502  0.3845  0.3120
24656SOL    HW176168   6.642   4.029   6.928 -0.6136  1.7001 -0.1589
24656SOL    HW276169   6.529   3.945   6.874  0.0181  0.6031  0.1934
24657SOL     OW76170   4.636   0.188   5.351  0.0243 -0.0337 -0.1479
24657SOL    HW176171   4.558   0.200   5.297 -0.8788 -0.0644  1.1101
24657SOL    HW276172   4.637   0.094   5.372 -1.5136  0.4680  2.5562
24658SOL     OW76173   8.644   4.650   1.509 -0.2069 -0.0712  0.1108
24658SOL    HW176174   8.711   4.630   1.443  0.1590 -0.0399  0.4741
24658SOL    HW276175   8.606   4.565   1.531 -0.4172 -0.0677 -0.2338
24659SOL     OW76176   1.598   6.430   8.073  0.7620 -0.3870  0.3405
24659SOL    HW176177   1.554   6.361   8.122 -0.5451 -0.1985 -0.5365
24659SOL    HW276178   1.667   6.385   8.025  1.4651 -0.7102  1.5877
24660SOL     OW76179   0.874   6.093   6.656 -0.5985  0.2619 -0.4179
24660SOL    HW176180   0.883   6.186   6.637 -3.2691  0.5331 -0.6664
24660SOL    HW276181   0.902   6.084   6.747 -0.5124  1.3206 -0.3342
24661SOL     OW76182   9.268   6.819   8.856 -0.2221  0.1092  0.3644
24661SOL    HW176183   9.332   6.888   8.873 -0.3673  0.8728 -1.9734
24661SOL    HW276184   9.297   6.778   8.775 -1.0506 -1.5535  0.8498
24662SOL     OW76185   4.360   1.086   5.193 -0.0315  0.0115 -0.2188
24662SOL    HW176186   4.350   1.128   5.279  0.8038 -0.3437  0.0547
24662SOL    HW276187   4.311   1.004   5.201  0.7075 -0.3980  0.1908
24663SOL     OW76188   7.937   5.303   4.328 -0.3980  0.2141  0.4079
24663SOL    HW176189   7.961   5.225   4.377  2.6410  0.7898  0.0308
24663SOL    HW276190   8.007   5.313   4.263 -1.4967  2.4146 -0.5420
24664SOL     OW76191   4.045   1.799   2.932  0.0262  0.0631  0.2165
24664SOL    HW176192   4.031   1.705   2.931  1.6395 -0.2364 -2.0108
24664SOL    HW276193   4.132   1.811   2.970 -0.3626  0.7241  0.9377
24665SOL     OW76194   9.222   7.851   3.046  0.4505  0.6186 -0.4183
24665SOL    HW176195   9.184   7.906   2.977 -1.8703 -0.1583  0.1584
24665SOL    HW276196   9.267   7.781   2.998 -0.3650  0.5889 -1.1714
24666SOL     OW76197   7.619   1.218   7.896 -0.3895  0.0899  0.0836
24666SOL    HW176198   7.570   1.236   7.816  0.4844  0.4570 -0.3845
24666SOL    HW276199   7.711   1.232   7.871  0.0468 -1.5038  0.6675
24667SOL     OW76200   3.730   2.425   9.140  0.0384 -0.2346  0.3285
24667SOL    HW176201   3.673   2.350   9.155  0.4848 -0.7438 -0.5158
24667SOL    HW276202   3.670   2.497   9.122 -0.3894 -1.2025 -2.6964
24668SOL     OW76203   4.031   2.464   8.824  0.3347 -0.6142  0.1909
24668SOL    HW176204   4.022   2.435   8.914  2.3139  0.3965  0.7688
24668SOL    HW276205   4.048   2.384   8.774 -1.0802 -1.2145  0.6323
24669SOL     OW76206   9.426   2.240   4.055 -0.2095 -0.2694  0.0131
24669SOL    HW176207   9.447   2.146   4.057 -2.3952 -0.7926  0.9330
24669SOL    HW276208   9.461   2.273   4.138 -0.0010 -0.4035 -0.0192
24670SOL     OW76209   8.866   5.922   9.568 -0.1773  0.2728  0.3957
24670SOL    HW176210   8.842   5.848   9.512  0.8022 -0.6658  1.1755
24670SOL    HW276211   8.786   5.941   9.617 -0.0429 -1.2802  1.2723
24671SOL     OW76212   5.251   3.164   7.831  0.1784 -0.1413 -0.1390
24671SOL    HW176213   5.198   3.085   7.821 -0.6324  0.3298  0.3106
24671SOL    HW276214   5.202   3.217   7.894  1.0712  0.4120  0.1012
24672SOL     OW76215   2.179   5.474   2.200 -0.6772  0.3451 -0.1225
24672SOL    HW176216   2.275   5.475   2.199 -0.5929 -2.2870 -0.4115
24672SOL    HW276217   2.157   5.472   2.293 -0.4906  1.3223 -0.0457
24673SOL     OW76218   7.425   3.555   6.958 -0.6750  0.1828  0.0583
24673SOL    HW176219   7.342   3.572   7.002 -0.8348 -1.5880  0.4963
24673SOL    HW276220   7.419   3.464   6.929  0.6824  0.3630 -0.8558
24674SOL     OW76221   3.001   6.150   2.698 -0.3273  0.4026 -0.3835
24674SOL    HW176222   3.079   6.185   2.739 -0.6364  1.8084 -0.9336
24674SOL    HW276223   2.946   6.121   2.771  0.1704  0.5724  0.0627
24675SOL     OW76224   0.672   5.213   6.695 -0.0889 -0.2186  0.3698
24675SOL    HW176225   0.734   5.232   6.625 -0.4357 -0.7211 -0.0836
24675SOL    HW276226   0.708   5.257   6.772  0.5404 -0.0510 -0.0151
24676SOL     OW76227   0.577   7.525   0.977 -0.3988 -0.2769  0.2409
24676SOL    HW176228   0.630   7.448   0.997 -0.6530 -0.8888 -1.2274
24676SOL    HW276229   0.490   7.489   0.956 -0.2757  0.2735 -1.3954
24677SOL     OW76230   6.694   1.080   5.081  0.2936 -0.0592 -0.0874
24677SOL    HW176231   6.784   1.066   5.052  1.1417  1.2220  1.7528
24677SOL    HW276232   6.650   1.115   5.004  1.6666  0.3850 -0.7049
24678SOL     OW76233   1.654   8.075   0.816  0.6191  0.1349 -0.3763
24678SOL    HW176234   1.712   8.052   0.743  2.1574 -0.0987  0.8687
24678SOL    HW276235   1.681   8.162   0.842  1.8581 -0.7474  1.5077
24679SOL     OW76236   7.885   3.217   4.317  0.3130  0.1603  0.1929
24679SOL    HW176237   7.865   3.298   4.365  0.9404  0.3862  0.0775
24679SOL    HW276238   7.925   3.247   4.235 -3.1539 -0.0808 -1.7828
24680SOL     OW76239   0.347   1.650   1.582 -0.0030  0.6393 -0.1289
24680SOL    HW176240   0.393   1.691   1.656 -2.2357  2.3646  0.4103
24680SOL    HW276241   0.302   1.575   1.620 -0.1950  0.8240  0.0075
24681SOL     OW76242   6.251   6.754   4.165  0.1969  0.0529  0.3745
24681SOL    HW176243   6.220   6.680   4.113 -1.0493  0.6787  0.1811
24681SOL    HW276244   6.340   6.730   4.191 -0.2991 -1.6525  0.5975
24682SOL     OW76245   7.876   9.030   8.062  0.2216 -0.0568 -0.0006
24682SOL    HW176246   7.947   8.986   8.015  0.6640 -0.4688  1.0028
24682SOL    HW276247   7.815   8.959   8.084  0.6789 -0.1154  1.1719
24683SOL     OW76248   1.619   1.328   5.295 -1.0501 -0.5843 -0.0936
24683SOL    HW176249   1.648   1.318   5.205 -0.2413 -0.0765  0.0879
24683SOL    HW276250   1.525   1.313   5.293 -1.2863  0.8270 -1.2696
24684SOL     OW76251   4.816   8.389   4.651  0.2782 -0.2006  0.1613
24684SOL    HW176252   4.773   8.396   4.736  1.3196 -1.9176  0.8750
24684SOL    HW276253   4.768   8.450   4.595 -3.1352 -1.9985  0.8742
24685SOL     OW76254   3.604   5.578   7.431  0.0539 -0.4335 -0.0707
24685SOL    HW176255   3.554   5.616   7.359 -0.6577 -0.5674  0.3367
24685SOL    HW276256   3.537   5.557   7.497  0.6547 -0.6125  0.4880
24686SOL     OW76257   8.053   9.561   3.200  0.6107 -0.3824 -0.1060
24686SOL    HW176258   8.079   9.653   3.200 -1.7760  0.4325  2.1755
24686SOL    HW276259   8.036   9.541   3.108  2.1394  1.1070 -0.7726
24687SOL     OW76260   8.669   5.981   0.874 -0.2302 -0.1690  0.0882
24687SOL    HW176261   8.605   5.911   0.866  0.0015 -0.3209 -0.4412
24687SOL    HW276262   8.693   6.003   0.785 -0.7423  1.0099  0.2244
24688SOL     OW76263   2.668   5.174   0.050 -0.3577 -0.2387  0.0024
24688SOL    HW176264   2.757   5.204   0.067  1.3446 -4.3712 -0.2994
24688SOL    HW276265   2.649   5.113   0.121 -2.3313 -0.6184 -0.7642
24689SOL     OW76266   0.185   8.600   5.937  0.5348 -0.5755 -0.2434
24689SOL    HW176267   0.233   8.615   6.018  0.6593  2.7274 -0.7915
24689SOL    HW276268   0.246   8.551   5.881  2.6926  1.8876 -0.2478
24690SOL     OW76269   4.751   3.469   1.296 -0.0711 -0.2462 -0.1467
24690SOL    HW176270   4.735   3.559   1.268  2.3792  0.1797 -0.3741
24690SOL    HW276271   4.700   3.459   1.376 -0.4607  1.3022 -0.1795
24691SOL     OW76272   2.664   7.554   6.401  0.6946 -0.4197  0.2121
24691SOL    HW176273   2.699   7.639   6.428  0.5957  0.0672 -1.1446
24691SOL    HW276274   2.615   7.524   6.478  0.8833  0.6538  0.7809
24692SOL     OW76275   1.622   4.765   2.979 -0.4053 -0.1966 -0.2015
24692SOL    HW176276   1.639   4.859   2.981  0.4514 -0.2698 -2.1173
24692SOL    HW276277   1.544   4.756   2.924  1.4288 -0.7646 -2.8835
24693SOL     OW76278   1.894   1.163   1.822 -0.1105  0.6697  0.1656
24693SOL    HW176279   1.964   1.228   1.816  0.1893  0.3343 -0.0056
24693SOL    HW276280   1.814   1.212   1.802 -0.1609  1.4575  2.1254
24694SOL     OW76281   4.111   7.363   3.609  0.1190  0.1409 -0.1910
24694SOL    HW176282   4.160   7.330   3.534  2.7089  2.1303  0.4985
24694SOL    HW276283   4.045   7.420   3.571  1.2586  0.9539 -1.0285
24695SOL     OW76284   3.603   5.508   5.866 -0.1918  0.6212  0.0975
24695SOL    HW176285   3.550   5.516   5.786 -1.4583 -0.8432  0.7385
24695SOL    HW276286   3.576   5.424   5.904  2.7082 -0.2585  0.4198
24696SOL     OW76287   2.425   4.864   5.048  0.0550  0.5286 -0.1968
24696SOL    HW176288   2.463   4.950   5.028  1.6784 -0.4528 -1.4732
24696SOL    HW276289   2.345   4.861   4.994 -0.9165  1.8367  1.0782
24697SOL     OW76290   7.285   0.425   5.671 -0.1429 -0.1518  0.4876
24697SOL    HW176291   7.222   0.421   5.743  0.9101 -0.2210  1.4376
24697SOL    HW276292   7.250   0.492   5.612 -1.2143 -0.3602  0.8739
24698SOL     OW76293   5.355   1.157   7.759  0.2181  0.0373 -0.0115
24698SOL    HW176294   5.349   1.252   7.761 -1.9527 -0.0251 -0.8887
24698SOL    HW276295   5.334   1.133   7.669 -2.0857 -1.3736  0.8140
24699SOL     OW76296   8.243   6.315   4.361  0.4338 -0.1381 -0.3062
24699SOL    HW176297   8.281   6.230   4.340  0.8844 -0.1822  0.6369
24699SOL    HW276298   8.156   6.294   4.398 -0.1835 -0.0826 -1.6812
24700SOL     OW76299   1.969   8.307   3.167  0.0681 -0.8141  0.9720
24700SOL    HW176300   1.880   8.282   3.192  0.1524 -1.4624  0.6597
24700SOL    HW276301   2.024   8.236   3.201  0.0578 -2.4657 -2.1365
24701SOL     OW76302   3.267   7.182   2.899 -0.1024  0.9390  0.1710
24701SOL    HW176303   3.208   7.226   2.960  2.0644  3.7094  0.4797
24701SOL    HW276304   3.282   7.247   2.830  1.2376 -0.3185 -0.7788
24702SOL     OW76305   4.318   2.226   0.196 -0.0559  0.0525 -0.3729
24702SOL    HW176306   4.243   2.262   0.244  0.9532  0.3562  1.0702
24702SOL    HW276307   4.289   2.140   0.167 -1.2620  0.5314 -0.6414
24703SOL     OW76308   6.168   1.913   9.564  0.3514 -0.1980  0.4748
24703SOL    HW176309   6.143   1.868   9.645 -0.8933  0.2055  0.3465
24703SOL    HW276310   6.086   1.954   9.534  1.0786  0.7395 -0.2956
24704SOL     OW76311   0.555   8.499   4.268  0.3204 -0.0820 -0.3184
24704SOL    HW176312   0.498   8.522   4.342 -0.7639  1.5209 -1.5773
24704SOL    HW276313   0.551   8.404   4.263  0.0628 -0.1945  1.3854
24705SOL     OW76314   5.152   0.905   1.209  0.3383 -0.0205 -0.6578
24705SOL    HW176315   5.218   0.967   1.239  2.0750 -2.0594 -0.0204
24705SOL    HW276316   5.161   0.905   1.113  0.4026  0.5742 -0.6587
24706SOL     OW76317   8.436   0.586   1.789 -0.5039 -0.0283  0.2773
24706SOL    HW176318   8.354   0.633   1.800  0.3806  1.6290  0.1685
24706SOL    HW276319   8.410   0.495   1.775 -2.2844  0.3808  0.6517
24707SOL     OW76320   0.068   4.010   1.205 -0.0473  1.4277  0.1423
24707SOL    HW176321   0.160   4.009   1.231 -0.1289  0.1887  0.4336
24707SOL    HW276322   0.053   4.100   1.177  1.7566  1.2603 -1.6546
24708SOL     OW76323   8.641   5.415   2.033  0.0749  0.0996  0.3372
24708SOL    HW176324   8.640   5.320   2.019  0.7272  0.0912  0.2953
24708SOL    HW276325   8.602   5.452   1.954  2.1951 -0.0273 -0.8423
24709SOL     OW76326   8.840   4.958   7.855  0.2430 -0.2244 -0.3374
24709SOL    HW176327   8.912   4.931   7.912  1.6226  0.5812 -1.6334
24709SOL    HW276328   8.802   5.034   7.899  1.5242  0.6176 -0.6381
24710SOL     OW76329   2.955   0.519   8.743  0.6405  0.0585 -0.1039
24710SOL    HW176330   3.049   0.503   8.747  0.6602  0.1384 -0.2787
24710SOL    HW276331   2.946   0.605   8.703  0.4101 -1.0968 -2.7489
24711SOL     OW76332   4.628   9.248   4.985 -0.1095  0.1615  0.0942
24711SOL    HW176333   4.711   9.253   4.938 -0.4718  1.9803 -0.4394
24711SOL    HW276334   4.643   9.296   5.066 -0.7231  0.7762 -0.1483
24712SOL     OW76335   2.156   8.279   5.170  1.2306 -0.2755  0.1158
24712SOL    HW176336   2.146   8.326   5.087  1.2593 -1.1451 -0.3947
24712SOL    HW276337   2.110   8.333   5.234  1.3483  0.4904 -0.4343
24713SOL     OW76338   7.314   6.008   1.072  0.2209 -0.3473 -0.5649
24713SOL    HW176339   7.293   5.934   1.015  1.2254 -0.2705 -1.0517
24713SOL    HW276340   7.410   6.008   1.077  0.2385  0.9797 -0.6553
24714SOL     OW76341   2.861   6.953   0.937  0.0042  0.8556  0.1252
24714SOL    HW176342   2.838   7.030   0.989  0.3459  0.2824  1.1438
24714SOL    HW276343   2.947   6.974   0.901 -0.9276  1.9435 -1.6144
24715SOL     OW76344   9.145   2.373   5.325 -0.2979 -0.1602  0.4936
24715SOL    HW176345   9.231   2.386   5.285  0.3952  0.3788  2.0767
24715SOL    HW276346   9.143   2.281   5.350 -0.8085 -0.5458 -0.8801
24716SOL     OW76347   3.430   2.425   8.501 -0.0708 -0.0329 -0.7260
24716SOL    HW176348   3.514   2.381   8.509  0.1688  0.0914 -2.1995
24716SOL    HW276349   3.394   2.394   8.418 -1.6944 -0.4210  0.0796
24717SOL     OW76350   0.932   5.385   5.248  0.4951  0.5508 -0.0192
24717SOL    HW176351   1.026   5.376   5.232  0.1199 -0.7862 -1.7686
24717SOL    HW276352   0.898   5.426   5.168 -0.6612 -0.8452 -0.2801
24718SOL     OW76353   1.164   5.318   7.857  0.5339  0.0356 -0.6880
24718SOL    HW176354   1.221   5.280   7.924 -0.6447 -0.0086  0.3128
24718SOL    HW276355   1.205   5.293   7.774  0.9101 -1.6710 -0.0204
24719SOL     OW76356   7.695   1.930   4.750 -0.1335  0.2833 -0.1531
24719SOL    HW176357   7.657   2.018   4.746  1.6489  1.2733  1.8885
24719SOL    HW276358   7.760   1.929   4.680 -0.1902  0.6159 -0.2135
24720SOL     OW76359   2.065   3.331   4.320  0.3510  0.0836 -0.2314
24720SOL    HW176360   2.037   3.241   4.338  0.3472  0.0135 -0.5786
24720SOL    HW276361   2.158   3.333   4.342 -0.0532  0.4966  1.5880
24721SOL     OW76362   1.727   0.233   2.501  0.1692  0.0720 -0.0661
24721SOL    HW176363   1.670   0.184   2.560  0.6782  0.4375  0.7496
24721SOL    HW276364   1.760   0.306   2.555 -0.8547  1.5310 -1.3385
24722SOL     OW76365   6.059   1.388   5.871 -0.3775 -0.1865  0.2665
24722SOL    HW176366   6.147   1.366   5.900 -0.2889  0.7460  0.7406
24722SOL    HW276367   6.003   1.363   5.945 -0.6029 -1.4418 -0.3119
24723SOL     OW76368   4.065   7.189   2.083  0.0535  0.2879 -0.0888
24723SOL    HW176369   4.095   7.278   2.064 -1.3373  0.5227 -1.3666
24723SOL    HW276370   4.119   7.133   2.027 -0.5779  0.5390 -0.9659
24724SOL     OW76371   1.448   5.548   5.282 -0.3945  0.5511  0.1404
24724SOL    HW176372   1.541   5.572   5.284 -0.3516  0.4000 -0.0648
24724SOL    HW276373   1.447   5.456   5.308 -0.2216 -0.2747 -2.5322
24725SOL     OW76374   5.729   9.492   7.857  0.4791  0.2683  0.8202
24725SOL    HW176375   5.800   9.551   7.881  0.9035 -0.2487  0.8582
24725SOL    HW276376   5.657   9.550   7.831  1.5937  0.8211 -1.2573
24726SOL     OW76377   9.546   0.049   1.680 -0.0129 -0.7661 -0.2031
24726SOL    HW176378   9.503  -0.035   1.698  2.1648 -1.6579  1.3084
24726SOL    HW276379   9.513   0.108   1.748  0.9165 -1.3644  0.7837
24727SOL     OW76380   9.452   4.732   1.674  0.0944  0.1043  0.6962
24727SOL    HW176381   9.470   4.709   1.765  2.4683  0.9686  0.5165
24727SOL    HW276382   9.361   4.762   1.675 -0.9250 -2.6686  2.1608
24728SOL     OW76383   3.921   4.639   0.142  0.1980 -0.0294  0.1357
24728SOL    HW176384   3.862   4.653   0.068 -0.2470  0.9434  0.6610
24728SOL    HW276385   3.989   4.582   0.108 -0.5509 -0.4269 -0.7377
24729SOL     OW76386   3.249   9.400   4.985 -0.1396 -0.0773  0.0294
24729SOL    HW176387   3.318   9.462   4.960  0.2308 -0.7783 -0.7353
24729SOL    HW276388   3.279   9.316   4.950 -1.2579 -0.4410 -0.0716
24730SOL     OW76389   3.479   3.729   9.444  0.2033  0.0194  0.2972
24730SOL    HW176390   3.494   3.802   9.503 -4.4717  0.7042  0.9921
24730SOL    HW276391   3.515   3.758   9.360  0.2668  2.2416  1.0368
24731SOL     OW76392   0.089   8.159   4.556 -0.3343  0.2349  0.2198
24731SOL    HW176393   0.141   8.091   4.514 -2.3902 -0.8486 -0.7451
24731SOL    HW276394   0.063   8.121   4.640 -2.2405 -0.6385 -0.7019
24732SOL     OW76395   8.887   4.005   0.969  0.0556 -0.1064 -0.1409
24732SOL    HW176396   8.885   3.961   0.884  0.6654  1.0996 -0.8061
24732SOL    HW276397   8.967   3.974   1.011  0.0725 -0.2399 -0.2743
24733SOL     OW76398   6.456   7.649   7.653  0.0960 -0.2647  0.2359
24733SOL    HW176399   6.428   7.680   7.739  1.1083 -0.0725  0.5072
24733SOL    HW276400   6.548   7.674   7.647 -0.1751  0.5487 -1.2785
24734SOL     OW76401   3.263   6.565   6.622  0.0323  0.0532  0.0673
24734SOL    HW176402   3.182   6.521   6.648  0.3924 -1.3499 -1.0171
24734SOL    HW276403   3.237   6.624   6.551 -0.0198 -0.6048 -0.4728
24735SOL     OW76404   0.346   0.726   4.429  0.4712  0.2185 -0.1631
24735SOL    HW176405   0.421   0.669   4.444  1.9005  1.9821 -0.2407
24735SOL    HW276406   0.365   0.805   4.479 -2.4449 -0.0921  1.6623
24736SOL     OW76407   4.459   8.737   6.206  0.2805  0.2890  0.0315
24736SOL    HW176408   4.444   8.649   6.171  0.5918  0.8860 -1.6961
24736SOL    HW276409   4.554   8.742   6.219  0.1183 -0.1407  1.6698
24737SOL     OW76410   0.199   2.799   8.831 -0.0824 -0.2088  0.1296
24737SOL    HW176411   0.203   2.703   8.823 -2.2778 -0.3222 -0.2564
24737SOL    HW276412   0.106   2.818   8.845  0.3063  1.8815  0.1874
24738SOL     OW76413   8.261   8.953   8.653 -0.3034 -0.6289 -1.0562
24738SOL    HW176414   8.307   9.018   8.706 -0.0893 -1.6623  0.0639
24738SOL    HW276415   8.249   8.996   8.568  0.5672  0.5568 -0.6112
24739SOL     OW76416   8.389   1.024   5.763 -0.1117 -0.4911 -0.3858
24739SOL    HW176417   8.473   0.983   5.785 -0.1118 -0.5792 -0.5489
24739SOL    HW276418   8.393   1.110   5.805  0.2998 -0.2674 -0.8719
24740SOL     OW76419   5.175   0.299   1.444 -0.0531  0.1483 -0.4908
24740SOL    HW176420   5.257   0.281   1.491 -0.1959  0.4254 -0.1295
24740SOL    HW276421   5.202   0.315   1.354  0.1731 -0.8793 -0.6076
24741SOL     OW76422   5.556   7.406   0.378  0.0129 -0.4136  0.0952
24741SOL    HW176423   5.541   7.322   0.422 -0.5335 -0.4073 -0.0780
24741SOL    HW276424   5.548   7.471   0.448 -3.0388 -0.1940 -0.3126
24742SOL     OW76425   0.282   0.262   8.790 -0.2960  0.8038 -0.2795
24742SOL    HW176426   0.348   0.194   8.775 -0.4091  0.4615  0.7134
24742SOL    HW276427   0.304   0.299   8.875 -1.3708  0.6966  0.0627
24743SOL     OW76428   2.199   8.570   9.412 -0.0768 -0.1904  0.2866
24743SOL    HW176429   2.288   8.583   9.378  0.3433 -1.3071  0.8991
24743SOL    HW276430   2.161   8.658   9.414  0.4499  0.1078 -1.4643
24744SOL     OW76431   1.040   0.655   6.328  0.1166  0.7058  0.4414
24744SOL    HW176432   0.977   0.582   6.327  0.8693  0.0412  0.2863
24744SOL    HW276433   1.122   0.616   6.298 -0.2744  2.3591 -3.5046
24745SOL     OW76434   8.247   5.216   6.623 -0.0268 -0.1347  0.0898
24745SOL    HW176435   8.301   5.149   6.664  0.3419 -0.1151 -0.3574
24745SOL    HW276436   8.159   5.179   6.621 -0.0221 -0.1922  0.7626
24746SOL     OW76437   9.434   3.702   3.945 -0.2418 -0.3411 -0.6102
24746SOL    HW176438   9.411   3.795   3.950 -0.2933 -0.4000  0.4130
24746SOL    HW276439   9.436   3.683   3.852 -0.2224  0.6927 -0.8332
24747SOL     OW76440   5.064   2.438   5.123  0.1677  0.3834  0.0870
24747SOL    HW176441   4.975   2.447   5.157 -0.6030 -0.1634 -1.6344
24747SOL    HW276442   5.079   2.517   5.072  1.2335  1.1192  1.5042
24748SOL     OW76443   4.877   8.638   2.338 -0.0819  0.1597 -0.0883
24748SOL    HW176444   4.953   8.583   2.320  1.1192  1.7434 -0.0743
24748SOL    HW276445   4.871   8.642   2.433 -0.7035 -0.6363 -0.0888
24749SOL     OW76446   5.020   8.592   1.656  0.2044 -0.2255 -0.0646
24749SOL    HW176447   5.052   8.611   1.568  1.5621 -0.7781  0.2949
24749SOL    HW276448   5.043   8.670   1.708 -0.8905  0.2458 -0.2396
24750SOL     OW76449   5.119   1.236   4.951 -0.4574  0.2548 -0.0624
24750SOL    HW176450   5.096   1.320   4.991  0.2431  0.4317 -0.0304
24750SOL    HW276451   5.105   1.172   5.021 -0.0637  0.4627  0.2115
24751SOL     OW76452   6.694   8.103   2.606 -0.3362 -0.2680  0.7735
24751SOL    HW176453   6.612   8.061   2.580 -0.7269 -0.2221  1.8749
24751SOL    HW276454   6.761   8.037   2.590 -0.9032 -1.2556  2.1836
24752SOL     OW76455   6.019   8.830   7.366  0.7017 -0.3693 -0.0486
24752SOL    HW176456   6.090   8.782   7.408  0.0404 -1.4433 -0.1255
24752SOL    HW276457   6.054   8.919   7.354  1.5831 -0.5528  1.0051
24753SOL     OW76458   6.744   1.157   9.160 -0.7002 -0.0904  0.2351
24753SOL    HW176459   6.692   1.080   9.181 -0.2849 -0.4916 -0.1611
24753SOL    HW276460   6.792   1.132   9.081  1.1553 -0.2536  1.3472
24754SOL     OW76461   2.005   6.174   2.830  0.3069  0.1629 -0.4586
24754SOL    HW176462   2.028   6.166   2.737 -0.6893 -0.9604 -0.6352
24754SOL    HW276463   2.016   6.267   2.849  0.3714  0.4458 -1.7476
24755SOL     OW76464   1.519   6.147   7.704  0.6754 -0.4039  0.3837
24755SOL    HW176465   1.502   6.221   7.762 -1.0593 -2.4268  2.7257
24755SOL    HW276466   1.593   6.101   7.745  0.1908 -1.2239  0.3666
24756SOL     OW76467   7.694   5.903   5.975 -0.0090 -0.1235 -0.0582
24756SOL    HW176468   7.762   5.958   6.014  0.0114 -0.2291  0.0555
24756SOL    HW276469   7.619   5.912   6.033 -0.7263  1.4416 -1.1418
24757SOL     OW76470   8.050   7.414   3.871 -0.1519  0.4859  0.5528
24757SOL    HW176471   7.981   7.401   3.936  0.6908 -0.1931  1.3556
24757SOL    HW276472   8.006   7.454   3.796 -1.7259 -1.3644  0.4071
24758SOL     OW76473   0.716   4.432   7.800 -0.3016  0.0881 -0.9523
24758SOL    HW176474   0.683   4.392   7.880 -0.9140  1.5176 -0.4603
24758SOL    HW276475   0.781   4.370   7.767  0.3357 -0.2881  0.9111
24759SOL     OW76476   2.017   2.062   6.212  0.1715 -0.5218 -0.1376
24759SOL    HW176477   2.001   2.152   6.238 -0.7300 -0.7376  0.0862
24759SOL    HW276478   2.037   2.067   6.119  0.9576 -0.0085  0.0483
24760SOL     OW76479   7.598   2.783   4.596 -0.0770 -0.0594  0.7690
24760SOL    HW176480   7.605   2.704   4.649  1.2994 -0.4696  0.0182
24760SOL    HW276481   7.688   2.804   4.571 -0.6103  0.5044 -0.8396
24761SOL     OW76482   7.363   3.873   5.884 -0.3878  0.0273 -0.2072
24761SOL    HW176483   7.417   3.897   5.808  0.6860 -0.4919  0.3596
24761SOL    HW276484   7.311   3.951   5.902  1.7237  1.3652  0.4876
24762SOL     OW76485   6.959   3.824   3.924  0.1583 -0.1196  0.0775
24762SOL    HW176486   7.004   3.749   3.964  0.6241 -0.7491 -1.5377
24762SOL    HW276487   6.967   3.894   3.989  1.5223 -0.8689  0.7753
24763SOL     OW76488   7.779   6.450   3.775  0.5293  0.0490 -0.0525
24763SOL    HW176489   7.692   6.473   3.810  1.2094  2.6033  0.1131
24763SOL    HW276490   7.795   6.362   3.810 -1.0764  0.3715  1.7031
24764SOL     OW76491   1.707   6.601   5.809 -0.2571 -0.3536 -0.4417
24764SOL    HW176492   1.696   6.680   5.862  0.0658 -0.6236  0.0371
24764SOL    HW276493   1.628   6.596   5.755 -0.4232  0.1202 -0.2399
24765SOL     OW76494   4.583   7.231   1.393  0.6091 -0.1570  0.6267
24765SOL    HW176495   4.605   7.249   1.302 -0.6315  1.1763  0.5482
24765SOL    HW276496   4.667   7.215   1.436  1.3523  0.7248 -0.4437
24766SOL     OW76497   6.723   5.364   8.512  0.1084 -0.5816 -0.8395
24766SOL    HW176498   6.658   5.430   8.484  0.7200 -0.2065 -1.4259
24766SOL    HW276499   6.683   5.321   8.587 -0.2300  0.6091 -0.3055
24767SOL     OW76500   1.574   9.184   6.603 -0.1122  0.0806 -0.1697
24767SOL    HW176501   1.570   9.197   6.698  0.4224  0.5759 -0.2112
24767SOL    HW276502   1.483   9.169   6.577 -0.2189 -0.4827  0.4745
24768SOL     OW76503   9.247   5.229   6.847 -0.3958  0.9069 -0.9262
24768SOL    HW176504   9.192   5.302   6.821  0.6417  1.0820 -2.8160
24768SOL    HW276505   9.227   5.160   6.784 -0.7064 -0.1721  0.2863
24769SOL     OW76506   1.696   1.535   9.383 -0.0954 -0.0589 -0.1257
24769SOL    HW176507   1.743   1.618   9.379 -1.7508  0.9368 -0.0411
24769SOL    HW276508   1.706   1.498   9.296  2.5904 -0.9440  0.4807
24770SOL     OW76509   3.565   8.450   4.141 -0.4640  0.9800  0.7125
24770SOL    HW176510   3.617   8.528   4.122  2.0878 -0.5906  0.7543
24770SOL    HW276511   3.622   8.395   4.196 -0.5262 -2.5487 -2.3335
24771SOL     OW76512   0.946   7.609   2.949 -0.3772 -0.2122  0.3035
24771SOL    HW176513   0.956   7.550   2.875  0.8274 -1.0674  1.1070
24771SOL    HW276514   0.894   7.559   3.012  1.6484 -0.9519  1.4765
24772SOL     OW76515   9.474   8.502   2.761 -0.1533 -0.1020  0.0940
24772SOL    HW176516   9.385   8.535   2.775 -0.5491 -1.1648  0.2170
24772SOL    HW276517   9.497   8.531   2.673 -0.9901 -0.5934 -0.3027
24773SOL     OW76518   1.281   2.027   5.534 -0.1061 -0.0093 -0.1810
24773SOL    HW176519   1.220   2.089   5.495 -0.6005  0.6823  1.5852
24773SOL    HW276520   1.246   1.941   5.511 -2.0943  0.3621  1.1676
24774SOL     OW76521   2.697   6.478   6.193  0.7710  0.0902 -0.5875
24774SOL    HW176522   2.671   6.464   6.101  1.2765 -0.8891 -0.5968
24774SOL    HW276523   2.692   6.573   6.205 -2.1823  0.0416 -0.7655
24775SOL     OW76524   2.326   6.294   3.408 -0.1187  0.5681  0.2344
24775SOL    HW176525   2.337   6.365   3.471  3.3292 -0.1100  0.6024
24775SOL    HW276526   2.307   6.339   3.326 -0.9279  1.7206  1.0190
24776SOL     OW76527   2.507   9.200   9.140 -0.8302 -0.8539 -0.0026
24776SOL    HW176528   2.592   9.243   9.134 -0.9588 -0.6701 -0.6345
24776SOL    HW276529   2.484   9.205   9.232 -0.9525  0.6832 -0.0876
24777SOL     OW76530   0.781   1.664   0.545 -0.2136 -0.4548  0.5722
24777SOL    HW176531   0.708   1.717   0.512  0.7150 -1.2735 -3.3401
24777SOL    HW276532   0.830   1.723   0.602 -1.1216  1.7890 -0.8518
24778SOL     OW76533   7.609   2.750   2.812 -0.2746  0.0823  0.2619
24778SOL    HW176534   7.606   2.655   2.804  1.7863 -0.0899  0.9202
24778SOL    HW276535   7.520   2.776   2.836 -1.1091 -1.5564 -0.9023
24779SOL     OW76536   4.384   7.956   2.477 -0.2768  0.2199 -0.1740
24779SOL    HW176537   4.302   8.003   2.465 -0.5428 -0.0314  0.6599
24779SOL    HW276538   4.441   7.989   2.406 -0.9648  0.6561 -0.5294
24780SOL     OW76539   1.174   4.761   9.184 -0.3368 -0.1469  0.2696
24780SOL    HW176540   1.095   4.709   9.167 -0.6798  0.1965  0.7825
24780SOL    HW276541   1.214   4.772   9.098 -2.2243  1.8382 -0.4492
24781SOL     OW76542   2.231   1.575   7.354 -0.3369 -0.0874  0.2924
24781SOL    HW176543   2.158   1.553   7.297 -0.0119  0.4222 -0.3283
24781SOL    HW276544   2.308   1.574   7.297  0.0238  0.2471  0.7603
24782SOL     OW76545   0.933   4.505   5.150  0.3214  0.1638  0.0652
24782SOL    HW176546   0.964   4.435   5.207 -0.7245  0.3500  0.8895
24782SOL    HW276547   1.004   4.568   5.148  0.5936 -0.1209  0.7025
24783SOL     OW76548   3.491   2.924   7.375 -0.9187 -0.6596  0.0621
24783SOL    HW176549   3.537   2.965   7.301  1.1048 -1.1477  0.9721
24783SOL    HW276550   3.463   2.998   7.429 -2.4692 -0.2958 -1.1756
24784SOL     OW76551   5.469   6.814   2.601 -0.6182  0.0237  0.0308
24784SOL    HW176552   5.541   6.845   2.655 -1.6347  0.3840  1.2277
24784SOL    HW276553   5.499   6.828   2.511  0.1111  1.8245  0.5000
24785SOL     OW76554   2.851   1.201   3.861 -0.2476 -1.1321  0.0634
24785SOL    HW176555   2.894   1.119   3.882  1.7030 -0.1023  0.2781
24785SOL    HW276556   2.906   1.242   3.795 -0.0477  0.8968  1.3906
24786SOL     OW76557   0.855   0.187   1.021  0.1353 -0.7918 -0.3760
24786SOL    HW176558   0.798   0.264   1.030  1.2981 -0.0165  0.8621
24786SOL    HW276559   0.854   0.167   0.928  0.0641  0.9594 -0.7912
24787SOL     OW76560   5.598   4.150   1.292 -0.0058  0.6103 -0.0700
24787SOL    HW176561   5.586   4.055   1.296 -2.6873  0.8918  2.2830
24787SOL    HW276562   5.662   4.169   1.361  1.5551  0.4821 -1.4212
24788SOL     OW76563   3.428   0.434   2.301 -0.5780 -0.0142  0.0490
24788SOL    HW176564   3.427   0.427   2.396 -1.2709 -1.0555 -0.0202
24788SOL    HW276565   3.353   0.383   2.272 -1.7341  2.1014 -0.9721
24789SOL     OW76566   3.600   4.824   7.429 -0.4508 -0.2519  0.5580
24789SOL    HW176567   3.678   4.843   7.482  0.6878 -0.3863 -0.9907
24789SOL    HW276568   3.619   4.864   7.344 -1.5633 -1.3053 -0.2223
24790SOL     OW76569   6.884   9.327   8.529  0.2569  0.4847  0.1250
24790SOL    HW176570   6.949   9.328   8.600 -0.5573  1.8734  0.9044
24790SOL    HW276571   6.930   9.368   8.456  1.1124 -0.9779 -0.2034
24791SOL     OW76572   1.364   8.889   7.843  0.3433 -0.5191  0.7257
24791SOL    HW176573   1.406   8.871   7.927  1.7156 -0.6023  0.0636
24791SOL    HW276574   1.273   8.910   7.864  1.4376  3.1854  2.6707
24792SOL     OW76575   5.223   6.944   3.423 -0.4613  0.0211  0.2531
24792SOL    HW176576   5.204   6.865   3.371  1.0544  0.8220 -1.6449
24792SOL    HW276577   5.137   6.978   3.446 -1.1844 -0.9793 -0.8130
24793SOL     OW76578   4.569   8.119   9.413  0.4982 -0.8357 -0.6352
24793SOL    HW176579   4.633   8.096   9.480 -1.6229 -0.5939  1.6157
24793SOL    HW276580   4.486   8.087   9.447 -0.9412  0.7902 -2.3799
24794SOL     OW76581   5.660   1.583   6.362  0.2873  0.6006 -0.2521
24794SOL    HW176582   5.649   1.514   6.297 -0.8383 -0.3377  0.8929
24794SOL    HW276583   5.638   1.663   6.315 -1.2247 -0.1319 -0.8622
24795SOL     OW76584   9.326   4.959   8.620 -0.3371 -0.0641  0.0858
24795SOL    HW176585   9.322   5.006   8.537  1.9610 -0.7459 -0.5039
24795SOL    HW276586   9.283   5.016   8.683  2.4570  3.0504 -0.5396
24796SOL     OW76587   3.700   1.449   5.401  0.5323 -0.3418  0.0565
24796SOL    HW176588   3.622   1.478   5.448  0.2997 -1.6641  0.5305
24796SOL    HW276589   3.668   1.428   5.313  0.4038 -0.6365  0.1736
24797SOL     OW76590   7.564   7.355   5.951  0.8058 -0.3033  0.1972
24797SOL    HW176591   7.587   7.361   5.858  2.3263 -1.6877  0.4221
24797SOL    HW276592   7.474   7.324   5.951  0.5910  0.2592 -0.8007
24798SOL     OW76593   1.462   1.345   0.279 -0.3204 -0.2056 -0.1985
24798SOL    HW176594   1.456   1.269   0.221  1.2282 -1.5599  1.3167
24798SOL    HW276595   1.404   1.325   0.352  0.9532 -0.5150  0.7700
24799SOL     OW76596   1.958   3.571   2.088  0.2123  0.0431  0.5052
24799SOL    HW176597   1.924   3.505   2.148 -1.1785 -0.7614 -1.0709
24799SOL    HW276598   1.936   3.654   2.129 -0.9998 -0.4845  0.9793
24800SOL     OW76599   8.941   2.765   6.258  0.6080  0.0644 -0.1427
24800SOL    HW176600   9.008   2.704   6.287  1.8253  0.5677 -1.6824
24800SOL    HW276601   8.895   2.719   6.188  1.0557  0.6203 -0.8196
24801SOL     OW76602   6.902   6.185   6.046  0.0327 -0.3789  0.5692
24801SOL    HW176603   6.868   6.129   6.116  0.1206 -1.4984 -0.2564
24801SOL    HW276604   6.841   6.171   5.973 -1.0257  2.0041  0.8692
24802SOL     OW76605   2.571   2.814   5.442  0.0460 -0.1472 -0.3967
24802SOL    HW176606   2.489   2.820   5.491  0.1149 -2.5027  0.1494
24802SOL    HW276607   2.639   2.813   5.510  0.4511  0.5108 -0.7828
24803SOL     OW76608   4.153   4.020   5.679  0.2444 -0.3712 -0.6169
24803SOL    HW176609   4.209   4.003   5.603  1.4574 -0.2386  0.2198
24803SOL    HW276610   4.207   4.073   5.738 -0.0137 -1.9392  1.1242
24804SOL     OW76611   0.501   8.475   5.518 -0.1485  0.5746  0.2261
24804SOL    HW176612   0.413   8.465   5.481 -0.7434  0.3462  1.6608
24804SOL    HW276613   0.546   8.394   5.494 -0.6901  0.2040  0.4395
24805SOL     OW76614   8.516   2.725   5.794  0.0113 -0.2458  0.4330
24805SOL    HW176615   8.486   2.676   5.870 -0.3061  1.4717  1.4804
24805SOL    HW276616   8.567   2.797   5.832  1.9746 -0.7317 -1.1082
24806SOL     OW76617   9.560   9.251   4.236 -0.1417 -0.1491  0.6470
24806SOL    HW176618   9.510   9.206   4.304 -0.9276 -0.4899 -0.1378
24806SOL    HW276619   9.518   9.336   4.227 -0.6607 -0.4745 -0.0855
24807SOL     OW76620   0.470   6.051   2.158 -0.5783  0.2231  0.3033
24807SOL    HW176621   0.485   6.116   2.090  0.0088  0.7776  0.9528
24807SOL    HW276622   0.557   6.020   2.182 -0.9064 -1.7285 -0.8617
24808SOL     OW76623   8.417   2.939   5.047  0.1366  0.3802 -0.6048
24808SOL    HW176624   8.499   2.895   5.069 -0.6581 -0.7529  0.1785
24808SOL    HW276625   8.350   2.872   5.059 -0.9910  1.5042 -0.4787
24809SOL     OW76626   0.868   3.013   7.705 -0.1678 -0.1937 -0.0607
24809SOL    HW176627   0.861   3.090   7.649  0.3149 -1.0689 -1.3647
24809SOL    HW276628   0.855   2.938   7.646 -1.4652 -1.1108  1.3185
24810SOL     OW76629   6.254   3.567   8.135  0.8694  0.7034  0.0170
24810SOL    HW176630   6.201   3.629   8.185  0.1978  1.2917 -1.3646
24810SOL    HW276631   6.343   3.602   8.141  0.6193  1.3685 -0.0843
24811SOL     OW76632   2.262   4.308   0.175 -0.7295 -0.1279 -0.0303
24811SOL    HW176633   2.247   4.228   0.125 -0.2866 -0.2509  0.0278
24811SOL    HW276634   2.238   4.378   0.115 -2.9487 -0.3259  0.5375
24812SOL     OW76635   5.696   8.811   6.181  0.2803 -0.1774 -0.2873
24812SOL    HW176636   5.757   8.817   6.255  0.1510 -3.6807  0.2872
24812SOL    HW276637   5.655   8.725   6.191 -0.0945 -0.6416 -4.1576
24813SOL     OW76638   7.156   2.315   0.145 -0.0881 -0.8080  0.6368
24813SOL    HW176639   7.084   2.324   0.082  0.9774 -1.5826 -0.7274
24813SOL    HW276640   7.123   2.250   0.208 -1.4507  0.5139  1.3590
24814SOL     OW76641   9.468   4.253   7.259 -0.0167 -0.0174  0.3797
24814SOL    HW176642   9.433   4.177   7.305  1.3712 -0.6764  0.4257
24814SOL    HW276643   9.403   4.273   7.192 -0.8264 -0.6841  0.9458
24815SOL     OW76644   7.836   0.667   7.093  0.3350  0.1500  0.2359
24815SOL    HW176645   7.768   0.630   7.037  0.2168  0.2051  0.3443
24815SOL    HW276646   7.795   0.676   7.179  0.8144 -0.8650  0.5808
24816SOL     OW76647   8.142   8.432   1.109 -0.3594 -0.4334 -0.2399
24816SOL    HW176648   8.107   8.495   1.045 -0.5329  1.0416  1.2423
24816SOL    HW276649   8.064   8.394   1.150 -0.2432 -0.3076  0.0964
24817SOL     OW76650   6.769   6.702   6.711  0.2699 -0.0113 -0.0077
24817SOL    HW176651   6.677   6.680   6.697 -0.1483  0.6922  1.3840
24817SOL    HW276652   6.791   6.659   6.793  1.1180  0.0110 -0.2225
24818SOL     OW76653   1.247   0.636   1.190  0.3733 -0.1724 -0.0717
24818SOL    HW176654   1.152   0.627   1.181  0.3733 -0.2663  0.0159
24818SOL    HW276655   1.265   0.611   1.281  0.6059 -1.1871 -0.3821
24819SOL     OW76656   0.408   4.059   4.458  0.0643  0.0224  0.2430
24819SOL    HW176657   0.359   3.991   4.503 -0.2200 -0.1764 -0.3577
24819SOL    HW276658   0.391   4.138   4.509  0.4834 -0.3731  1.0031
24820SOL     OW76659   0.432   9.110   1.631  1.1192 -0.6202  0.0229
24820SOL    HW176660   0.465   9.113   1.541  0.1876 -1.2978 -0.3548
24820SOL    HW276661   0.506   9.141   1.684  1.7939 -0.5199 -0.9347
24821SOL     OW76662   1.489   1.041   2.489  0.2677 -0.3653  0.3088
24821SOL    HW176663   1.535   1.029   2.572  0.7106  0.0937  0.1372
24821SOL    HW276664   1.404   1.078   2.514  1.0687  1.5084  0.4774
24822SOL     OW76665   2.546   2.921   3.836  0.4305 -0.1427  0.0772
24822SOL    HW176666   2.453   2.919   3.814  1.0822  0.2018 -3.3212
24822SOL    HW276667   2.557   3.003   3.884 -1.0934 -0.5826  1.2749
24823SOL     OW76668   1.723   6.659   3.448  0.0637  0.0457  0.4420
24823SOL    HW176669   1.660   6.590   3.471  0.2003 -0.0468  0.5417
24823SOL    HW276670   1.745   6.700   3.532  0.5809 -0.3053  0.4839
24824SOL     OW76671   4.069   2.459   2.574  0.2612  0.2236  0.1661
24824SOL    HW176672   4.050   2.438   2.665  0.3252 -3.5206 -0.5464
24824SOL    HW276673   4.160   2.489   2.574  0.7123 -1.1005  1.1886
24825SOL     OW76674   2.119   4.841   4.526 -0.2874 -0.2745  0.0254
24825SOL    HW176675   2.124   4.914   4.588 -0.8035 -3.0271  3.6538
24825SOL    HW276676   2.025   4.822   4.519 -0.3021  0.3693 -2.2572
24826SOL     OW76677   8.593   1.946   7.476  0.1700  0.6376  0.1199
24826SOL    HW176678   8.622   1.855   7.481  0.3429  0.7076  0.4729
24826SOL    HW276679   8.662   1.990   7.427 -0.7008  0.2733 -1.4872
24827SOL     OW76680   8.623   8.958   8.909 -0.1828  0.6356  0.1663
24827SOL    HW176681   8.677   8.912   8.844 -1.5697 -3.6961  1.7085
24827SOL    HW276682   8.678   8.960   8.988 -0.5114  0.7327  0.3947
24828SOL     OW76683   2.822   4.714   3.481  0.3905 -0.0760 -0.2579
24828SOL    HW176684   2.793   4.804   3.470 -1.2833 -0.4293  0.7535
24828SOL    HW276685   2.807   4.673   3.395  0.0611  0.3435 -0.4037
24829SOL     OW76686   7.736   8.576   9.461 -0.3053  0.6659 -0.7026
24829SOL    HW176687   7.659   8.528   9.492  0.4268 -0.1905 -0.1582
24829SOL    HW276688   7.732   8.660   9.507 -0.2578  0.1409  0.2954
24830SOL     OW76689   3.182   3.136   7.680  0.3470 -0.0443  0.3930
24830SOL    HW176690   3.184   3.058   7.736  0.2363  0.0142  0.4788
24830SOL    HW276691   3.092   3.166   7.685  0.2957 -0.1403  0.0431
24831SOL     OW76692   3.322   1.097   2.978  0.4716  0.1193 -0.9034
24831SOL    HW176693   3.298   1.051   3.059 -0.7965  0.7591 -0.8862
24831SOL    HW276694   3.239   1.127   2.942  1.1810  1.6944 -1.3277
24832SOL     OW76695   6.125   0.820   4.166  0.0980  0.0820  0.0308
24832SOL    HW176696   6.162   0.882   4.102  1.8093 -0.3187  0.5804
24832SOL    HW276697   6.069   0.763   4.114 -0.8341  1.5280 -0.6305
24833SOL     OW76698   6.372   4.994   6.581 -0.2640 -0.6393  0.3133
24833SOL    HW176699   6.434   4.937   6.536 -0.4996  0.3324 -1.3485
24833SOL    HW276700   6.416   5.018   6.663  0.7938 -1.3717 -0.0229
24834SOL     OW76701   2.027   1.465   4.697 -0.1845  0.0079 -0.0982
24834SOL    HW176702   1.957   1.455   4.762 -1.0296 -1.0257 -1.1231
24834SOL    HW276703   2.070   1.547   4.720 -0.3870 -0.3903  1.8231
24835SOL     OW76704   1.495   3.976   3.990 -0.3268  0.9221  0.0625
24835SOL    HW176705   1.468   3.907   4.050  0.5886  1.4065  1.0552
24835SOL    HW276706   1.478   3.940   3.903 -0.0634 -0.4790  0.5695
24836SOL     OW76707   8.462   5.010   6.108 -0.1069  0.0588 -0.4941
24836SOL    HW176708   8.450   5.012   6.203 -0.6073 -1.9850 -0.4615
24836SOL    HW276709   8.394   5.069   6.074 -0.8340 -0.2498  0.3767
24837SOL     OW76710   0.580   1.008   4.001 -0.3819  0.2654 -0.3280
24837SOL    HW176711   0.526   0.957   4.061 -0.3354 -0.9353 -1.2869
24837SOL    HW276712   0.665   0.964   4.001  0.2792  1.4691  0.2811
24838SOL     OW76713   4.697   9.023   2.806  0.4313 -0.3528 -0.1503
24838SOL    HW176714   4.746   9.062   2.734  1.9383 -0.8401  0.5676
24838SOL    HW276715   4.631   9.089   2.828  2.4726  1.5747  0.6083
24839SOL     OW76716   2.938   9.201   6.886 -0.7514 -0.3188 -0.7016
24839SOL    HW176717   2.844   9.214   6.877 -1.0654 -1.2414  0.8849
24839SOL    HW276718   2.950   9.106   6.880  0.1185 -0.1923 -1.1317
24840SOL     OW76719   8.978   6.598   6.478 -0.9144 -0.0468  0.1109
24840SOL    HW176720   9.021   6.634   6.400 -0.6956 -2.1947 -0.8296
24840SOL    HW276721   8.891   6.638   6.477 -0.9871 -0.1680 -1.3901
24841SOL     OW76722   2.312   8.499   5.426  0.1048  0.2279 -0.0114
24841SOL    HW176723   2.377   8.430   5.409  1.6574  1.9585 -1.5230
24841SOL    HW276724   2.296   8.537   5.340 -1.6903  0.9412  0.6090
24842SOL     OW76725   2.446   8.609   7.139  0.4407  0.0822  0.1261
24842SOL    HW176726   2.393   8.530   7.132 -0.3430  0.5820  0.2113
24842SOL    HW276727   2.532   8.585   7.105 -0.2505 -0.3587 -1.3823
24843SOL     OW76728   8.202   9.013   1.337  0.3412  0.4412 -0.0817
24843SOL    HW176729   8.171   9.053   1.418  2.0387 -0.6419  1.1868
24843SOL    HW276730   8.152   8.931   1.330  0.3111  0.4565 -0.0416
24844SOL     OW76731   6.399   7.181   6.684 -0.5297 -0.2149 -0.1268
24844SOL    HW176732   6.328   7.168   6.747 -0.0786  0.1159  0.4610
24844SOL    HW276733   6.459   7.242   6.728 -0.4989  0.4705 -1.1153
24845SOL     OW76734   2.530   2.395   9.028  0.0520 -0.6853 -0.0249
24845SOL    HW176735   2.574   2.453   8.965 -1.3503 -1.8743 -2.2514
24845SOL    HW276736   2.574   2.310   9.017 -0.3675 -0.9661  0.4344
24846SOL     OW76737   1.767   1.171   6.640  0.2915  0.6353 -0.1114
24846SOL    HW176738   1.689   1.118   6.624  1.3831 -1.0133 -0.1905
24846SOL    HW276739   1.755   1.248   6.585 -0.3363 -0.5554 -1.7317
24847SOL     OW76740   5.324   4.335   8.963 -0.0222  0.1132 -0.0540
24847SOL    HW176741   5.248   4.389   8.941 -0.2202 -0.1414  0.0037
24847SOL    HW276742   5.363   4.379   9.039 -1.6077 -1.1570  1.5816
24848SOL     OW76743   6.295   3.885   0.443  0.6078  0.3825 -0.5638
24848SOL    HW176744   6.315   3.934   0.523 -0.2208  1.0616 -0.7635
24848SOL    HW276745   6.216   3.926   0.408  0.8685 -0.0070 -1.6558
24849SOL     OW76746   6.921   2.608   7.988 -0.2998  0.0737 -0.5027
24849SOL    HW176747   6.857   2.679   7.986 -0.0614  0.2803 -1.4224
24849SOL    HW276748   6.868   2.528   7.995 -0.5189  0.3707  2.1455
24850SOL     OW76749   1.705   2.795   6.793  0.0545 -0.0558  0.6323
24850SOL    HW176750   1.649   2.839   6.729 -1.3158  0.2497  1.9789
24850SOL    HW276751   1.659   2.712   6.810  0.6672 -0.3486  0.8588
24851SOL     OW76752   4.198   6.456   1.241  0.1455 -0.2121 -0.2666
24851SOL    HW176753   4.145   6.403   1.300 -1.7122 -0.7094 -2.2211
24851SOL    HW276754   4.288   6.436   1.264 -0.4975 -2.5356  0.5273
24852SOL     OW76755   2.941   9.358   0.306  0.1837  0.0196 -0.1433
24852SOL    HW176756   2.901   9.288   0.254  0.2536  0.3372 -0.6275
24852SOL    HW276757   2.868   9.409   0.339  0.0414 -1.0789  1.3887
24853SOL     OW76758   9.317   1.532   7.648 -1.0421  0.2306  0.1845
24853SOL    HW176759   9.292   1.461   7.589 -3.5769  0.0400  1.3565
24853SOL    HW276760   9.294   1.612   7.600 -1.2061  0.1449  0.1185
24854SOL     OW76761   1.142   9.001   5.329  0.1130  0.3650  0.0234
24854SOL    HW176762   1.191   9.063   5.384  1.3380 -0.7142  0.2077
24854SOL    HW276763   1.176   8.915   5.355 -2.4368 -0.5222  0.6752
24855SOL     OW76764   4.280   4.315   8.757 -0.0054 -0.0701  0.1394
24855SOL    HW176765   4.363   4.334   8.802 -0.3482  0.2484  0.6527
24855SOL    HW276766   4.239   4.401   8.746 -0.5860 -0.2925  0.5159
24856SOL     OW76767   0.645   2.386   6.946  0.0715 -0.4215 -0.3245
24856SOL    HW176768   0.730   2.357   6.914  0.1190 -0.4378 -0.1856
24856SOL    HW276769   0.654   2.481   6.955  1.0555 -0.6795  2.4691
24857SOL     OW76770   3.561   4.061   2.450  0.4086  0.1045 -0.0176
24857SOL    HW176771   3.647   4.027   2.425  1.6911  2.6954  0.5579
24857SOL    HW276772   3.554   4.041   2.543  0.9366  0.9183  0.2058
24858SOL     OW76773   6.168   4.774   1.208  0.7517  0.3750 -0.4128
24858SOL    HW176774   6.073   4.769   1.222  0.9651 -0.0845  1.0941
24858SOL    HW276775   6.205   4.724   1.281  2.1814  1.2215 -0.5240
24859SOL     OW76776   8.440   7.804   7.262  0.0333  0.7964 -0.3964
24859SOL    HW176777   8.460   7.892   7.294 -3.5996  0.4599  3.7530
24859SOL    HW276778   8.376   7.818   7.192 -1.5131  1.5367  1.1118
24860SOL     OW76779   9.032   3.854   4.706 -0.3470  0.4366  0.4621
24860SOL    HW176780   9.058   3.890   4.622  2.5651  0.1156  1.1117
24860SOL    HW276781   8.958   3.797   4.686  0.5805 -0.0167 -1.9752
24861SOL     OW76782   8.234   6.063   0.414 -0.4040 -0.1227 -0.6538
24861SOL    HW176783   8.322   6.081   0.381 -0.1708 -0.4585 -0.2217
24861SOL    HW276784   8.240   6.083   0.507 -0.7892 -0.1482 -0.6251
24862SOL     OW76785   0.814   5.163   3.359 -0.5055 -0.9758 -0.1016
24862SOL    HW176786   0.799   5.069   3.350 -0.5225 -0.9398 -0.4635
24862SOL    HW276787   0.847   5.190   3.273  0.5342 -0.8431  0.3209
24863SOL     OW76788   5.702   8.785   6.937 -0.0626  0.2928  0.0321
24863SOL    HW176789   5.647   8.861   6.954 -0.9872 -0.0120 -1.4052
24863SOL    HW276790   5.682   8.760   6.847  1.6051 -0.5360 -0.1585
24864SOL     OW76791   1.447   5.702   2.557  0.2633  0.0933  0.1170
24864SOL    HW176792   1.457   5.736   2.646 -1.5633 -0.7322  0.6879
24864SOL    HW276793   1.383   5.761   2.516  1.0462  0.4308 -0.6440
24865SOL     OW76794   8.642   3.253   1.801 -0.2294 -0.0999  0.8018
24865SOL    HW176795   8.625   3.171   1.847 -0.6334 -0.0286  0.7864
24865SOL    HW276796   8.615   3.236   1.711  4.3636 -1.6254 -0.5703
24866SOL     OW76797   2.908   5.258   1.157  0.0694 -0.0899 -0.3669
24866SOL    HW176798   2.990   5.299   1.130  0.2738 -0.0043  0.3732
24866SOL    HW276799   2.876   5.313   1.228  0.1495 -0.9846  0.3697
24867SOL     OW76800   8.624   4.180   6.002 -0.2447  0.1382  0.5458
24867SOL    HW176801   8.539   4.159   6.041 -0.3000 -0.1325  0.2813
24867SOL    HW276802   8.649   4.101   5.955 -0.1046  0.4098  0.1630
24868SOL     OW76803   5.789   7.208   4.928 -0.1521 -0.2364  0.0052
24868SOL    HW176804   5.737   7.143   4.881 -0.4555 -0.1858  0.2685
24868SOL    HW276805   5.726   7.253   4.984  0.2284 -0.4235  0.5984
24869SOL     OW76806   1.659   9.148   6.032  0.0412  0.1095 -0.3317
24869SOL    HW176807   1.621   9.093   5.964  0.5822 -1.0358  0.2758
24869SOL    HW276808   1.594   9.149   6.102 -0.6272  1.4944 -0.9421
24870SOL     OW76809   1.801   7.440   6.366  0.0303  0.4285  0.0912
24870SOL    HW176810   1.806   7.440   6.270  0.5351  0.6797  0.1167
24870SOL    HW276811   1.875   7.494   6.394 -0.3582  0.6926  0.6138
24871SOL     OW76812   8.911   3.273   1.903 -0.0536 -0.1118  0.2777
24871SOL    HW176813   8.826   3.257   1.860  0.2855  2.4268 -1.6044
24871SOL    HW276814   8.888   3.306   1.990 -1.2326  2.4511 -0.8646
24872SOL     OW76815   8.438   5.916   2.194  0.2874 -0.3578  0.0308
24872SOL    HW176816   8.375   5.855   2.156  0.9251 -0.9189 -0.1656
24872SOL    HW276817   8.405   6.003   2.172 -0.9475 -0.6117  0.8287
24873SOL     OW76818   6.653   1.896   8.593  0.1439 -0.2443 -0.1528
24873SOL    HW176819   6.611   1.964   8.539 -1.0985 -0.2358  0.7754
24873SOL    HW276820   6.703   1.844   8.530  0.3565  0.9495 -1.0233
24874SOL     OW76821   7.522   4.273   3.626  0.2196  0.4399  0.2222
24874SOL    HW176822   7.454   4.206   3.632 -0.2479  1.0536  3.0491
24874SOL    HW276823   7.536   4.284   3.532 -2.6334 -0.6739 -0.4403
24875SOL     OW76824   7.660   0.207   5.563 -0.3430  0.3439  0.5067
24875SOL    HW176825   7.666   0.228   5.470 -1.0348 -2.7814 -0.3355
24875SOL    HW276826   7.751   0.197   5.591 -0.1474 -2.0587 -0.7590
24876SOL     OW76827   1.755   2.379   7.541  0.1825  0.9142  0.3866
24876SOL    HW176828   1.752   2.471   7.568 -1.4245  1.3186 -0.9781
24876SOL    HW276829   1.797   2.381   7.455  1.0166  0.2374  0.7661
24877SOL     OW76830   0.589   3.016   8.545  0.1493 -0.2353  0.2125
24877SOL    HW176831   0.534   2.976   8.612  0.1341 -1.9974 -0.7781
24877SOL    HW276832   0.653   3.067   8.594 -1.3892  0.5920  1.4391
24878SOL     OW76833   5.734   1.755   2.777 -0.1721 -0.2843 -0.5100
24878SOL    HW176834   5.730   1.660   2.768  0.5325 -0.3914  0.1699
24878SOL    HW276835   5.770   1.786   2.694 -0.2486 -0.6223 -0.6728
24879SOL     OW76836   0.010   0.318   8.733  0.3120  0.5396  0.5613
24879SOL    HW176837   0.090   0.318   8.785  1.6848  0.1295 -1.4137
24879SOL    HW276838  -0.026   0.406   8.743  0.3346  0.3597  2.4319
24880SOL     OW76839   2.911   3.133   7.705 -0.5219  0.4500  0.2305
24880SOL    HW176840   2.872   3.045   7.703  0.2656  0.0945  0.2432
24880SOL    HW276841   2.901   3.165   7.616  0.4187 -0.2183 -0.1420
24881SOL     OW76842   3.094   1.020   4.452 -1.0959 -0.3422 -0.0866
24881SOL    HW176843   3.028   1.064   4.400 -0.3805  1.9186  0.8033
24881SOL    HW276844   3.047   0.986   4.528 -1.1512  2.3820  1.2092
24882SOL     OW76845   6.028   6.051   8.318  0.2880  0.6319 -0.1254
24882SOL    HW176846   5.972   5.980   8.288  1.5410 -0.0703 -0.8581
24882SOL    HW276847   6.041   6.034   8.411 -1.0469  1.0614  0.1704
24883SOL     OW76848   8.990   7.641   5.888  0.4742 -0.1349 -1.0090
24883SOL    HW176849   9.053   7.635   5.960  0.7722  1.2940 -1.1301
24883SOL    HW276850   8.907   7.662   5.931  0.4991 -0.0009 -1.0285
24884SOL     OW76851   4.102   0.243   4.993  0.5762  0.1936 -0.4471
24884SOL    HW176852   4.197   0.240   4.983  0.3612 -3.5764 -4.2372
24884SOL    HW276853   4.075   0.319   4.942  1.4708  1.2928  0.6473
24885SOL     OW76854   0.656   4.343   6.848  0.4808 -0.1374 -0.0933
24885SOL    HW176855   0.579   4.311   6.800  0.6935 -0.6735 -0.0876
24885SOL    HW276856   0.703   4.398   6.786  0.7260 -0.7799 -0.4857
24886SOL     OW76857   5.567   1.735   3.478 -0.0389  0.0958 -0.4912
24886SOL    HW176858   5.546   1.812   3.531 -1.4356 -0.8662  0.4365
24886SOL    HW276859   5.484   1.713   3.436  0.2830 -1.0275 -0.5621
24887SOL     OW76860   7.291   1.421   7.986  0.3338 -0.4117 -0.2016
24887SOL    HW176861   7.375   1.409   8.030  0.4389 -0.3742 -0.3907
24887SOL    HW276862   7.295   1.360   7.912 -0.4123 -1.5306  0.6445
24888SOL     OW76863   2.578   0.506   7.003 -0.1025 -0.4932  0.1717
24888SOL    HW176864   2.568   0.419   6.965 -1.8282 -0.0296 -0.5322
24888SOL    HW276865   2.594   0.564   6.928  0.4288 -0.1082  0.5693
24889SOL     OW76866   2.198   3.178   0.949 -0.0533 -0.6322  0.5883
24889SOL    HW176867   2.171   3.086   0.947 -0.1576 -0.6103  0.9521
24889SOL    HW276868   2.239   3.193   0.863 -1.1373 -0.6760  0.0482
24890SOL     OW76869   7.212   7.218   8.079  0.0895 -0.1694 -0.1826
24890SOL    HW176870   7.203   7.232   8.173  0.9885  2.7410 -0.4338
24890SOL    HW276871   7.176   7.297   8.039  0.1795 -1.1155 -2.2836
24891SOL     OW76872   2.308   0.701   7.162 -0.8090 -0.1613 -0.1091
24891SOL    HW176873   2.218   0.705   7.193 -0.9455  1.1416 -0.6398
24891SOL    HW276874   2.309   0.628   7.099 -2.3735  1.9555 -2.7684
24892SOL     OW76875   2.966   8.414   2.834  0.5374 -0.6210  0.4156
24892SOL    HW176876   2.919   8.422   2.917  0.1679  0.1863  0.1301
24892SOL    HW276877   2.997   8.502   2.814  1.0300 -0.8952 -0.0775
24893SOL     OW76878   5.230   9.308   6.865 -0.2755  0.1554 -0.4821
24893SOL    HW176879   5.308   9.308   6.809 -0.9383  0.3469 -1.4375
24893SOL    HW276880   5.158   9.326   6.805 -1.1126 -0.4508  0.3125
24894SOL     OW76881   5.504   2.043   9.096  0.1349 -0.2737  0.2974
24894SOL    HW176882   5.582   2.048   9.040 -0.8894  0.1460 -1.1355
24894SOL    HW276883   5.488   1.949   9.105 -0.2170 -0.3408 -0.9014
24895SOL     OW76884   0.855   0.715   1.407  0.1317  0.6504 -0.7741
24895SOL    HW176885   0.922   0.665   1.455 -0.3084  0.8452  0.0588
24895SOL    HW276886   0.799   0.648   1.368 -1.3845  0.3985  1.6179
24896SOL     OW76887   0.480   8.020   8.063 -0.5735 -0.5317 -0.0575
24896SOL    HW176888   0.422   8.086   8.101 -0.0879  0.0991 -0.3966
24896SOL    HW276889   0.445   7.936   8.095 -1.4890 -0.1459 -0.0217
24897SOL     OW76890   3.030   4.926   1.506 -0.4474 -0.0194 -0.4268
24897SOL    HW176891   3.011   4.955   1.417  0.1631 -1.1092 -0.9241
24897SOL    HW276892   3.125   4.910   1.506 -0.3744  0.3464  0.5355
24898SOL     OW76893   5.843   8.791   2.575  0.4726  0.1483 -0.8038
24898SOL    HW176894   5.784   8.862   2.550  0.2381  0.0616 -0.5020
24898SOL    HW276895   5.871   8.813   2.664 -0.5775 -0.7666 -0.2247
24899SOL     OW76896   8.093   9.357   7.817 -0.6260  0.1826  0.3103
24899SOL    HW176897   8.140   9.288   7.863 -0.2729  0.2117 -0.0047
24899SOL    HW276898   8.007   9.320   7.799 -0.2426 -0.3901 -0.3739
24900SOL     OW76899   8.584   0.073   1.882 -0.2167  0.0960  0.0166
24900SOL    HW176900   8.559  -0.015   1.909 -1.9203  0.5140 -0.0622
24900SOL    HW276901   8.641   0.105   1.952 -0.0531 -0.8488  0.3243
24901SOL     OW76902   8.683   4.506   0.409  0.9990  0.0060  0.1700
24901SOL    HW176903   8.736   4.525   0.486  0.8655 -1.5313  0.6767
24901SOL    HW276904   8.717   4.423   0.376  0.2626  0.0350 -0.7106
24902SOL     OW76905   5.844   5.530   8.088  0.2401  0.0380 -0.2071
24902SOL    HW176906   5.896   5.451   8.098  1.9820  1.2189  0.4782
24902SOL    HW276907   5.883   5.575   8.012  1.9051  2.0971  1.7291
24903SOL     OW76908   2.990   7.879   4.452  0.5877  0.2780  0.6601
24903SOL    HW176909   3.072   7.914   4.487 -1.0254  2.6656  2.3287
24903SOL    HW276910   2.958   7.947   4.393 -0.8559 -0.0184  1.0760
24904SOL     OW76911   3.115   2.097   4.488  0.3745 -0.0912  0.0312
24904SOL    HW176912   3.109   2.134   4.400  1.2068  0.6210  0.2653
24904SOL    HW276913   3.167   2.159   4.537  0.2934 -0.7047  0.9213
24905SOL     OW76914   2.176   3.890   4.198  0.0767  0.1097 -0.4890
24905SOL    HW176915   2.157   3.923   4.110 -1.3969  0.4146 -0.0902
24905SOL    HW276916   2.168   3.795   4.189 -2.7910  0.2431 -0.1642
24906SOL     OW76917   6.765   8.594   6.348 -0.2806 -0.0801 -0.6108
24906SOL    HW176918   6.680   8.571   6.310 -0.1917 -0.8175 -0.3665
24906SOL    HW276919   6.743   8.639   6.429 -0.4750  1.5518 -1.5143
24907SOL     OW76920   5.230   2.823   1.224  0.4754 -0.1700  0.3201
24907SOL    HW176921   5.140   2.822   1.190 -0.0605  2.6435  1.3123
24907SOL    HW276922   5.241   2.738   1.267 -1.5900 -0.7173 -0.1186
24908SOL     OW76923   3.793   7.037   1.122 -0.9953 -0.2291  0.3755
24908SOL    HW176924   3.762   7.126   1.106  1.0459  0.2027 -1.7325
24908SOL    HW276925   3.730   6.981   1.077 -0.7584  0.3617 -0.7125
24909SOL     OW76926   7.217   3.914   5.269  0.4024 -0.3943  1.0383
24909SOL    HW176927   7.133   3.937   5.309  0.3843 -0.9009  1.3066
24909SOL    HW276928   7.245   3.993   5.224 -0.6235 -0.4526  0.2307
24910SOL     OW76929   5.733   5.000   0.108  0.1893 -0.5448  0.3518
24910SOL    HW176930   5.760   4.909   0.096 -1.4464 -1.0465  0.2730
24910SOL    HW276931   5.644   4.994   0.142  0.2589  1.0326  0.8923
24911SOL     OW76932   2.966   1.984   5.011  0.0097  0.2495 -0.3648
24911SOL    HW176933   3.040   1.978   5.070  0.2808  0.8803 -0.6338
24911SOL    HW276934   2.889   1.969   5.067  0.3346 -0.3977 -0.0888
24912SOL     OW76935   8.188   5.254   3.039  0.1861 -0.4484  0.6244
24912SOL    HW176936   8.231   5.170   3.024 -1.2361 -1.1614  0.2951
24912SOL    HW276937   8.097   5.231   3.059  0.0482  0.9520  1.7792
24913SOL     OW76938   8.112   2.547   7.324 -0.9123  0.0423 -0.0140
24913SOL    HW176939   8.040   2.489   7.300  0.1901 -0.9882 -0.9623
24913SOL    HW276940   8.095   2.628   7.277 -2.4235  0.5022  1.2449
24914SOL     OW76941   3.927   4.888   7.422 -0.9501 -0.6337  0.3334
24914SOL    HW176942   3.867   4.957   7.394  1.5948  0.6405 -2.6002
24914SOL    HW276943   3.930   4.827   7.348  0.4464 -1.2720  0.8852
24915SOL     OW76944   8.786   8.256   7.555 -0.4149 -0.0796  0.4613
24915SOL    HW176945   8.751   8.335   7.513 -0.6090 -0.8254 -0.8109
24915SOL    HW276946   8.777   8.274   7.649 -2.1390  0.6824  0.2042
24916SOL     OW76947   7.876   5.375   8.217  0.4096 -0.3696 -0.4005
24916SOL    HW176948   7.797   5.396   8.266  0.3432  1.0656 -1.0742
24916SOL    HW276949   7.927   5.457   8.217  0.5685 -0.4185 -2.3853
24917SOL     OW76950   7.253   4.234   3.411  0.2385 -0.4586 -0.2999
24917SOL    HW176951   7.272   4.308   3.353 -0.1952  1.8303  2.2534
24917SOL    HW276952   7.304   4.161   3.376  1.3287  1.2515 -2.4924
24918SOL     OW76953   1.311   3.740   5.678 -0.0458  0.1038  0.0949
24918SOL    HW176954   1.319   3.668   5.616 -1.2012 -0.4035  0.4915
24918SOL    HW276955   1.369   3.716   5.750  0.1960 -0.0273 -0.1433
24919SOL     OW76956   7.399   1.757   7.819  0.2721 -0.4962 -0.0097
24919SOL    HW176957   7.471   1.819   7.807  0.3335 -0.3774  0.9090
24919SOL    HW276958   7.434   1.690   7.878  0.0690 -1.1776 -0.6535
24920SOL     OW76959   7.742   7.163   0.999 -0.1124  0.1632  0.0008
24920SOL    HW176960   7.787   7.080   0.981  0.1888  0.1601  0.7303
24920SOL    HW276961   7.652   7.138   1.021 -0.1266  0.0651 -0.1684
24921SOL     OW76962   6.457   8.497   1.721 -0.5701 -0.8678 -0.0165
24921SOL    HW176963   6.526   8.441   1.686 -1.0918 -1.9687  0.6511
24921SOL    HW276964   6.381   8.479   1.666 -0.9171 -1.3211  0.5930
24922SOL     OW76965   1.334   1.871   6.443  0.7514 -0.1405  0.1647
24922SOL    HW176966   1.262   1.881   6.381  1.0079  1.0115  0.0314
24922SOL    HW276967   1.380   1.792   6.413 -1.1517 -1.6475  0.9970
24923SOL     OW76968   6.048   3.926   4.054 -0.0477 -0.2948  0.1135
24923SOL    HW176969   5.978   3.972   4.100 -0.0116 -0.5059  0.3830
24923SOL    HW276970   6.111   3.993   4.031  0.4298 -0.3210  1.2645
24924SOL     OW76971   0.263   4.905   4.858 -0.6455  0.8082  0.2979
24924SOL    HW176972   0.258   4.815   4.890  0.3199  0.9080  0.7650
24924SOL    HW276973   0.199   4.953   4.911 -0.6026  0.5494  0.5833
24925SOL     OW76974   9.321   3.958   3.888  0.9290 -0.1870  0.8254
24925SOL    HW176975   9.402   4.004   3.912  1.2642 -0.0818 -0.4543
24925SOL    HW276976   9.302   3.988   3.799  0.4316 -1.5487  0.4561
24926SOL     OW76977   4.244   5.259   6.458 -0.7436 -0.2914  0.2093
24926SOL    HW176978   4.226   5.292   6.370  0.8458  0.4640  0.1262
24926SOL    HW276979   4.339   5.247   6.459 -0.7086 -0.0610  1.8892
24927SOL     OW76980   0.446   3.099   3.675 -0.5275  0.1175 -0.2129
24927SOL    HW176981   0.400   3.068   3.597 -1.3613  0.6837  0.0462
24927SOL    HW276982   0.387   3.163   3.715 -0.3561 -0.5708  1.2048
24928SOL     OW76983   4.141   3.992   1.138  0.0709  0.0658  0.2377
24928SOL    HW176984   4.082   4.003   1.064  1.4628 -0.0373 -0.9449
24928SOL    HW276985   4.121   4.065   1.197 -0.6671  0.4797 -0.5140
24929SOL     OW76986   6.442   2.216   7.979  0.4525  0.2933  0.3443
24929SOL    HW176987   6.526   2.193   7.938  0.0414 -2.2285  0.7884
24929SOL    HW276988   6.419   2.300   7.940  2.0875 -0.0506 -1.5033
24930SOL     OW76989   2.137   0.925   5.604 -0.0973 -0.2627 -0.3852
24930SOL    HW176990   2.204   0.888   5.547  0.7936 -0.2532  0.6164
24930SOL    HW276991   2.139   1.019   5.586 -0.0117 -0.2942 -0.5421
24931SOL     OW76992   0.667   7.696   7.869  0.1469 -0.1815  0.4941
24931SOL    HW176993   0.753   7.705   7.829  1.0492  0.4000  2.4801
24931SOL    HW276994   0.636   7.610   7.839  1.6447 -0.6419  0.1958
24932SOL     OW76995   1.908   3.835   2.213  0.2499 -0.1766 -0.2794
24932SOL    HW176996   1.843   3.845   2.282 -0.0835  0.2252 -0.6445
24932SOL    HW276997   1.857   3.836   2.132  0.7002  0.0104 -0.5648
24933SOL     OW76998   6.661   3.946   1.075 -0.5409 -0.4979  0.2590
24933SOL    HW176999   6.756   3.954   1.073 -0.5089 -0.9049  0.0817
24933SOL    HW277000   6.645   3.864   1.122 -0.7451 -1.5289 -1.5218
24934SOL     OW77001   2.559   5.092   4.896 -0.4337  0.2723  0.7904
24934SOL    HW177002   2.487   5.103   4.834 -0.1254  1.8248  0.6477
24934SOL    HW277003   2.638   5.098   4.841 -0.1765  0.4073  1.1746
24935SOL     OW77004   7.716   4.905   5.431  0.0545  0.2921 -0.1412
24935SOL    HW177005   7.721   4.993   5.468  0.6273 -0.1024  0.7570
24935SOL    HW277006   7.726   4.847   5.506 -0.0296 -0.5428 -0.7592
24936SOL     OW77007   4.398   3.024   1.963 -0.2821  0.1941  0.2117
24936SOL    HW177008   4.304   3.008   1.955  0.1162 -2.2711 -0.5768
24936SOL    HW277009   4.421   3.073   1.884 -0.6160 -1.1073 -0.7401
24937SOL     OW77010   3.812   8.929   6.089  0.4861  0.4055  0.2663
24937SOL    HW177011   3.850   8.869   6.153 -0.5231  0.7432  1.2045
24937SOL    HW277012   3.734   8.884   6.057  2.2653 -0.9325 -2.7105
24938SOL     OW77013   8.331   5.622   0.789  0.6432 -0.6290 -0.1264
24938SOL    HW177014   8.402   5.559   0.805  0.5799 -0.8028 -0.5023
24938SOL    HW277015   8.274   5.613   0.864  1.4432  0.1091  0.5910
24939SOL     OW77016   5.575   2.631   1.254 -0.1804 -0.3790 -0.0671
24939SOL    HW177017   5.620   2.611   1.172  0.3487  0.1864  0.0844
24939SOL    HW277018   5.622   2.579   1.320 -1.0422 -1.3851 -0.2104
24940SOL     OW77019   1.173   4.654   3.400 -0.6654  0.2703  0.4363
24940SOL    HW177020   1.133   4.668   3.486  0.0538 -0.2847  0.8771
24940SOL    HW277021   1.261   4.689   3.408 -0.6236  0.3078 -0.1147
24941SOL     OW77022   3.544   9.225   4.663 -0.2283  0.3459 -0.6004
24941SOL    HW177023   3.449   9.239   4.665 -0.3683 -0.6567  0.4861
24941SOL    HW277024   3.554   9.130   4.657  0.6904  0.1426  2.5284
24942SOL     OW77025   2.580   3.065   5.285  0.3029  0.2432 -0.0090
24942SOL    HW177026   2.659   3.093   5.331  0.0089  1.8907 -0.4293
24942SOL    HW277027   2.549   2.989   5.334  0.6951  1.1717  1.7790
24943SOL     OW77028   7.052   1.750   1.247 -0.0172 -0.7868  0.3222
24943SOL    HW177029   7.130   1.805   1.242 -0.5830 -0.0733 -1.3143
24943SOL    HW277030   6.988   1.803   1.294 -0.0361 -0.7099  0.2101
24944SOL     OW77031   3.497   2.023   7.752 -0.3853  0.3814  0.1304
24944SOL    HW177032   3.560   2.055   7.817 -0.0969 -1.1882  0.6521
24944SOL    HW277033   3.429   2.091   7.751 -0.5956  0.2997  2.3584
24945SOL     OW77034   6.769   5.819   7.982 -0.4281 -0.0436 -0.0479
24945SOL    HW177035   6.674   5.812   7.994 -0.1630 -1.9108  1.4268
24945SOL    HW277036   6.805   5.797   8.068  1.3720  0.3098 -0.6708
24946SOL     OW77037   0.967   2.802   2.004  0.0817  0.2446  0.4266
24946SOL    HW177038   0.949   2.782   2.096  0.7090  0.5366  0.6206
24946SOL    HW277039   1.001   2.720   1.967  1.6630  0.6282  0.9558
24947SOL     OW77040   0.187   1.018   2.643 -0.7132 -0.1791  0.0823
24947SOL    HW177041   0.173   0.946   2.581  1.9888 -0.4301 -0.3635
24947SOL    HW277042   0.254   1.072   2.603 -2.4396  2.5193  0.5593
24948SOL     OW77043   8.076   6.671   7.404 -0.6551  0.1663 -0.2619
24948SOL    HW177044   8.024   6.603   7.446  0.6192  0.3427  1.7482
24948SOL    HW277045   8.029   6.752   7.422 -0.6508  0.1232 -0.0492
24949SOL     OW77046   1.140   4.117   5.391 -0.1105  0.2222 -0.1924
24949SOL    HW177047   1.172   4.136   5.480 -0.7882 -0.8424  0.2909
24949SOL    HW277048   1.155   4.024   5.379 -0.3565  0.2876 -1.0745
24950SOL     OW77049   4.583   5.097   8.273  0.0191 -1.1406 -0.1086
24950SOL    HW177050   4.625   5.124   8.192  1.0993 -0.5826  0.6139
24950SOL    HW277051   4.542   5.176   8.307 -1.2600 -1.5771 -0.5638
24951SOL     OW77052   7.085   3.113   2.119 -0.7143  0.2508 -0.4732
24951SOL    HW177053   7.152   3.170   2.083  0.8267  0.0640  1.8481
24951SOL    HW277054   7.031   3.171   2.173 -0.6648 -0.0471 -0.0965
24952SOL     OW77055   8.934   1.827   5.347 -0.2989 -0.3503  0.0430
24952SOL    HW177056   8.965   1.805   5.435 -1.5449 -1.2303  0.2968
24952SOL    HW277057   8.995   1.782   5.288  1.0156  0.8963  0.4164
24953SOL     OW77058   2.633   5.440   7.796  0.5259 -0.4815 -0.0105
24953SOL    HW177059   2.643   5.497   7.872 -2.1147  1.3552 -0.8976
24953SOL    HW277060   2.717   5.395   7.789  2.2969  2.2596  1.5762
24954SOL     OW77061   0.650   3.704   4.420 -0.6518 -0.0692  0.1237
24954SOL    HW177062   0.590   3.645   4.375  1.5318 -2.5838  0.2732
24954SOL    HW277063   0.648   3.677   4.511 -0.4385  0.8568  0.4203
24955SOL     OW77064   3.838   6.807   5.137 -0.1432 -0.1178 -0.0869
24955SOL    HW177065   3.764   6.866   5.124  0.3933  0.4683 -0.5422
24955SOL    HW277066   3.799   6.729   5.178 -0.8391  0.5827  0.6293
24956SOL     OW77067   8.181   4.492   0.355 -0.1063  0.0117 -0.0896
24956SOL    HW177068   8.156   4.573   0.401 -1.2753 -0.8374  0.8085
24956SOL    HW277069   8.251   4.455   0.410  0.0762  0.1415 -0.2311
24957SOL     OW77070   2.571   4.945   6.431  0.3341 -0.0754 -0.0110
24957SOL    HW177071   2.589   4.888   6.505 -0.4498  0.0716  0.3025
24957SOL    HW277072   2.609   5.029   6.454 -1.2342  0.4223  0.9359
24958SOL     OW77073   2.473   6.556   9.244 -0.3908 -0.5033  0.0433
24958SOL    HW177074   2.493   6.469   9.276 -1.4538 -1.2767 -1.3025
24958SOL    HW277075   2.387   6.576   9.281 -0.8502 -0.6983 -0.8701
24959SOL     OW77076   7.873   6.138   5.172  0.3085 -0.4956  0.5063
24959SOL    HW177077   7.867   6.097   5.086  0.2857 -1.6180  1.0358
24959SOL    HW277078   7.953   6.191   5.168  0.5809 -0.9463 -0.0281
24960SOL     OW77079   3.782   6.444   9.281  0.4068  0.5538  0.1174
24960SOL    HW177080   3.694   6.483   9.277  0.7717  1.2913 -1.6787
24960SOL    HW277081   3.774   6.374   9.345 -1.5691  0.4344 -0.1985
24961SOL     OW77082   1.907   8.507   0.221  0.2402 -0.5140  0.6844
24961SOL    HW177083   1.957   8.521   0.141 -2.2584  0.7193 -0.7611
24961SOL    HW277084   1.910   8.591   0.266 -2.0958  0.2498 -0.4359
24962SOL     OW77085   9.552   6.207   7.250 -0.5700  0.0137  0.1276
24962SOL    HW177086   9.631   6.230   7.200  0.5007 -1.5740  1.0068
24962SOL    HW277087   9.562   6.255   7.332  0.7452 -1.9675  1.2120
24963SOL     OW77088   3.871   1.018   2.134 -0.1366  0.0421  0.0304
24963SOL    HW177089   3.859   1.089   2.072  1.7571 -0.1398 -0.6059
24963SOL    HW277090   3.876   1.061   2.219 -2.0384  0.3537  0.0245
24964SOL     OW77091   5.994   4.438   1.573 -0.0067 -0.2364 -0.1767
24964SOL    HW177092   6.033   4.415   1.489  0.7560  0.8133 -0.1367
24964SOL    HW277093   5.979   4.532   1.568 -1.0705 -0.3558  0.4273
24965SOL     OW77094   1.327   9.058   4.396  0.0660  0.3192 -0.0600
24965SOL    HW177095   1.420   9.074   4.413 -0.6013  2.2584  2.2408
24965SOL    HW277096   1.316   8.965   4.416  1.2842  0.3370  0.8522
24966SOL     OW77097   6.405   3.571   0.174 -0.0303 -0.1413  0.5192
24966SOL    HW177098   6.395   3.489   0.223  0.3233 -1.3664 -1.3475
24966SOL    HW277099   6.327   3.576   0.119  0.3498  0.3464  0.0106
24967SOL     OW77100   2.235   1.549   8.124 -0.1461 -0.1102 -0.1379
24967SOL    HW177101   2.154   1.581   8.165 -0.7453 -1.2120 -0.4200
24967SOL    HW277102   2.217   1.554   8.030 -0.3102 -1.3704 -0.1863
24968SOL     OW77103   2.499   7.639   7.452 -0.0640  0.3587 -0.1222
24968SOL    HW177104   2.481   7.643   7.358 -0.9688 -1.7552 -0.1018
24968SOL    HW277105   2.429   7.690   7.493  0.8233  2.0165 -0.5980
24969SOL     OW77106   7.213   3.910   3.811  0.7044 -0.0333 -0.0719
24969SOL    HW177107   7.121   3.933   3.826  0.4822 -1.4608  0.9942
24969SOL    HW277108   7.242   3.971   3.744 -0.9963  0.5181 -0.3664
24970SOL     OW77109   6.820   6.916   0.988 -0.3220  0.0845  0.3306
24970SOL    HW177110   6.823   6.922   1.083 -0.7330 -1.0305  0.4254
24970SOL    HW277111   6.787   7.002   0.960 -1.1958  0.0768  1.2617
24971SOL     OW77112   0.817   8.550   8.996 -0.0473 -0.5486 -0.2872
24971SOL    HW177113   0.843   8.642   9.004  0.7869 -0.8610  0.8726
24971SOL    HW277114   0.795   8.539   8.904 -2.1603  1.3211 -0.0981
24972SOL     OW77115   8.035   6.231   4.556 -0.0353 -0.3035 -0.6082
24972SOL    HW177116   8.024   6.136   4.547  0.0693 -0.3571 -0.1893
24972SOL    HW277117   7.957   6.260   4.603  0.4994 -0.3611  0.3376
24973SOL     OW77118   8.029   2.147   0.228 -0.6274  0.3770  0.6085
24973SOL    HW177119   7.995   2.145   0.317 -1.7364 -0.2720  0.1858
24973SOL    HW277120   8.114   2.103   0.233 -0.3998  0.8978  1.4456
24974SOL     OW77121   1.736   0.256   3.158  0.4705  0.2300  0.4037
24974SOL    HW177122   1.684   0.221   3.085  1.0468  0.1312  0.0368
24974SOL    HW277123   1.812   0.198   3.163  0.6069  0.4451  0.8667
24975SOL     OW77124   8.831   5.186   7.280 -0.3599  0.0184  0.1824
24975SOL    HW177125   8.812   5.092   7.270 -1.2218  0.3958 -2.2179
24975SOL    HW277126   8.745   5.228   7.281 -0.0199  0.7737  2.1353
24976SOL     OW77127   2.101   2.904   7.847 -0.6562 -0.0816 -0.5238
24976SOL    HW177128   2.150   2.904   7.929 -0.9552  1.8139 -0.2891
24976SOL    HW277129   2.159   2.863   7.783  1.1987  1.9313 -0.2235
24977SOL     OW77130   0.463   2.553   1.621  0.8455 -0.2900  0.1018
24977SOL    HW177131   0.409   2.549   1.542 -0.3770 -1.0349  0.9404
24977SOL    HW277132   0.466   2.645   1.644 -0.9883 -0.3313  0.6207
24978SOL     OW77133   7.854   4.830   8.849 -0.0854 -0.5727  0.0904
24978SOL    HW177134   7.912   4.757   8.872 -0.2667 -0.4861  0.8326
24978SOL    HW277135   7.912   4.907   8.846  0.1029 -0.7307 -0.6784
24979SOL     OW77136   2.355   5.919   2.431  0.3537 -0.1439  0.2256
24979SOL    HW177137   2.274   5.877   2.402 -0.0737  1.1755 -0.5329
24979SOL    HW277138   2.398   5.948   2.351  1.1607 -0.0526  0.6769
24980SOL     OW77139   5.137   1.496   8.319 -0.2167  0.2002 -0.1873
24980SOL    HW177140   5.180   1.569   8.275  1.3277  0.7742  2.0668
24980SOL    HW277141   5.112   1.436   8.249  0.8163  1.6775 -1.8960
24981SOL     OW77142   0.313   8.364   5.128  0.9212 -0.6227  0.7846
24981SOL    HW177143   0.324   8.384   5.035  0.9693 -0.9719  0.7147
24981SOL    HW277144   0.223   8.392   5.148  0.1680 -2.4390  0.1285
24982SOL     OW77145   5.656   4.823   7.754  0.1944  0.0742  0.1197
24982SOL    HW177146   5.699   4.748   7.795  0.8076  0.3242 -0.0488
24982SOL    HW277147   5.719   4.894   7.763 -1.4715  1.3826  2.8369
24983SOL     OW77148   4.783   8.745   7.380 -0.7745  0.0313  0.4996
24983SOL    HW177149   4.706   8.744   7.437 -0.9184  0.8259  0.3227
24983SOL    HW277150   4.804   8.652   7.368 -1.7938 -0.2091  0.4317
24984SOL     OW77151   6.024   7.152   6.361 -0.7533 -0.1900 -0.1682
24984SOL    HW177152   5.994   7.188   6.278 -0.1282  0.1693 -0.2494
24984SOL    HW277153   6.093   7.090   6.336  1.4614  1.9953  0.1883
24985SOL     OW77154   5.006   4.124   4.447  0.3223 -0.6121 -0.1299
24985SOL    HW177155   5.101   4.109   4.447  0.2877 -0.8239 -0.4498
24985SOL    HW277156   4.972   4.067   4.378  0.0658  0.1474 -0.6402
24986SOL     OW77157   5.443   6.702   8.283 -0.6730  0.3921  0.5484
24986SOL    HW177158   5.461   6.761   8.210  1.9749  1.2803  1.8130
24986SOL    HW277159   5.465   6.615   8.250  3.2660  1.0561  0.9362
24987SOL     OW77160   9.254   0.867   0.096 -0.3669  0.0536  0.4912
24987SOL    HW177161   9.210   0.791   0.059 -0.2317  0.5118 -0.6465
24987SOL    HW277162   9.247   0.934   0.028 -0.4359  1.0439  1.4479
24988SOL     OW77163   4.854   2.639   7.843  0.0952 -0.1538 -0.7557
24988SOL    HW177164   4.760   2.656   7.851  0.2674  0.8880 -0.8270
24988SOL    HW277165   4.876   2.589   7.921 -0.6700 -1.1515 -1.1530
24989SOL     OW77166   0.621   3.201   8.271 -0.4747  0.0412 -0.0809
24989SOL    HW177167   0.706   3.181   8.232  0.0583 -0.3255  1.2197
24989SOL    HW277168   0.602   3.125   8.327 -0.7048  0.9968  1.1805
24990SOL     OW77169   6.384   2.932   9.113 -0.3492 -0.4451  0.2226
24990SOL    HW177170   6.321   3.004   9.104 -0.2210 -0.1260  1.6117
24990SOL    HW277171   6.357   2.868   9.048 -0.1540  1.0683 -1.4284
24991SOL     OW77172   5.579   4.338   6.805 -0.2809  0.6787 -0.2056
24991SOL    HW177173   5.673   4.343   6.789 -0.0223 -3.7549 -1.3734
24991SOL    HW277174   5.543   4.414   6.759  2.6898  2.6622  0.5313
24992SOL     OW77175   2.929   2.144   9.047  0.2790 -0.4939  0.1881
24992SOL    HW177176   2.930   2.237   9.026  3.5862 -0.6653 -0.9436
24992SOL    HW277177   2.862   2.107   8.990  0.8971  0.8011 -1.4377
24993SOL     OW77178   3.619   7.334   2.185 -0.7640 -0.3853 -0.1446
24993SOL    HW177179   3.647   7.386   2.109  1.2231 -1.9536 -0.5529
24993SOL    HW277180   3.525   7.319   2.170 -0.9915  1.4763 -0.9374
24994SOL     OW77181   1.035   7.340   7.577  0.4239 -0.0570  0.4426
24994SOL    HW177182   1.127   7.322   7.597 -0.0535 -2.5765  0.6105
24994SOL    HW277183   1.039   7.407   7.509  2.3234  0.7923  1.2984
24995SOL     OW77184   1.526   2.641   1.566  0.2422 -0.2273 -0.9474
24995SOL    HW177185   1.530   2.593   1.649  1.3493 -2.0377 -1.9956
24995SOL    HW277186   1.612   2.682   1.558 -0.4945  1.5691 -0.3443
24996SOL     OW77187   7.184   7.668   8.159  0.3070  0.4509  0.5912
24996SOL    HW177188   7.193   7.597   8.095  1.5211  0.4534  0.7273
24996SOL    HW277189   7.127   7.732   8.117 -0.4664 -0.4137  0.2972
24997SOL     OW77190   1.699   7.555   2.456  0.1642 -0.0471  0.1104
24997SOL    HW177191   1.660   7.624   2.402 -0.6770  1.5340  2.5730
24997SOL    HW277192   1.778   7.594   2.492  0.9794 -1.2471 -0.3182
24998SOL     OW77193   8.824   7.479   4.297  0.0064 -0.3171 -0.3133
24998SOL    HW177194   8.775   7.488   4.378  1.7572  0.0697  0.7437
24998SOL    HW277195   8.799   7.556   4.246  0.2268  0.3810  0.6072
24999SOL     OW77196   0.284   4.404   5.891  0.5427  0.1066  0.0397
24999SOL    HW177197   0.300   4.378   5.800  0.5262  1.9063 -0.5297
24999SOL    HW277198   0.365   4.447   5.918  1.1925 -1.9341  1.5152
25000SOL     OW77199   1.396   9.100   1.034 -0.1264  0.0010 -0.4429
25000SOL    HW177200   1.369   9.108   1.126 -1.8996  2.1310 -1.0648
25000SOL    HW277201   1.337   9.034   0.997  0.4323 -0.6843 -0.1366
25001SOL     OW77202   7.243   8.533   7.333  0.1248  0.1966  0.1973
25001SOL    HW177203   7.328   8.574   7.317 -0.0236  0.2839 -0.3611
25001SOL    HW277204   7.229   8.475   7.258 -0.0514 -0.2539  0.5672
25002SOL     OW77205   5.494   4.190   9.339  0.2751 -0.0278 -0.5949
25002SOL    HW177206   5.489   4.103   9.378  1.9178 -0.2842 -0.9052
25002SOL    HW277207   5.443   4.246   9.399  1.2281 -0.7490  0.9542
25003SOL     OW77208   5.427   6.249   3.234  0.7012 -0.1560 -0.2483
25003SOL    HW177209   5.481   6.269   3.158  0.4922 -0.7399 -0.5510
25003SOL    HW277210   5.360   6.189   3.201  0.2834  0.0164  0.2758
25004SOL     OW77211   2.605   3.288   0.001  0.0623 -0.4166  0.4353
25004SOL    HW177212   2.559   3.371  -0.009  0.5340  0.0831  2.1231
25004SOL    HW277213   2.539   3.222  -0.021 -0.3128  0.3786 -0.9509
25005SOL     OW77214   6.964   7.848   7.750 -0.0532 -0.4953  0.1565
25005SOL    HW177215   7.037   7.893   7.795 -0.2698  1.0442 -0.9662
25005SOL    HW277216   7.003   7.767   7.717  1.0394  0.0829 -0.0219
25006SOL     OW77217   0.268   4.317   6.454  0.5555  0.5375  0.1538
25006SOL    HW177218   0.205   4.249   6.479 -1.2177  1.1276 -2.2830
25006SOL    HW277219   0.267   4.378   6.527 -1.0261  0.0281  0.6129
25007SOL     OW77220   5.586   7.903   8.344 -0.4052  0.5360 -0.1198
25007SOL    HW177221   5.656   7.853   8.301 -2.1034 -1.3815 -0.7833
25007SOL    HW277222   5.563   7.851   8.421 -2.3219  0.1507 -0.8994
25008SOL     OW77223   3.281   4.164   6.827  0.5490  0.3000  0.4245
25008SOL    HW177224   3.364   4.211   6.832 -0.6345  2.4882  0.6750
25008SOL    HW277225   3.280   4.107   6.904  1.8473  0.1566  0.3520
25009SOL     OW77226   5.254   0.577   4.023  0.1118 -0.5200 -0.5165
25009SOL    HW177227   5.180   0.583   3.961  0.3089 -1.2731 -0.8315
25009SOL    HW277228   5.216   0.602   4.107 -0.2646  0.0849 -0.8518
25010SOL     OW77229   6.732   8.214   5.165  0.2638 -0.0327  0.1997
25010SOL    HW177230   6.772   8.184   5.083 -1.6044 -2.7261  0.1509
25010SOL    HW277231   6.795   8.188   5.233 -0.0720 -1.7651 -0.0947
25011SOL     OW77232   1.319   6.273   7.313 -0.1349 -0.0555 -0.1681
25011SOL    HW177233   1.398   6.328   7.316 -0.6499  1.2847 -4.3098
25011SOL    HW277234   1.259   6.313   7.376  1.3630  0.8286  0.7649
25012SOL     OW77235   0.408   8.028   6.353 -0.2415  0.7173 -0.5024
25012SOL    HW177236   0.345   8.023   6.282 -0.9109 -0.3886  0.1376
25012SOL    HW277237   0.480   7.971   6.326 -0.4804  0.3246 -0.3240
25013SOL     OW77238   9.047   6.659   0.764 -0.0728  0.4678 -0.2291
25013SOL    HW177239   9.101   6.719   0.711 -0.2464 -0.5560 -1.6194
25013SOL    HW277240   9.001   6.606   0.700 -0.7350 -0.4561  0.9746
25014SOL     OW77241   2.011   4.150   6.540 -0.4689 -0.3428 -0.4362
25014SOL    HW177242   2.053   4.085   6.483  1.1889 -0.2528  0.6192
25014SOL    HW277243   2.013   4.231   6.489  0.2028 -0.4629 -0.6169
25015SOL     OW77244   6.810   2.666   5.122 -0.2889  0.1937  0.1665
25015SOL    HW177245   6.863   2.587   5.134 -0.1209  0.0697 -1.2825
25015SOL    HW277246   6.729   2.648   5.170  0.1244 -0.4687  0.6326
25016SOL     OW77247   1.069   8.399   1.054  0.0358  0.5530 -0.2032
25016SOL    HW177248   1.157   8.427   1.080  0.4627 -0.0208 -0.9763
25016SOL    HW277249   1.064   8.419   0.960 -1.1627  1.8297  0.1025
25017SOL     OW77250   1.155   6.889   6.258 -0.1347 -0.4638 -0.0374
25017SOL    HW177251   1.215   6.860   6.327  0.1073  1.4880  0.6494
25017SOL    HW277252   1.137   6.981   6.279 -1.3488 -0.2751 -1.6805
25018SOL     OW77253   3.041   4.611   3.584  0.0759 -0.4415  0.1512
25018SOL    HW177254   3.031   4.517   3.572  0.1375 -0.1314 -3.7435
25018SOL    HW277255   2.963   4.649   3.544  0.8942  1.1726 -0.0140
25019SOL     OW77256   1.235   7.887   6.982 -0.1531 -0.1813 -0.0855
25019SOL    HW177257   1.254   7.940   7.059  0.9826 -2.5468  1.3615
25019SOL    HW277258   1.235   7.950   6.909 -0.4847  2.0029  1.6964
25020SOL     OW77259   4.522   5.586   3.586  0.4587 -0.1969  0.4487
25020SOL    HW177260   4.465   5.623   3.653 -0.6414  0.8966 -1.0064
25020SOL    HW277261   4.560   5.663   3.543  0.0147 -0.7844 -1.0823
25021SOL     OW77262   0.908   1.087   8.829 -0.1642  0.1855 -0.2920
25021SOL    HW177263   0.933   1.178   8.844 -0.8204  0.7120 -2.1248
25021SOL    HW277264   0.980   1.036   8.866  0.3382  1.4461  0.5221
25022SOL     OW77265   4.005   3.581   2.238 -0.0630  0.0703 -0.1184
25022SOL    HW177266   4.081   3.592   2.181 -0.2695 -0.1163 -0.4357
25022SOL    HW277267   3.932   3.620   2.189 -0.4197 -0.9030 -0.4005
25023SOL     OW77268   1.864   4.258   8.398 -0.9881 -0.2663  0.1179
25023SOL    HW177269   1.779   4.301   8.402  0.0071  1.8214  0.2888
25023SOL    HW277270   1.860   4.190   8.465 -1.7519  1.3453  1.8056
25024SOL     OW77271   2.364   4.079   3.678  0.4470  0.2098 -0.0154
25024SOL    HW177272   2.423   4.074   3.753 -0.3299 -0.1496  0.5856
25024SOL    HW277273   2.368   3.993   3.638  0.7469  0.3561 -0.3050
25025SOL     OW77274   6.475   9.579   6.769  0.5645  0.2560  0.2969
25025SOL    HW177275   6.522   9.567   6.851 -0.6128 -2.4668  0.6941
25025SOL    HW277276   6.408   9.510   6.770 -0.4691  1.1108 -2.2671
25026SOL     OW77277   4.581   8.143   6.985  0.1864 -0.5263  0.0397
25026SOL    HW177278   4.632   8.213   7.025 -0.7754 -0.4152  1.1230
25026SOL    HW277279   4.532   8.186   6.915  0.0903 -0.2292  0.2862
25027SOL     OW77280   8.551   0.006   8.278  0.2724  0.3246 -0.3816
25027SOL    HW177281   8.521   0.018   8.188 -0.1430  0.8900 -0.1778
25027SOL    HW277282   8.646  -0.003   8.271  0.2369  0.3331 -0.8781
25028SOL     OW77283   7.335   1.587   5.978 -0.0808  0.1120  0.1471
25028SOL    HW177284   7.329   1.666   6.033 -1.3195 -0.1217  0.3725
25028SOL    HW277285   7.296   1.612   5.895 -1.5129 -0.5632  0.5883
25029SOL     OW77286   2.556   9.000   7.632 -0.3284  0.0273 -0.5553
25029SOL    HW177287   2.532   9.067   7.696  0.3510 -0.7115  0.5158
25029SOL    HW277288   2.473   8.967   7.598 -0.8175 -0.8322  1.3205
25030SOL     OW77289   8.612   5.085   5.519  0.2740  0.1409 -0.0296
25030SOL    HW177290   8.598   5.080   5.614  0.3030 -2.8508 -0.1015
25030SOL    HW277291   8.705   5.109   5.511  0.3773  0.0121  0.6860
25031SOL     OW77292   9.561   7.921   4.273 -0.7808 -0.4187 -0.3525
25031SOL    HW177293   9.605   7.990   4.323 -1.7452 -0.7652  1.0465
25031SOL    HW277294   9.568   7.949   4.182 -1.1300  1.5223  0.1765
25032SOL     OW77295   7.605   2.105   7.611  0.1343 -0.7306 -1.0931
25032SOL    HW177296   7.621   2.087   7.519  0.5884  0.9026 -1.3740
25032SOL    HW277297   7.572   2.195   7.612  0.7893 -0.4792  0.3805
25033SOL     OW77298   3.601   6.161   2.725  0.5193 -0.6741  0.7686
25033SOL    HW177299   3.610   6.075   2.766  3.1328 -0.3219  1.1065
25033SOL    HW277300   3.611   6.223   2.797 -2.2678  0.0097  0.6862
25034SOL     OW77301   0.361   5.681   0.535  0.0726 -0.2063  0.1137
25034SOL    HW177302   0.267   5.696   0.523 -0.3680 -1.0078  2.1824
25034SOL    HW277303   0.373   5.588   0.515  0.7771  0.2252 -1.7277
25035SOL     OW77304   5.846   6.686   6.961 -0.4812  0.2562  0.0233
25035SOL    HW177305   5.754   6.703   6.978 -0.8040 -0.1390 -1.2449
25035SOL    HW277306   5.856   6.699   6.867  0.8930  0.9157  0.2351
25036SOL     OW77307   2.460   5.903   8.741 -0.0116 -0.3079 -0.2981
25036SOL    HW177308   2.397   5.947   8.684 -1.3075 -1.5400  0.1058
25036SOL    HW277309   2.409   5.832   8.782  1.3621 -0.6351  0.9234
25037SOL     OW77310   6.361   0.722   5.535  0.4492  0.2571 -0.2819
25037SOL    HW177311   6.325   0.800   5.578 -0.0087  0.8852 -1.7378
25037SOL    HW277312   6.332   0.730   5.445  0.8380 -1.3573 -0.5668
25038SOL     OW77313   8.298   1.812   6.041 -0.0748 -0.3145 -1.0772
25038SOL    HW177314   8.273   1.858   6.121  2.4461 -0.4046 -0.1710
25038SOL    HW277315   8.281   1.720   6.060  0.4279 -0.3258 -0.6749
25039SOL     OW77316   1.112   1.569   8.940  0.3608  0.6334  0.0805
25039SOL    HW177317   1.125   1.650   8.990  1.3628 -0.2788  1.3677
25039SOL    HW277318   1.074   1.508   9.002 -0.4895  0.1284 -0.9128
25040SOL     OW77319   1.113   2.150   1.219  0.3464 -0.1037 -0.0143
25040SOL    HW177320   1.067   2.215   1.274  1.5150  0.4084  0.4068
25040SOL    HW277321   1.096   2.067   1.262 -0.6368 -0.0075 -0.1866
25041SOL     OW77322   2.289   0.933   0.658  0.4509  0.7488 -0.5335
25041SOL    HW177323   2.232   0.995   0.613  0.8243 -0.2173 -2.4222
25041SOL    HW277324   2.359   0.988   0.696  0.3265  1.5649 -1.4517
25042SOL     OW77325   0.113   9.536   7.987 -0.3575  0.2602 -1.1485
25042SOL    HW177326   0.025   9.512   7.957 -0.1945  0.9899 -2.2912
25042SOL    HW277327   0.114   9.513   8.080 -0.8152 -2.3806 -1.7053
25043SOL     OW77328   7.713   4.834   8.397 -0.3380  0.2146 -0.0411
25043SOL    HW177329   7.644   4.811   8.335 -0.1502 -0.6947  0.0603
25043SOL    HW277330   7.772   4.891   8.347 -0.6230  0.1634 -0.4447
25044SOL     OW77331   8.482   7.330   0.031  0.3446  0.8166  0.0404
25044SOL    HW177332   8.404   7.288   0.067 -0.0325  1.9286  0.5548
25044SOL    HW277333   8.459   7.351  -0.060  0.1561  0.8504  0.0954
25045SOL     OW77334   6.281   3.906   8.007 -0.5074 -0.0655  0.2309
25045SOL    HW177335   6.220   3.910   8.080  0.6595  0.3822  1.2159
25045SOL    HW277336   6.344   3.976   8.024  0.5698 -0.8345 -0.4656
25046SOL     OW77337   7.784   7.181   2.742  0.2016 -0.2801 -0.0783
25046SOL    HW177338   7.788   7.273   2.768  1.2292 -0.6517  1.1442
25046SOL    HW277339   7.702   7.174   2.693  0.1724  1.3046 -0.3049
25047SOL     OW77340   0.032   8.663   7.965 -0.2233  0.0390  0.0093
25047SOL    HW177341  -0.040   8.716   8.000 -0.6616 -0.3672 -0.2686
25047SOL    HW277342   0.022   8.578   8.008  0.6893  0.2799  0.7236
25048SOL     OW77343   3.202   5.341   4.031  0.6507  0.1100 -0.5461
25048SOL    HW177344   3.116   5.377   4.053  1.7021  1.7700  1.1513
25048SOL    HW277345   3.185   5.250   4.008 -1.4063 -0.0238  1.1792
25049SOL     OW77346   1.988   9.191   9.380 -0.2130  0.5669  0.1232
25049SOL    HW177347   2.010   9.124   9.316 -1.0675  1.2060 -0.8802
25049SOL    HW277348   1.917   9.241   9.339 -0.5265  1.2319  1.4129
25050SOL     OW77349   0.668   5.402   7.408  0.2328 -0.1037  0.1301
25050SOL    HW177350   0.662   5.434   7.318  2.6492 -0.0707 -0.0745
25050SOL    HW277351   0.621   5.468   7.460 -2.4572 -0.8592 -1.1865
25051SOL     OW77352   2.575   2.104   1.661 -0.1732 -0.3088  0.3245
25051SOL    HW177353   2.479   2.106   1.662 -0.1885 -0.2370 -0.4332
25051SOL    HW277354   2.598   2.013   1.681 -0.4194 -0.4435  0.0130
25052SOL     OW77355   2.282   9.356   3.511 -0.2611 -0.4121  0.1989
25052SOL    HW177356   2.271   9.394   3.423 -1.3553 -0.7299  0.1783
25052SOL    HW277357   2.319   9.427   3.564 -0.7338  0.1617 -0.2277
25053SOL     OW77358   5.626   7.251   8.297  0.4827 -0.0001  0.4919
25053SOL    HW177359   5.604   7.252   8.390 -0.1821  0.6670  0.3418
25053SOL    HW277360   5.542   7.262   8.253  0.9804  1.5953 -0.1299
25054SOL     OW77361   1.853   5.331   8.967 -0.4950  0.1723 -0.0796
25054SOL    HW177362   1.783   5.278   9.004 -0.2520  0.3061  0.6014
25054SOL    HW277363   1.845   5.415   9.013 -0.9211  0.7574 -1.1881
25055SOL     OW77364   0.443   3.840   8.403  0.3737  0.3893 -0.4249
25055SOL    HW177365   0.538   3.843   8.394  0.2713  0.3852 -1.6526
25055SOL    HW277366   0.410   3.903   8.338 -0.4748  0.0615 -0.3319
25056SOL     OW77367   3.829   5.418   7.480 -0.0739 -0.0676 -0.6711
25056SOL    HW177368   3.879   5.434   7.400  1.7446 -0.2126  0.3709
25056SOL    HW277369   3.743   5.457   7.463  0.1550 -0.3550 -2.7802
25057SOL     OW77370   5.014   8.853   1.772  0.0134  0.0035 -0.0377
25057SOL    HW177371   5.056   8.935   1.797 -1.0299  0.2692  0.9601
25057SOL    HW277372   4.957   8.832   1.847  0.7774 -1.9887  0.0356
25058SOL     OW77373   6.909   2.770   7.157 -0.0649  0.2966 -0.0113
25058SOL    HW177374   6.874   2.821   7.230  0.3723 -0.1140  0.4946
25058SOL    HW277375   6.970   2.829   7.113 -1.4208  1.0490 -0.9486
25059SOL     OW77376   3.498   8.780   2.213 -0.5817  0.2378 -0.1647
25059SOL    HW177377   3.486   8.685   2.210 -0.2767  0.2093 -0.6125
25059SOL    HW277378   3.435   8.810   2.278 -0.5534 -0.2908  0.1144
25060SOL     OW77379   4.207   4.738   9.453 -0.1151  0.4916  0.0389
25060SOL    HW177380   4.274   4.797   9.419  0.9494  0.1233  1.3848
25060SOL    HW277381   4.167   4.786   9.526 -0.2916  0.1424  0.1736
25061SOL     OW77382   3.060   1.417   0.811  0.2139  0.4076 -0.7544
25061SOL    HW177383   3.068   1.437   0.904 -0.3401 -1.2176 -0.3145
25061SOL    HW277384   3.140   1.369   0.790 -0.1826 -0.2513 -0.7992
25062SOL     OW77385   8.307   8.297   2.272  0.1000  0.2968 -0.1565
25062SOL    HW177386   8.361   8.219   2.283  2.0111  1.5357 -0.2558
25062SOL    HW277387   8.261   8.283   2.189 -0.5318 -1.2091  0.4148
25063SOL     OW77388   7.297   2.377   6.984  0.0041 -0.2548  0.4182
25063SOL    HW177389   7.369   2.440   6.983  0.1463 -0.4142 -0.2277
25063SOL    HW277390   7.276   2.364   6.892 -1.3325  0.3136  0.6257
25064SOL     OW77391   8.619   4.707   2.001 -0.3190  0.4024 -0.4215
25064SOL    HW177392   8.573   4.699   1.917 -0.7353 -0.0391 -0.1557
25064SOL    HW277393   8.712   4.708   1.978 -0.3421 -1.6416 -0.7639
25065SOL     OW77394   5.900   6.418   4.609 -0.0052 -0.2290 -0.4838
25065SOL    HW177395   5.982   6.438   4.655 -0.5956  0.1405  0.4310
25065SOL    HW277396   5.876   6.501   4.568  0.1562 -0.3793 -0.8863
25066SOL     OW77397   2.170   1.993   8.816  0.2892  0.7045 -0.1204
25066SOL    HW177398   2.108   1.964   8.883  1.2953  0.7176  0.8326
25066SOL    HW277399   2.150   2.086   8.804  2.7735  1.8469  3.2536
25067SOL     OW77400   2.933   1.218   3.110  0.1177 -0.3332 -0.2344
25067SOL    HW177401   2.954   1.151   3.044 -2.4779  0.3813 -1.9405
25067SOL    HW277402   2.842   1.200   3.133 -0.6551  2.5858 -0.7323
25068SOL     OW77403   3.550   9.126   9.265  0.5894 -0.6935  0.0618
25068SOL    HW177404   3.497   9.063   9.314  4.1819 -3.3926  0.8971
25068SOL    HW277405   3.552   9.205   9.319 -1.0938 -1.1393  0.8085
25069SOL     OW77406   6.468   2.031   8.306 -0.3604  0.6803 -0.5656
25069SOL    HW177407   6.509   2.071   8.383  1.1033 -0.2829 -0.8039
25069SOL    HW277408   6.403   2.096   8.278 -0.7184  1.1938  1.2723
25070SOL     OW77409   7.907   9.371   7.373  0.2243 -0.2263 -0.3044
25070SOL    HW177410   7.873   9.460   7.390  0.3023 -0.0184 -1.1979
25070SOL    HW277411   8.002   9.379   7.384  0.3018 -0.0302 -1.0499
25071SOL     OW77412   6.468   1.256   8.068  0.0491  0.1602  0.3213
25071SOL    HW177413   6.481   1.349   8.083 -2.8576  0.7851 -0.5366
25071SOL    HW277414   6.456   1.247   7.974  1.1662 -1.2663  0.2614
25072SOL     OW77415   7.839   6.911   7.427 -0.2119 -0.4532 -0.5781
25072SOL    HW177416   7.749   6.906   7.459 -0.7657 -1.0716 -2.1426
25072SOL    HW277417   7.885   6.963   7.493 -2.3320  2.3012 -1.0636
25073SOL     OW77418   7.747   6.237   3.281  0.2392 -0.6803  0.5212
25073SOL    HW177419   7.683   6.302   3.311  0.0058  0.3617 -1.9372
25073SOL    HW277420   7.812   6.232   3.351  0.6096  2.7167  0.5867
25074SOL     OW77421   8.175   3.746   7.373 -0.1236  0.0356 -0.4902
25074SOL    HW177422   8.153   3.838   7.358 -1.8317 -0.1249  0.7043
25074SOL    HW277423   8.246   3.749   7.438 -0.7256  0.5137  0.1637
25075SOL     OW77424   1.717   0.281   7.664  0.4321 -0.1361  0.1852
25075SOL    HW177425   1.769   0.261   7.743 -1.2610  0.1268  1.4197
25075SOL    HW277426   1.635   0.235   7.678 -0.4377  1.0863 -0.7603
25076SOL     OW77427   0.991   5.663   7.334  0.0463 -0.6730 -0.2160
25076SOL    HW177428   0.972   5.721   7.408 -1.2175 -1.4717  0.1090
25076SOL    HW277429   1.001   5.576   7.374  3.0293 -0.5930 -0.5420
25077SOL     OW77430   4.557   4.601   8.218 -0.1600  0.2882 -0.5492
25077SOL    HW177431   4.544   4.553   8.300  0.8473 -0.2418 -0.6848
25077SOL    HW277432   4.531   4.691   8.239 -1.3947 -0.1505 -0.0940
25078SOL     OW77433   3.292   0.446   8.593 -0.0631  0.7457  0.0585
25078SOL    HW177434   3.263   0.486   8.675  1.0308  0.6073  0.5336
25078SOL    HW277435   3.387   0.457   8.593  0.5374 -2.9546  0.8806
25079SOL     OW77436   4.359   7.186   7.712  0.0552 -0.1900  0.0234
25079SOL    HW177437   4.328   7.123   7.777 -1.2254 -1.3301 -1.6111
25079SOL    HW277438   4.430   7.141   7.666 -0.2490 -0.1029 -0.5429
25080SOL     OW77439   2.690   7.913   6.544 -0.2439  0.2914  0.9599
25080SOL    HW177440   2.671   7.937   6.635  0.3602  1.7757  0.7217
25080SOL    HW277441   2.765   7.855   6.549 -1.4993 -1.3621  1.5314
25081SOL     OW77442   1.043   6.240   2.033  0.3499 -0.3731 -0.1707
25081SOL    HW177443   1.136   6.259   2.021  0.3876 -0.6338 -0.3080
25081SOL    HW277444   1.019   6.283   2.115  0.1527  1.2222 -1.0234
25082SOL     OW77445   9.554   4.834   8.556  0.5031  0.3167  0.7029
25082SOL    HW177446   9.468   4.857   8.591  0.0069  2.0145 -1.4013
25082SOL    HW277447   9.536   4.764   8.493  0.4832  1.2997 -0.4145
25083SOL     OW77448   8.071   9.123   7.554 -0.1443  0.3107 -0.2423
25083SOL    HW177449   8.050   9.106   7.646  2.0821 -0.1081  0.2586
25083SOL    HW277450   8.029   9.052   7.506 -0.3258 -0.1551  0.5866
25084SOL     OW77451   7.628   4.815   0.759  0.2813  0.3636  0.2224
25084SOL    HW177452   7.622   4.909   0.743  1.2001  0.3641 -0.1708
25084SOL    HW277453   7.540   4.789   0.786 -0.0595  1.2759 -0.0015
25085SOL     OW77454   1.631   6.290   6.492 -0.7742  0.4288 -0.2784
25085SOL    HW177455   1.616   6.228   6.420 -1.2909  0.7869 -0.4856
25085SOL    HW277456   1.564   6.269   6.556  0.7997 -1.1025  0.9529
25086SOL     OW77457   0.620   1.412   5.200  0.1990  0.0847  0.3130
25086SOL    HW177458   0.531   1.430   5.228 -0.4772 -1.5464 -0.6509
25086SOL    HW277459   0.672   1.483   5.238 -0.6979 -1.3917  4.9539
25087SOL     OW77460   0.396   6.977   0.590 -0.6412 -0.4422  0.2912
25087SOL    HW177461   0.367   6.886   0.592  2.1619 -1.4755 -0.4058
25087SOL    HW277462   0.328   7.023   0.542 -1.8699 -2.2856  0.1595
25088SOL     OW77463   7.297   2.662   8.157  0.2758  0.0369  0.1326
25088SOL    HW177464   7.281   2.715   8.236  0.1637 -0.6355  0.5733
25088SOL    HW277465   7.237   2.697   8.092 -0.7764 -0.4243  0.8289
25089SOL     OW77466   0.911   3.220   6.509  0.4059  0.0599 -0.5686
25089SOL    HW177467   0.852   3.197   6.581  0.2728  0.5524 -0.5211
25089SOL    HW277468   0.904   3.315   6.501  0.8725  0.0729 -0.8420
25090SOL     OW77469   9.290   7.218   8.360  0.2515 -0.1891  0.6420
25090SOL    HW177470   9.217   7.230   8.300 -1.7410 -2.0237  2.5269
25090SOL    HW277471   9.308   7.307   8.393 -0.1097  0.4929 -0.8930
25091SOL     OW77472   8.290   2.519   9.536 -0.1244  0.8822 -0.3005
25091SOL    HW177473   8.234   2.445   9.559  1.0269  1.1052  4.1363
25091SOL    HW277474   8.338   2.489   9.459 -2.3499 -1.4543 -0.9204
25092SOL     OW77475   7.615   7.470   8.772 -0.4894 -0.3634 -0.2770
25092SOL    HW177476   7.669   7.448   8.848 -1.2291 -1.3349 -0.0218
25092SOL    HW277477   7.675   7.515   8.712  0.0821  0.4855  0.8987
25093SOL     OW77478   9.470   1.548   0.950  0.1218  0.2393  0.4087
25093SOL    HW177479   9.406   1.571   0.882 -0.2629 -1.5629  0.1161
25093SOL    HW277480   9.546   1.602   0.930 -0.7329  1.2720 -0.1888
25094SOL     OW77481   0.547   7.420   7.704  0.3088  0.2422 -1.0938
25094SOL    HW177482   0.616   7.354   7.713 -0.1926 -0.1802 -0.2983
25094SOL    HW277483   0.538   7.431   7.609  0.6143 -0.6038 -1.2332
25095SOL     OW77484   1.346   3.836   3.737  0.3035 -0.0774  0.7171
25095SOL    HW177485   1.378   3.862   3.651 -0.2107 -0.3024  0.4534
25095SOL    HW277486   1.274   3.896   3.756 -1.5067 -1.7925 -0.3031
25096SOL     OW77487   8.831   0.072   9.501  0.4362  0.4971 -0.2581
25096SOL    HW177488   8.796   0.147   9.453  1.4853  1.3338  0.2347
25096SOL    HW277489   8.820   0.095   9.593 -0.1139 -0.3988 -0.0807
25097SOL     OW77490   9.455   5.971   7.405  0.0905 -0.0667 -0.5328
25097SOL    HW177491   9.495   5.904   7.349  1.8442  0.8976 -0.4979
25097SOL    HW277492   9.496   6.053   7.377 -1.6799  0.9478 -0.2633
25098SOL     OW77493   4.603   4.817   5.698 -0.1190 -0.2518 -0.1092
25098SOL    HW177494   4.682   4.838   5.648 -0.1183 -1.2509 -0.5470
25098SOL    HW277495   4.625   4.738   5.746  0.0086  0.8843  1.8204
25099SOL     OW77496   5.034   8.656   5.999 -0.0445 -0.2438  0.0623
25099SOL    HW177497   5.030   8.561   5.989 -1.0291 -0.7041  3.4265
25099SOL    HW277498   5.122   8.674   6.032 -0.8877 -0.5279  2.6858
25100SOL     OW77499   5.421   5.604   0.535 -0.1821 -0.6520  0.4084
25100SOL    HW177500   5.407   5.680   0.591 -1.5035  1.3477 -2.3860
25100SOL    HW277501   5.516   5.597   0.528 -0.0157 -0.2718  1.9409
25101SOL     OW77502   8.342   6.858   5.928 -0.1789  0.0529  0.2450
25101SOL    HW177503   8.354   6.938   5.877 -1.0354 -0.5734 -0.9852
25101SOL    HW277504   8.314   6.888   6.015 -1.7101  1.0773 -0.5570
25102SOL     OW77505   4.002   5.350   0.711  0.0363 -0.2696 -0.0488
25102SOL    HW177506   4.022   5.380   0.800 -0.5794 -1.5825  0.5765
25102SOL    HW277507   3.923   5.297   0.722  1.9247 -3.4879 -0.7343
25103SOL     OW77508   5.629   4.638   2.399 -0.0203 -0.1998 -0.1830
25103SOL    HW177509   5.717   4.652   2.363  0.0941 -0.3660  0.0293
25103SOL    HW277510   5.600   4.726   2.426 -0.1782 -0.0482 -0.8393
25104SOL     OW77511   7.293   4.553   8.862  0.8938 -0.2958  0.0128
25104SOL    HW177512   7.237   4.595   8.928  0.6475  0.3064 -0.5664
25104SOL    HW277513   7.363   4.617   8.846  1.4328 -0.8023  0.3127
25105SOL     OW77514   4.594   0.909   6.203  0.1343  0.1786 -0.1570
25105SOL    HW177515   4.506   0.942   6.188 -0.3470 -1.6021 -1.8021
25105SOL    HW277516   4.582   0.814   6.212  1.9378 -0.2427 -1.5204
25106SOL     OW77517   4.480   0.341   9.258 -0.3055  0.2370  0.0410
25106SOL    HW177518   4.537   0.406   9.300 -0.4189  0.0546  0.4812
25106SOL    HW277519   4.512   0.257   9.290 -1.2303  0.1620  0.8057
25107SOL     OW77520   6.991   1.418   8.419 -0.3346 -0.1988  0.0816
25107SOL    HW177521   7.050   1.427   8.344 -2.4504 -1.0998 -1.8051
25107SOL    HW277522   7.026   1.345   8.469 -0.6112 -1.7115 -1.8254
25108SOL     OW77523   6.617   3.680   3.996  0.1251  0.0002  0.1706
25108SOL    HW177524   6.602   3.760   4.047  1.9636 -0.6842  1.9338
25108SOL    HW277525   6.613   3.609   4.061  0.4574 -1.1338 -1.0080
25109SOL     OW77526   4.166   8.813   0.862  0.3090 -0.0002  0.0357
25109SOL    HW177527   4.198   8.902   0.849  0.0627 -0.1359 -1.6624
25109SOL    HW277528   4.070   8.821   0.860  0.2466 -0.5793 -2.6787
25110SOL     OW77529   4.284   7.986   1.520  0.1936  0.2371  0.3410
25110SOL    HW177530   4.197   8.001   1.557  0.4687  0.3554  0.9521
25110SOL    HW277531   4.269   7.982   1.425 -0.4363  0.5305  0.4194
25111SOL     OW77532   4.237   5.742   7.251  0.8732  0.4112 -0.5875
25111SOL    HW177533   4.147   5.716   7.272  1.1891  0.4493  0.9566
25111SOL    HW277534   4.230   5.785   7.166 -0.6782  0.9874 -0.2085
25112SOL     OW77535   5.479   4.953   8.008  0.1598 -0.3702  0.2378
25112SOL    HW177536   5.477   4.858   7.996 -1.0303 -0.2549 -0.5935
25112SOL    HW277537   5.388   4.977   8.028  0.3305  0.6595 -0.1575
25113SOL     OW77538   2.802   1.923   2.098 -0.2095  0.0442  0.3922
25113SOL    HW177539   2.710   1.904   2.083 -0.1375 -0.2693  0.3480
25113SOL    HW277540   2.844   1.905   2.014  0.2166 -1.8265  0.9618
25114SOL     OW77541   7.797   9.320   0.274  0.1949 -0.3766  0.1715
25114SOL    HW177542   7.859   9.303   0.344  1.1344 -1.4677 -0.8791
25114SOL    HW277543   7.848   9.369   0.209 -0.7629  0.9638  0.3936
25115SOL     OW77544   6.678   4.839   3.281 -0.2521 -0.0270  0.4976
25115SOL    HW177545   6.767   4.808   3.260 -1.3029 -1.6047 -2.2321
25115SOL    HW277546   6.647   4.777   3.347 -0.8783 -2.6763 -2.0154
25116SOL     OW77547   0.753   9.392   6.489  0.1730 -0.4164 -0.1541
25116SOL    HW177548   0.807   9.373   6.412  1.5810  0.8761  0.4516
25116SOL    HW277549   0.672   9.429   6.454  1.1206  0.9271 -1.0403
25117SOL     OW77550   7.168   8.263   8.141  0.1518  0.2271 -0.0415
25117SOL    HW177551   7.154   8.299   8.054  0.2949  0.5292  0.0583
25117SOL    HW277552   7.081   8.254   8.178  0.0165 -0.8687 -0.5957
25118SOL     OW77553   2.797   8.976   2.562 -0.6764 -0.4645  0.0252
25118SOL    HW177554   2.864   9.042   2.548 -0.7846 -0.5581 -1.0201
25118SOL    HW277555   2.721   9.008   2.515 -0.7690 -1.2577 -0.3925
25119SOL     OW77556   5.777   3.254   7.794  0.1601  0.1748  0.0868
25119SOL    HW177557   5.786   3.320   7.862 -1.9033  0.1240  0.4752
25119SOL    HW277558   5.857   3.262   7.742  1.1261  1.1895  1.6513
25120SOL     OW77559   7.437   6.949   5.972 -0.8393  0.1563 -0.2687
25120SOL    HW177560   7.381   6.941   6.050  1.8452 -2.4066  1.6267
25120SOL    HW277561   7.463   6.859   5.952  1.7264  1.1133 -1.6859
25121SOL     OW77562   6.285   4.004   1.480 -0.3129 -0.1315  0.0536
25121SOL    HW177563   6.312   4.096   1.488  0.0831 -0.3879  2.0450
25121SOL    HW277564   6.222   3.991   1.551 -0.0949 -1.4966  0.0160
25122SOL     OW77565   0.521   6.552   4.982  0.1920 -0.1334 -0.2056
25122SOL    HW177566   0.580   6.614   5.025 -0.0837 -0.0828  0.1003
25122SOL    HW277567   0.445   6.546   5.040  0.4706 -1.2107  0.0713
25123SOL     OW77568   8.689   6.023   2.259 -0.0884 -0.3832  0.0408
25123SOL    HW177569   8.598   5.993   2.247 -0.1622 -0.5201  0.8731
25123SOL    HW277570   8.742   5.945   2.243 -0.2631 -0.9312  1.9102
25124SOL     OW77571   8.693   8.571   1.045 -0.0017 -0.2440 -0.1711
25124SOL    HW177572   8.667   8.657   1.011 -1.0395 -0.9281 -1.1896
25124SOL    HW277573   8.673   8.575   1.139 -1.4915  0.1307 -0.4770
25125SOL     OW77574   8.819   0.920   6.247 -0.0283  0.2638 -0.1270
25125SOL    HW177575   8.846   0.865   6.173  0.5268  0.8568 -0.3695
25125SOL    HW277576   8.726   0.899   6.260  0.7323 -2.8119  1.5447
25126SOL     OW77577   1.934   8.996   7.161 -0.4089  0.5571  0.2161
25126SOL    HW177578   1.996   9.063   7.192  0.0087  0.2720  0.0083
25126SOL    HW277579   1.989   8.934   7.112 -1.2036  1.8246 -2.5070
25127SOL     OW77580   1.760   5.079   7.823 -0.6685 -0.2957  0.4745
25127SOL    HW177581   1.731   5.135   7.896 -2.3543 -1.4542  0.7574
25127SOL    HW277582   1.833   5.127   7.784 -1.1004  1.3934  1.5989
25128SOL     OW77583   7.445   5.888   6.114  0.1432 -0.1776  0.0895
25128SOL    HW177584   7.382   5.820   6.088  2.0228 -1.9760  0.0086
25128SOL    HW277585   7.437   5.893   6.209 -0.7266  0.2503  0.0025
25129SOL     OW77586   4.216   0.974   7.816  0.4009 -0.5070 -0.1257
25129SOL    HW177587   4.259   0.890   7.798  0.4887 -0.8401  1.4542
25129SOL    HW277588   4.270   1.014   7.884 -0.3244  0.2827 -0.0029
25130SOL     OW77589   2.353   4.920   2.858  0.1714  0.1885 -0.3115
25130SOL    HW177590   2.390   5.004   2.828 -3.1313  1.2056 -2.0561
25130SOL    HW277591   2.358   4.925   2.953  3.0695  0.7874 -0.3833
25131SOL     OW77592   1.248   6.024   4.401 -0.2315 -0.9566  0.3038
25131SOL    HW177593   1.282   5.949   4.449 -1.9029 -2.6476 -0.9692
25131SOL    HW277594   1.153   6.012   4.403 -0.4403  0.0035 -1.6560
25132SOL     OW77595   0.564   6.662   2.986  0.1252  0.2265 -0.8158
25132SOL    HW177596   0.547   6.750   2.952 -1.2671  0.4272  0.3157
25132SOL    HW277597   0.621   6.677   3.062  0.2645  0.1072 -0.8961
25133SOL     OW77598   4.915   5.318   1.184 -0.2481 -0.2762  0.6254
25133SOL    HW177599   4.865   5.364   1.251 -0.7137 -0.8209  0.6553
25133SOL    HW277600   4.853   5.303   1.113 -0.0064 -0.5304  0.4657
25134SOL     OW77601   8.486   5.937   1.696 -0.3877  0.4044 -0.0265
25134SOL    HW177602   8.463   6.019   1.740 -0.7060  0.0228  0.5212
25134SOL    HW277603   8.414   5.878   1.715 -1.5555  0.7936 -2.6910
25135SOL     OW77604   6.407   8.806   5.336  0.5496  0.6697 -0.8123
25135SOL    HW177605   6.357   8.739   5.290  1.9568  0.6074 -2.3678
25135SOL    HW277606   6.348   8.881   5.341 -0.5521 -0.1998 -0.3027
25136SOL     OW77607   5.950   0.521   2.235  0.1327 -0.1828 -0.3217
25136SOL    HW177608   5.988   0.536   2.148  1.9427 -0.2569  0.4142
25136SOL    HW277609   5.913   0.606   2.260  0.8033  0.2112 -0.6221
25137SOL     OW77610   3.885   7.352   9.122  0.3868 -0.5843 -0.5732
25137SOL    HW177611   3.793   7.343   9.145  0.6330 -1.1003  0.2644
25137SOL    HW277612   3.888   7.339   9.027 -0.3618 -0.9379 -0.5513
25138SOL     OW77613   3.927   2.780   2.980  0.4452  0.2861  0.4119
25138SOL    HW177614   3.992   2.827   3.033  0.0541  1.9846 -0.5256
25138SOL    HW277615   3.975   2.752   2.902  0.7390 -1.1537  1.0886
25139SOL     OW77616   6.405   7.233   5.529 -0.3879 -0.0418  0.2391
25139SOL    HW177617   6.340   7.276   5.474  0.8750 -0.2622 -1.4728
25139SOL    HW277618   6.360   7.154   5.561  0.0658 -2.1939 -3.8788
25140SOL     OW77619   3.202   8.850   2.601 -0.1303  0.5347  0.7892
25140SOL    HW177620   3.295   8.858   2.623  0.0435 -2.0609  1.2759
25140SOL    HW277621   3.166   8.938   2.616  2.3742  1.8067 -0.2112
25141SOL     OW77622   5.831   0.052   1.622 -0.0562 -0.7932  0.2658
25141SOL    HW177623   5.808  -0.022   1.566  1.0228 -0.8827 -0.0860
25141SOL    HW277624   5.798   0.027   1.709 -0.6476 -1.2011 -0.0624
25142SOL     OW77625   7.760   3.670   6.920 -0.4117 -0.3660  0.1449
25142SOL    HW177626   7.714   3.753   6.911 -0.3368 -0.4396 -1.1463
25142SOL    HW277627   7.837   3.690   6.973  0.1699  0.6289 -1.0295
25143SOL     OW77628   6.971   3.264   3.596 -0.3705  0.5034  0.1745
25143SOL    HW177629   6.974   3.213   3.515  0.3078  0.8200 -0.0038
25143SOL    HW277630   6.917   3.340   3.574 -1.8769 -0.4134  0.6098
25144SOL     OW77631   4.873   5.860   0.632  0.0687  0.2716  0.0316
25144SOL    HW177632   4.961   5.848   0.668  0.6429 -2.0045 -1.8571
25144SOL    HW277633   4.888   5.868   0.537 -1.7653 -0.4965 -0.3582
25145SOL     OW77634   3.362   3.468   1.760 -0.2417 -0.6690 -0.2047
25145SOL    HW177635   3.441   3.434   1.802 -1.9072 -0.3830  3.6486
25145SOL    HW277636   3.304   3.392   1.753 -0.4180 -0.4722 -0.9590
25146SOL     OW77637   6.610   1.328   2.625 -0.2143  0.1646  0.1270
25146SOL    HW177638   6.662   1.252   2.652  1.6004  0.3116 -2.5759
25146SOL    HW277639   6.523   1.291   2.606  0.1525 -0.9106  0.4430
25147SOL     OW77640   6.434   0.861   7.043 -0.2687 -0.6245  0.0038
25147SOL    HW177641   6.432   0.830   6.953 -1.2958 -3.3883  0.9037
25147SOL    HW277642   6.375   0.804   7.091 -0.2095  1.1175  2.3726
25148SOL     OW77643   7.529   1.312   8.123 -0.2533 -0.0961  0.1206
25148SOL    HW177644   7.569   1.275   8.044  0.9644  0.3696  0.4944
25148SOL    HW277645   7.510   1.236   8.178  1.1399 -0.2818  0.3854
25149SOL     OW77646   7.199   1.174   1.126  0.3419  0.0374 -0.2374
25149SOL    HW177647   7.271   1.233   1.148  0.8220 -0.1408 -1.2769
25149SOL    HW277648   7.218   1.145   1.037 -2.6061  2.3383 -1.7482
25150SOL     OW77649   5.644   7.466   4.575 -0.6958  0.2023  0.3155
25150SOL    HW177650   5.583   7.526   4.533  0.5004  0.8880 -0.4860
25150SOL    HW277651   5.707   7.523   4.619  0.3507 -0.4568 -0.3025
25151SOL     OW77652   9.169   6.832   7.585  0.2909 -0.2669  0.4443
25151SOL    HW177653   9.242   6.781   7.620  0.3539 -0.3705  0.1579
25151SOL    HW277654   9.125   6.867   7.663  0.7916  0.0032  0.6075
25152SOL     OW77655   5.128   5.020   2.890  0.5994 -0.2699 -0.2717
25152SOL    HW177656   5.141   4.959   2.963  1.4388  0.2614  0.0348
25152SOL    HW277657   5.055   4.983   2.841  0.9475 -1.4091  0.0341
25153SOL     OW77658   6.981   3.012   5.708  0.5186 -0.1003  0.0670
25153SOL    HW177659   6.946   2.943   5.652 -1.0411  0.4632  0.3079
25153SOL    HW277660   6.960   3.093   5.663 -1.7751  0.4421  1.8932
25154SOL     OW77661   8.475   8.710   8.213  0.4379  0.2001  0.9090
25154SOL    HW177662   8.521   8.755   8.284  2.1423  0.7739 -0.5000
25154SOL    HW277663   8.516   8.624   8.208 -0.3678 -0.2173  1.2455
25155SOL     OW77664   3.618   5.657   0.871  0.5661 -0.1029 -0.2196
25155SOL    HW177665   3.568   5.728   0.912  2.7416  0.9650  0.7714
25155SOL    HW277666   3.614   5.585   0.935  0.6104  0.1141  0.0282
25156SOL     OW77667   1.440   2.351   6.153 -0.1911  0.3200 -0.6390
25156SOL    HW177668   1.396   2.286   6.098  1.3469 -0.0138 -1.5482
25156SOL    HW277669   1.394   2.347   6.237 -2.0552  0.2381 -1.6204
25157SOL     OW77670   3.584   0.185   7.927  0.0013  0.0910 -0.5051
25157SOL    HW177671   3.566   0.273   7.892 -0.4585  0.1811 -0.0502
25157SOL    HW277672   3.528   0.127   7.875 -0.9594  0.2663  0.2956
25158SOL     OW77673   7.282   7.003   5.520  0.3752 -0.2371 -0.5322
25158SOL    HW177674   7.353   7.019   5.582 -1.2032  3.3695  0.6325
25158SOL    HW277675   7.203   6.999   5.575 -0.7579  0.1629 -2.0580
25159SOL     OW77676   3.721   7.265   7.554  0.6381 -0.1963 -0.1596
25159SOL    HW177677   3.797   7.286   7.500  1.6838 -0.1807  1.2572
25159SOL    HW277678   3.661   7.339   7.542  1.6378  0.6698  0.0780
25160SOL     OW77679   6.459   7.075   1.609  0.4577 -0.3408  0.3158
25160SOL    HW177680   6.381   7.118   1.574 -0.6559 -0.7975  2.1083
25160SOL    HW277681   6.512   7.146   1.644  0.4051 -0.1097 -0.0636
25161SOL     OW77682   8.957   6.066   0.555  0.7066 -0.2964 -0.8419
25161SOL    HW177683   8.926   5.978   0.574  1.5390 -0.5020 -0.3791
25161SOL    HW277684   8.991   6.061   0.465 -1.1780  0.1075 -1.6184
25162SOL     OW77685   7.184   1.233   8.863  0.9752 -0.0649  0.0543
25162SOL    HW177686   7.102   1.187   8.880  2.2672 -2.2952  0.6272
25162SOL    HW277687   7.161   1.326   8.868 -1.3084 -0.6210  1.1114
25163SOL     OW77688   2.232   5.428   5.212  0.0428  0.4842 -0.1926
25163SOL    HW177689   2.196   5.475   5.288  0.8504 -0.1751  0.6280
25163SOL    HW277690   2.312   5.387   5.245  1.4190  1.6637 -1.8714
25164SOL     OW77691   5.992   8.212   4.556 -0.0053 -0.1702 -0.2466
25164SOL    HW177692   5.997   8.174   4.643  3.2993  0.0998 -0.1771
25164SOL    HW277693   5.941   8.150   4.504 -0.1775 -1.4199  1.3699
25165SOL     OW77694   0.806   5.067   7.985  0.2138 -0.0319  0.0045
25165SOL    HW177695   0.734   5.125   7.959  0.4851  0.1051 -0.4465
25165SOL    HW277696   0.842   5.109   8.064 -0.2846 -0.1758  0.3106
25166SOL     OW77697   0.113   1.770   7.833 -0.3811  0.3653  0.0593
25166SOL    HW177698   0.139   1.678   7.840 -1.2521 -0.0879 -1.8020
25166SOL    HW277699   0.195   1.819   7.836  0.3709 -0.6975 -1.5165
25167SOL     OW77700   3.953   5.421   6.431 -0.3645 -0.1073 -0.2808
25167SOL    HW177701   3.860   5.413   6.411 -0.3871 -0.3491 -0.0887
25167SOL    HW277702   3.991   5.462   6.353 -0.7487  0.6871 -0.0614
25168SOL     OW77703   8.500   6.470   0.180 -0.0069  0.2440 -0.3126
25168SOL    HW177704   8.557   6.511   0.245  0.8627 -0.1824 -0.7896
25168SOL    HW277705   8.460   6.396   0.225  1.0197 -0.3856 -0.3954
25169SOL     OW77706   8.552   0.331   7.141  0.9818 -0.1297 -0.2163
25169SOL    HW177707   8.569   0.387   7.065  0.9193 -1.1640 -1.0011
25169SOL    HW277708   8.529   0.246   7.104 -0.3094 -0.3202  0.9274
25170SOL     OW77709   7.221   5.392   3.790 -0.1501 -0.5121  0.0082
25170SOL    HW177710   7.284   5.389   3.718 -0.2205 -0.5840 -0.0510
25170SOL    HW277711   7.264   5.344   3.861  0.6493  1.0117  0.6076
25171SOL     OW77712   9.291   5.668   1.871  0.1490  0.0571 -0.0155
25171SOL    HW177713   9.355   5.692   1.804 -0.7319  0.8095 -0.6163
25171SOL    HW277714   9.243   5.595   1.832  0.6229 -0.5084  0.4361
25172SOL     OW77715   6.562   2.475   7.055  0.0362 -0.5695  0.4683
25172SOL    HW177716   6.572   2.388   7.094  2.2923 -0.7697 -0.4106
25172SOL    HW277717   6.518   2.459   6.971 -0.6050 -0.7007  0.8237
25173SOL     OW77718   3.377   8.595   5.945  0.3569  0.7880  0.1033
25173SOL    HW177719   3.385   8.617   5.852  0.6637 -2.1360 -0.6499
25173SOL    HW277720   3.283   8.598   5.963  0.0747 -0.8453 -0.9494
25174SOL     OW77721   1.050   8.251   4.433 -0.0092  0.6807 -0.3807
25174SOL    HW177722   0.979   8.209   4.482 -0.6743  1.2771 -0.8177
25174SOL    HW277723   1.111   8.179   4.413 -1.0088 -0.0454 -0.9265
25175SOL     OW77724   1.640   0.316   6.524  0.1568 -0.1550  0.1928
25175SOL    HW177725   1.705   0.348   6.463 -1.1827  1.2044 -0.5830
25175SOL    HW277726   1.577   0.268   6.470  0.6796 -1.8177  0.9786
25176SOL     OW77727   4.613   7.930   4.260  0.8052  0.0392 -0.1276
25176SOL    HW177728   4.558   7.853   4.247 -0.4067  0.6286  1.2499
25176SOL    HW277729   4.692   7.911   4.210  0.2797 -1.8144 -0.3483
25177SOL     OW77730   0.017   6.921   4.524  0.4692  0.3304 -0.3204
25177SOL    HW177731   0.090   6.976   4.551 -0.2025  1.1738 -0.1647
25177SOL    HW277732   0.039   6.893   4.436  0.5556  1.3472 -0.6338
25178SOL     OW77733   4.583   4.686   0.688  0.1125  0.8688  0.2732
25178SOL    HW177734   4.602   4.593   0.706  1.2262  1.3324  1.7042
25178SOL    HW277735   4.574   4.725   0.775 -0.4166  2.1081 -0.3204
25179SOL     OW77736   7.892   7.822   6.669  0.0908  0.3971  0.2311
25179SOL    HW177737   7.832   7.884   6.711  0.5215  0.5103  0.6788
25179SOL    HW277738   7.853   7.807   6.583  0.0341  1.3697  0.0747
25180SOL     OW77739   3.682   2.570   8.688  0.1255 -0.1408  0.4134
25180SOL    HW177740   3.626   2.627   8.635 -2.1044 -0.2702  2.4723
25180SOL    HW277741   3.753   2.627   8.717 -1.6926  1.5369  1.8688
25181SOL     OW77742   6.745   1.662   0.027  0.1575 -0.3129  0.4282
25181SOL    HW177743   6.725   1.598  -0.040  1.1365 -0.3819  0.1860
25181SOL    HW277744   6.672   1.723   0.025 -0.9905 -1.6197  0.9313
25182SOL     OW77745   4.260   9.161   1.311 -0.4804  0.1167  0.6021
25182SOL    HW177746   4.225   9.076   1.339 -0.9433  0.4519  1.0686
25182SOL    HW277747   4.233   9.169   1.220 -1.4576  0.2644  0.8867
25183SOL     OW77748   2.337   3.375   4.408 -0.4280 -0.1481 -0.3426
25183SOL    HW177749   2.345   3.432   4.484  0.6885 -1.7685  0.8033
25183SOL    HW277750   2.425   3.373   4.370 -0.1343 -2.0342  0.3572
25184SOL     OW77751   9.260   8.745   2.796 -0.9970  0.4836  0.8136
25184SOL    HW177752   9.278   8.838   2.780 -0.8981  0.3222 -0.0565
25184SOL    HW277753   9.260   8.705   2.709 -0.7969 -0.3793  1.1955
25185SOL     OW77754   9.014   4.184   1.896 -0.4831  0.0661  0.5040
25185SOL    HW177755   8.941   4.244   1.909  0.2222  0.5510  2.4787
25185SOL    HW277756   9.063   4.186   1.978  0.4640 -2.0127  0.0631
25186SOL     OW77757   6.301   7.579   0.825  0.0211 -0.4969  0.3688
25186SOL    HW177758   6.241   7.630   0.769 -0.6177  0.8979  2.2260
25186SOL    HW277759   6.360   7.536   0.763  2.1302  4.2748 -1.4493
25187SOL     OW77760   7.898   5.995   2.652 -0.0210 -0.1636  0.2940
25187SOL    HW177761   7.987   5.961   2.664 -0.3689 -1.8886 -1.5587
25187SOL    HW277762   7.899   6.080   2.696  2.6047 -0.0430  0.1562
25188SOL     OW77763   1.271   2.526   8.567  0.0019 -0.4896  0.7072
25188SOL    HW177764   1.342   2.575   8.608 -0.7133 -0.2929  1.7784
25188SOL    HW277765   1.259   2.567   8.482  0.5752  0.0500  0.8779
25189SOL     OW77766   5.214   5.711   2.136  0.0860  0.2014  0.1507
25189SOL    HW177767   5.145   5.729   2.072  0.5507 -0.1221 -0.4591
25189SOL    HW277768   5.295   5.728   2.088  0.4544 -0.5921  0.4798
25190SOL     OW77769   0.709   9.418   1.554  0.5482  0.2082 -0.3610
25190SOL    HW177770   0.650   9.426   1.629  0.6256 -1.3951 -0.0891
25190SOL    HW277771   0.676   9.342   1.505  1.0819  0.6331 -1.4154
25191SOL     OW77772   7.849   8.655   5.777  0.2071  0.0101 -0.3269
25191SOL    HW177773   7.783   8.723   5.785  1.9735  1.5578  2.3806
25191SOL    HW277774   7.914   8.691   5.716 -0.5540 -0.7954 -1.6540
25192SOL     OW77775   0.203   7.195   2.666  0.1291  0.1199  0.2366
25192SOL    HW177776   0.168   7.111   2.638 -2.4552  0.1528  2.8537
25192SOL    HW277777   0.173   7.258   2.600  0.0681 -0.6715 -0.4989
25193SOL     OW77778   0.952   5.310   5.589  0.0586  0.4368 -0.5258
25193SOL    HW177779   0.996   5.386   5.550  0.2327  0.8099  0.3828
25193SOL    HW277780   0.913   5.344   5.670 -0.3885 -0.3048 -0.4224
25194SOL     OW77781   9.268   8.611   7.976  0.1209 -0.1814  0.2806
25194SOL    HW177782   9.291   8.667   7.902 -0.0390 -0.8657 -0.3022
25194SOL    HW277783   9.300   8.524   7.951 -0.6984 -0.5997  0.6332
25195SOL     OW77784   7.648   0.979   3.601 -0.4592  0.0007  0.3093
25195SOL    HW177785   7.588   1.046   3.567 -1.1353 -0.1868  1.1041
25195SOL    HW277786   7.591   0.912   3.639  0.2537 -0.1278  1.1894
25196SOL     OW77787   8.835   1.134   2.524  0.2839  0.8386 -0.1235
25196SOL    HW177788   8.772   1.204   2.505 -0.2132  0.5874  0.5875
25196SOL    HW277789   8.887   1.127   2.444 -0.8460  0.7773 -0.8741
25197SOL     OW77790   4.825   2.973   4.872  0.3026  0.3945 -0.1746
25197SOL    HW177791   4.916   2.988   4.894 -0.0815  0.3355  1.5948
25197SOL    HW277792   4.799   3.049   4.819  1.8030 -0.4235 -2.2209
25198SOL     OW77793   3.339   3.201   7.465  0.3112  0.5759  0.5373
25198SOL    HW177794   3.279   3.250   7.408  0.2237 -0.4112 -0.2646
25198SOL    HW277795   3.283   3.166   7.534  0.2454  0.9835  0.6932
25199SOL     OW77796   6.566   0.245   5.912 -0.0157  0.7961  0.3663
25199SOL    HW177797   6.497   0.291   5.864  0.8197  1.4138 -0.2731
25199SOL    HW277798   6.630   0.313   5.934  1.5327 -0.1022 -1.0830
25200SOL     OW77799   7.431   6.533   4.049 -0.5549  0.5211 -0.0454
25200SOL    HW177800   7.450   6.515   3.957 -0.3301 -1.0147  0.2730
25200SOL    HW277801   7.374   6.610   4.047 -2.3371 -0.7397 -1.6099
25201SOL     OW77802   7.220   4.639   6.747  0.1003  0.3306 -0.4125
25201SOL    HW177803   7.251   4.727   6.766  0.3219  0.2042 -0.1677
25201SOL    HW277804   7.140   4.651   6.696  1.2111  0.6607 -2.1648
25202SOL     OW77805   6.436   0.704   6.808  0.1034 -0.0423  0.2366
25202SOL    HW177806   6.509   0.652   6.841  0.7686  0.5531 -0.2644
25202SOL    HW277807   6.458   0.722   6.716 -0.0010  1.2998  0.4525
25203SOL     OW77808   0.923   0.853   2.015 -0.1821  0.0725 -0.5597
25203SOL    HW177809   0.981   0.924   2.042  1.9119 -1.3112 -1.1681
25203SOL    HW277810   0.870   0.834   2.092  0.3725  1.1803  0.1126
25204SOL     OW77811   1.172   0.729   1.571 -0.4210 -0.4185  0.2561
25204SOL    HW177812   1.201   0.778   1.494 -0.2487 -0.8360  0.0518
25204SOL    HW277813   1.143   0.645   1.536  1.1052 -1.2124  0.7989
25205SOL     OW77814   2.346   4.026   2.762 -0.1812  0.0401  0.0588
25205SOL    HW177815   2.332   4.121   2.769 -3.9351 -0.4772  1.8360
25205SOL    HW277816   2.363   3.997   2.852 -0.4537 -1.1553 -0.2577
25206SOL     OW77817   0.855   3.945   2.086  0.1007  0.2802  0.1681
25206SOL    HW177818   0.891   3.892   2.157  0.7317  1.0523  0.4385
25206SOL    HW277819   0.855   3.886   2.010  0.0680 -0.3382  0.6423
25207SOL     OW77820   3.112   0.406   3.758  0.3818  0.2674 -0.3098
25207SOL    HW177821   3.200   0.441   3.770  1.3515 -2.2531  0.4730
25207SOL    HW277822   3.123   0.331   3.700 -0.8940 -1.3439  1.4094
25208SOL     OW77823   4.842   9.564   4.001  0.4997 -0.2654 -0.1261
25208SOL    HW177824   4.836   9.561   4.096  3.0401  2.2531  0.2584
25208SOL    HW277825   4.777   9.630   3.975  0.7173 -0.0052 -0.0063
25209SOL     OW77826   1.536   9.164   9.205 -0.0612  0.1413  0.3880
25209SOL    HW177827   1.522   9.190   9.296  2.5619  0.4396  0.7925
25209SOL    HW277828   1.528   9.246   9.156  0.1656  0.2781  0.5774
25210SOL     OW77829   2.378   6.240   2.238 -0.1980 -0.5392  0.3528
25210SOL    HW177830   2.445   6.303   2.266  0.2437 -0.9700  0.2708
25210SOL    HW277831   2.323   6.289   2.177  0.1249 -0.2231  0.3131
25211SOL     OW77832   2.813   6.272   0.925 -0.0567 -0.4172 -0.2952
25211SOL    HW177833   2.904   6.273   0.895  0.2556 -0.1827  0.6461
25211SOL    HW277834   2.816   6.229   1.011 -0.8186 -0.2931 -0.1964
25212SOL     OW77835   4.447   9.218   1.039 -0.4279  0.3229 -0.4561
25212SOL    HW177836   4.352   9.219   1.042 -0.4633 -1.1407 -0.2639
25212SOL    HW277837   4.469   9.133   1.000  0.8271 -0.4898  1.8357
25213SOL     OW77838   5.017   8.061   6.865 -0.3005 -0.5214  0.2038
25213SOL    HW177839   5.062   8.144   6.882 -0.9306  0.0339 -0.7913
25213SOL    HW277840   5.018   8.016   6.950  0.1858  0.4278  0.7205
25214SOL     OW77841   9.118   4.031   9.360  0.1400  0.0421 -0.7600
25214SOL    HW177842   9.098   3.939   9.345 -1.7775  0.1565  0.7492
25214SOL    HW277843   9.137   4.066   9.272  1.9870 -1.9590 -1.2442
25215SOL     OW77844   3.522   0.677   1.861  0.5186 -0.6468 -0.1361
25215SOL    HW177845   3.526   0.676   1.956  1.8413 -0.3441 -0.1706
25215SOL    HW277846   3.575   0.602   1.834 -0.3450 -1.1026 -0.6470
25216SOL     OW77847   3.415   0.051   5.035 -0.5036  0.2359 -0.1169
25216SOL    HW177848   3.382   0.139   5.051 -3.0797 -0.9149  1.6861
25216SOL    HW277849   3.417   0.043   4.940 -0.1478  2.2316 -0.3186
25217SOL     OW77850   7.665   8.147   2.156  0.1946 -0.2485 -0.7274
25217SOL    HW177851   7.697   8.151   2.246 -1.4059 -1.7650 -0.0304
25217SOL    HW277852   7.573   8.174   2.163  0.1324 -0.0985 -1.9662
25218SOL     OW77853   2.942   3.021   7.342  0.6611 -0.5457  0.0740
25218SOL    HW177854   2.930   3.028   7.248 -2.1765 -2.9907  0.1008
25218SOL    HW277855   2.918   3.108   7.376  4.1973  1.2109 -1.4620
25219SOL     OW77856   8.029   8.564   3.539 -0.2872  0.0507  0.2892
25219SOL    HW177857   7.967   8.618   3.588 -0.9117  0.2937 -0.7396
25219SOL    HW277858   8.080   8.627   3.488 -0.8072 -0.2934 -0.6732
25220SOL     OW77859   7.427   5.684   3.669 -0.1087 -0.4911  0.0555
25220SOL    HW177860   7.364   5.732   3.615  2.1856  2.6411 -0.1125
25220SOL    HW277861   7.389   5.686   3.757 -0.5330  0.8323 -0.1359
25221SOL     OW77862   6.537   1.129   4.055 -0.1109 -0.2413  0.1740
25221SOL    HW177863   6.593   1.205   4.044 -0.3151 -0.2882 -1.5203
25221SOL    HW277864   6.561   1.093   4.140 -0.0301  1.7121  1.0280
25222SOL     OW77865   1.661   7.614   0.766 -0.1179 -0.3541 -0.0958
25222SOL    HW177866   1.585   7.646   0.815  1.0208  1.7544  0.4199
25222SOL    HW277867   1.635   7.620   0.674 -0.5061  0.6135  0.0647
25223SOL     OW77868   4.347   5.385   4.956 -0.7849 -0.1288  0.1395
25223SOL    HW177869   4.292   5.446   4.907 -1.3576 -1.2102 -0.5961
25223SOL    HW277870   4.413   5.441   4.998 -1.7211  1.0639  0.0786
25224SOL     OW77871   3.467   0.911   6.392 -0.0802 -0.2834 -1.0215
25224SOL    HW177872   3.392   0.861   6.423 -0.4946  0.9562  0.0158
25224SOL    HW277873   3.432   0.997   6.369  0.9782  0.2393 -0.7566
25225SOL     OW77874   7.078   8.981   7.162  0.4395  0.8252  0.7975
25225SOL    HW177875   7.037   9.023   7.238 -2.1549 -0.1449  0.0637
25225SOL    HW277876   7.068   9.044   7.091 -0.9739  0.1301  0.3381
25226SOL     OW77877   0.228   6.321   5.259 -0.2590  0.3682  0.1979
25226SOL    HW177878   0.140   6.317   5.222 -0.1178  0.4563 -0.1496
25226SOL    HW277879   0.276   6.251   5.215  0.0067  0.6990 -0.0443
25227SOL     OW77880   2.699   4.704   7.326 -0.1794  0.1471  0.0237
25227SOL    HW177881   2.729   4.683   7.415 -2.0325 -0.7631  0.4881
25227SOL    HW277882   2.607   4.727   7.337 -1.5345 -3.5813 -2.0404
25228SOL     OW77883   1.205   1.957   8.468 -0.0840 -0.5509  0.1475
25228SOL    HW177884   1.214   1.988   8.558 -1.0083 -3.8319  1.5341
25228SOL    HW277885   1.293   1.932   8.442  0.1617  0.2551  0.1850
25229SOL     OW77886   4.176   6.642   4.732 -0.1532 -0.1016  0.6305
25229SOL    HW177887   4.130   6.684   4.805 -1.2791 -1.5812  0.8279
25229SOL    HW277888   4.122   6.566   4.710  0.7077 -0.2719 -1.0823
25230SOL     OW77889   5.595   7.797   9.374  0.7574 -0.0160 -0.2028
25230SOL    HW177890   5.587   7.859   9.302  2.2725 -0.4474 -0.7739
25230SOL    HW277891   5.626   7.849   9.448 -2.1143  0.7035  0.6159
25231SOL     OW77892   1.889   5.217   1.288 -0.4503 -0.0509 -0.8055
25231SOL    HW177893   1.915   5.277   1.359  0.9117 -0.6199 -0.7950
25231SOL    HW277894   1.846   5.274   1.224 -1.2051  0.5646  0.2211
25232SOL     OW77895   7.731   1.766   0.136 -0.7308 -0.3632 -0.3757
25232SOL    HW177896   7.705   1.676   0.116 -1.5109 -0.4466  0.9036
25232SOL    HW277897   7.661   1.819   0.099 -0.2077 -0.2563 -1.2402
25233SOL     OW77898   7.344   1.844   7.426 -0.2643 -0.2108 -0.2256
25233SOL    HW177899   7.430   1.880   7.405 -0.4296 -0.2017 -0.9275
25233SOL    HW277900   7.359   1.785   7.499 -0.0074  1.3926  1.0639
25234SOL     OW77901   6.621   4.787   1.811  0.1503  0.0916 -0.1111
25234SOL    HW177902   6.601   4.694   1.798  2.2055 -0.6436  1.3538
25234SOL    HW277903   6.716   4.793   1.800  0.1945  1.8319  0.7931
25235SOL     OW77904   4.257   1.618   5.906 -0.0223  0.3102  0.4401
25235SOL    HW177905   4.282   1.645   5.994 -2.6983 -1.8508  2.0566
25235SOL    HW277906   4.235   1.700   5.861  3.4382  1.6580  0.9256
25236SOL     OW77907   9.016   0.322   6.262  0.2015 -0.3207 -0.2884
25236SOL    HW177908   8.999   0.295   6.172 -0.5938  0.3203 -0.3367
25236SOL    HW277909   9.082   0.260   6.293  0.7103 -0.3642 -1.4019
25237SOL     OW77910   7.275   0.180   7.659 -0.6961 -0.1293 -0.3194
25237SOL    HW177911   7.247   0.251   7.716 -0.7129  0.5319 -1.1381
25237SOL    HW277912   7.206   0.172   7.593 -0.7819 -1.0249 -0.1321
25238SOL     OW77913   4.011   8.715   1.658  0.1283  0.5090  0.1265
25238SOL    HW177914   3.981   8.723   1.567 -1.4555 -0.2233  0.5556
25238SOL    HW277915   3.931   8.699   1.709  1.2749 -2.2794  1.2568
25239SOL     OW77916   5.304   1.102   9.249  0.0605  0.1300 -0.0500
25239SOL    HW177917   5.283   1.101   9.156 -2.0628 -1.4754  0.3700
25239SOL    HW277918   5.240   1.163   9.287  0.4170  0.1959  0.4603
25240SOL     OW77919   9.239   7.222   6.956  0.2231  0.2445 -0.0170
25240SOL    HW177920   9.289   7.304   6.955 -1.7068  1.5278 -1.6752
25240SOL    HW277921   9.222   7.205   7.048  2.4128  0.5306  0.4979
25241SOL     OW77922   2.409   6.564   1.073  0.1381 -0.3728 -0.1821
25241SOL    HW177923   2.481   6.505   1.049  0.5549  0.6329 -1.5943
25241SOL    HW277924   2.433   6.648   1.032 -2.2740 -0.2313 -1.4881
25242SOL     OW77925   2.050   4.244   1.772  0.3247  0.0822 -0.4075
25242SOL    HW177926   2.077   4.335   1.784 -0.6886  0.3825 -0.3422
25242SOL    HW277927   2.023   4.214   1.859 -1.2821  0.3734 -0.7780
25243SOL     OW77928   0.247   3.589   7.721  0.0338 -0.6054 -0.4376
25243SOL    HW177929   0.310   3.579   7.792 -0.1635  1.3937  0.1004
25243SOL    HW277930   0.170   3.540   7.750 -0.1828  0.4847  0.9511
25244SOL     OW77931   1.628   5.386   7.690 -0.4957 -0.0637  0.0542
25244SOL    HW177932   1.713   5.430   7.689  0.3347 -1.5110  1.6504
25244SOL    HW277933   1.579   5.429   7.760 -0.1692 -0.7716  0.7326
25245SOL     OW77934   5.428   7.883   7.977 -0.7041  0.1359 -0.4777
25245SOL    HW177935   5.359   7.921   7.923 -0.2439  0.5748 -0.7701
25245SOL    HW277936   5.416   7.922   8.064 -0.4859  0.6421 -0.6723
25246SOL     OW77937   1.760   4.571   5.913  0.5185 -0.5711 -0.5054
25246SOL    HW177938   1.779   4.656   5.953 -2.0937  0.3186 -0.9504
25246SOL    HW277939   1.831   4.558   5.850  1.3482  0.9470  0.0762
25247SOL     OW77940   4.998   6.078   4.412 -0.2879  0.4023  0.0237
25247SOL    HW177941   5.033   6.069   4.501 -0.9719 -0.5943  0.2092
25247SOL    HW277942   5.060   6.135   4.367  1.0718 -0.5687  0.6156
25248SOL     OW77943   2.566   0.520   7.904  0.2450  0.3222 -0.4711
25248SOL    HW177944   2.563   0.614   7.921  0.8184  0.2914 -0.1706
25248SOL    HW277945   2.615   0.512   7.822 -1.5759  0.4009 -1.6325
25249SOL     OW77946   8.528   1.179   2.518  0.0224 -0.2515 -0.6206
25249SOL    HW177947   8.505   1.225   2.598  3.2536  1.1231 -0.3030
25249SOL    HW277948   8.445   1.164   2.473 -1.8961 -0.8241  2.7863
25250SOL     OW77949   5.612   2.051   1.728 -0.7403  0.7118 -0.2598
25250SOL    HW177950   5.678   2.099   1.677  0.7543 -0.0910  0.8565
25250SOL    HW277951   5.600   1.969   1.680  0.6039 -0.0071  0.5539
25251SOL     OW77952   7.988   4.769   2.993  0.2152 -0.2589  1.1628
25251SOL    HW177953   7.966   4.857   3.023  0.0860  0.2639 -0.3844
25251SOL    HW277954   8.052   4.782   2.923 -2.0596 -1.1240 -1.2590
25252SOL     OW77955   3.030   0.129   6.303  0.4140  0.1869  0.2111
25252SOL    HW177956   2.965   0.192   6.333 -0.4310 -0.6417  0.1909
25252SOL    HW277957   2.980   0.048   6.291  1.1544 -0.0859 -1.2671
25253SOL     OW77958   9.321   1.908   6.448  0.1142 -0.3741  0.5020
25253SOL    HW177959   9.339   1.942   6.536 -0.7042 -1.4083  1.0863
25253SOL    HW277960   9.314   1.814   6.459 -1.6181 -0.3896 -0.3744
25254SOL     OW77961   4.328   2.261   7.949 -0.2647  0.2971 -0.3711
25254SOL    HW177962   4.275   2.295   8.021 -1.3728  0.4935 -1.2489
25254SOL    HW277963   4.294   2.173   7.934  1.0190 -0.3608  0.3430
25255SOL     OW77964   4.932   7.383   2.955  0.0677 -0.0076 -0.2784
25255SOL    HW177965   4.951   7.337   3.036 -0.7504  0.5567  0.2426
25255SOL    HW277966   4.838   7.399   2.957  0.2316  1.1319 -0.7363
25256SOL     OW77967   1.991   1.945   1.912  0.2498  0.0754 -0.0503
25256SOL    HW177968   1.916   1.894   1.882  0.6221 -0.4143 -0.1797
25256SOL    HW277969   1.995   1.928   2.006  0.2507  0.0187 -0.0600
25257SOL     OW77970   7.152   4.793   8.237 -0.2285  0.0534  0.1215
25257SOL    HW177971   7.079   4.822   8.183 -0.2719 -0.9623 -0.3855
25257SOL    HW277972   7.146   4.697   8.236  0.8918 -0.0305  0.3797
25258SOL     OW77973   2.960   5.420   7.223  0.4741 -0.1612 -0.1505
25258SOL    HW177974   2.888   5.455   7.276  0.9285  1.5445 -0.5853
25258SOL    HW277975   2.929   5.334   7.194 -1.0456  0.1796  0.3570
25259SOL     OW77976   7.490   0.208   0.195 -0.3775  0.0525  0.1022
25259SOL    HW177977   7.569   0.157   0.214  0.5059  0.9337 -1.0832
25259SOL    HW277978   7.505   0.292   0.237 -2.1513 -0.8132  2.6746
25260SOL     OW77979   1.964   5.759   1.055 -0.1457 -0.5634 -0.2425
25260SOL    HW177980   2.024   5.818   1.010 -0.4673 -0.3827 -0.4302
25260SOL    HW277981   1.948   5.802   1.140  0.7333 -1.0707  0.2038
25261SOL     OW77982   6.003   6.906   9.018 -0.0888  0.0376 -0.3852
25261SOL    HW177983   5.911   6.902   9.042 -0.5147 -2.7434 -2.0965
25261SOL    HW277984   6.048   6.860   9.089 -0.0454  0.8608  0.1403
25262SOL     OW77985   4.679   7.581   8.136 -0.2299  0.3569  0.4018
25262SOL    HW177986   4.598   7.533   8.150  0.8305 -1.4848  0.6085
25262SOL    HW277987   4.746   7.513   8.130  1.1388  1.7403 -0.9905
25263SOL     OW77988   1.683   6.408   5.217 -0.8347 -0.5492  0.0246
25263SOL    HW177989   1.687   6.345   5.145 -1.8012  0.5719 -1.0743
25263SOL    HW277990   1.589   6.422   5.231 -0.6433  0.0737  0.7543
25264SOL     OW77991   7.829   5.080   1.944  0.2727 -0.3923 -0.1429
25264SOL    HW177992   7.868   5.104   1.860  0.9843 -0.2333  0.2236
25264SOL    HW277993   7.786   5.159   1.974  1.7558  0.1712  0.5886
25265SOL     OW77994   0.287   5.205   6.148 -0.4388 -0.2199 -0.4348
25265SOL    HW177995   0.380   5.184   6.144 -0.3891 -0.3081  0.6675
25265SOL    HW277996   0.275   5.274   6.083  0.3268 -0.4354 -0.8175
25266SOL     OW77997   7.409   6.365   2.969  0.1547 -0.4840  0.0368
25266SOL    HW177998   7.346   6.333   2.905  1.8857 -0.5256 -1.7390
25266SOL    HW277999   7.409   6.299   3.039 -1.9930 -0.2737  0.2925
25267SOL     OW78000   3.719   1.188   0.498  0.4259 -0.2096 -0.2309
25267SOL    HW178001   3.764   1.116   0.541  2.4420  0.7000 -0.6841
25267SOL    HW278002   3.744   1.181   0.406  0.6732  1.0416 -0.2857
25268SOL     OW78003   7.852   7.278   0.102 -0.4509 -0.5051  0.0414
25268SOL    HW178004   7.857   7.335   0.025  0.3181 -0.7086 -0.0684
25268SOL    HW278005   7.804   7.201   0.071 -0.2726 -0.5209 -0.2025
25269SOL     OW78006   3.099   9.489   3.901 -0.4301  0.1937 -0.4092
25269SOL    HW178007   3.151   9.448   3.971  1.6371 -2.2759 -3.1336
25269SOL    HW278008   3.132   9.578   3.895  2.0882 -0.6545 -0.5764
25270SOL     OW78009   1.371   0.028   1.242 -0.0821  0.6660  0.8858
25270SOL    HW178010   1.391   0.084   1.317 -0.8204  0.7045  1.0596
25270SOL    HW278011   1.276   0.019   1.243 -0.0853  0.5099  0.0652
25271SOL     OW78012   6.405   9.173   3.451 -0.0823 -0.4340  0.1266
25271SOL    HW178013   6.389   9.243   3.387 -0.3991 -1.0854 -0.5260
25271SOL    HW278014   6.319   9.154   3.488  0.3362  1.0832  2.0031
25272SOL     OW78015   6.857   8.718   3.384  0.1213 -0.3089  0.5624
25272SOL    HW178016   6.818   8.631   3.383  0.3207 -0.4016  0.6973
25272SOL    HW278017   6.790   8.774   3.423  0.0544 -0.4342  0.6300
25273SOL     OW78018   5.734   1.601   1.786 -0.2289 -0.6240  0.0958
25273SOL    HW178019   5.784   1.523   1.762  0.7026 -0.3423  1.0363
25273SOL    HW278020   5.654   1.595   1.734 -0.0022 -2.0050 -0.1409
25274SOL     OW78021   4.495   7.279   4.788 -0.1180 -0.0428 -0.3188
25274SOL    HW178022   4.447   7.353   4.751 -1.6663 -0.5975  0.5105
25274SOL    HW278023   4.461   7.202   4.742  0.0089 -0.4365  0.2247
25275SOL     OW78024   0.754   8.186   5.095  0.4040 -0.3617 -0.7450
25275SOL    HW178025   0.839   8.225   5.116  0.0671  0.1152 -0.2375
25275SOL    HW278026   0.692   8.259   5.099  0.0940 -0.5275 -1.9909
25276SOL     OW78027   7.499   1.969   4.349 -0.1656  0.2919 -0.0127
25276SOL    HW178028   7.561   2.008   4.288  2.1008 -1.8836  0.7605
25276SOL    HW278029   7.465   2.043   4.399  2.0324  1.5548 -0.2819
25277SOL     OW78030   3.639   6.666   7.827 -0.0631 -0.5932 -0.7142
25277SOL    HW178031   3.699   6.597   7.801  0.0808 -0.7294 -0.0139
25277SOL    HW278032   3.590   6.630   7.900  0.0231  0.0467 -0.3328
25278SOL     OW78033   3.039   3.682   7.962 -0.3452  0.2045 -0.8169
25278SOL    HW178034   3.107   3.617   7.984 -1.0126 -0.4316 -0.5629
25278SOL    HW278035   2.987   3.640   7.894 -0.8003  0.4598 -0.6340
25279SOL     OW78036   9.327   4.548   2.830  0.5068 -0.1750 -0.5723
25279SOL    HW178037   9.321   4.534   2.924 -1.0113  3.0203 -0.0624
25279SOL    HW278038   9.368   4.634   2.820  1.0353 -0.6143 -2.8811
25280SOL     OW78039   8.538   4.127   0.486  0.5298  0.0877  0.1305
25280SOL    HW178040   8.497   4.209   0.457  0.2670 -0.0631  0.0759
25280SOL    HW278041   8.483   4.097   0.558 -0.7075 -1.2136 -1.2968
25281SOL     OW78042   6.674   6.328   0.643  0.8252 -0.4510  0.4090
25281SOL    HW178043   6.595   6.348   0.592  0.6999 -2.9430 -0.4922
25281SOL    HW278044   6.715   6.414   0.658 -0.7647  0.6649 -1.2078
25282SOL     OW78045   3.996   4.233   5.526  0.4030 -0.0570 -0.6387
25282SOL    HW178046   4.031   4.167   5.585  0.4368 -0.2085 -0.8297
25282SOL    HW278047   4.011   4.198   5.438  0.1028  0.0387 -0.7322
25283SOL     OW78048   9.175   8.537   8.986 -0.3355  0.2077  0.0812
25283SOL    HW178049   9.171   8.598   9.060 -3.0403 -1.9718  1.9464
25283SOL    HW278050   9.085   8.535   8.953  0.2960 -0.7583 -1.6783
25284SOL     OW78051   1.464   9.212   0.626 -0.2219 -0.5498  0.2376
25284SOL    HW178052   1.534   9.148   0.641  0.4907  0.2771  0.5376
25284SOL    HW278053   1.476   9.278   0.695 -0.0384  0.6672 -0.9089
25285SOL     OW78054   7.999   2.067   3.023  1.0760  0.2039  0.2133
25285SOL    HW178055   8.039   2.048   2.938 -2.5288 -1.6126 -1.3140
25285SOL    HW278056   7.945   2.144   3.008 -0.3972 -0.7295  0.4545
25286SOL     OW78057   2.396   3.035   4.573 -0.2355 -0.0397  0.4341
25286SOL    HW178058   2.492   3.034   4.570 -0.1093  2.9165  0.5188
25286SOL    HW278059   2.375   3.085   4.651 -1.8012  0.8591 -0.5085
25287SOL     OW78060   2.486   9.025   8.534 -0.4127  0.2183  0.1822
25287SOL    HW178061   2.521   9.052   8.449 -1.5821 -0.1902 -0.4563
25287SOL    HW278062   2.475   9.106   8.583  0.9147  0.3995  0.2213
25288SOL     OW78063   2.538   3.252   1.040 -0.1462  0.1077  0.2848
25288SOL    HW178064   2.539   3.272   0.946 -2.2370  1.5632  0.5019
25288SOL    HW278065   2.574   3.164   1.046  0.3891  0.1273 -1.8420
25289SOL     OW78066   5.334   7.705   4.710  0.6100 -0.1649 -0.2687
25289SOL    HW178067   5.290   7.623   4.688  0.3161  0.2055 -1.1474
25289SOL    HW278068   5.303   7.767   4.643 -0.4207  1.0791  1.2914
25290SOL     OW78069   7.103   8.379   5.647  0.6429 -0.0605  0.3579
25290SOL    HW178070   7.080   8.434   5.722 -0.9551  1.3656 -1.0682
25290SOL    HW278071   7.033   8.314   5.642  0.9191 -0.3570  0.2953
25291SOL     OW78072   8.858   2.089   6.861 -0.1772  1.0867  0.1222
25291SOL    HW178073   8.792   2.091   6.930 -0.4571  0.2127 -0.1129
25291SOL    HW278074   8.809   2.088   6.779  0.1340  1.1776 -0.0680
25292SOL     OW78075   9.384   7.868   5.491 -0.1147 -0.4145 -0.2327
25292SOL    HW178076   9.390   7.873   5.396 -1.1075 -0.0726 -0.2895
25292SOL    HW278077   9.309   7.811   5.508 -0.5261  0.2679  0.3266
25293SOL     OW78078   1.898   5.083   4.344 -0.0552 -0.2028  0.4059
25293SOL    HW178079   1.828   5.079   4.279  1.3940 -3.0081 -1.1914
25293SOL    HW278080   1.873   5.018   4.410  0.7336 -0.8494  0.0924
25294SOL     OW78081   1.252   7.519   0.807 -0.4885  0.0389  0.0066
25294SOL    HW178082   1.235   7.507   0.713 -0.4234 -0.2580  0.0326
25294SOL    HW278083   1.177   7.478   0.850  0.8526 -2.4235  0.1628
25295SOL     OW78084   6.920   9.054   2.751 -0.0076  0.1522  0.1351
25295SOL    HW178085   6.946   9.139   2.786  0.6517  1.1577 -2.5646
25295SOL    HW278086   6.827   9.047   2.771 -0.5256  2.4215 -1.2025
25296SOL     OW78087   4.518   8.417   3.972 -0.1871 -0.0497  0.3425
25296SOL    HW178088   4.528   8.510   3.951 -1.4451  0.2720  1.0646
25296SOL    HW278089   4.547   8.371   3.893 -1.3320  1.0221 -0.7325
25297SOL     OW78090   3.840   8.220   0.802  0.3505 -0.0514  0.2845
25297SOL    HW178091   3.862   8.291   0.862 -0.2592  0.5725 -0.2164
25297SOL    HW278092   3.920   8.208   0.750  2.1304 -2.8354  3.2771
25298SOL     OW78093   0.827   1.385   3.133  0.1984  0.5538 -0.2383
25298SOL    HW178094   0.892   1.381   3.203  0.5098  0.6020 -0.5239
25298SOL    HW278095   0.819   1.478   3.112 -1.5486  0.7879  1.2661
25299SOL     OW78096   8.424   0.382   7.903 -0.0609 -0.2448 -0.0826
25299SOL    HW178097   8.424   0.475   7.879 -0.2080 -0.1428  0.2968
25299SOL    HW278098   8.492   0.375   7.970 -1.0599 -0.1155  0.9716
25300SOL     OW78099   8.420   3.325   2.773  0.3084 -0.2037  0.0913
25300SOL    HW178100   8.507   3.348   2.806 -0.6065  0.1424  2.4284
25300SOL    HW278101   8.375   3.410   2.763  0.5075 -0.2942 -2.0922
25301SOL     OW78102   0.626   7.715   1.329 -0.0244  0.0265  0.0647
25301SOL    HW178103   0.619   7.793   1.273 -1.1584  0.0561  0.2121
25301SOL    HW278104   0.535   7.697   1.355  0.4556  0.0380  1.9255
25302SOL     OW78105   5.557   5.221   4.757  0.8555  0.4069 -0.3177
25302SOL    HW178106   5.521   5.241   4.671 -2.4086  2.7982  1.3456
25302SOL    HW278107   5.578   5.307   4.795  2.2680 -0.5644  1.2515
25303SOL     OW78108   7.138   2.172   9.472  0.1091 -0.1374 -0.3519
25303SOL    HW178109   7.045   2.174   9.496  0.2279 -1.5432  0.3298
25303SOL    HW278110   7.157   2.079   9.461  1.7413  0.0391  0.7120
25304SOL     OW78111   8.335   8.745   5.295  0.5327  0.0226 -0.3272
25304SOL    HW178112   8.395   8.813   5.266  0.7206  0.4870  1.0665
25304SOL    HW278113   8.289   8.717   5.216  2.0511  0.1749 -1.2977
25305SOL     OW78114   6.928   4.436   9.557 -0.1405 -0.1204  0.4896
25305SOL    HW178115   7.010   4.456   9.601  0.5406 -0.1381 -0.7574
25305SOL    HW278116   6.871   4.403   9.628  0.9804 -0.3212  1.3275
25306SOL     OW78117   0.330   6.026   1.835  0.3650 -0.6962  0.5684
25306SOL    HW178118   0.385   6.104   1.846  0.1427 -0.3189 -0.8109
25306SOL    HW278119   0.387   5.953   1.861  0.9734 -0.1708  0.7411
25307SOL     OW78120   1.328   6.209   7.972  0.1618 -0.1749 -0.4055
25307SOL    HW178121   1.245   6.208   8.020  0.5014  0.5891  0.2075
25307SOL    HW278122   1.364   6.121   7.984 -1.3795 -1.1091 -2.1601
25308SOL     OW78123   4.706   8.021   8.926 -0.1443  0.1358 -0.3088
25308SOL    HW178124   4.661   8.096   8.887 -0.8917 -0.2169 -0.1377
25308SOL    HW278125   4.658   8.003   9.006  0.6048  0.0496  0.1290
25309SOL     OW78126   3.361   7.609   0.018  0.4544  0.1287  0.0008
25309SOL    HW178127   3.363   7.537  -0.045  1.5905  0.2627 -0.1458
25309SOL    HW278128   3.441   7.598   0.070  1.4131  2.0854 -0.9462
25310SOL     OW78129   7.857   7.565   3.676  0.4353 -0.6684 -0.8259
25310SOL    HW178130   7.844   7.653   3.640  3.0068 -0.0694 -0.4552
25310SOL    HW278131   7.927   7.527   3.623  1.0042 -1.5715  0.5294
25311SOL     OW78132   2.669   4.982   7.824 -0.2385  0.3221 -0.3668
25311SOL    HW178133   2.591   4.927   7.821 -0.6923  0.8462  1.2001
25311SOL    HW278134   2.699   4.986   7.733 -0.8561 -1.5450 -0.6935
25312SOL     OW78135   6.466   6.500   8.115  0.7833 -0.4142 -0.5278
25312SOL    HW178136   6.476   6.473   8.206  2.6058  1.1080 -0.2029
25312SOL    HW278137   6.491   6.423   8.064  1.6731 -0.6918  0.2978
25313SOL     OW78138   1.684   3.530   3.994  0.0499  0.1839 -0.2523
25313SOL    HW178139   1.727   3.499   4.074  2.0403  2.2917 -0.4011
25313SOL    HW278140   1.607   3.577   4.025  0.2201  0.0819  0.3395
25314SOL     OW78141   6.312   4.198   4.361 -0.1653 -0.2577 -0.2593
25314SOL    HW178142   6.222   4.207   4.331 -0.8318 -0.3193  1.5674
25314SOL    HW278143   6.306   4.144   4.440  1.4135  0.0420  0.1090
25315SOL     OW78144   7.295   6.787   4.588  0.0247 -0.1477  0.6122
25315SOL    HW178145   7.368   6.810   4.646 -1.5536  2.4338  1.7523
25315SOL    HW278146   7.327   6.809   4.500  0.6301  0.9290  1.0834
25316SOL     OW78147   3.068   2.346   5.196 -0.5368 -0.1473  0.0418
25316SOL    HW178148   3.134   2.320   5.261 -1.2380  0.9869  1.2449
25316SOL    HW278149   3.117   2.398   5.133 -0.0029 -0.5620  0.1037
25317SOL     OW78150   2.495   6.108   6.810  0.6059  0.0918 -0.7053
25317SOL    HW178151   2.487   6.045   6.881  0.2368  0.4733 -0.4017
25317SOL    HW278152   2.491   6.194   6.853 -0.0138  0.3285 -1.2171
25318SOL     OW78153   4.249   4.664   5.725  0.5600 -0.0800  0.3100
25318SOL    HW178154   4.194   4.586   5.727  1.8782 -1.0704 -0.4031
25318SOL    HW278155   4.279   4.669   5.634 -0.1850  1.7727  0.1308
25319SOL     OW78156   7.988   7.654   4.734 -0.3526 -0.0594 -0.6131
25319SOL    HW178157   8.046   7.669   4.659 -1.6865 -1.5302 -2.0221
25319SOL    HW278158   7.986   7.738   4.780 -0.1008  1.1610 -2.6791
25320SOL     OW78159   5.212   1.888   7.644 -0.2487  0.3360  0.1964
25320SOL    HW178160   5.240   1.803   7.611  1.3908  1.4321 -1.4308
25320SOL    HW278161   5.152   1.867   7.715  0.3440 -2.1663  0.0629
25321SOL     OW78162   6.628   6.958   2.811 -0.0772 -0.2435  0.2974
25321SOL    HW178163   6.544   6.916   2.792  0.2555 -1.6570  1.7663
25321SOL    HW278164   6.626   6.974   2.906  0.6286  1.3137  0.0898
25322SOL     OW78165   1.633   6.104   6.289 -0.5247 -0.1666  0.0149
25322SOL    HW178166   1.554   6.065   6.251 -1.8075  0.0858  2.2579
25322SOL    HW278167   1.672   6.035   6.342 -1.4498  0.7818  2.0354
25323SOL     OW78168   9.510   5.714   0.858 -0.0468  0.0804  0.3930
25323SOL    HW178169   9.451   5.729   0.931  0.6472 -0.4907  1.0946
25323SOL    HW278170   9.491   5.625   0.828  0.0294  0.1192  0.2243
25324SOL     OW78171   8.040   5.596   8.234  0.0832 -0.0808 -0.1987
25324SOL    HW178172   7.968   5.655   8.259  0.1914 -0.0951  0.1527
25324SOL    HW278173   8.115   5.629   8.283 -0.0468 -1.0188  0.6639
25325SOL     OW78174   5.322   7.835   4.456 -0.3351  0.5095 -0.2445
25325SOL    HW178175   5.230   7.817   4.435 -0.1288  0.8303 -1.4792
25325SOL    HW278176   5.337   7.924   4.424  0.4098  0.4662 -0.0370
25326SOL     OW78177   2.798   8.625   5.029 -0.3392  0.0744 -0.1716
25326SOL    HW178178   2.853   8.550   5.005 -0.8004 -0.6149  0.8467
25326SOL    HW278179   2.847   8.701   4.999  0.6822 -0.5748 -0.2087
25327SOL     OW78180   3.358   9.570   6.070  0.3908 -0.0883 -0.3465
25327SOL    HW178181   3.379   9.494   6.015  2.1765 -1.2467  1.7822
25327SOL    HW278182   3.431   9.631   6.054  0.6377 -0.2042  0.3125
25328SOL     OW78183   4.333   1.491   7.549 -0.5480  0.3655 -0.0169
25328SOL    HW178184   4.242   1.473   7.524 -0.6163  0.0069  0.4774
25328SOL    HW278185   4.385   1.448   7.481 -0.7454  0.1089 -0.0105
25329SOL     OW78186   4.545   6.589   5.142  0.0682 -0.4694 -0.0728
25329SOL    HW178187   4.499   6.578   5.059  2.3452 -1.5978 -1.2823
25329SOL    HW278188   4.637   6.581   5.119  0.8976  1.3201  2.2741
25330SOL     OW78189   0.491   9.145   5.570 -0.0277 -0.0776 -0.2407
25330SOL    HW178190   0.476   9.054   5.543  1.1442  0.0627 -1.4685
25330SOL    HW278191   0.419   9.194   5.530 -1.3064 -0.5785  1.3494
25331SOL     OW78192   3.419   3.194   8.373 -0.6655  0.1111  0.3120
25331SOL    HW178193   3.398   3.156   8.458 -1.3578 -0.8604 -0.2742
25331SOL    HW278194   3.343   3.248   8.352  0.2443  1.7744  1.0713
25332SOL     OW78195   1.771   4.732   7.599 -0.2623 -0.2209 -0.2323
25332SOL    HW178196   1.742   4.777   7.679  1.4050 -0.5878  0.6316
25332SOL    HW278197   1.745   4.641   7.612  0.0763 -0.2954 -0.0678
25333SOL     OW78198   8.181   4.930   2.035  0.0754 -0.0687  0.6967
25333SOL    HW178199   8.117   4.954   1.967 -1.4421 -2.1636  1.2892
25333SOL    HW278200   8.265   4.954   1.997 -0.6122 -1.9893 -2.4103
25334SOL     OW78201   8.064   0.823   2.057 -0.5886  0.5530 -0.1737
25334SOL    HW178202   8.093   0.739   2.022  0.6605  0.0504  1.8852
25334SOL    HW278203   8.076   0.814   2.152 -2.2498  2.3805  0.2685
25335SOL     OW78204   9.407   5.566   7.385  0.0621 -0.7603 -0.7868
25335SOL    HW178205   9.321   5.545   7.420  0.1201 -1.4519 -1.0508
25335SOL    HW278206   9.392   5.638   7.325 -0.4006 -1.1686 -1.1655
25336SOL     OW78207   7.275   2.913   2.399  0.1276 -0.3176 -0.1954
25336SOL    HW178208   7.327   2.835   2.419  0.3398  0.2723  1.7503
25336SOL    HW278209   7.246   2.945   2.484  0.8850  2.3009 -0.8172
25337SOL     OW78210   8.310   2.232   1.401 -0.4066  0.0559 -0.1072
25337SOL    HW178211   8.355   2.300   1.450 -1.1586 -0.4029  1.2699
25337SOL    HW278212   8.218   2.259   1.400 -0.6210 -0.6479 -0.0408
25338SOL     OW78213   1.196   2.434   3.110 -0.0013  0.2752 -0.5326
25338SOL    HW178214   1.172   2.347   3.077 -0.7728  0.6020 -0.8577
25338SOL    HW278215   1.248   2.472   3.040 -3.9283  2.0747 -2.8434
25339SOL     OW78216   3.431   9.400   8.720 -0.1895  0.0014  0.7779
25339SOL    HW178217   3.409   9.322   8.771  1.8054 -1.4268 -0.4364
25339SOL    HW278218   3.481   9.455   8.781 -0.4355 -0.2851  1.2436
25340SOL     OW78219   5.028   1.024   5.125  0.6865 -0.4630 -0.1092
25340SOL    HW178220   4.956   0.961   5.133  0.7244 -0.4719  0.1731
25340SOL    HW278221   5.029   1.069   5.210 -0.0710  0.6992 -0.6835
25341SOL     OW78222   7.951   5.984   4.561  0.1664 -0.5392  0.6633
25341SOL    HW178223   7.868   5.970   4.605  0.1184  0.1538  0.8048
25341SOL    HW278224   7.940   5.944   4.475 -0.8021  0.7093  0.1656
25342SOL     OW78225   4.511   5.240   6.408  0.0299 -0.2113  0.0980
25342SOL    HW178226   4.578   5.290   6.360 -1.8861  2.2064 -0.2922
25342SOL    HW278227   4.505   5.157   6.361  2.8579 -0.6203  0.3026
25343SOL     OW78228   5.304   7.458   5.750 -0.0238 -0.0260 -0.6362
25343SOL    HW178229   5.238   7.527   5.744 -0.8385 -0.7560 -0.4224
25343SOL    HW278230   5.256   7.378   5.729  0.6977 -0.6325 -0.0384
25344SOL     OW78231   4.483   0.315   6.869  0.1758  0.0234 -0.7142
25344SOL    HW178232   4.549   0.260   6.911  0.7481  1.2110  0.0001
25344SOL    HW278233   4.431   0.351   6.941 -0.1651  0.4409 -1.1609
25345SOL     OW78234   4.688   6.775   4.091 -0.4659  0.4738 -0.6901
25345SOL    HW178235   4.742   6.695   4.101  0.1886  1.0880  1.2410
25345SOL    HW278236   4.621   6.766   4.158 -0.9404  1.1330 -1.0746
25346SOL     OW78237   0.684   3.918   5.793 -0.5676 -0.7114 -0.5604
25346SOL    HW178238   0.688   3.872   5.709  0.4693 -1.4590 -0.1145
25346SOL    HW278239   0.690   4.011   5.769  0.2656 -0.9370 -1.2813
25347SOL     OW78240   4.717   0.869   9.015 -0.1619 -0.3912 -0.3222
25347SOL    HW178241   4.750   0.958   9.012 -0.1301 -0.4132 -0.6750
25347SOL    HW278242   4.756   0.826   8.939 -0.8024 -0.4862 -0.6015
25348SOL     OW78243   7.101   7.564   3.590 -0.0308 -0.1816  0.4148
25348SOL    HW178244   7.006   7.553   3.587  0.1330 -1.6450 -0.7467
25348SOL    HW278245   7.136   7.490   3.540  1.7994 -0.5280  2.0473
25349SOL     OW78246   4.398   5.237   1.716 -0.5244  0.5376  0.1100
25349SOL    HW178247   4.404   5.157   1.662 -2.6021 -0.6052  1.4182
25349SOL    HW278248   4.486   5.274   1.713  1.0623 -2.7272  0.7855
25350SOL     OW78249   2.234   2.501   9.416  0.1398 -0.2192 -0.7939
25350SOL    HW178250   2.292   2.552   9.359  0.6277  1.4017  1.0231
25350SOL    HW278251   2.292   2.438   9.459  0.0909 -0.3189 -0.8752
25351SOL     OW78252   9.108   8.195   1.365 -0.0907  0.3319 -0.2858
25351SOL    HW178253   9.148   8.157   1.443 -0.2145  0.9727  0.0947
25351SOL    HW278254   9.120   8.128   1.297  1.3515  0.3571 -0.1045
25352SOL     OW78255   3.144   5.717   8.290  0.4708  0.4751  0.0292
25352SOL    HW178256   3.180   5.721   8.379  2.1232  0.8993 -0.6263
25352SOL    HW278257   3.192   5.783   8.241  1.0627 -1.1247 -1.6873
25353SOL     OW78258   3.295   6.156   3.741  0.0547 -0.3496  0.4249
25353SOL    HW178259   3.357   6.228   3.737 -1.8364  1.3448  0.0016
25353SOL    HW278260   3.280   6.142   3.835 -1.3137  1.4581  0.5187
25354SOL     OW78261   6.092   3.846   3.534 -0.3827 -0.2992 -0.1401
25354SOL    HW178262   6.183   3.855   3.560  0.3866  1.2330 -2.9605
25354SOL    HW278263   6.044   3.898   3.599  0.6697 -1.1801  1.4172
25355SOL     OW78264   8.345   8.295   3.061  0.0392 -0.4412 -0.8476
25355SOL    HW178265   8.402   8.308   2.985 -0.2368  0.9034 -0.8542
25355SOL    HW278266   8.383   8.220   3.107  1.7171  0.3017 -0.9482
25356SOL     OW78267   8.588   9.294   3.484 -0.0451  0.2016 -0.2041
25356SOL    HW178268   8.647   9.325   3.553 -0.6218  0.8561  0.0053
25356SOL    HW278269   8.508   9.344   3.497 -1.2161 -1.7415  0.4460
25357SOL     OW78270   4.521   3.823   0.791  0.0889 -0.1947 -0.0999
25357SOL    HW178271   4.500   3.741   0.835 -1.7304 -0.7406 -1.8257
25357SOL    HW278272   4.465   3.888   0.835 -1.0691 -0.5723 -0.9645
25358SOL     OW78273   8.159   1.047   5.212  0.5164  0.3002 -0.0004
25358SOL    HW178274   8.131   1.138   5.217  1.0563  0.4101  1.5551
25358SOL    HW278275   8.250   1.048   5.240  0.4844 -0.7341  0.1817
25359SOL     OW78276   5.488   2.804   5.518 -0.4004 -0.2978  0.2501
25359SOL    HW178277   5.543   2.745   5.466 -1.2157 -1.2400  0.4186
25359SOL    HW278278   5.439   2.746   5.576  0.3929  0.7251  2.0110
25360SOL     OW78279   2.240   0.799   7.469  0.0504  0.6885  0.2806
25360SOL    HW178280   2.298   0.852   7.415 -1.4009  1.5728 -0.4859
25360SOL    HW278281   2.152   0.832   7.449 -0.8421 -1.4549  0.4319
25361SOL     OW78282   3.629   8.700   3.697 -0.2366  0.0388 -0.0127
25361SOL    HW178283   3.608   8.753   3.621  1.0196 -0.3771 -0.6880
25361SOL    HW278284   3.631   8.610   3.664  0.0487 -0.1742  0.5669
25362SOL     OW78285   1.307   4.593   8.150 -0.5062 -0.2676 -0.2679
25362SOL    HW178286   1.390   4.577   8.104 -0.7004  0.4801 -0.9044
25362SOL    HW278287   1.240   4.583   8.082 -0.9736 -1.1895  0.3104
25363SOL     OW78288   0.083   1.665   2.915 -0.1304 -0.0980 -0.3359
25363SOL    HW178289   0.121   1.605   2.851  1.3680  0.9409 -0.4714
25363SOL    HW278290   0.126   1.642   2.998 -1.7124 -1.1206  0.2484
25364SOL     OW78291   1.239   7.701   2.745 -0.4495 -0.1090 -0.0629
25364SOL    HW178292   1.290   7.638   2.693 -0.9902  0.0842 -0.8386
25364SOL    HW278293   1.268   7.686   2.835  0.1459 -0.7901 -0.3560
25365SOL     OW78294   8.617   6.737   6.900 -0.1259 -0.0080  0.4008
25365SOL    HW178295   8.645   6.772   6.985  0.9856 -0.3708  0.2039
25365SOL    HW278296   8.645   6.645   6.902  1.4049  0.3909 -0.9770
25366SOL     OW78297   0.118   3.023   4.799 -0.3495  0.4006  0.4941
25366SOL    HW178298   0.209   2.997   4.816 -0.9207 -1.2217  1.3227
25366SOL    HW278299   0.111   3.111   4.836  0.3976 -0.2213  2.2421
25367SOL     OW78300   6.599   5.004   5.155  0.0200 -0.1814 -0.1060
25367SOL    HW178301   6.508   4.977   5.159  0.6235 -2.2765  0.7107
25367SOL    HW278302   6.632   4.970   5.072  0.1259  0.4138 -0.3182
25368SOL     OW78303   3.872   7.147   8.365 -0.2471 -0.2673 -0.7662
25368SOL    HW178304   3.896   7.084   8.433  1.0566  0.8031 -0.1870
25368SOL    HW278305   3.803   7.103   8.315  0.0041 -1.7895  0.1498
25369SOL     OW78306   0.888   6.508   3.737 -0.0250 -0.4327 -0.1247
25369SOL    HW178307   0.949   6.501   3.664  0.7283 -1.4064  0.5615
25369SOL    HW278308   0.925   6.577   3.792 -0.6045  0.3160 -0.6587
25370SOL     OW78309   0.935   2.904   4.017  0.3966  0.3543 -0.3927
25370SOL    HW178310   0.913   2.901   3.923 -0.6572 -2.0803 -0.1260
25370SOL    HW278311   1.019   2.860   4.023 -1.8528 -4.3916  0.2590
25371SOL     OW78312   5.812   6.009   5.870 -0.0795  0.5237 -0.0290
25371SOL    HW178313   5.717   6.021   5.863 -0.1702  1.1932  1.7887
25371SOL    HW278314   5.825   5.972   5.957  1.4625  2.4657  0.6497
25372SOL     OW78315   7.899   9.527   8.142  0.5252 -0.0691  0.2170
25372SOL    HW178316   7.874   9.448   8.095 -0.6471  0.9833 -1.0069
25372SOL    HW278317   7.981   9.554   8.100  0.7239 -0.4152  0.3780
25373SOL     OW78318   9.354   2.740   1.889  0.0744  0.5143  0.5068
25373SOL    HW178319   9.376   2.813   1.946  1.0811 -0.1024  0.9325
25373SOL    HW278320   9.285   2.774   1.832 -0.8160  1.2105  1.9425
25374SOL     OW78321   4.944   8.974   7.417 -0.0642 -0.3979  0.1227
25374SOL    HW178322   4.905   9.019   7.492  0.2894  1.0461 -0.5280
25374SOL    HW278323   4.892   8.894   7.408 -0.7441 -0.1183  1.2953
25375SOL     OW78324   8.862   8.389   3.140 -0.1622  0.7482  0.1974
25375SOL    HW178325   8.880   8.480   3.117 -1.4547  1.0107  0.1882
25375SOL    HW278326   8.874   8.386   3.235 -1.8989  1.3936  0.4757
25376SOL     OW78327   9.376   3.858   6.108  0.1499 -0.8502 -0.3182
25376SOL    HW178328   9.368   3.782   6.166 -0.1765 -0.4928  0.1053
25376SOL    HW278329   9.422   3.924   6.160 -1.7205  0.1123  0.1722
25377SOL     OW78330   1.002   6.356   7.137  0.1167  0.2895 -0.0706
25377SOL    HW178331   0.920   6.387   7.099 -0.2829 -0.8339 -0.1741
25377SOL    HW278332   0.977   6.322   7.223  0.6961  1.0744  0.4229
25378SOL     OW78333   2.742   1.739   4.481 -0.5525  0.1965 -0.3585
25378SOL    HW178334   2.768   1.776   4.397 -2.3632  0.0791 -1.0232
25378SOL    HW278335   2.812   1.764   4.542 -0.2134  2.0564 -1.4558
25379SOL     OW78336   4.278   2.646   0.433  0.0976 -0.3889 -0.0365
25379SOL    HW178337   4.195   2.648   0.387 -0.2489  0.0013  0.5906
25379SOL    HW278338   4.343   2.669   0.367 -0.5349  1.5643 -0.0293
25380SOL     OW78339   4.922   3.965   1.797 -0.5611 -0.3442  0.1106
25380SOL    HW178340   4.961   4.049   1.773 -0.9942 -0.4752 -1.1508
25380SOL    HW278341   4.964   3.942   1.880  0.9173  0.2503 -0.4343
25381SOL     OW78342   5.241   8.141   2.126  0.4946 -0.1338 -0.1715
25381SOL    HW178343   5.274   8.102   2.207 -0.3706  0.5631  0.5394
25381SOL    HW278344   5.223   8.232   2.149  0.5474  0.1624 -1.2431
25382SOL     OW78345   7.160   5.764   7.994  0.2584 -0.2594  0.0122
25382SOL    HW178346   7.147   5.793   7.904  0.9527 -0.3606 -0.1279
25382SOL    HW278347   7.161   5.668   7.989 -3.0982 -0.4361  0.6250
25383SOL     OW78348   5.920   1.821   4.545  0.1261  0.3490  0.0009
25383SOL    HW178349   6.006   1.785   4.522 -0.0331 -1.5266  1.9766
25383SOL    HW278350   5.858   1.774   4.488  0.1103 -1.2052  1.2221
25384SOL     OW78351   7.363   2.237   2.157 -0.0741 -0.4859 -0.0420
25384SOL    HW178352   7.362   2.153   2.109  2.6185 -0.1815 -0.7898
25384SOL    HW278353   7.413   2.219   2.236  1.0432  0.5241 -0.4926
25385SOL     OW78354   5.007   1.226   7.228 -0.0975 -0.2010  0.7359
25385SOL    HW178355   5.008   1.289   7.301  0.3349  1.0719 -0.3355
25385SOL    HW278356   4.976   1.145   7.268 -2.3652  1.1063  1.8450
25386SOL     OW78357   1.809   4.625   9.276  0.2583  0.2890  0.2773
25386SOL    HW178358   1.760   4.686   9.331 -0.4772 -1.7206  1.9939
25386SOL    HW278359   1.900   4.652   9.285 -0.0116  0.9112  1.2974
25387SOL     OW78360   5.330   7.790   8.993 -0.3280 -0.2640  0.2790
25387SOL    HW178361   5.415   7.749   9.009 -0.3094 -0.2460  0.2260
25387SOL    HW278362   5.345   7.883   9.008 -0.6096 -0.3816  1.3924
25388SOL     OW78363   6.500   8.865   1.309 -0.1812 -0.1153 -0.2411
25388SOL    HW178364   6.421   8.916   1.324  0.2586  0.9296 -1.3087
25388SOL    HW278365   6.512   8.814   1.389 -1.3068  0.5570  0.3710
25389SOL     OW78366   8.050   7.872   8.999  0.4877 -0.3938 -0.7896
25389SOL    HW178367   8.094   7.956   8.991 -0.9982  0.7983  2.0989
25389SOL    HW278368   7.987   7.884   9.070 -1.2339 -3.3540 -1.6143
25390SOL     OW78369   8.218   0.582   3.277 -0.2618 -0.0192 -0.5925
25390SOL    HW178370   8.270   0.658   3.253 -0.9228  1.1885  1.5550
25390SOL    HW278371   8.279   0.526   3.325 -0.2534  0.0453 -0.5291
25391SOL     OW78372   0.684   7.448   1.265 -0.7483 -0.0830 -0.9449
25391SOL    HW178373   0.589   7.442   1.265 -0.8144  0.0372  1.3486
25391SOL    HW278374   0.703   7.540   1.281 -0.2914 -0.3408  0.0929
25392SOL     OW78375   6.517   7.391   2.232 -0.3809  0.0788  0.1739
25392SOL    HW178376   6.505   7.481   2.200  2.5307  0.5934  0.2335
25392SOL    HW278377   6.512   7.399   2.327 -1.6029 -0.1079  0.1328
25393SOL     OW78378   3.318   8.723   4.917 -0.1984 -0.7916  0.0708
25393SOL    HW178379   3.263   8.748   4.843 -1.7585 -2.0330  0.7534
25393SOL    HW278380   3.400   8.693   4.878 -0.6368 -0.5046 -1.0887
25394SOL     OW78381   8.329   5.920   6.637 -0.3278 -0.2889 -0.2640
25394SOL    HW178382   8.301   5.999   6.589  1.2264 -0.5960 -1.7658
25394SOL    HW278383   8.258   5.857   6.624  0.3438 -0.5987 -2.8228
25395SOL     OW78384   1.575   0.530   7.616  0.5530  0.4208  0.6483
25395SOL    HW178385   1.642   0.467   7.644  0.6214  0.9418  1.7158
25395SOL    HW278386   1.538   0.491   7.537  1.1012 -0.6056  0.8672
25396SOL     OW78387   1.695   6.273   4.031  0.2812  0.1856  0.0978
25396SOL    HW178388   1.668   6.343   4.090  1.0764 -0.2313  0.9787
25396SOL    HW278389   1.711   6.318   3.948 -0.0251  0.9179  0.4183
25397SOL     OW78390   0.780   0.636   6.003 -0.6252 -0.3000 -0.4322
25397SOL    HW178391   0.715   0.706   6.010 -1.0906 -0.7148 -0.5538
25397SOL    HW278392   0.841   0.666   5.935 -0.6021  0.1589 -0.2099
25398SOL     OW78393   4.381   8.266   8.699  0.1007 -0.2193  0.2498
25398SOL    HW178394   4.325   8.197   8.734  1.0232 -0.3237  1.6150
25398SOL    HW278395   4.433   8.296   8.774  1.3013  0.4149 -0.7789
25399SOL     OW78396   9.302   8.656   5.843  0.0124  0.4957  0.3812
25399SOL    HW178397   9.207   8.661   5.829  0.2385 -0.1918 -1.7466
25399SOL    HW278398   9.340   8.696   5.765  1.5089  0.7188  1.1799
25400SOL     OW78399   7.166   6.015   5.101 -0.5102  0.3881 -0.4976
25400SOL    HW178400   7.234   6.055   5.155 -0.1195 -1.4888  0.4731
25400SOL    HW278401   7.112   5.965   5.163 -0.9268 -0.6436 -1.6541
25401SOL     OW78402   0.758   0.774   2.224 -0.2233  0.3459 -0.2023
25401SOL    HW178403   0.673   0.734   2.204 -0.2170 -0.1491  0.7289
25401SOL    HW278404   0.773   0.754   2.316  0.6972  0.8294 -0.2384
25402SOL     OW78405   7.321   3.360   7.987 -0.8983  0.6373  0.0193
25402SOL    HW178406   7.276   3.292   8.036  1.7627 -0.6580  0.8318
25402SOL    HW278407   7.368   3.313   7.918  1.2090  1.5349  0.7575
25403SOL     OW78408   6.247   0.699   2.886  0.1617 -0.8664 -0.6638
25403SOL    HW178409   6.306   0.774   2.878  0.7152 -1.2740 -0.4514
25403SOL    HW278410   6.161   0.738   2.901  0.5121 -0.2783 -0.1365
25404SOL     OW78411   7.534   1.070   5.627  0.2753  0.2824  0.5055
25404SOL    HW178412   7.617   1.022   5.625  1.1376  1.6192 -3.0896
25404SOL    HW278413   7.467   1.004   5.607  0.5635 -0.5800  2.2517
25405SOL     OW78414   0.646   3.085   4.394  0.1067  0.0056  0.0796
25405SOL    HW178415   0.734   3.097   4.359 -0.5431 -1.0202 -2.0876
25405SOL    HW278416   0.647   2.998   4.434 -0.2397 -0.5644 -1.1128
25406SOL     OW78417   2.303   0.981   0.116  0.5798  0.3180  0.1637
25406SOL    HW178418   2.223   0.929   0.126  0.2141  0.6536 -0.8906
25406SOL    HW278419   2.366   0.921   0.077 -0.0222  0.7820 -1.6137
25407SOL     OW78420   8.494   3.235   2.243 -0.2691 -0.3738  0.2794
25407SOL    HW178421   8.462   3.215   2.331 -0.4891 -2.3814 -0.2092
25407SOL    HW278422   8.540   3.156   2.216  1.7280  1.0243 -0.5912
25408SOL     OW78423   4.553   5.856   3.001  0.2457 -0.3266 -0.2071
25408SOL    HW178424   4.638   5.877   2.963  0.4110 -0.5974  0.0025
25408SOL    HW278425   4.560   5.764   3.026 -0.0720 -0.3210 -0.0900
25409SOL     OW78426   4.006   8.860   3.220 -0.2900  0.5036  0.3489
25409SOL    HW178427   4.014   8.862   3.316 -1.6093 -2.1058  0.6081
25409SOL    HW278428   4.063   8.788   3.194 -1.1560  0.1588 -0.6434
25410SOL     OW78429   4.466   7.620   3.028  0.7509 -0.1890 -0.7623
25410SOL    HW178430   4.500   7.702   3.063  0.8013 -0.1213 -0.9671
25410SOL    HW278431   4.424   7.577   3.102 -1.1994  1.0212 -1.0749
25411SOL     OW78432   3.978   2.297   7.219  0.1018 -0.1465 -0.2414
25411SOL    HW178433   3.885   2.317   7.221  0.3585  1.2407 -0.7201
25411SOL    HW278434   3.990   2.229   7.285 -1.1649 -0.0159  0.1467
25412SOL     OW78435   7.354   8.050   5.012 -0.3485 -0.3477  0.2550
25412SOL    HW178436   7.426   8.070   5.071  0.1338 -2.1464  0.3127
25412SOL    HW278437   7.302   8.131   5.010 -0.3621 -0.1955  3.0527
25413SOL     OW78438   3.497   7.732   6.267  0.1562 -0.9666  0.0092
25413SOL    HW178439   3.421   7.739   6.210 -0.0494 -2.1452  0.1033
25413SOL    HW278440   3.491   7.807   6.326  0.0003 -0.1173 -1.0714
25414SOL     OW78441   5.881   6.676   5.785  0.6483  0.1230 -0.2461
25414SOL    HW178442   5.865   6.605   5.722  3.2117 -0.9664  0.2302
25414SOL    HW278443   5.850   6.641   5.869 -0.4469  0.6045 -0.4311
25415SOL     OW78444   5.103   6.248   9.008  0.2263  0.1569  0.2914
25415SOL    HW178445   5.059   6.236   8.924  0.7682  0.3768 -0.0313
25415SOL    HW278446   5.036   6.227   9.074 -0.1729 -0.1076 -0.1931
25416SOL     OW78447   1.769   0.293   7.092  0.1016  0.0066 -0.6231
25416SOL    HW178448   1.720   0.374   7.078  1.5686  1.2373  0.8814
25416SOL    HW278449   1.703   0.230   7.123 -0.3862  2.2922  3.8051
25417SOL     OW78450   4.658   1.341   0.671 -0.1521  0.0938 -0.0364
25417SOL    HW178451   4.618   1.263   0.711  0.2218 -0.1554 -0.1409
25417SOL    HW278452   4.631   1.413   0.728 -0.3912 -0.1314  0.1394
25418SOL     OW78453   0.236   1.468   7.479  0.3761  1.5662 -0.1267
25418SOL    HW178454   0.264   1.507   7.397 -1.4717  1.2534 -0.9553
25418SOL    HW278455   0.288   1.389   7.487  0.8845  1.8294 -0.7742
25419SOL     OW78456   7.242   7.887   2.947 -0.4823  0.1318  0.1203
25419SOL    HW178457   7.188   7.964   2.965 -0.1520  0.1807  0.9593
25419SOL    HW278458   7.232   7.832   3.025 -1.6117 -1.2229 -0.9363
25420SOL     OW78459   8.781   7.468   1.944 -0.0406 -0.2585 -0.3074
25420SOL    HW178460   8.700   7.514   1.924 -0.8701 -0.9968  1.2042
25420SOL    HW278461   8.788   7.401   1.875 -1.5977 -1.2382  0.4189
25421SOL     OW78462   2.507   9.155   4.323 -0.3148  0.5492 -0.1331
25421SOL    HW178463   2.586   9.162   4.377 -1.7153  0.3160  2.0691
25421SOL    HW278464   2.435   9.156   4.386 -2.0821  0.6162 -2.0624
25422SOL     OW78465   5.578   3.535   1.143  0.5272  0.2928 -0.2519
25422SOL    HW178466   5.510   3.599   1.166  0.9144  0.9067 -0.7866
25422SOL    HW278467   5.636   3.534   1.219  0.0947 -0.0150  0.0844
25423SOL     OW78468   9.002   6.729   6.744 -0.2854 -0.8177 -0.2758
25423SOL    HW178469   8.958   6.691   6.668 -0.9746 -0.8594  0.1398
25423SOL    HW278470   9.095   6.715   6.727 -0.4737 -1.7002 -0.6589
25424SOL     OW78471   4.636   2.324   8.489  0.1361  0.2491 -0.1675
25424SOL    HW178472   4.613   2.266   8.416 -0.4985  0.1031  0.1468
25424SOL    HW278473   4.673   2.266   8.555  0.2556  0.3127 -0.1792
25425SOL     OW78474   8.876   6.332   6.574 -0.3177  0.4911  0.5274
25425SOL    HW178475   8.843   6.301   6.490  0.2342 -0.7976  0.7641
25425SOL    HW278476   8.898   6.424   6.559 -0.9820  0.4978 -0.5015
25426SOL     OW78477   5.842   7.522   7.665  0.2962  0.3865  0.1576
25426SOL    HW178478   5.754   7.551   7.641  0.5431  1.2457  0.2612
25426SOL    HW278479   5.833   7.428   7.678 -0.4421  0.3435 -0.5648
25427SOL     OW78480   1.310   3.352   7.634 -0.0036  0.0066 -0.0355
25427SOL    HW178481   1.405   3.369   7.631  0.1675 -1.0126 -1.5213
25427SOL    HW278482   1.275   3.426   7.684  1.6694 -0.1000  1.4195
25428SOL     OW78483   5.718   5.678   0.806  0.2747  0.2290 -0.2208
25428SOL    HW178484   5.696   5.697   0.715  2.4093 -0.8866 -1.0528
25428SOL    HW278485   5.698   5.585   0.817  1.0079  0.0942  0.0876
25429SOL     OW78486   3.740   0.036   0.647 -0.7092 -0.3089  0.9567
25429SOL    HW178487   3.816   0.066   0.598 -0.9445 -2.7703 -1.1584
25429SOL    HW278488   3.768   0.037   0.739  1.1506  0.6828  0.4239
25430SOL     OW78489   2.064   1.482   0.623 -0.5306  0.3939  0.6511
25430SOL    HW178490   2.066   1.448   0.712 -0.2452 -1.0743  0.1079
25430SOL    HW278491   1.974   1.467   0.594 -0.3437 -0.1418  0.3312
25431SOL     OW78492   3.405   8.912   2.901  0.0729 -0.5601  0.0636
25431SOL    HW178493   3.485   8.946   2.940 -0.5451 -1.8529  2.7140
25431SOL    HW278494   3.434   8.842   2.842  0.9449 -0.3167  0.1974
25432SOL     OW78495   6.788   5.972   0.834  0.5179  0.3283  0.2453
25432SOL    HW178496   6.837   6.003   0.758  3.1929  0.2177  1.7666
25432SOL    HW278497   6.739   6.049   0.864 -0.6478  0.3512 -1.5455
25433SOL     OW78498   3.174   1.124   5.563  0.0960 -0.1138 -0.0345
25433SOL    HW178499   3.231   1.064   5.515  1.0976 -0.3356  1.3793
25433SOL    HW278500   3.218   1.209   5.557  0.8091 -0.3550  1.3582
25434SOL     OW78501   2.423   7.892   6.386 -0.2929 -0.7747 -0.5211
25434SOL    HW178502   2.425   7.940   6.303 -1.5632  0.0088 -0.1254
25434SOL    HW278503   2.510   7.904   6.423 -0.9760  2.6431  0.3235
25435SOL     OW78504   9.036   7.122   6.781 -0.5721  0.0302 -0.3710
25435SOL    HW178505   9.088   7.183   6.834 -2.0704  1.4063 -0.3842
25435SOL    HW278506   9.000   7.060   6.844  0.4043 -0.4327 -0.2569
25436SOL     OW78507   4.289   1.234   5.936  0.6428 -0.6527  0.0050
25436SOL    HW178508   4.203   1.195   5.951 -1.2779  2.0149 -2.7683
25436SOL    HW278509   4.309   1.280   6.017 -0.2714 -1.7740  0.8946
25437SOL     OW78510   3.620   7.394   8.560 -0.2650 -0.4899  0.1288
25437SOL    HW178511   3.526   7.395   8.579 -0.4871  1.1070 -0.8644
25437SOL    HW278512   3.625   7.401   8.464  0.8686 -0.5628  0.1681
25438SOL     OW78513   5.222   1.882   2.117 -0.1834  0.0436  0.5539
25438SOL    HW178514   5.149   1.886   2.179  0.3559  0.4489  1.1871
25438SOL    HW278515   5.255   1.972   2.113  0.3108 -0.1450  0.3142
25439SOL     OW78516   9.008   3.673   0.834 -0.5374 -0.1799  0.2102
25439SOL    HW178517   8.915   3.693   0.822 -0.6023 -0.8824 -0.6226
25439SOL    HW278518   9.009   3.582   0.863 -0.0806 -0.4335 -0.5761
25440SOL     OW78519   0.004   1.706   6.944 -0.0686 -0.1001 -0.1111
25440SOL    HW178520  -0.088   1.680   6.936  0.1843 -1.8609  1.7510
25440SOL    HW278521   0.002   1.787   6.994 -0.6275  0.2372 -0.6711
25441SOL     OW78522   6.119   7.914   4.431 -0.0984  0.0820  0.4879
25441SOL    HW178523   6.154   8.000   4.408 -0.4278 -0.2352 -1.3769
25441SOL    HW278524   6.168   7.852   4.376 -0.7582 -0.7680  0.8315
25442SOL     OW78525   1.663   5.624   2.404  0.2217  0.5426 -0.3007
25442SOL    HW178526   1.604   5.695   2.431 -0.0557  0.1312  0.1872
25442SOL    HW278527   1.691   5.583   2.486  0.3592  0.0669 -0.5810
25443SOL     OW78528   0.891   3.471   6.224  0.1162 -0.2163 -0.1573
25443SOL    HW178529   0.944   3.500   6.298  1.4706 -0.8530 -0.8391
25443SOL    HW278530   0.931   3.514   6.148 -2.1097  1.5812 -0.4352
25444SOL     OW78531   6.046   3.583   6.331 -0.1531  1.0356 -0.0663
25444SOL    HW178532   5.958   3.582   6.292  0.2012 -2.0711 -1.0915
25444SOL    HW278533   6.032   3.605   6.423 -1.8675  1.6835 -0.4557
25445SOL     OW78534   4.615   1.545   9.038 -0.7298 -0.1175  0.4678
25445SOL    HW178535   4.560   1.499   8.975 -1.1765  0.4772  0.4125
25445SOL    HW278536   4.697   1.496   9.039 -1.3390 -1.1649  0.7299
25446SOL     OW78537   0.534   7.236   3.859 -0.1957 -0.3308 -0.0693
25446SOL    HW178538   0.537   7.266   3.950 -2.4006  3.1629 -0.9407
25446SOL    HW278539   0.624   7.249   3.828  1.1949 -3.6830  1.9937
25447SOL     OW78540   0.865   6.428   8.361 -0.3524 -0.1643  0.3023
25447SOL    HW178541   0.774   6.456   8.366 -0.4654 -0.6029  0.7946
25447SOL    HW278542   0.896   6.463   8.278 -0.4094  1.5986  0.9957
25448SOL     OW78543   1.609   3.056   6.356  0.1443  0.4897  0.2351
25448SOL    HW178544   1.673   3.027   6.421 -0.6714 -0.0833  0.7813
25448SOL    HW278545   1.612   3.152   6.362  0.6317  0.4622  0.5580
25449SOL     OW78546   0.679   3.945   6.260  0.3108  0.4614  0.4393
25449SOL    HW178547   0.764   3.986   6.274  1.1535 -1.3898  1.1676
25449SOL    HW278548   0.623   3.982   6.328  0.8599  0.8437  0.6886
25450SOL     OW78549   2.098   8.359   7.871  0.7760 -0.4584  0.1751
25450SOL    HW178550   2.058   8.291   7.925  1.2266  0.5191  1.8430
25450SOL    HW278551   2.192   8.345   7.880  0.8774  0.4075  0.6060
25451SOL     OW78552   8.324   1.364   7.632 -0.4237 -0.1373 -0.2739
25451SOL    HW178553   8.331   1.284   7.683  0.9386  0.2765  0.2452
25451SOL    HW278554   8.309   1.433   7.697  2.2754  0.5348 -0.2315
25452SOL     OW78555   6.499   8.173   2.173  0.2492  0.3469 -0.2094
25452SOL    HW178556   6.479   8.247   2.115  0.6559  1.0655  0.5448
25452SOL    HW278557   6.527   8.103   2.113  0.4034  0.9801 -0.9033
25453SOL     OW78558   8.256   8.669   8.615 -0.0102  0.5393  0.5223
25453SOL    HW178559   8.347   8.647   8.593  0.2271  0.2621  1.7215
25453SOL    HW278560   8.260   8.760   8.643 -0.4546  1.1648 -1.3142
25454SOL     OW78561   0.265   5.724   9.517  0.0840 -0.0446 -0.1543
25454SOL    HW178562   0.287   5.744   9.608 -0.6022  1.8740 -0.3615
25454SOL    HW278563   0.225   5.637   9.520  1.1663 -0.5281  1.1840
25455SOL     OW78564   7.997   6.327   5.499  0.0650 -0.0939 -0.3989
25455SOL    HW178565   8.040   6.410   5.521  1.1414 -0.7270 -0.0216
25455SOL    HW278566   8.050   6.261   5.543 -0.4112 -1.0333 -1.2046
25456SOL     OW78567   8.019   3.796   6.621  0.2563 -0.2565 -0.0985
25456SOL    HW178568   7.993   3.824   6.533  3.2223 -0.1934 -1.0502
25456SOL    HW278569   7.970   3.854   6.680  1.3046  2.5939 -1.8363
25457SOL     OW78570   1.060   6.110   8.340  0.0964 -0.4224 -0.0032
25457SOL    HW178571   1.054   6.015   8.326 -1.5795 -0.1233 -1.7391
25457SOL    HW278572   1.034   6.148   8.256  2.3357  1.6112  0.1059
25458SOL     OW78573   0.748   2.733   1.823 -0.5410 -0.1609  1.0191
25458SOL    HW178574   0.801   2.775   1.891  0.7603 -0.7916  0.4392
25458SOL    HW278575   0.659   2.734   1.857 -0.0888  0.5297  2.2361
25459SOL     OW78576   6.933   5.657   4.857 -0.2790 -0.1868  0.3943
25459SOL    HW178577   7.006   5.645   4.918 -0.5451 -0.7467  0.6168
25459SOL    HW278578   6.895   5.741   4.879 -0.2269 -0.2835  0.8485
25460SOL     OW78579   7.104   1.230   1.790  0.3770  0.1647  1.2472
25460SOL    HW178580   7.158   1.181   1.729  0.0921  1.0566  0.2428
25460SOL    HW278581   7.070   1.304   1.739  0.6188  1.2899  2.6260
25461SOL     OW78582   3.223   6.323   6.353  0.1051 -0.1142  0.2244
25461SOL    HW178583   3.184   6.408   6.374  0.4240  0.1313 -0.1563
25461SOL    HW278584   3.199   6.308   6.261 -0.4580 -0.7206  0.4684
25462SOL     OW78585   4.071   1.820   8.599  0.2329  0.4213  0.9095
25462SOL    HW178586   3.990   1.842   8.552 -0.0733  1.5608  1.9295
25462SOL    HW278587   4.041   1.786   8.684  0.8200  0.1787  1.0231
25463SOL     OW78588   3.308   7.253   5.829 -0.2007  0.0773 -0.3804
25463SOL    HW178589   3.326   7.254   5.923 -0.0066  0.3781 -0.4222
25463SOL    HW278590   3.371   7.190   5.793  0.4139  0.7176 -0.4499
25464SOL     OW78591   3.883   8.001   8.014 -0.3345 -0.5801 -0.6576
25464SOL    HW178592   3.814   8.067   8.006 -0.7215 -0.7592  0.8556
25464SOL    HW278593   3.939   8.015   7.937 -0.2076  1.7509 -0.2300
25465SOL     OW78594   8.825   3.353   2.146  0.0816  0.5474  0.1247
25465SOL    HW178595   8.800   3.433   2.194 -2.1755 -0.1866  0.3120
25465SOL    HW278596   8.804   3.282   2.207 -1.1576 -0.3180 -1.2498
25466SOL     OW78597   4.317   2.461   3.008  0.2900 -0.0540  0.3343
25466SOL    HW178598   4.286   2.375   2.982  0.5393 -0.4253  1.2184
25466SOL    HW278599   4.410   2.461   2.986 -0.0243  0.5607 -1.0682
25467SOL     OW78600   4.492   6.708   4.306 -0.0849 -0.1320 -0.1542
25467SOL    HW178601   4.506   6.632   4.362  1.7067  0.0364 -0.3152
25467SOL    HW278602   4.445   6.674   4.230  1.6911 -1.3821 -0.7662
25468SOL     OW78603   4.149   6.216   6.218  0.5606  0.0419 -0.2358
25468SOL    HW178604   4.180   6.162   6.146 -0.1951  1.1040 -1.4034
25468SOL    HW278605   4.221   6.277   6.236  1.2606 -1.0620  0.8220
25469SOL     OW78606   3.191   9.385   3.525 -0.1698 -0.5204 -0.0579
25469SOL    HW178607   3.164   9.424   3.608  1.2360 -0.5967  0.4692
25469SOL    HW278608   3.174   9.452   3.460 -1.3366 -0.4768  0.2734
25470SOL     OW78609   6.253   8.581   5.254  0.3582 -0.1594  0.3249
25470SOL    HW178610   6.215   8.502   5.293 -1.0363 -0.6651 -1.8971
25470SOL    HW278611   6.302   8.550   5.179  1.4444  0.9552  0.5410
25471SOL     OW78612   3.537   4.229   6.839  0.2180  0.1285  0.4211
25471SOL    HW178613   3.580   4.249   6.922  0.0567 -1.2869  0.8859
25471SOL    HW278614   3.606   4.195   6.783  0.3708  1.3090 -0.1228
25472SOL     OW78615   2.698   5.638   5.534  0.4582 -0.2930  0.3279
25472SOL    HW178616   2.721   5.652   5.626  1.3430  1.0784 -0.0663
25472SOL    HW278617   2.604   5.626   5.534  0.2254  1.2143  1.2792
25473SOL     OW78618   6.280   8.226   3.574  0.3194  0.1462 -0.2410
25473SOL    HW178619   6.215   8.249   3.509 -0.1726 -2.0391 -0.6130
25473SOL    HW278620   6.274   8.130   3.582  0.8062  0.2371  2.5243
25474SOL     OW78621   0.915   9.380   7.788 -0.4208 -0.0343  0.3640
25474SOL    HW178622   0.883   9.346   7.872 -0.2958  0.6947  0.7196
25474SOL    HW278623   0.840   9.427   7.752 -0.4451 -0.2676  0.1054
25475SOL     OW78624   8.154   5.710   0.073  0.1917 -0.2748 -0.1085
25475SOL    HW178625   8.114   5.759   0.145  1.9885  1.0546  0.0466
25475SOL    HW278626   8.107   5.739  -0.005 -1.1637 -1.0546  0.3815
25476SOL     OW78627   3.547   9.375   6.244 -0.3789 -0.3511  0.0219
25476SOL    HW178628   3.553   9.443   6.177 -0.9533  0.7327  1.0522
25476SOL    HW278629   3.455   9.371   6.267 -0.2294 -0.9235  0.5636
25477SOL     OW78630   6.215   5.618   8.281  0.0808  0.2036  0.6196
25477SOL    HW178631   6.271   5.606   8.204  0.5611 -1.7333  1.2066
25477SOL    HW278632   6.273   5.654   8.348  0.7650 -2.0024  1.2924
25478SOL     OW78633   6.545   3.742   8.541  0.5216 -0.1010 -0.3354
25478SOL    HW178634   6.532   3.789   8.458 -0.7656  0.6138  0.2270
25478SOL    HW278635   6.456   3.724   8.572  0.9455  0.6114  1.4192
25479SOL     OW78636   0.692   5.134   5.104 -0.1545 -0.0524  0.6629
25479SOL    HW178637   0.718   5.055   5.151  1.9456  0.5996  0.7025
25479SOL    HW278638   0.641   5.103   5.030 -0.6645 -1.3241  1.5191
25480SOL     OW78639   0.154   1.914   4.935 -0.0258  0.4234  0.1166
25480SOL    HW178640   0.104   1.839   4.966  0.8150 -0.9659 -1.7173
25480SOL    HW278641   0.237   1.909   4.981  0.2191 -0.0874 -0.3707
25481SOL     OW78642   8.048   5.439   7.728 -0.5295  0.2827 -0.7650
25481SOL    HW178643   8.008   5.522   7.701  1.4521  1.7639  0.5487
25481SOL    HW278644   8.060   5.391   7.646 -2.2772  0.9946 -1.4895
25482SOL     OW78645   2.588   6.035   3.610 -0.5944  0.0745  0.3224
25482SOL    HW178646   2.592   6.106   3.673 -1.3308  1.7604 -1.4363
25482SOL    HW278647   2.496   6.009   3.608 -0.6929  0.4360 -0.4291
25483SOL     OW78648   3.198   6.874   3.040 -0.0665  0.2723  0.0404
25483SOL    HW178649   3.277   6.925   3.023 -1.8018  2.9615 -0.5685
25483SOL    HW278650   3.174   6.895   3.130  0.9551 -2.2332  1.0102
25484SOL     OW78651   8.493   2.416   6.311  0.4621 -0.8005 -0.1185
25484SOL    HW178652   8.431   2.455   6.250 -0.4744 -2.0926 -0.0478
25484SOL    HW278653   8.524   2.337   6.267  2.7332  0.2338 -0.4978
25485SOL     OW78654   7.779   6.909   6.265  0.8310  0.0259 -0.1079
25485SOL    HW178655   7.874   6.916   6.275  0.8476 -0.2422 -0.0879
25485SOL    HW278656   7.765   6.828   6.216  0.5381 -0.7540  1.2191
25486SOL     OW78657   0.787   9.574   7.373 -0.1860 -0.0406  0.6422
25486SOL    HW178658   0.838   9.632   7.317 -0.4438 -0.2484  0.1922
25486SOL    HW278659   0.734   9.522   7.313  0.8370 -1.5175  0.9459
25487SOL     OW78660   3.655   6.602   6.660  0.0262  0.0559 -0.0723
25487SOL    HW178661   3.611   6.682   6.691  0.2705 -1.0332  3.6249
25487SOL    HW278662   3.583   6.542   6.642 -0.1015  0.3247 -0.4853
25488SOL     OW78663   5.525   8.708   3.406  0.0154 -0.2127 -0.5652
25488SOL    HW178664   5.547   8.732   3.496  0.1340 -1.2771 -0.3062
25488SOL    HW278665   5.491   8.789   3.367 -1.1171 -0.0319  0.7606
25489SOL     OW78666   4.120   3.441   0.895  0.0779  0.0449 -0.9624
25489SOL    HW178667   4.140   3.440   0.989 -2.6116 -0.4637 -0.3215
25489SOL    HW278668   4.199   3.477   0.854  1.0768  0.8902  1.5399
25490SOL     OW78669   0.218   8.455   8.023  0.4021  0.5010 -0.3094
25490SOL    HW178670   0.147   8.444   8.086  0.1290  0.0052 -0.6987
25490SOL    HW278671   0.277   8.518   8.065  0.7184 -0.5364  0.8615
25491SOL     OW78672   2.749   5.895   0.386 -0.0251 -0.5941  0.2358
25491SOL    HW178673   2.734   5.915   0.479 -0.5631  1.9573 -0.3481
25491SOL    HW278674   2.838   5.862   0.383 -0.1537 -1.1588  1.7105
25492SOL     OW78675   6.149   2.761   0.355 -0.2057 -0.1628  0.0703
25492SOL    HW178676   6.132   2.853   0.378  0.1126  0.1614 -0.9391
25492SOL    HW278677   6.172   2.764   0.262 -0.8617 -1.3544 -0.1423
25493SOL     OW78678   0.451   7.566   6.597  0.5667  0.6745 -0.0389
25493SOL    HW178679   0.360   7.580   6.625  0.0018 -1.2078 -0.7243
25493SOL    HW278680   0.504   7.604   6.666 -0.7591  1.4893  0.5624
25494SOL     OW78681   7.072   5.017   3.314  0.2440 -0.3744  0.0518
25494SOL    HW178682   7.016   5.075   3.261 -0.8948 -1.6273 -0.1599
25494SOL    HW278683   7.077   5.061   3.399 -0.0772  0.3439 -0.2845
25495SOL     OW78684   0.571   3.062   7.123 -0.0900 -0.0488 -0.4427
25495SOL    HW178685   0.551   3.156   7.123 -1.9727 -0.4054  0.0537
25495SOL    HW278686   0.532   3.028   7.043 -0.1097 -0.5415 -0.2311
25496SOL     OW78687   3.996   3.405   5.216 -0.0493  0.0886  0.1099
25496SOL    HW178688   4.081   3.372   5.185  0.0061  0.4631 -0.1500
25496SOL    HW278689   3.956   3.444   5.138  0.4618  1.8214  0.6593
25497SOL     OW78690   8.985   6.580   5.840  0.2680 -0.4818 -0.1356
25497SOL    HW178691   8.990   6.530   5.922 -2.5990 -2.0199 -0.7398
25497SOL    HW278692   8.910   6.638   5.852  0.3655 -0.0807 -1.3483
25498SOL     OW78693   5.838   4.945   4.629 -0.4764  0.0365 -0.0121
25498SOL    HW178694   5.934   4.945   4.621 -0.4622  0.6977  0.1070
25498SOL    HW278695   5.812   5.035   4.609 -1.0978 -0.1918 -0.2675
25499SOL     OW78696   6.956   2.357   1.077  0.5705  0.5545 -0.2446
25499SOL    HW178697   6.988   2.320   0.994  1.1877 -0.6372  0.4967
25499SOL    HW278698   6.969   2.451   1.068  0.3223  0.4735 -1.6298
25500SOL     OW78699   7.003   6.298   6.327 -0.0383  0.4550  0.2198
25500SOL    HW178700   6.950   6.375   6.347  0.3633  1.0364 -0.8773
25500SOL    HW278701   6.981   6.275   6.237 -1.2739 -1.6655  1.0010
25501SOL     OW78702   1.796   0.837   2.377 -0.4956  0.2846 -0.0822
25501SOL    HW178703   1.856   0.793   2.317 -0.6591 -0.7438  0.4894
25501SOL    HW278704   1.709   0.817   2.343 -0.5665  0.2967  0.0892
25502SOL     OW78705   5.935   5.185   2.289 -0.1621 -0.6463  0.3928
25502SOL    HW178706   5.869   5.248   2.262 -0.3649 -1.1261 -0.2480
25502SOL    HW278707   5.989   5.232   2.353  1.1641  1.0023 -1.7978
25503SOL     OW78708   4.467   8.132   6.572  0.5920 -0.0612  0.4573
25503SOL    HW178709   4.519   8.104   6.497  0.9275  0.4226  0.5028
25503SOL    HW278710   4.463   8.228   6.564 -0.6461 -0.1179  0.2293
25504SOL     OW78711   3.100   1.991   1.025 -0.0708  0.1749 -0.3552
25504SOL    HW178712   3.104   1.899   0.997  0.4164 -0.3982  1.4619
25504SOL    HW278713   3.013   2.020   0.998 -0.8589 -1.3245  0.4222
25505SOL     OW78714   1.981   1.592   3.645  0.6682 -0.0523  0.0330
25505SOL    HW178715   2.076   1.578   3.654  0.7494 -0.0157 -0.7793
25505SOL    HW278716   1.968   1.616   3.554  0.0407  1.3585  0.4675
25506SOL     OW78717   0.367   2.227   3.574  0.2803  0.0238  0.3075
25506SOL    HW178718   0.353   2.284   3.498  0.8511  0.3684  0.4533
25506SOL    HW278719   0.443   2.264   3.618 -0.2379  0.0236  1.2346
25507SOL     OW78720   1.421   6.502   3.945 -0.3342  0.6433  0.0858
25507SOL    HW178721   1.417   6.444   4.020 -1.9809  1.4631  0.6816
25507SOL    HW278722   1.357   6.571   3.964 -2.1410 -0.0308 -2.7842
25508SOL     OW78723   7.214   9.089   3.350  0.3968  0.2191  0.8493
25508SOL    HW178724   7.130   9.042   3.350  0.7433 -0.4680 -1.1853
25508SOL    HW278725   7.190   9.179   3.328  0.0845  0.2972  1.4731
25509SOL     OW78726   3.364   5.254   2.757  0.6052 -0.0722  0.0195
25509SOL    HW178727   3.269   5.251   2.749  0.5637 -1.3049  0.8170
25509SOL    HW278728   3.395   5.184   2.700  1.0739  0.5846 -0.5540
25510SOL     OW78729   4.239   3.041   6.935 -0.2367 -0.6291  0.0521
25510SOL    HW178730   4.273   2.952   6.945  0.6311 -0.5607 -1.8046
25510SOL    HW278731   4.307   3.097   6.973  0.0889 -0.6883 -0.4255
25511SOL     OW78732   2.861   1.396   3.329 -0.3015  0.1065 -0.7168
25511SOL    HW178733   2.913   1.324   3.294  1.1870  0.8975 -0.2229
25511SOL    HW278734   2.884   1.400   3.422 -3.3239 -1.2242  0.2133
25512SOL     OW78735   2.340   1.703   6.337 -0.5448  0.1767 -0.0394
25512SOL    HW178736   2.314   1.785   6.379 -0.2998  0.6678 -0.8213
25512SOL    HW278737   2.385   1.654   6.406 -0.5297  0.7784  0.3893
25513SOL     OW78738   2.062   0.055   8.508 -0.2847  0.2357 -0.1624
25513SOL    HW178739   2.032  -0.035   8.518  2.2034 -0.6630 -0.1641
25513SOL    HW278740   2.024   0.101   8.583 -3.1913 -0.2861 -1.1937
25514SOL     OW78741   1.104   0.035   7.016 -0.5463  0.2287  0.3549
25514SOL    HW178742   1.161  -0.034   7.051 -1.4193 -1.4298 -1.2948
25514SOL    HW278743   1.135   0.048   6.926 -0.1667  2.3159  0.7421
25515SOL     OW78744   2.931   6.186   8.808  0.1320 -0.0737  0.2638
25515SOL    HW178745   2.913   6.108   8.756  0.6935  0.6157 -1.0287
25515SOL    HW278746   2.976   6.154   8.885  1.8343 -0.9241 -1.0130
25516SOL     OW78747   4.202   2.877   4.337  0.6834  0.0850 -0.0347
25516SOL    HW178748   4.169   2.813   4.400 -0.3018  0.7041  0.0945
25516SOL    HW278749   4.233   2.949   4.391 -1.2792  1.1478 -0.2597
25517SOL     OW78750   8.750   1.280   2.896  0.0421 -0.0496 -0.6844
25517SOL    HW178751   8.678   1.342   2.892  0.2828  0.1744 -1.6761
25517SOL    HW278752   8.743   1.241   2.984 -1.5721 -0.3862 -0.9285
25518SOL     OW78753   5.205   5.346   1.187 -0.2133 -0.8958 -0.3432
25518SOL    HW178754   5.126   5.324   1.237 -0.5100 -0.1889 -0.4938
25518SOL    HW278755   5.189   5.308   1.100  0.0014 -1.5239 -0.1114
25519SOL     OW78756   6.263   0.674   3.550 -0.2810  0.2400 -0.2032
25519SOL    HW178757   6.219   0.594   3.578  0.7466 -0.0582  0.6329
25519SOL    HW278758   6.202   0.744   3.573 -0.0270 -0.0981  1.6425
25520SOL     OW78759   5.564   8.608   5.434 -0.7120  0.6324  0.3693
25520SOL    HW178760   5.574   8.702   5.422  0.7857  0.2641 -1.9464
25520SOL    HW278761   5.473   8.590   5.412 -0.8856  1.4838  0.3529
25521SOL     OW78762   4.027   5.054   2.132 -0.0998 -0.6173 -0.3060
25521SOL    HW178763   4.044   5.044   2.226 -1.3877  0.5962  0.0954
25521SOL    HW278764   3.952   4.998   2.116  0.2865 -1.0297 -0.6743
25522SOL     OW78765   7.067   0.687   9.264 -0.8353  0.3311  0.3666
25522SOL    HW178766   7.156   0.704   9.293 -0.9931  0.6840  0.6427
25522SOL    HW278767   7.068   0.710   9.171 -0.6171  0.2425  0.3447
25523SOL     OW78768   3.611   2.764   9.291  0.1899  0.1272  0.0482
25523SOL    HW178769   3.579   2.855   9.287 -0.3035 -0.0795 -1.9580
25523SOL    HW278770   3.580   2.732   9.375 -0.9326  1.3775  0.1628
25524SOL     OW78771   1.339   7.959   7.998 -0.5223 -0.4565 -0.3093
25524SOL    HW178772   1.374   8.018   7.931  0.3424 -0.2654  0.2978
25524SOL    HW278773   1.256   7.997   8.024  0.2698  0.8156  0.4635
25525SOL     OW78774   4.216   3.334   4.416 -0.5947  0.3829 -0.2460
25525SOL    HW178775   4.136   3.361   4.371 -1.4078  1.7001  1.8026
25525SOL    HW278776   4.267   3.287   4.350 -3.1211 -0.6827 -1.5760
25526SOL     OW78777   1.951   0.244   4.580  0.0623 -0.5438 -0.6771
25526SOL    HW178778   2.001   0.212   4.655  0.8183 -0.1141 -0.9840
25526SOL    HW278779   2.005   0.314   4.543  0.5472 -1.8356 -2.6211
25527SOL     OW78780   0.478   5.064   4.925 -0.1360  0.0447  0.0051
25527SOL    HW178781   0.445   5.145   4.887  1.0143  0.6273  0.2173
25527SOL    HW278782   0.416   4.997   4.897 -0.4671  0.8068 -1.1250
25528SOL     OW78783   8.831   0.028   8.566  0.1393  0.1585  0.4076
25528SOL    HW178784   8.804   0.104   8.617  1.5748  1.5524 -0.7905
25528SOL    HW278785   8.925   0.042   8.552 -0.0461 -0.5936 -1.8567
25529SOL     OW78786   9.492   3.451   0.349  0.5603 -0.6007 -0.6731
25529SOL    HW178787   9.577   3.412   0.368  0.9788  1.0957  1.2659
25529SOL    HW278788   9.509   3.545   0.343 -1.1937 -0.2043 -0.0957
25530SOL     OW78789   4.073   4.012   8.579 -0.2088  0.2368  0.1379
25530SOL    HW178790   4.027   4.017   8.496  0.5247  1.6215 -0.2047
25530SOL    HW278791   4.153   4.061   8.566 -0.1932  0.6955  1.7360
25531SOL     OW78792   4.276   4.751   8.558  0.2007 -0.3523 -0.5323
25531SOL    HW178793   4.197   4.765   8.506  0.2239  2.6862  0.0626
25531SOL    HW278794   4.245   4.748   8.648  0.6875 -0.0212 -0.3514
25532SOL     OW78795   0.278   0.535   2.711 -0.6710 -0.2236  0.4774
25532SOL    HW178796   0.330   0.615   2.706  0.8626 -1.2382 -0.5644
25532SOL    HW278797   0.318   0.484   2.782 -0.8937 -0.5842  0.3471
25533SOL     OW78798   1.853   5.491   8.586 -0.1741 -0.3958 -0.4092
25533SOL    HW178799   1.912   5.486   8.511 -0.2568 -0.2137 -0.4889
25533SOL    HW278800   1.839   5.585   8.599  0.4277 -0.3950  0.3011
25534SOL     OW78801   4.295   4.946   0.480  0.1437 -0.0580 -0.6493
25534SOL    HW178802   4.291   5.002   0.557  0.0537 -0.3988 -0.4022
25534SOL    HW278803   4.289   5.007   0.406 -0.4035  0.2285 -0.3828
25535SOL     OW78804   9.389   8.075   3.204 -0.0333  0.1574  0.3769
25535SOL    HW178805   9.362   8.148   3.148  0.1098  0.7832  1.1051
25535SOL    HW278806   9.346   7.999   3.165  2.1298  0.0756 -2.1542
25536SOL     OW78807   5.094   4.810   0.014 -0.4923  0.2508 -0.1642
25536SOL    HW178808   5.080   4.865   0.091 -1.4049  1.0209 -0.8436
25536SOL    HW278809   5.063   4.864  -0.059 -0.2252 -0.6963 -0.9933
25537SOL     OW78810   0.346   0.480   0.712 -0.2440 -0.2701 -0.2972
25537SOL    HW178811   0.281   0.432   0.763 -0.8018  0.3626 -0.4063
25537SOL    HW278812   0.430   0.443   0.739 -0.4170  0.8850  2.0304
25538SOL     OW78813   6.281   2.709   6.434  0.3660  0.1914 -0.0638
25538SOL    HW178814   6.326   2.784   6.397  2.5608  0.5679  3.0128
25538SOL    HW278815   6.213   2.747   6.489 -0.2674 -0.2154 -0.5456
25539SOL     OW78816   3.836   8.593   9.011 -0.1457  0.0052  0.0604
25539SOL    HW178817   3.905   8.559   9.069 -0.4150 -1.2283 -0.3021
25539SOL    HW278818   3.754   8.564   9.052 -0.8290  4.3761  2.4434
25540SOL     OW78819   5.204   6.823   3.784 -0.7547  0.4975  0.4028
25540SOL    HW178820   5.296   6.808   3.806 -0.8260  1.1192  1.1694
25540SOL    HW278821   5.196   6.793   3.694 -0.3958 -1.9170  1.1015
25541SOL     OW78822   3.305   8.761   1.652 -0.5281 -0.4329 -0.0600
25541SOL    HW178823   3.248   8.726   1.583 -1.5924  0.0803  0.5361
25541SOL    HW278824   3.326   8.850   1.622  1.5037 -1.2087 -1.1717
25542SOL     OW78825   5.690   0.500   7.385  0.1108 -0.7757  0.0134
25542SOL    HW178826   5.670   0.528   7.295 -1.4368 -0.5779  0.3951
25542SOL    HW278827   5.771   0.547   7.407  1.7661 -2.4396 -1.9915
25543SOL     OW78828   0.454   1.000   1.163  0.1366 -0.3301 -0.2849
25543SOL    HW178829   0.457   0.907   1.140  0.0696 -0.6362  0.8883
25543SOL    HW278830   0.361   1.017   1.181  0.2461 -0.2097  0.1729
25544SOL     OW78831   3.018   1.940   0.319  0.0338  0.1589 -0.0336
25544SOL    HW178832   3.109   1.915   0.305 -0.6493 -1.5357 -1.9140
25544SOL    HW278833   2.993   1.986   0.239 -1.1769 -0.7546 -0.2115
25545SOL     OW78834   6.239   4.228   0.248  0.1020  0.4667  0.0270
25545SOL    HW178835   6.209   4.299   0.305  0.5584  1.1911 -0.6024
25545SOL    HW278836   6.220   4.260   0.160 -1.7024 -1.1358 -0.2355
25546SOL     OW78837   8.735   4.437   6.080  0.0743 -0.0140 -0.5280
25546SOL    HW178838   8.675   4.500   6.120  0.8357  1.0920 -1.0666
25546SOL    HW278839   8.684   4.357   6.073 -1.0387  0.6303 -0.1238
25547SOL     OW78840   4.092   7.338   7.171 -0.3393  0.3133  0.0550
25547SOL    HW178841   4.142   7.416   7.150  2.2383 -1.3289 -0.3712
25547SOL    HW278842   4.084   7.291   7.088  1.7487 -1.7573  0.9027
25548SOL     OW78843   8.856   3.580   2.856  0.1625  0.1267  0.0886
25548SOL    HW178844   8.928   3.586   2.918  0.4769  1.7094 -0.3933
25548SOL    HW278845   8.865   3.657   2.800 -2.9021  1.3563  1.0892
25549SOL     OW78846   0.224   8.037   4.366  0.0500  0.0618  0.5509
25549SOL    HW178847   0.224   8.110   4.304 -1.9310  1.2788  1.8710
25549SOL    HW278848   0.317   8.018   4.380  0.6169 -1.2190 -3.7194
25550SOL     OW78849   0.782   6.395   3.053 -0.0542  0.3930  0.0103
25550SOL    HW178850   0.863   6.355   3.082  0.0889 -1.0893 -2.2187
25550SOL    HW278851   0.809   6.479   3.014  0.1838  0.6334  0.6724
25551SOL     OW78852   5.287   5.637   4.957  0.2521 -0.1064  0.6371
25551SOL    HW178853   5.198   5.606   4.973 -0.9562  2.0773 -1.2410
25551SOL    HW278854   5.340   5.558   4.955 -1.1252 -1.3322  4.2415
25552SOL     OW78855   6.890   6.440   9.180  0.1358  0.4037 -0.0166
25552SOL    HW178856   6.901   6.408   9.270  0.1632  1.8240  0.5124
25552SOL    HW278857   6.800   6.417   9.157  0.1083  0.0888  0.3963
25553SOL     OW78858   2.454   0.784   8.064  0.4435  0.2250 -0.5818
25553SOL    HW178859   2.398   0.711   8.093  1.1201  0.3225  1.0611
25553SOL    HW278860   2.402   0.828   7.996 -1.0306 -0.3094  0.1476
25554SOL     OW78861   4.910   7.231   9.474  0.3296  0.4154  0.3534
25554SOL    HW178862   4.963   7.226   9.395  1.1086  2.5388  0.6678
25554SOL    HW278863   4.819   7.228   9.444  0.6122  1.5686 -0.6798
25555SOL     OW78864   0.531   1.491   5.518 -0.4775  0.2374 -0.0069
25555SOL    HW178865   0.621   1.521   5.532 -0.4389 -0.2927  0.9377
25555SOL    HW278866   0.540   1.400   5.491 -0.7450  0.1228  0.2882
25556SOL     OW78867   3.299   6.446   7.386  0.2356  0.1080  0.0741
25556SOL    HW178868   3.373   6.451   7.326  2.1689  0.6189  2.3708
25556SOL    HW278869   3.277   6.352   7.388  1.8557 -0.2956  0.4974
25557SOL     OW78870   7.855   3.197   5.303  0.8003  0.0668 -0.5119
25557SOL    HW178871   7.859   3.136   5.376  1.3413 -0.7197 -1.1811
25557SOL    HW278872   7.818   3.147   5.231 -0.0159  0.9194 -0.7134
25558SOL     OW78873   7.137   3.396   5.449 -0.2920 -0.3163 -0.1314
25558SOL    HW178874   7.058   3.347   5.425 -0.5861 -0.2491  0.6830
25558SOL    HW278875   7.128   3.480   5.403 -0.1890 -0.6912 -0.8574
25559SOL     OW78876   6.909   2.885   4.007 -0.3871  0.6902  0.2270
25559SOL    HW178877   6.891   2.818   3.941  0.3088  0.4312  0.2842
25559SOL    HW278878   6.842   2.871   4.074 -0.1459 -0.0739  0.3274
25560SOL     OW78879   4.836   8.527   8.078 -0.0019 -0.1843 -0.4836
25560SOL    HW178880   4.751   8.548   8.117 -0.7699 -1.1507 -1.5528
25560SOL    HW278881   4.847   8.433   8.095  0.2109 -0.3536 -1.4744
25561SOL     OW78882   4.422   5.335   3.876  0.2055  0.3436 -0.6440
25561SOL    HW178883   4.397   5.326   3.784  1.1218  0.0231 -0.8705
25561SOL    HW278884   4.460   5.423   3.883 -0.9285  0.8251 -0.3037
25562SOL     OW78885   8.937   8.172   3.607  0.0170  0.0114 -0.4708
25562SOL    HW178886   8.942   8.248   3.549  1.5852 -0.3440 -0.8678
25562SOL    HW278887   9.027   8.140   3.610 -0.0522 -0.1146  2.0025
25563SOL     OW78888   7.774   3.179   6.178  0.2065  0.3081 -0.3550
25563SOL    HW178889   7.860   3.169   6.219 -0.3454 -3.0093  0.3394
25563SOL    HW278890   7.786   3.144   6.089 -0.3134  0.2988 -0.4255
25564SOL     OW78891   2.024   4.214   2.053  0.4788 -0.1503  0.0229
25564SOL    HW178892   2.015   4.301   2.090  0.7600 -0.3180  0.4959
25564SOL    HW278893   2.028   4.156   2.129 -2.2320 -0.8506 -0.2525
25565SOL     OW78894   2.354   7.909   9.453 -0.0556  0.6567  0.0239
25565SOL    HW178895   2.433   7.963   9.454 -0.6493  1.5512  1.5116
25565SOL    HW278896   2.295   7.953   9.392  0.9327 -0.6031 -1.9370
25566SOL     OW78897   2.118   5.309   4.697 -0.1127  0.3056 -0.2381
25566SOL    HW178898   2.102   5.304   4.603  0.4838 -0.7899 -0.2957
25566SOL    HW278899   2.039   5.350   4.733 -0.3668  0.6793 -1.2017
25567SOL     OW78900   7.244   8.431   6.470  0.7968 -0.0466 -0.5735
25567SOL    HW178901   7.192   8.508   6.495 -0.1015 -0.8400  0.0548
25567SOL    HW278902   7.223   8.365   6.536  2.3117 -0.5304 -0.5261
25568SOL     OW78903   2.455   7.058   5.003  0.3317  0.2896 -0.6210
25568SOL    HW178904   2.371   7.101   5.020 -1.1887 -2.6796  0.0174
25568SOL    HW278905   2.453   7.039   4.909  1.7394  2.8674 -1.2579
25569SOL     OW78906   3.253   2.297   5.371  0.0872  0.2413  0.3335
25569SOL    HW178907   3.256   2.329   5.461 -1.8852 -2.5203  1.5252
25569SOL    HW278908   3.334   2.247   5.361  1.0015  1.7224  0.0107
25570SOL     OW78909   6.252   1.124   0.217 -0.4355  0.3199 -0.3497
25570SOL    HW178910   6.247   1.064   0.292  0.5242  0.9073  0.2122
25570SOL    HW278911   6.335   1.169   0.229 -0.5509  0.8515 -1.4642
25571SOL     OW78912   2.613   5.258   5.630 -0.3970 -0.3797  0.8032
25571SOL    HW178913   2.517   5.258   5.633 -0.4352 -0.8518 -0.0228
25571SOL    HW278914   2.636   5.165   5.639  0.0249 -0.2017  1.7187
25572SOL     OW78915   7.553   8.215   7.492 -0.1015  0.0810 -0.4557
25572SOL    HW178916   7.634   8.199   7.540  0.2083 -2.1469 -1.6187
25572SOL    HW278917   7.573   8.289   7.435  0.7367  0.2709  0.0648
25573SOL     OW78918   5.905   6.801   1.071  0.0233 -0.4465 -0.3345
25573SOL    HW178919   5.849   6.761   1.005 -0.2941 -1.4267  0.4979
25573SOL    HW278920   5.970   6.734   1.091  1.5563  0.6849 -1.3147
25574SOL     OW78921   5.173   2.524   6.289 -0.7178 -0.2486  0.0978
25574SOL    HW178922   5.190   2.441   6.334  3.1606  0.6210  0.6189
25574SOL    HW278923   5.172   2.589   6.358 -0.0142  0.5222 -0.5947
25575SOL     OW78924   6.625   5.273   3.253  0.2844 -0.7502  0.9787
25575SOL    HW178925   6.648   5.324   3.330  2.2192 -1.0562  0.6588
25575SOL    HW278926   6.548   5.317   3.216  0.9431  0.9756  1.5941
25576SOL     OW78927   9.389   0.643   8.269 -0.2526  0.1970 -0.0457
25576SOL    HW178928   9.354   0.558   8.296 -0.6960  0.5103  0.3557
25576SOL    HW278929   9.437   0.675   8.345 -1.4802  1.0637  0.3899
25577SOL     OW78930   3.279   5.875   9.179 -0.0363  0.8314  0.2378
25577SOL    HW178931   3.323   5.792   9.195 -0.8556  0.4414  0.5100
25577SOL    HW278932   3.257   5.908   9.267  0.1103  1.2404  0.1230
25578SOL     OW78933   5.758   3.610   0.132  0.0885  0.3200 -0.3412
25578SOL    HW178934   5.732   3.521   0.156 -0.4199  1.0522  2.0317
25578SOL    HW278935   5.829   3.631   0.191  0.3099  1.4555 -0.9923
25579SOL     OW78936   4.666   6.078   8.966  0.2049  0.1726 -0.6456
25579SOL    HW178937   4.580   6.051   9.001  0.4023  0.9385  0.4958
25579SOL    HW278938   4.719   6.095   9.044  1.3868 -0.2088 -1.3410
25580SOL     OW78939   3.488   5.345   2.077  1.4137 -0.3449  0.3763
25580SOL    HW178940   3.557   5.403   2.043 -0.2116  1.0873 -0.6222
25580SOL    HW278941   3.534   5.289   2.140  3.6097  0.1183 -0.6851
25581SOL     OW78942   6.810   7.649   1.196  0.0742  0.2247  0.3532
25581SOL    HW178943   6.716   7.652   1.209 -0.0455  0.3176 -0.4728
25581SOL    HW278944   6.824   7.573   1.139  0.4706  0.3871  0.2293
25582SOL     OW78945   7.997   8.517   8.263 -0.0639  0.4286 -0.6921
25582SOL    HW178946   8.051   8.438   8.254 -0.0934  0.4890 -1.4927
25582SOL    HW278947   8.053   8.588   8.231  0.2357  0.8564  0.7357
25583SOL     OW78948   3.932   3.960   3.646 -0.1148 -0.2789 -0.6493
25583SOL    HW178949   3.837   3.949   3.639  0.2543 -3.0772 -3.0233
25583SOL    HW278950   3.943   4.019   3.721 -3.7103  0.8198 -0.7677
25584SOL     OW78951   6.522   5.453   7.463 -0.0721  0.3906 -0.0852
25584SOL    HW178952   6.542   5.498   7.381  0.3709 -0.5912 -0.5350
25584SOL    HW278953   6.594   5.391   7.474 -0.2662  0.3258  0.9183
25585SOL     OW78954   4.135   5.782   2.567 -0.2266 -0.1490  0.3160
25585SOL    HW178955   4.097   5.796   2.654  0.9724 -1.6264  1.1398
25585SOL    HW278956   4.163   5.868   2.538 -2.0654  0.6082  0.6834
25586SOL     OW78957   2.562   6.064   1.832  0.3681 -0.1272 -0.1263
25586SOL    HW178958   2.480   6.026   1.864  0.4705  0.4323  0.8491
25586SOL    HW278959   2.538   6.152   1.805  0.4798 -0.2697 -0.6992
25587SOL     OW78960   5.875   2.517   6.803  0.0901  0.2767 -0.3068
25587SOL    HW178961   5.788   2.522   6.763  0.9465  2.0581 -2.1385
25587SOL    HW278962   5.906   2.429   6.782 -1.0549 -0.2093 -0.0438
25588SOL     OW78963   1.909   9.264   7.791  0.2534  0.1347  0.4196
25588SOL    HW178964   1.826   9.255   7.743  0.6944 -0.1041 -0.3157
25588SOL    HW278965   1.903   9.349   7.833 -0.6127 -0.1274  0.8525
25589SOL     OW78966   6.185   0.439   5.298  0.1933  0.3112 -0.0997
25589SOL    HW178967   6.161   0.486   5.218 -0.3184  1.2616  0.5831
25589SOL    HW278968   6.277   0.417   5.286  0.2212  0.7777 -0.8007
25590SOL     OW78969   5.064   6.534   8.993  0.5184  0.0280 -0.0143
25590SOL    HW178970   5.111   6.452   8.983 -0.0819 -0.1461 -1.7692
25590SOL    HW278971   4.997   6.516   9.060  1.8062 -0.2119  1.2491
25591SOL     OW78972   3.131   1.505   5.366  0.4053 -0.0280  0.1769
25591SOL    HW178973   3.172   1.512   5.280 -0.1229  1.0272 -0.0092
25591SOL    HW278974   3.105   1.595   5.388  1.7930 -0.0221  2.0810
25592SOL     OW78975   4.900   8.786   7.959  0.3223  0.0935  0.4599
25592SOL    HW178976   4.842   8.717   7.989  1.9081 -0.8949  1.3817
25592SOL    HW278977   4.925   8.759   7.870 -1.2032  0.9498 -0.2763
25593SOL     OW78978   9.360   3.304   2.268 -0.2529  0.2644 -0.0111
25593SOL    HW178979   9.376   3.255   2.188 -0.7115  0.4041 -0.1922
25593SOL    HW278980   9.265   3.299   2.281 -0.2339  0.6171  0.2827
25594SOL     OW78981   4.178   7.028   6.407  0.2369  0.1056 -0.3594
25594SOL    HW178982   4.259   7.078   6.402 -0.1467  0.7796  0.0418
25594SOL    HW278983   4.183   6.966   6.334  0.0845  1.6769 -1.7515
25595SOL     OW78984   0.356   5.905   0.720  0.2043 -0.0793  0.1904
25595SOL    HW178985   0.378   5.834   0.660  0.6160  0.1301  0.0869
25595SOL    HW278986   0.369   5.868   0.807 -0.2713 -0.3463  0.1501
25596SOL     OW78987   1.955   9.490   4.647  0.1557 -0.1488 -0.8578
25596SOL    HW178988   1.927   9.417   4.593  1.2085  0.7768 -2.7405
25596SOL    HW278989   1.901   9.563   4.619 -0.7464 -0.0835  0.8648
25597SOL     OW78990   0.582   2.797   2.839 -0.0750  0.2504 -0.0688
25597SOL    HW178991   0.556   2.855   2.911  0.4485 -0.1372  0.4325
25597SOL    HW278992   0.609   2.857   2.769  1.1082  0.6287  0.6848
25598SOL     OW78993   8.539   6.270   2.924  0.2997 -0.0776  0.2146
25598SOL    HW178994   8.447   6.295   2.912  0.5393  2.0865  2.2089
25598SOL    HW278995   8.587   6.329   2.865  0.5630  0.9050  1.3794
25599SOL     OW78996   7.123   1.650   7.772 -0.3194  0.3037 -0.2153
25599SOL    HW178997   7.128   1.555   7.758  2.7381  0.4703 -0.9521
25599SOL    HW278998   7.213   1.677   7.786 -1.1195  3.1262  0.1041
25600SOL     OW78999   4.855   7.577   8.924  0.7533  0.0099  0.1324
25600SOL    HW179000   4.915   7.644   8.957 -0.0066 -0.1796  2.0334
25600SOL    HW279001   4.769   7.619   8.924  0.7881  0.2491 -2.4832
25601SOL     OW79002   4.243   2.540   4.915 -0.0366  0.1445 -0.0062
25601SOL    HW179003   4.269   2.607   4.978  1.4997 -0.5427  0.1442
25601SOL    HW279004   4.188   2.586   4.852 -0.7861  1.0640  1.2563
25602SOL     OW79005   9.576   5.079   0.971  0.7714  0.0857  0.6428
25602SOL    HW179006   9.603   5.024   0.898 -2.4894  1.8236 -2.1640
25602SOL    HW279007   9.634   5.155   0.967 -0.5300  1.0703 -1.5527
25603SOL     OW79008   7.904   8.088   3.575  0.0965 -0.5401 -0.3449
25603SOL    HW179009   7.849   8.015   3.549 -1.0189  0.4183 -0.7865
25603SOL    HW279010   7.908   8.144   3.497  0.2354  0.2767  0.2325
25604SOL     OW79011   2.949   5.050   7.398 -0.0951 -0.4747  0.7373
25604SOL    HW179012   3.028   5.099   7.421  1.4680 -1.6618 -1.6893
25604SOL    HW279013   2.982   4.971   7.354 -2.6346 -0.7213 -0.9016
25605SOL     OW79014   4.359   6.301   5.715 -0.1113 -0.4511 -0.2788
25605SOL    HW179015   4.433   6.279   5.657  0.1874 -0.6015  0.1552
25605SOL    HW279016   4.283   6.305   5.657  0.0156 -1.5585 -0.5335
25606SOL     OW79017   9.525   2.823   3.796  0.3371  0.8053 -0.4667
25606SOL    HW179018   9.595   2.757   3.793 -0.6203 -0.2184 -1.2706
25606SOL    HW279019   9.504   2.831   3.889  0.9615  0.5078 -0.2925
25607SOL     OW79020   7.926   5.926   2.366 -0.5269 -0.3764  0.6256
25607SOL    HW179021   7.906   5.834   2.352 -0.5702 -0.5198  1.6070
25607SOL    HW279022   7.901   5.943   2.457 -1.7582  0.9251  0.0883
25608SOL     OW79023   1.124   2.243   5.991  0.3817  0.1360  0.1887
25608SOL    HW179024   1.161   2.216   5.907 -0.6133 -0.4866 -0.0705
25608SOL    HW279025   1.079   2.325   5.972 -1.4366 -0.9273 -0.3583
25609SOL     OW79026   3.387   4.123   3.664  0.1423  0.4567  0.3102
25609SOL    HW179027   3.402   4.036   3.700 -0.2319 -0.0117 -0.6430
25609SOL    HW279028   3.361   4.176   3.740  2.3345  0.2693  1.2695
25610SOL     OW79029   0.753   0.776   0.774  0.2913 -0.2475 -0.2414
25610SOL    HW179030   0.789   0.705   0.722 -1.7514 -0.6218 -1.2474
25610SOL    HW279031   0.707   0.831   0.711  1.0742  1.5080  0.6421
25611SOL     OW79032   5.459   0.387   2.766  0.4518  0.1004 -0.3105
25611SOL    HW179033   5.506   0.437   2.833  1.8556  0.2243 -1.3495
25611SOL    HW279034   5.508   0.305   2.758  1.3347  0.7659 -2.3273
25612SOL     OW79035   8.068   4.008   8.460  0.2324  0.8339 -0.4428
25612SOL    HW179036   8.103   3.972   8.541  1.0075  1.5207 -0.4579
25612SOL    HW279037   8.059   3.933   8.402 -0.6484  0.2820  0.3804
25613SOL     OW79038   7.619   3.314   1.513 -0.0052  0.5113  0.0551
25613SOL    HW179039   7.529   3.302   1.544 -0.7655  0.5829 -1.9846
25613SOL    HW279040   7.670   3.329   1.593 -1.8538  0.8432  1.2367
25614SOL     OW79041   9.158   2.698   0.141 -0.1243  0.2218  0.3106
25614SOL    HW179042   9.174   2.603   0.136  0.6889  0.4064 -1.2261
25614SOL    HW279043   9.241   2.735   0.169 -0.3871  0.5005  0.7221
25615SOL     OW79044   9.317   8.668   8.454 -0.1254  0.4782 -0.4054
25615SOL    HW179045   9.307   8.606   8.382 -0.9823  1.1956 -0.9198
25615SOL    HW279046   9.241   8.725   8.448  0.8286  1.8288 -0.1832
25616SOL     OW79047   4.505   0.920   6.512 -0.2058 -0.1723 -0.1660
25616SOL    HW179048   4.444   0.866   6.462  0.6018 -0.9114 -0.3680
25616SOL    HW279049   4.579   0.862   6.531  1.4277  1.2624 -1.7402
25617SOL     OW79050   2.151   6.026   3.324  0.1762 -0.0475 -0.1364
25617SOL    HW179051   2.227   6.083   3.311 -0.8252  1.2366 -0.4652
25617SOL    HW279052   2.075   6.080   3.304 -0.8050 -1.6504 -0.9922
25618SOL     OW79053   5.200   0.718   0.076  0.1843 -0.1207 -0.1250
25618SOL    HW179054   5.226   0.692  -0.012 -0.8996 -0.6831 -0.2967
25618SOL    HW279055   5.271   0.686   0.133  0.0874 -1.2507 -0.6132
25619SOL     OW79056   4.019   8.629   6.840 -0.2809  0.3535  0.2523
25619SOL    HW179057   3.981   8.610   6.926 -1.6831  1.3271 -0.1046
25619SOL    HW279058   4.051   8.719   6.848  1.9995 -0.4118  0.5149
25620SOL     OW79059   5.755   2.954   2.325  0.0906 -0.1677  0.3034
25620SOL    HW179060   5.750   3.050   2.323 -0.4187 -0.2038 -1.4029
25620SOL    HW279061   5.833   2.936   2.377  0.6774  1.2020 -0.0455
25621SOL     OW79062   2.457   6.636   1.439 -0.2570  0.5021 -0.3862
25621SOL    HW179063   2.439   6.618   1.531 -0.1806  3.2461  0.2383
25621SOL    HW279064   2.550   6.659   1.437 -0.8642  3.2491 -0.5755
25622SOL     OW79065   4.565   8.446   2.170 -0.2147 -0.3403 -0.3910
25622SOL    HW179066   4.570   8.448   2.074 -0.2002  0.1415 -0.3856
25622SOL    HW279067   4.641   8.395   2.198 -0.2092 -0.4658 -0.6345
25623SOL     OW79068   8.540   1.226   3.767  0.0650 -0.4585 -0.3320
25623SOL    HW179069   8.505   1.138   3.772 -1.6546  0.2649  2.5428
25623SOL    HW279070   8.619   1.223   3.821 -0.3455 -0.1186  0.2979
25624SOL     OW79071   6.988   8.239   7.650  0.0149 -0.5400 -0.0102
25624SOL    HW179072   7.006   8.324   7.609  1.0321 -0.5168  0.4612
25624SOL    HW279073   7.074   8.205   7.675 -0.5931  0.0603  3.3525
25625SOL     OW79074   1.209   1.089   5.830  0.4438 -0.1864  0.7146
25625SOL    HW179075   1.250   1.115   5.913 -1.0524  0.9092  1.1478
25625SOL    HW279076   1.283   1.075   5.770  1.4785  0.9597  1.6787
25626SOL     OW79077   0.634   8.121   6.062 -0.0662 -0.1587  0.3214
25626SOL    HW179078   0.596   8.205   6.086 -1.8764 -0.5468 -1.0139
25626SOL    HW279079   0.602   8.060   6.129  0.6196  0.0321  0.8447
25627SOL     OW79080   8.772   0.445   8.552 -0.3508  0.4203 -0.1164
25627SOL    HW179081   8.791   0.450   8.458  1.9443  2.5701  0.3373
25627SOL    HW279082   8.729   0.528   8.572 -0.0749  0.3442  0.8524
25628SOL     OW79083   7.465   7.299   2.325 -0.3561 -0.1850  0.0068
25628SOL    HW179084   7.443   7.380   2.278  2.6799  0.0502 -1.2335
25628SOL    HW279085   7.503   7.242   2.258 -0.0445 -1.6336  1.3535
25629SOL     OW79086   8.074   8.545   6.616  0.2425 -0.4594  0.0211
25629SOL    HW179087   8.065   8.617   6.678 -2.5720 -0.2014 -0.5648
25629SOL    HW279088   8.039   8.469   6.662  1.2248 -1.0164 -0.1200
25630SOL     OW79089   6.466   6.750   2.275  0.0019 -0.0889  0.3321
25630SOL    HW179090   6.405   6.774   2.206 -3.0768 -2.2618  2.0651
25630SOL    HW279091   6.450   6.812   2.346  0.8041  0.1301  0.3395
25631SOL     OW79092   3.016   7.278   3.718  0.4675  0.0012  0.2018
25631SOL    HW179093   3.036   7.193   3.677  3.6763  1.1922 -1.0110
25631SOL    HW279094   2.947   7.315   3.663 -0.2987 -1.3770  0.1704
25632SOL     OW79095   4.783   8.086   4.437  0.4119  0.0271 -0.1758
25632SOL    HW179096   4.736   8.121   4.513  1.1284 -1.0059  0.7808
25632SOL    HW279097   4.715   8.044   4.384  0.1237 -0.8580  0.8452
25633SOL     OW79098   1.447   5.450   0.050 -0.2375 -0.0683  0.8053
25633SOL    HW179099   1.453   5.451   0.145 -0.2968 -4.6662  1.0755
25633SOL    HW279100   1.538   5.446   0.020 -0.2546 -0.3753  0.7903
25634SOL     OW79101   2.847   6.417   4.526  0.6796  0.0923  0.4868
25634SOL    HW179102   2.864   6.379   4.440 -1.8639  0.7980 -0.4280
25634SOL    HW279103   2.825   6.342   4.581 -0.5389 -0.1664 -0.3015
25635SOL     OW79104   6.758   7.822   1.517  0.3985 -0.2561  0.0792
25635SOL    HW179105   6.669   7.858   1.516  1.3277  2.3853 -2.3952
25635SOL    HW279106   6.756   7.752   1.451 -0.0164 -0.6849  0.5480
25636SOL     OW79107   4.130   2.628   6.916 -0.3726  0.2386  0.5404
25636SOL    HW179108   4.127   2.537   6.948 -1.5568  0.4341  1.0554
25636SOL    HW279109   4.071   2.629   6.841  0.2361  0.4192  0.0573
25637SOL     OW79110   0.550   0.749   8.014  0.1731 -0.3279  0.2843
25637SOL    HW179111   0.490   0.678   7.991  1.0039 -0.1165 -2.9249
25637SOL    HW279112   0.526   0.821   7.956  2.6951  0.1833 -0.2363
25638SOL     OW79113   7.067   1.694   1.907 -0.2170  0.0380 -0.1679
25638SOL    HW179114   7.160   1.689   1.929 -0.4196  1.4061  1.1333
25638SOL    HW279115   7.024   1.635   1.969 -0.3415  0.4396  0.1314
25639SOL     OW79116   7.392   2.382   0.730  0.7176 -0.8635 -0.3646
25639SOL    HW179117   7.426   2.357   0.816  2.3508  1.1934 -0.3174
25639SOL    HW279118   7.306   2.420   0.749 -1.0106 -4.4479 -0.2589
25640SOL     OW79119   5.243   1.596   1.797  0.5198  0.0414  0.2561
25640SOL    HW179120   5.263   1.537   1.870 -1.0823 -0.4297  0.3672
25640SOL    HW279121   5.147   1.601   1.797  0.5846  1.9571 -0.3191
25641SOL     OW79122   1.398   4.884   3.490 -1.1045  0.5282 -0.3205
25641SOL    HW179123   1.447   4.855   3.413 -0.9001 -0.8462  0.3052
25641SOL    HW279124   1.353   4.964   3.461 -2.0243 -0.6271 -2.2699
25642SOL     OW79125   3.986   5.328   7.682 -0.0338  0.2683 -0.5279
25642SOL    HW179126   3.939   5.363   7.607 -1.1907  0.3376  0.1906
25642SOL    HW279127   4.069   5.296   7.647 -0.8916 -0.4670 -1.9759
25643SOL     OW79128   7.206   6.856   5.169 -0.1012  0.0960 -0.1689
25643SOL    HW179129   7.187   6.800   5.244 -1.0172 -0.4254 -0.7681
25643SOL    HW279130   7.134   6.920   5.169  1.0419  1.4399  0.6343
25644SOL     OW79131   4.942   6.810   0.355 -0.0806  0.1319 -0.5323
25644SOL    HW179132   4.987   6.893   0.338 -1.4665  1.2543  0.9333
25644SOL    HW279133   4.972   6.785   0.443  0.7336 -1.2278 -1.1740
25645SOL     OW79134   6.034   4.226   2.416  0.7291 -0.1484 -0.2491
25645SOL    HW179135   6.122   4.245   2.448  0.5007  1.2312 -0.3499
25645SOL    HW279136   5.985   4.199   2.494  0.6512  1.4023  0.2686
25646SOL     OW79137   3.945   2.480   4.483  0.3478 -0.1580  0.0575
25646SOL    HW179138   3.958   2.561   4.433  1.0311  0.4520  1.1821
25646SOL    HW279139   4.001   2.416   4.440  1.5268  0.5619  0.4720
25647SOL     OW79140   3.858   3.220   1.076  0.1894  0.1121  0.3500
25647SOL    HW179141   3.882   3.270   0.998 -0.5649  0.9267  0.6248
25647SOL    HW279142   3.858   3.129   1.046 -0.1693  0.4182 -0.6273
25648SOL     OW79143   8.349   6.385   2.124 -0.2004  0.0207  0.3590
25648SOL    HW179144   8.302   6.468   2.123  0.5473  0.4510 -1.0933
25648SOL    HW279145   8.437   6.406   2.092  0.3607 -1.1325  1.0497
25649SOL     OW79146   8.902   3.855   5.130 -0.2801 -0.1179 -0.0773
25649SOL    HW179147   8.836   3.820   5.070 -0.4823  1.1487 -0.6281
25649SOL    HW279148   8.978   3.873   5.074 -0.5947  1.4173 -0.0694
25650SOL     OW79149   4.803   2.453   4.852  0.4039 -0.3347 -0.1781
25650SOL    HW179150   4.744   2.528   4.849  0.5931 -0.2300 -2.1887
25650SOL    HW279151   4.881   2.481   4.805  0.5857 -1.7008 -0.7523
25651SOL     OW79152   6.673   4.484   3.704 -0.2495  0.1438 -0.1625
25651SOL    HW179153   6.598   4.495   3.645  0.6144  2.2624 -0.9535
25651SOL    HW279154   6.651   4.535   3.781  1.0649  2.3450 -1.1493
25652SOL     OW79155   4.220   6.203   7.757  0.1330  0.1967 -0.0845
25652SOL    HW179156   4.241   6.271   7.821  1.8482  0.8660 -1.2856
25652SOL    HW279157   4.150   6.240   7.705 -0.8640 -0.1145  0.9888
25653SOL     OW79158   8.969   7.695   1.932  0.1507 -0.2113  0.5873
25653SOL    HW179159   9.033   7.673   2.001  0.8920  0.1125  0.0172
25653SOL    HW279160   8.905   7.624   1.935  1.3171 -1.3078  0.2260
25654SOL     OW79161   6.239   2.774   0.118 -0.0145  0.4427 -0.4833
25654SOL    HW179162   6.276   2.713   0.055 -0.5630  0.1864 -0.5674
25654SOL    HW279163   6.238   2.858   0.073  1.8177  0.7743  0.0387
25655SOL     OW79164   2.973   3.915   5.289 -0.4082 -0.6643  0.0250
25655SOL    HW179165   2.983   3.820   5.281 -0.0615 -0.6157 -0.1643
25655SOL    HW279166   2.968   3.946   5.198  1.9405 -0.2620 -0.0395
25656SOL     OW79167   8.399   4.935   8.547 -0.3803 -0.0054  0.2622
25656SOL    HW179168   8.395   5.025   8.514  0.5368  1.0927  2.8749
25656SOL    HW279169   8.322   4.927   8.603 -1.1581 -1.3564 -0.9187
25657SOL     OW79170   7.317   6.767   0.510 -0.1222 -0.6770  0.3099
25657SOL    HW179171   7.235   6.804   0.544 -0.9017 -0.7636 -1.3859
25657SOL    HW279172   7.354   6.837   0.457 -1.3066 -2.0001 -2.4423
25658SOL     OW79173   1.732   4.948   8.912  0.5761  0.4985 -0.0573
25658SOL    HW179174   1.795   4.938   8.841  1.7681 -0.4024  1.0824
25658SOL    HW279175   1.701   4.859   8.930 -1.1360  0.9351 -0.6655
25659SOL     OW79176   6.899   6.026   5.737  0.5688 -0.0649  0.1377
25659SOL    HW179177   6.830   6.085   5.768  2.3687  3.0061 -1.2253
25659SOL    HW279178   6.857   5.941   5.730 -2.4089  1.1616  1.6287
25660SOL     OW79179   5.103   6.124   1.807 -0.1967 -0.0365  0.0481
25660SOL    HW179180   5.117   6.041   1.761  0.0032  0.9466 -1.6954
25660SOL    HW279181   5.103   6.191   1.739  0.4647  1.5229  1.5064
25661SOL     OW79182   2.145   2.549   7.631  0.2430 -0.2559 -0.4521
25661SOL    HW179183   2.204   2.605   7.681 -1.3725 -0.7000  2.1314
25661SOL    HW279184   2.121   2.601   7.554 -1.1745  2.6946  1.7959
25662SOL     OW79185   5.022   7.479   8.127  0.1487  0.0959  0.3619
25662SOL    HW179186   5.107   7.522   8.116  0.3021 -0.1612  0.5340
25662SOL    HW279187   4.993   7.460   8.037  0.1725  0.3709  0.2931
25663SOL     OW79188   6.282   5.876   3.927 -0.8253 -0.3129  0.0848
25663SOL    HW179189   6.197   5.832   3.923 -0.8532 -0.2068 -0.6533
25663SOL    HW279190   6.262   5.965   3.958 -1.1709  0.1384 -1.3560
25664SOL     OW79191   9.207   4.812   4.233 -0.4118 -0.9353  0.4103
25664SOL    HW179192   9.268   4.884   4.252 -2.0309  1.2009 -1.8755
25664SOL    HW279193   9.123   4.856   4.216 -1.2504 -3.2539 -2.1026
25665SOL     OW79194   1.025   8.748   7.723 -0.2167 -0.1608 -0.2255
25665SOL    HW179195   0.950   8.802   7.698 -0.2752 -0.3378 -0.4397
25665SOL    HW279196   1.069   8.730   7.640 -0.2371 -0.4987 -0.1640
25666SOL     OW79197   5.016   5.527   0.958  0.1482 -0.1844  0.2079
25666SOL    HW179198   4.947   5.494   0.901 -0.5936 -2.0107  2.0661
25666SOL    HW279199   5.042   5.452   1.012  2.5351  0.8307  0.6363
25667SOL     OW79200   8.325   2.159   5.003  0.4896  0.3844  0.1494
25667SOL    HW179201   8.390   2.091   4.989  0.4310  0.8031 -3.0124
25667SOL    HW279202   8.321   2.171   5.098  2.9573 -1.5830  0.5847
25668SOL     OW79203   2.155   2.807   0.351  0.5022 -0.6921 -0.8708
25668SOL    HW179204   2.169   2.764   0.436 -1.8926  0.8214  0.3857
25668SOL    HW279205   2.122   2.737   0.294  1.4738 -1.5667 -0.4001
25669SOL     OW79206   8.071   1.669   0.714 -0.5807 -0.7885  0.5814
25669SOL    HW179207   8.068   1.729   0.789  1.5594 -1.3678  1.2058
25669SOL    HW279208   8.135   1.709   0.654 -0.8210 -1.3169 -0.0453
25670SOL     OW79209   3.012   7.807   9.506  0.3269 -0.2523  0.0857
25670SOL    HW179210   2.982   7.747   9.438  1.7602 -0.6325 -0.2630
25670SOL    HW279211   3.037   7.750   9.579  0.2888  0.0292  0.3193
25671SOL     OW79212   4.298   1.429   6.494 -0.1632  0.4466  0.3183
25671SOL    HW179213   4.239   1.359   6.523 -0.0166 -0.0697 -0.6044
25671SOL    HW279214   4.385   1.400   6.521 -0.1676  0.5473  0.4430
25672SOL     OW79215   5.325   7.406   2.829 -0.6170  0.2993  0.5662
25672SOL    HW179216   5.372   7.482   2.862  0.8469 -0.9833  1.6304
25672SOL    HW279217   5.385   7.333   2.844 -1.4116 -0.9029 -1.6027
25673SOL     OW79218   8.247   5.481   3.155  0.6886  0.1641  0.0400
25673SOL    HW179219   8.217   5.405   3.106  0.3949  0.8357 -0.8598
25673SOL    HW279220   8.327   5.508   3.111 -0.4271  1.7397 -1.1502
25674SOL     OW79221   4.211   7.883   6.929 -0.0218  0.6116  0.1245
25674SOL    HW179222   4.200   7.940   6.853  0.6088  0.2519 -0.2439
25674SOL    HW279223   4.238   7.942   7.000  1.1315  0.7120 -0.3835
25675SOL     OW79224   8.138   1.334   5.493 -0.0567 -0.3311  0.0916
25675SOL    HW179225   8.224   1.321   5.453 -0.6623 -0.8939 -1.0741
25675SOL    HW279226   8.135   1.273   5.566  0.3960 -0.5753 -0.0934
25676SOL     OW79227   3.893   7.631   5.358  0.2353  0.1555 -0.2169
25676SOL    HW179228   3.962   7.655   5.420  0.5283 -1.5025  0.1476
25676SOL    HW279229   3.907   7.538   5.341 -0.4344  0.3441 -2.0395
25677SOL     OW79230   5.295   3.955   6.222 -0.0295  0.6392 -0.0362
25677SOL    HW179231   5.267   3.881   6.276 -0.8948  0.3441 -0.8593
25677SOL    HW279232   5.366   3.921   6.168  2.1889  1.4424  2.1976
25678SOL     OW79233   4.190   3.666   8.850 -0.2498 -0.0225  0.1960
25678SOL    HW179234   4.124   3.735   8.842 -0.6702 -0.3718  0.6138
25678SOL    HW279235   4.274   3.713   8.852 -0.4900  0.4263 -0.2287
25679SOL     OW79236   0.340   6.991   3.701  0.0711 -0.3618 -0.4974
25679SOL    HW179237   0.293   7.066   3.738 -1.1180 -1.3851  0.1650
25679SOL    HW279238   0.432   7.010   3.717 -0.0889  1.6298 -1.6938
25680SOL     OW79239   2.161   8.644   4.780  0.1897  0.7528  0.2488
25680SOL    HW179240   2.099   8.711   4.754 -0.9483 -0.4526 -0.2886
25680SOL    HW279241   2.137   8.567   4.728  1.9363  0.1445  0.2711
25681SOL     OW79242   5.184   3.529   4.190  0.3450  0.3001 -0.1816
25681SOL    HW179243   5.115   3.535   4.256 -0.7080  0.6416 -1.2748
25681SOL    HW279244   5.170   3.605   4.133  1.3728  0.1407 -0.6747
25682SOL     OW79245   5.574   3.736   0.278  0.0771  0.7036 -0.1182
25682SOL    HW179246   5.569   3.831   0.264 -0.5177  0.9882  1.7981
25682SOL    HW279247   5.653   3.710   0.231  0.3742  2.1808 -0.5132
25683SOL     OW79248   4.199   2.801   8.598  0.0772  0.2350 -0.2398
25683SOL    HW179249   4.233   2.725   8.645 -1.5001 -0.4490 -0.1432
25683SOL    HW279250   4.106   2.804   8.622  0.2774  2.7586  0.5215
25684SOL     OW79251   1.543   8.017   5.978 -0.3130 -0.2554 -0.0508
25684SOL    HW179252   1.620   8.070   6.001 -0.1555 -0.7291  0.5301
25684SOL    HW279253   1.516   7.977   6.061 -0.2736 -1.2933 -0.5334
25685SOL     OW79254   7.366   4.243   0.825 -0.3057 -0.1603 -0.2695
25685SOL    HW179255   7.388   4.185   0.753 -0.3107  0.4562 -0.7791
25685SOL    HW279256   7.451   4.272   0.860 -0.2865  0.6472 -0.9483
25686SOL     OW79257   8.252   6.588   1.027 -0.3970 -0.5325  0.4725
25686SOL    HW179258   8.306   6.659   0.994 -0.6127 -0.4863  0.2131
25686SOL    HW279259   8.188   6.631   1.085 -0.1278 -0.5925  0.8143
25687SOL     OW79260   7.018   4.741   9.399 -0.7456  0.1958  0.0832
25687SOL    HW179261   7.106   4.738   9.362 -0.2124 -0.2935  1.3362
25687SOL    HW279262   6.971   4.670   9.356 -0.6309  0.6199 -0.7780
25688SOL     OW79263   4.715   6.992   1.561  0.2056  0.3754  0.3327
25688SOL    HW179264   4.718   6.968   1.468 -3.2138  1.3064 -0.1225
25688SOL    HW279265   4.754   7.079   1.564  0.5143  0.2637 -0.1497
25689SOL     OW79266   8.893   2.596   3.826  0.0291  0.6276  0.5556
25689SOL    HW179267   8.894   2.501   3.834 -1.5936  0.3696 -1.5313
25689SOL    HW279268   8.888   2.627   3.916 -1.0266 -1.3221  1.2325
25690SOL     OW79269   5.451   9.487   3.269 -0.0223  0.1714 -0.1065
25690SOL    HW179270   5.440   9.573   3.228  0.2053 -0.6045 -1.9152
25690SOL    HW279271   5.488   9.506   3.355 -1.0443  1.9371  0.0031
25691SOL     OW79272   5.032   8.152   4.526 -0.2608  0.6674 -0.2950
25691SOL    HW179273   4.959   8.160   4.464  1.0845 -1.0452 -2.2466
25691SOL    HW279274   4.990   8.130   4.609 -2.0189 -1.5408 -1.6357
25692SOL     OW79275   5.116   4.366   7.267  0.6596 -0.4220 -0.4063
25692SOL    HW179276   5.054   4.372   7.339  0.2702  0.2765 -0.7873
25692SOL    HW279277   5.104   4.279   7.231  0.9935 -0.8513  0.4851
25693SOL     OW79278   4.474   3.045   5.696 -0.2518  0.3818  0.0681
25693SOL    HW179279   4.496   3.114   5.758 -0.1684 -0.0669  0.5445
25693SOL    HW279280   4.556   2.997   5.684 -0.7538 -0.8545  1.2853
25694SOL     OW79281   0.472   6.523   8.293 -0.6223  0.1353 -0.4466
25694SOL    HW179282   0.400   6.585   8.305  0.5692  1.7362 -1.1796
25694SOL    HW279283   0.446   6.446   8.345 -2.7246  0.7318 -0.5107
25695SOL     OW79284   5.481   2.462   4.892 -0.1839 -0.0273 -0.0657
25695SOL    HW179285   5.493   2.486   4.984 -0.3486  0.0694 -0.0690
25695SOL    HW279286   5.393   2.493   4.870 -0.3133 -0.4274 -0.1330
25696SOL     OW79287   1.813   4.227   0.911  0.2348 -1.0359 -0.1835
25696SOL    HW179288   1.897   4.239   0.955 -0.1956  0.7631  0.2081
25696SOL    HW279289   1.749   4.217   0.982  0.0421 -1.9990 -0.4742
25697SOL     OW79290   1.472   7.325   0.903 -0.1928  0.6574 -0.8677
25697SOL    HW179291   1.535   7.272   0.952 -1.8776 -1.4548 -0.8085
25697SOL    HW279292   1.480   7.413   0.940  1.8609  0.1892 -0.0778
25698SOL     OW79293   9.065   3.057   6.984  0.1151  0.1985 -0.0353
25698SOL    HW179294   9.089   3.071   6.893  0.4550 -0.0817  0.0081
25698SOL    HW279295   9.144   3.082   7.033 -0.4112  1.3426  0.2482
25699SOL     OW79296   0.930   6.663   3.025  0.2223 -0.0503  0.1850
25699SOL    HW179297   0.973   6.728   2.969 -1.6546  0.0250 -1.2693
25699SOL    HW279298   0.982   6.584   3.015 -0.7873 -0.4694 -2.9082
25700SOL     OW79299   6.253   3.583   1.448 -0.4269  0.1588 -0.2821
25700SOL    HW179300   6.245   3.490   1.470 -0.6095  0.3747  0.5691
25700SOL    HW279301   6.338   3.609   1.484 -0.9708  0.6444  0.6824
25701SOL     OW79302   2.108   5.667   0.720 -0.0876 -0.1887 -0.6448
25701SOL    HW179303   2.133   5.721   0.795 -0.7536 -0.7614  0.0154
25701SOL    HW279304   2.072   5.729   0.657  1.2598  0.4052 -0.8569
25702SOL     OW79305   0.007   5.353   1.768  0.5398  0.1108 -0.3206
25702SOL    HW179306   0.083   5.295   1.775  1.0335  0.6735 -0.8326
25702SOL    HW279307   0.017   5.414   1.841  0.4119 -0.0050 -0.2061
25703SOL     OW79308   1.822   4.813   6.038 -0.2336 -0.6305 -0.2618
25703SOL    HW179309   1.764   4.864   5.981  0.9311  0.8638 -0.1816
25703SOL    HW279310   1.833   4.868   6.116 -2.3203 -2.9164  1.8145
25704SOL     OW79311   5.766   8.351   9.567 -0.8687 -0.3120  0.1528
25704SOL    HW179312   5.845   8.324   9.519 -0.7562 -0.1849  0.2659
25704SOL    HW279313   5.796   8.361   9.657 -1.1898 -1.0268  0.3423
25705SOL     OW79314   3.526   1.040   3.605 -0.1411 -0.5834  0.2241
25705SOL    HW179315   3.468   0.986   3.551  1.1834 -0.7848 -1.0675
25705SOL    HW279316   3.468   1.081   3.669 -1.8849  0.0607 -1.6606
25706SOL     OW79317   8.654   8.819   0.944  0.0011  0.5168  0.0138
25706SOL    HW179318   8.737   8.867   0.948  0.8463 -0.8135 -0.8159
25706SOL    HW279319   8.587   8.887   0.950  1.1475  1.6991 -0.1415
25707SOL     OW79320   1.691   5.114   4.158 -0.0124  0.1250 -0.5715
25707SOL    HW179321   1.620   5.163   4.116 -0.5891 -0.2372 -0.0433
25707SOL    HW279322   1.770   5.143   4.113 -0.4852  0.6007 -1.1166
25708SOL     OW79323   0.880   7.306   8.666 -0.1681 -0.4056  0.1919
25708SOL    HW179324   0.799   7.303   8.616  1.3043 -1.0119 -2.3451
25708SOL    HW279325   0.896   7.215   8.691 -1.7628  0.0831  3.4693
25709SOL     OW79326   6.550   9.202   5.253  0.2325 -0.8064  0.2125
25709SOL    HW179327   6.514   9.289   5.267  2.2192 -0.0128  0.8110
25709SOL    HW279328   6.485   9.157   5.199 -1.2906  0.6983  0.7011
25710SOL     OW79329   8.627   2.189   6.171  1.3765 -0.1302  0.8227
25710SOL    HW179330   8.606   2.120   6.107  2.3561 -0.7817  1.1821
25710SOL    HW279331   8.657   2.262   6.117  1.1481 -0.2808  0.4814
25711SOL     OW79332   5.079   1.493   6.517  0.0236  0.8676 -0.2271
25711SOL    HW179333   5.058   1.450   6.434 -0.0574 -3.0791  1.5823
25711SOL    HW279334   5.175   1.489   6.522 -0.0430 -3.1105  1.5768
25712SOL     OW79335   7.083   7.514   6.843  0.2522 -0.7840  0.4258
25712SOL    HW179336   7.017   7.507   6.774  0.7716 -2.5944  0.0483
25712SOL    HW279337   7.116   7.425   6.853  1.0097 -0.3403  2.2294
25713SOL     OW79338   0.832   7.860   1.991 -0.0758 -0.7950  0.1617
25713SOL    HW179339   0.856   7.775   1.954  1.7482  0.4980 -1.8913
25713SOL    HW279340   0.861   7.856   2.082  2.3109 -1.5455 -0.5685
25714SOL     OW79341   7.742   9.280   0.787  0.2728 -0.5104  0.0327
25714SOL    HW179342   7.819   9.292   0.730  0.5313  0.7860  0.6247
25714SOL    HW279343   7.772   9.307   0.874 -0.8815  0.1644  0.2443
25715SOL     OW79344   4.015   1.208   1.691 -0.1017 -0.6220 -0.2680
25715SOL    HW179345   3.957   1.220   1.767 -0.8672  1.1730 -1.0821
25715SOL    HW279346   4.077   1.281   1.696 -0.4521 -0.2006 -1.5995
25716SOL     OW79347   8.593   0.678   7.590 -0.3018 -0.1745  0.3276
25716SOL    HW179348   8.636   0.711   7.669 -0.3479 -0.0442  0.2981
25716SOL    HW279349   8.582   0.584   7.607 -0.6680 -0.0800  0.6481
25717SOL     OW79350   1.942   4.358   6.006 -0.1888  0.1847 -0.5905
25717SOL    HW179351   1.904   4.422   6.065  0.9582  0.2764  0.0831
25717SOL    HW279352   1.959   4.406   5.925 -0.4068  0.4331 -0.4889
25718SOL     OW79353   3.946   2.945   5.399  0.2078 -0.0439 -0.0372
25718SOL    HW179354   3.955   2.850   5.390 -0.5723 -0.2047  0.6975
25718SOL    HW279355   4.013   2.969   5.463 -0.3902 -0.2996  0.7085
25719SOL     OW79356   7.992   7.648   1.605  0.1086 -0.1802  0.2671
25719SOL    HW179357   7.976   7.622   1.515 -0.5539  0.3220  0.2282
25719SOL    HW279358   8.067   7.707   1.600 -0.7799  0.9512 -0.1548
25720SOL     OW79359   6.547   6.363   3.255 -0.4119 -0.1915  0.3483
25720SOL    HW179360   6.566   6.455   3.241  3.4767 -0.7878  0.7479
25720SOL    HW279361   6.543   6.353   3.351  0.0712 -0.5872  0.3294
25721SOL     OW79362   0.645   2.038   6.628  0.0455  0.0900  0.2131
25721SOL    HW179363   0.587   2.061   6.555 -1.0927 -0.4387  0.9257
25721SOL    HW279364   0.726   2.009   6.586 -0.1024  1.0862 -0.7977
25722SOL     OW79365   5.158   8.054   0.349  0.4634  0.0656  0.2121
25722SOL    HW179366   5.082   8.067   0.407 -1.7291 -2.1342 -1.9036
25722SOL    HW279367   5.139   8.107   0.272  1.6778  0.3785  0.1067
25723SOL     OW79368   1.532   8.533   2.903  0.0491  0.7149 -0.3225
25723SOL    HW179369   1.591   8.494   2.839 -0.0402 -0.8598  0.5071
25723SOL    HW279370   1.477   8.594   2.852 -0.3330 -0.8309 -1.8360
25724SOL     OW79371   5.422   5.996   1.606 -0.0227  0.6095  0.2099
25724SOL    HW179372   5.436   5.994   1.512 -1.3163  2.3555 -0.0580
25724SOL    HW279373   5.478   5.926   1.640 -1.4925 -1.8913 -2.0751
25725SOL     OW79374   1.510   3.457   6.137  0.4338  0.3916 -0.1286
25725SOL    HW179375   1.552   3.517   6.198 -0.4817  1.2400 -0.3126
25725SOL    HW279376   1.579   3.395   6.114  1.1726  0.8816  0.6938
25726SOL     OW79377   2.119   6.113   5.330 -0.6064  0.5209  0.2218
25726SOL    HW179378   2.033   6.154   5.341  0.0884  1.8551  1.0298
25726SOL    HW279379   2.157   6.115   5.418 -1.0336 -3.1963  0.6565
25727SOL     OW79380   6.230   7.676   1.215 -0.4053  0.1450  0.2389
25727SOL    HW179381   6.243   7.594   1.263  0.2197 -1.0418 -1.8359
25727SOL    HW279382   6.138   7.674   1.188 -0.5705  0.4738  0.7609
25728SOL     OW79383   7.212   8.600   6.935  0.0503 -0.2137 -0.2628
25728SOL    HW179384   7.117   8.592   6.922  0.0774 -0.1793 -0.4923
25728SOL    HW279385   7.223   8.683   6.981 -0.2220 -1.3546  2.0036
25729SOL     OW79386   3.139   3.169   4.788 -0.3629 -0.2587  0.0013
25729SOL    HW179387   3.162   3.219   4.710  1.4659  0.9793  1.2350
25729SOL    HW279388   3.191   3.089   4.782 -1.0129 -0.6490 -0.5270
25730SOL     OW79389   4.924   1.070   7.520 -0.7408  0.1920  0.2686
25730SOL    HW179390   4.912   1.044   7.611 -0.6736 -3.4846 -0.6012
25730SOL    HW279391   4.877   1.153   7.512 -2.1113 -0.1762  3.2637
25731SOL     OW79392   1.821   1.411   2.174 -0.5079  0.1987 -0.3618
25731SOL    HW179393   1.814   1.376   2.086 -0.1366 -0.4770 -0.1267
25731SOL    HW279394   1.815   1.335   2.231  0.3779  0.4928  0.1495
25732SOL     OW79395   9.462   4.468   8.985 -0.0135 -0.1164  0.1221
25732SOL    HW179396   9.455   4.550   9.034 -3.1428  0.2669 -0.7550
25732SOL    HW279397   9.440   4.400   9.049  1.5138 -0.2098  0.5801
25733SOL     OW79398   4.655   7.374   9.167  0.2926 -0.2617 -0.0755
25733SOL    HW179399   4.721   7.441   9.188  1.4214 -0.8522 -1.5815
25733SOL    HW279400   4.619   7.402   9.083 -0.4281 -0.6662  0.0978
25734SOL     OW79401   4.336   0.709   7.793  0.5510 -1.1734  0.2599
25734SOL    HW179402   4.276   0.683   7.863  0.7803  1.0666  1.3977
25734SOL    HW279403   4.422   0.715   7.835  0.5592  0.9937  0.0715
25735SOL     OW79404   6.521   7.650   0.974  0.1386 -0.7618  0.3331
25735SOL    HW179405   6.540   7.571   1.025 -3.3204  0.0469  3.2542
25735SOL    HW279406   6.433   7.636   0.940 -0.1019  1.3848 -0.0449
25736SOL     OW79407   6.146   9.262   5.282 -0.0098 -0.1836 -0.1686
25736SOL    HW179408   6.194   9.260   5.199 -0.4177  0.0235 -0.4125
25736SOL    HW279409   6.147   9.171   5.313  1.9894  0.0788  0.6808
25737SOL     OW79410   3.317   3.284   2.506  0.0169  0.1095  0.3536
25737SOL    HW179411   3.272   3.254   2.585  0.5879 -0.2284  0.5544
25737SOL    HW279412   3.249   3.329   2.455 -0.2291  0.8122  1.2866
25738SOL     OW79413   4.156   7.743   3.585  0.6038  0.6756 -0.1871
25738SOL    HW179414   4.113   7.793   3.656  0.2055  0.6009 -0.3715
25738SOL    HW279415   4.102   7.665   3.575  1.2954  0.1398  0.1771
25739SOL     OW79416   6.930   0.709   0.150  0.0416 -0.8466  0.2526
25739SOL    HW179417   6.839   0.689   0.126  0.3045 -0.6389 -0.9839
25739SOL    HW279418   6.964   0.759   0.076  1.9427 -3.0456 -0.4968
25740SOL     OW79419   5.346   5.594   0.269 -0.1078 -0.4622 -0.1256
25740SOL    HW179420   5.369   5.574   0.360  0.1900 -0.5067 -0.2088
25740SOL    HW279421   5.383   5.681   0.254  2.0720 -1.4540 -0.9650
25741SOL     OW79422   8.399   1.853   6.470 -0.1417  0.0137  0.3403
25741SOL    HW179423   8.426   1.942   6.447  0.2676 -0.2146 -0.0868
25741SOL    HW279424   8.478   1.812   6.506 -0.0957 -0.4333 -0.2459
25742SOL     OW79425   6.970   1.197   0.479  0.5576 -0.1472 -0.0345
25742SOL    HW179426   6.923   1.252   0.541  1.7384  1.5380 -0.5628
25742SOL    HW279427   7.029   1.144   0.534  0.1514 -0.1450  0.4089
25743SOL     OW79428   8.286   4.760   7.173  0.2200  0.2214  0.2547
25743SOL    HW179429   8.232   4.743   7.096 -0.1416  2.4530 -0.0443
25743SOL    HW279430   8.226   4.753   7.247 -0.2584  1.5630  0.0142
25744SOL     OW79431   3.512   8.119   5.626  0.1120 -0.4039 -0.2546
25744SOL    HW179432   3.484   8.028   5.620  0.4884 -0.4983 -0.5985
25744SOL    HW279433   3.499   8.141   5.718  1.7545 -1.3800  0.2465
25745SOL     OW79434   8.006   0.079   6.873 -0.1609  0.1555  0.0148
25745SOL    HW179435   8.023   0.011   6.939 -1.8710  0.0919  0.4195
25745SOL    HW279436   8.044   0.044   6.792 -1.1683 -1.3972  0.1772
25746SOL     OW79437   1.687   0.848   3.659  0.0716 -0.4553  0.4325
25746SOL    HW179438   1.744   0.825   3.732  1.0809 -0.6273 -0.3818
25746SOL    HW279439   1.678   0.943   3.665  0.7479 -0.3796  0.3652
25747SOL     OW79440   6.270   8.191   8.962  0.0412  0.1307  0.2717
25747SOL    HW179441   6.295   8.255   8.896 -0.0437 -0.1395 -0.0215
25747SOL    HW279442   6.354   8.164   9.001  0.0608  0.5720  0.5421
25748SOL     OW79443   9.447   7.406   2.757 -0.1109 -0.2331 -0.6777
25748SOL    HW179444   9.453   7.312   2.775 -0.3924 -0.1545 -0.1517
25748SOL    HW279445   9.438   7.411   2.662 -0.3917 -0.7605 -0.6853
25749SOL     OW79446   6.634   0.349   3.506  0.3010 -0.5636  0.1547
25749SOL    HW179447   6.618   0.267   3.460  1.4804 -0.9685  0.4227
25749SOL    HW279448   6.590   0.415   3.453  0.6387 -1.1716 -0.9154
25750SOL     OW79449   7.566   1.697   1.065 -0.4589  0.1382 -0.0897
25750SOL    HW179450   7.637   1.724   1.008 -1.4174  0.8259 -0.9962
25750SOL    HW279451   7.561   1.765   1.132 -0.3786  0.1859 -0.1331
25751SOL     OW79452   8.932   0.047   6.384  0.5565  0.8824  0.5400
25751SOL    HW179453   8.869  -0.019   6.414  0.6781  1.5431  2.3564
25751SOL    HW279454   8.890   0.130   6.405  2.1709  1.3393  2.1350
25752SOL     OW79455   2.075   4.980   2.379  0.3149 -0.0167  0.0445
25752SOL    HW179456   2.128   5.008   2.304 -1.5075  1.6350 -0.7151
25752SOL    HW279457   2.110   5.029   2.453  1.0779 -0.4253 -0.0319
25753SOL     OW79458   3.583   3.515   6.851 -0.7941 -0.1539  0.0982
25753SOL    HW179459   3.569   3.592   6.795  0.1771  0.2891  0.4429
25753SOL    HW279460   3.594   3.443   6.789 -0.1495  0.2617 -0.2886
25754SOL     OW79461   4.881   0.138   3.013 -0.2853  0.1513 -0.2176
25754SOL    HW179462   4.957   0.081   3.021  0.1118  0.4764 -1.4468
25754SOL    HW279463   4.846   0.144   3.102 -0.6419 -2.3722 -0.1346
25755SOL     OW79464   8.378   2.148   2.845 -0.2971  0.0693 -0.0121
25755SOL    HW179465   8.424   2.226   2.814 -3.5496  2.6047  1.0343
25755SOL    HW279466   8.334   2.113   2.768 -0.2430  0.3063 -0.1496
25756SOL     OW79467   3.903   8.248   1.422  0.1087  0.3020  0.4544
25756SOL    HW179468   3.912   8.339   1.390 -0.9490  0.2325 -0.0818
25756SOL    HW279469   3.839   8.254   1.492 -0.6326 -0.1499 -0.1702
25757SOL     OW79470   2.030   3.615   0.422  0.1388  0.2411  0.0637
25757SOL    HW179471   2.042   3.674   0.496  1.3330  0.2694 -0.1286
25757SOL    HW279472   2.037   3.527   0.459  0.6293  0.2539  0.0037
25758SOL     OW79473   4.627   1.499   8.068  0.8060 -0.7335 -0.1485
25758SOL    HW179474   4.644   1.575   8.013  0.9363 -0.0899  0.7559
25758SOL    HW279475   4.713   1.461   8.084  0.7607 -0.9603 -0.4476
25759SOL     OW79476   2.344   4.931   0.116  0.1146 -0.0209  0.0039
25759SOL    HW179477   2.269   4.881   0.083  0.6164 -0.5826 -0.3068
25759SOL    HW279478   2.370   4.985   0.042 -0.6743  1.0339  0.4578
25760SOL     OW79479   7.015   1.515   1.399 -0.0129 -0.0727  0.0564
25760SOL    HW179480   7.071   1.503   1.475 -1.8532  1.1631  1.7136
25760SOL    HW279481   7.048   1.594   1.356 -0.3801  0.5772  0.9495
25761SOL     OW79482   3.086   1.796   7.509 -0.1317 -0.0685  0.7160
25761SOL    HW179483   3.012   1.738   7.493  0.7761 -0.8195 -1.0073
25761SOL    HW279484   3.129   1.761   7.588 -1.0529 -0.1738  1.1791
25762SOL     OW79485   1.919   5.684   1.343  0.0727  0.5898  0.4479
25762SOL    HW179486   2.014   5.678   1.341 -0.0489 -2.1347 -0.4076
25762SOL    HW279487   1.900   5.741   1.418  2.3298  0.3775  1.2320
25763SOL     OW79488   1.588   4.585   3.551 -0.5219 -0.1905  0.0653
25763SOL    HW179489   1.589   4.612   3.459 -1.4786 -2.0334 -0.5373
25763SOL    HW279490   1.681   4.577   3.574 -0.2480 -1.1545 -1.2276
25764SOL     OW79491   7.002   4.047   8.418 -0.2018  0.7163 -0.3701
25764SOL    HW179492   7.027   4.014   8.504 -2.6000 -2.4863 -0.7422
25764SOL    HW279493   7.051   3.994   8.355 -1.6173  0.0553 -0.9708
25765SOL     OW79494   8.287   1.586   9.211 -0.0944 -0.3245  0.0264
25765SOL    HW179495   8.310   1.579   9.304  1.2512 -1.8260 -0.3749
25765SOL    HW279496   8.193   1.602   9.211 -0.7203 -3.3341  1.6316
25766SOL     OW79497   7.970   1.211   3.013 -0.3080 -0.1297  0.4093
25766SOL    HW179498   7.932   1.129   3.045  0.4554 -0.2357  1.0583
25766SOL    HW279499   7.931   1.279   3.068 -0.8823 -0.0539 -0.0784
25767SOL     OW79500   6.309   5.330   8.688  0.1804 -0.0027  0.0410
25767SOL    HW179501   6.294   5.250   8.638  0.5293 -0.6798  0.9944
25767SOL    HW279502   6.223   5.356   8.719 -0.0735  0.5544 -1.0827
25768SOL     OW79503   2.228   2.778   5.349 -0.2666  0.3139  0.4838
25768SOL    HW179504   2.269   2.839   5.411 -0.0257  0.4385  0.2049
25768SOL    HW279505   2.256   2.691   5.378  1.2946  0.4661 -0.4847
25769SOL     OW79506   2.722   0.613   9.552  0.3245  0.0628 -0.2752
25769SOL    HW179507   2.729   0.704   9.523 -0.9652 -0.4537 -2.4128
25769SOL    HW279508   2.745   0.561   9.475 -0.2020 -1.4373  0.5294
25770SOL     OW79509   4.167   1.429   1.738 -0.0872 -0.1851 -0.5084
25770SOL    HW179510   4.251   1.423   1.783  0.0641 -1.4522 -0.9197
25770SOL    HW279511   4.172   1.512   1.690  0.4208  0.3523  0.4430
25771SOL     OW79512   5.521   8.756   9.509 -0.2177 -0.4170  0.3239
25771SOL    HW179513   5.429   8.767   9.486 -0.7661 -3.5843  0.4980
25771SOL    HW279514   5.567   8.754   9.425 -0.0178  2.5022  0.2752
25772SOL     OW79515   8.093   7.141   0.779  0.0128  0.0382  0.1491
25772SOL    HW179516   8.028   7.081   0.814 -1.8654  1.6198 -0.4325
25772SOL    HW279517   8.047   7.188   0.709  1.3816  2.1019  0.5490
25773SOL     OW79518   9.373   7.774   1.569  0.1032  0.1666  1.1256
25773SOL    HW179519   9.360   7.848   1.509  1.6058 -0.3885  0.0495
25773SOL    HW279520   9.356   7.811   1.656 -0.5161  1.4194  0.5044
25774SOL     OW79521   0.043   4.905   2.704  0.3377 -0.1227 -0.1764
25774SOL    HW179522   0.097   4.971   2.748  0.9310  0.6762 -1.9862
25774SOL    HW279523  -0.029   4.889   2.764 -0.5602  3.1682 -0.1690
25775SOL     OW79524   3.035   8.359   0.513 -0.3072  0.3692  0.0791
25775SOL    HW179525   3.056   8.452   0.510 -0.1845  0.4722  2.3450
25775SOL    HW279526   3.117   8.314   0.494 -0.2086  0.7279 -0.3371
25776SOL     OW79527   0.325   1.354   6.021 -0.1163  0.1840  0.0276
25776SOL    HW179528   0.312   1.449   6.026  1.9084  0.8253 -3.5328
25776SOL    HW279529   0.416   1.341   6.048 -0.9859 -1.1649  2.6616
25777SOL     OW79530   5.473   8.680   1.275  0.3649  0.1398 -0.4869
25777SOL    HW179531   5.543   8.737   1.310 -0.5606  2.2893 -1.9507
25777SOL    HW279532   5.483   8.686   1.180  0.2089 -2.2230 -0.7007
25778SOL     OW79533   0.779   1.486   6.677 -0.2506 -0.3773 -0.5152
25778SOL    HW179534   0.858   1.532   6.709 -1.1472 -0.0008  1.3114
25778SOL    HW279535   0.794   1.395   6.700 -0.9722 -0.0813  1.2896
25779SOL     OW79536   3.271   4.274   1.906  0.2100 -0.3843 -0.5016
25779SOL    HW179537   3.301   4.207   1.845 -0.0827  1.0773 -2.3580
25779SOL    HW279538   3.300   4.357   1.867  1.0321  0.5922  1.9625
25780SOL     OW79539   5.274   9.279   1.677 -0.1612  0.1417  0.2047
25780SOL    HW179540   5.330   9.356   1.690 -0.7847  0.6792 -0.1886
25780SOL    HW279541   5.325   9.206   1.709  0.6116  0.6741  0.2096
25781SOL     OW79542   0.234   5.863   8.230  0.0515  0.2897 -0.1373
25781SOL    HW179543   0.280   5.802   8.288  0.3744  1.3236  0.7270
25781SOL    HW279544   0.141   5.847   8.248  0.1266  2.0315  2.2990
25782SOL     OW79545   1.219   8.466   5.571 -0.1634 -0.0229 -0.2071
25782SOL    HW179546   1.238   8.532   5.638  0.1600 -1.6487  1.3613
25782SOL    HW279547   1.282   8.396   5.587 -2.1955 -1.9155 -0.0938
25783SOL     OW79548   9.218   4.478   8.167 -0.8238  0.4470 -0.3618
25783SOL    HW179549   9.239   4.561   8.124 -0.6780  0.0521 -1.0671
25783SOL    HW279550   9.234   4.411   8.100 -0.3111 -0.2077  0.3976
25784SOL     OW79551   6.757   8.200   8.839 -0.0981 -0.0950  0.2338
25784SOL    HW179552   6.753   8.196   8.744  0.5138 -1.4760  0.2575
25784SOL    HW279553   6.792   8.116   8.866  2.2843  1.2027  1.5541
25785SOL     OW79554   3.443   4.792   4.297  0.2556 -0.1344 -0.3367
25785SOL    HW179555   3.365   4.786   4.353  1.3807 -1.4142  1.1828
25785SOL    HW279556   3.512   4.822   4.356  0.9984  0.8010 -1.6263
25786SOL     OW79557   3.421   9.087   6.047  0.2431  0.0190 -0.2551
25786SOL    HW179558   3.359   9.043   5.989  0.1043  1.2408 -1.0522
25786SOL    HW279559   3.471   9.015   6.088 -1.9219 -1.0138  0.7201
25787SOL     OW79560   2.883   0.542   6.060  0.4339  0.3806 -0.3274
25787SOL    HW179561   2.973   0.519   6.035  0.7700 -0.1088  1.2009
25787SOL    HW279562   2.828   0.485   6.008  1.1107 -0.7991  0.1966
25788SOL     OW79563   5.765   8.086   7.768  0.3468  0.5080  0.6112
25788SOL    HW179564   5.782   8.044   7.852 -0.5159  1.3107  1.2050
25788SOL    HW279565   5.766   8.014   7.704 -0.8668 -0.3951  1.5652
25789SOL     OW79566   1.760   9.529   6.969 -0.2521 -0.1985 -0.0855
25789SOL    HW179567   1.789   9.441   6.944 -0.4545  0.3489 -2.5306
25789SOL    HW279568   1.834   9.585   6.946 -0.3240  0.3580  0.9753
25790SOL     OW79569   2.123   7.826   0.113  0.0218  0.3387 -0.2412
25790SOL    HW179570   2.143   7.878   0.190  0.0973  1.1170 -0.7739
25790SOL    HW279571   2.198   7.839   0.055 -0.4274  0.4654 -0.8041
25791SOL     OW79572   6.643   6.538   6.997 -0.2044  0.6272  0.0625
25791SOL    HW179573   6.729   6.578   6.988 -0.4240  1.4537  1.4635
25791SOL    HW279574   6.601   6.552   6.912  1.6983 -1.5360 -1.3637
25792SOL     OW79575   4.674   0.155   2.837  0.0412 -0.7089 -0.3251
25792SOL    HW179576   4.690   0.233   2.785 -0.6375 -0.2659  0.1023
25792SOL    HW279577   4.745   0.154   2.901 -0.9225  0.6161  0.8548
25793SOL     OW79578   0.673   4.636   4.025  0.5502 -0.3251 -0.2625
25793SOL    HW179579   0.746   4.669   4.079  1.1873  1.2063 -1.9562
25793SOL    HW279580   0.595   4.654   4.077  1.2620 -0.8763  1.0626
25794SOL     OW79581   4.353   2.782   6.989  0.0452 -0.0286 -0.8778
25794SOL    HW179582   4.404   2.764   6.910  0.7359  1.8182 -0.8955
25794SOL    HW279583   4.270   2.736   6.974  1.0924 -1.8445 -1.4981
25795SOL     OW79584   0.101   1.764   7.415  0.5925  0.2256 -0.4482
25795SOL    HW179585   0.066   1.795   7.332  0.3255  1.2699  0.0414
25795SOL    HW279586   0.026   1.769   7.475  1.1014  0.6718  0.1558
25796SOL     OW79587   1.690   1.157   5.492 -0.2387  0.2213  0.2700
25796SOL    HW179588   1.647   1.211   5.426  0.8931  1.0772  0.2018
25796SOL    HW279589   1.783   1.167   5.474  0.0280 -1.0742  0.8090
25797SOL     OW79590   1.565   3.314   7.919  0.2606 -0.3881 -0.0274
25797SOL    HW179591   1.484   3.325   7.970  0.2904 -1.2303  0.2219
25797SOL    HW279592   1.555   3.374   7.845 -1.2066 -1.4074 -0.7200
25798SOL     OW79593   2.499   8.052   5.850  0.6343 -0.3290 -0.1001
25798SOL    HW179594   2.420   8.003   5.872 -0.2441  0.6336 -0.9824
25798SOL    HW279595   2.559   7.987   5.814 -0.0420 -0.9500 -0.1205
25799SOL     OW79596   2.168   4.036   0.820  0.0954  0.8157 -0.1924
25799SOL    HW179597   2.250   3.987   0.827 -0.8007 -0.8105 -0.4267
25799SOL    HW279598   2.132   4.034   0.909 -0.9627 -0.9101 -0.6026
25800SOL     OW79599   7.051   3.295   4.272 -0.6907  0.0857  0.2491
25800SOL    HW179600   7.082   3.204   4.272  0.8038  0.5590  0.1699
25800SOL    HW279601   7.069   3.326   4.184 -0.0195  0.8170  0.6328
25801SOL     OW79602   1.257   2.723   8.377 -0.6371 -0.1480  0.0192
25801SOL    HW179603   1.341   2.716   8.332  0.0952  0.6675  1.2101
25801SOL    HW279604   1.200   2.663   8.329  0.6271 -0.7662 -0.7827
25802SOL     OW79605   6.594   8.715   8.128  0.0999 -0.4944 -0.1995
25802SOL    HW179606   6.612   8.756   8.044  2.0864 -1.7651 -0.4587
25802SOL    HW279607   6.572   8.788   8.186 -1.9059  0.3693 -1.8791
25803SOL     OW79608   8.396   4.102   1.010  0.4183 -0.2271 -0.6023
25803SOL    HW179609   8.329   4.036   1.024  0.4509 -0.0973  0.2371
25803SOL    HW279610   8.404   4.146   1.095  1.3486 -0.0428 -0.7787
25804SOL     OW79611   8.027   5.494   3.976  0.2519 -0.2484  0.3603
25804SOL    HW179612   8.095   5.495   3.908  0.0497  0.5131  0.1580
25804SOL    HW279613   8.068   5.451   4.050  1.1245  0.5886  0.3889
25805SOL     OW79614   2.580   7.408   6.598  0.1736  0.9749 -0.1301
25805SOL    HW179615   2.645   7.374   6.660  0.1258  0.1958 -0.4950
25805SOL    HW279616   2.497   7.369   6.626  0.4841 -1.2094 -1.9671
25806SOL     OW79617   0.637   1.630   3.802 -0.0771  0.1217  0.6895
25806SOL    HW179618   0.664   1.541   3.821  0.7147  0.6202  2.0604
25806SOL    HW279619   0.676   1.683   3.872  0.8319  1.7734 -0.9452
25807SOL     OW79620   8.521   7.513   3.127  0.4506 -0.2321 -0.0370
25807SOL    HW179621   8.527   7.478   3.215 -0.7553  2.7958  1.3826
25807SOL    HW279622   8.589   7.581   3.122  1.8185 -1.6219 -2.1834
25808SOL     OW79623   2.656   3.811   0.898  0.1963  0.4840 -0.1467
25808SOL    HW179624   2.718   3.751   0.857  0.6741 -0.1507  1.4350
25808SOL    HW279625   2.701   3.896   0.897  1.3112 -0.0436  1.3349
25809SOL     OW79626   8.139   5.899   2.704 -0.5122  0.5198  0.4836
25809SOL    HW179627   8.176   5.814   2.728  0.8993  0.9920  0.0448
25809SOL    HW279628   8.149   5.953   2.783  1.2339  1.1116 -0.0828
25810SOL     OW79629   6.327   3.256   4.272  0.3015 -0.1346 -0.3067
25810SOL    HW179630   6.305   3.214   4.189 -0.3250 -0.4722  0.0245
25810SOL    HW279631   6.261   3.325   4.282  0.5005  0.0388 -0.1890
25811SOL     OW79632   7.724   9.121   5.358  0.7500  0.0133  0.0377
25811SOL    HW179633   7.748   9.102   5.448 -0.0423 -0.2237  0.2101
25811SOL    HW279634   7.781   9.066   5.305  0.9030 -0.1931  0.4160
25812SOL     OW79635   7.513   0.047   2.282  0.9360  0.6274 -0.0075
25812SOL    HW179636   7.583   0.110   2.268  0.7656  0.3189 -2.6610
25812SOL    HW279637   7.555  -0.038   2.268  0.4660  0.3166  0.4339
25813SOL     OW79638   3.946   6.471   5.191 -0.1067 -0.6300  0.1341
25813SOL    HW179639   3.920   6.422   5.269 -0.1952 -0.2810  0.3289
25813SOL    HW279640   4.027   6.515   5.217  1.6198 -2.9639 -0.9643
25814SOL     OW79641   2.201   1.420   2.456  0.3398 -0.1080  0.4941
25814SOL    HW179642   2.247   1.424   2.372 -1.2603  0.2561 -0.3964
25814SOL    HW279643   2.123   1.475   2.444  0.2577  0.2685  2.3413
25815SOL     OW79644   0.487   5.144   0.251  0.4102 -0.2389  0.4238
25815SOL    HW179645   0.470   5.052   0.231  2.0862 -0.5863  0.4716
25815SOL    HW279646   0.507   5.144   0.345  1.2329  0.0512  0.2488
25816SOL     OW79647   8.778   9.435   6.486 -0.2432 -0.0922  0.3346
25816SOL    HW179648   8.719   9.467   6.554 -0.5111  0.4260 -0.1371
25816SOL    HW279649   8.721   9.416   6.411  0.2786  1.2635 -0.4376
25817SOL     OW79650   7.299   1.812   6.113  0.5699  0.0396  0.0456
25817SOL    HW179651   7.309   1.874   6.040  1.8007  0.4930  0.5713
25817SOL    HW279652   7.273   1.865   6.187 -0.8844 -0.4529 -0.0660
25818SOL     OW79653   6.275   8.279   1.306 -0.3852  0.2795 -0.0125
25818SOL    HW179654   6.349   8.219   1.301 -0.3094  0.3494  0.2368
25818SOL    HW279655   6.301   8.355   1.254 -0.9359 -0.3687 -1.2809
25819SOL     OW79656   1.264   2.958   7.936 -0.2310 -0.3615  0.0073
25819SOL    HW179657   1.336   2.935   7.993 -0.0463  0.6863  0.2125
25819SOL    HW279658   1.203   3.006   7.992 -0.1335  0.5156 -0.6118
25820SOL     OW79659   7.267   2.705   4.816 -0.0496 -0.6827 -0.9569
25820SOL    HW179660   7.275   2.718   4.721  0.2107  0.6523 -0.7664
25820SOL    HW279661   7.314   2.623   4.832  0.6262 -0.4976 -1.8756
25821SOL     OW79662   3.901   7.476   6.807  0.5412  0.5186  0.1495
25821SOL    HW179663   3.946   7.542   6.861  0.8407  0.1452  0.3653
25821SOL    HW279664   3.853   7.527   6.742  1.4358  0.9217 -0.2063
25822SOL     OW79665   4.210   2.954   7.805 -0.4326  0.2953 -0.1816
25822SOL    HW179666   4.125   2.998   7.810  0.1719  1.4079  0.5491
25822SOL    HW279667   4.194   2.869   7.847 -1.6145 -0.2395 -1.6336
25823SOL     OW79668   4.084   5.988   7.502  0.3141  0.3281 -0.3905
25823SOL    HW179669   4.108   5.965   7.592 -0.1719  1.1227 -0.0476
25823SOL    HW279670   3.998   5.948   7.489  1.4120 -1.9032 -1.3733
25824SOL     OW79671   7.591   7.353   8.286  0.1168 -0.2129  0.0499
25824SOL    HW179672   7.538   7.363   8.365 -0.0372  1.3513 -0.2189
25824SOL    HW279673   7.666   7.410   8.300 -0.1875  0.5139 -1.1338
25825SOL     OW79674   0.361   6.156   6.017  0.5610 -0.0872 -0.1737
25825SOL    HW179675   0.280   6.195   5.984  0.5586 -0.1746 -0.2704
25825SOL    HW279676   0.340   6.130   6.106  0.6841  0.5064  0.0345
25826SOL     OW79677   5.604   7.130   6.944 -0.3449 -0.4065 -0.1832
25826SOL    HW179678   5.626   7.104   7.034  0.2383  2.5814  0.6667
25826SOL    HW279679   5.654   7.210   6.930 -0.7329 -0.5845 -3.0771
25827SOL     OW79680   6.010   0.610   6.576  0.2235 -0.7007  0.2178
25827SOL    HW179681   6.037   0.575   6.661  0.5679  1.9115  1.2721
25827SOL    HW279682   5.925   0.570   6.559 -0.6960  0.0482  2.6894
25828SOL     OW79683   6.522   5.078   6.802 -0.5665  0.4127 -0.9909
25828SOL    HW179684   6.565   5.156   6.838  0.5092 -0.4192 -0.4258
25828SOL    HW279685   6.593   5.028   6.762 -1.2446 -0.2920 -1.3318
25829SOL     OW79686   7.691   2.710   7.005  0.2255 -0.2927  0.3877
25829SOL    HW179687   7.708   2.692   7.098  1.1594 -1.5806  0.0100
25829SOL    HW279688   7.772   2.751   6.974  0.3722 -0.9329 -0.0978
25830SOL     OW79689   2.796   8.045   8.371 -0.4779  0.3504  0.2794
25830SOL    HW179690   2.779   7.978   8.305 -0.8050  0.2040  0.5112
25830SOL    HW279691   2.723   8.106   8.364 -0.2145  0.6537  0.1130
25831SOL     OW79692   4.303   8.678   2.828 -0.2094  0.5083 -0.2779
25831SOL    HW179693   4.289   8.727   2.909 -0.0510 -0.3660  0.2926
25831SOL    HW279694   4.215   8.655   2.798 -0.2384 -0.0168  0.1906
25832SOL     OW79695   6.934   1.171   9.405  0.3932  0.3701  0.1727
25832SOL    HW179696   6.852   1.122   9.398  1.3764 -1.8580  2.4300
25832SOL    HW279697   6.912   1.246   9.460 -0.3026  0.2467  0.0719
25833SOL     OW79698   5.333   6.457   8.130 -0.0085  0.3050 -0.0594
25833SOL    HW179699   5.300   6.469   8.219  1.9298 -0.9192  0.8925
25833SOL    HW279700   5.427   6.469   8.137  0.2692 -0.5332 -1.8015
25834SOL     OW79701   0.264   4.129   1.893  0.3739 -0.1386 -0.4351
25834SOL    HW179702   0.211   4.138   1.814  0.1550  0.2598 -0.2493
25834SOL    HW279703   0.307   4.213   1.903  0.3094 -0.1446 -0.0683
25835SOL     OW79704   1.281   1.550   7.063 -0.0218  0.0112  0.0754
25835SOL    HW179705   1.232   1.478   7.023 -1.1500  1.5757 -1.5371
25835SOL    HW279706   1.369   1.543   7.026 -0.9175  1.1480 -2.4833
25836SOL     OW79707   8.216   5.920   6.158  0.5889  0.8118  0.0046
25836SOL    HW179708   8.178   5.988   6.101 -0.6165  0.1320 -0.0339
25836SOL    HW279709   8.290   5.886   6.109 -0.3274  0.3619 -1.0956
25837SOL     OW79710   9.266   2.163   8.877 -0.1615 -0.9136  0.2023
25837SOL    HW179711   9.174   2.138   8.863 -0.4217  0.0580  0.0985
25837SOL    HW279712   9.265   2.259   8.875  0.8877 -0.9000  0.0264
25838SOL     OW79713   2.276   5.993   4.133 -0.1224  0.0157  0.4923
25838SOL    HW179714   2.239   5.914   4.173  1.0058 -0.4202  0.7262
25838SOL    HW279715   2.302   5.965   4.046 -2.1537  0.8461 -0.4375
25839SOL     OW79716   2.757   1.505   7.163 -0.0358  0.1274  0.1376
25839SOL    HW179717   2.808   1.424   7.151 -2.4938 -1.2932 -1.6177
25839SOL    HW279718   2.768   1.553   7.081  0.2142  0.8666  0.5986
25840SOL     OW79719   6.091   4.121   2.832 -0.0029  0.1271 -0.0855
25840SOL    HW179720   6.016   4.172   2.804  0.9360  2.5131  1.4762
25840SOL    HW279721   6.062   4.076   2.911 -0.4652 -0.9375 -0.8228
25841SOL     OW79722   4.145   8.620   3.168 -0.3609 -0.0466  0.1337
25841SOL    HW179723   4.142   8.543   3.111  1.3466  0.5583 -0.8527
25841SOL    HW279724   4.235   8.625   3.198 -1.0774  0.0343  2.4416
25842SOL     OW79725   6.181   4.986   4.929 -0.2788 -0.3722 -0.6585
25842SOL    HW179726   6.274   5.005   4.942 -0.6627  1.0504  0.3333
25842SOL    HW279727   6.171   4.895   4.955  0.3201  0.3116  2.4740
25843SOL     OW79728   4.006   1.501   3.331  0.3340  0.1199 -0.1232
25843SOL    HW179729   3.996   1.503   3.236 -1.1526  0.0725  0.0219
25843SOL    HW279730   4.100   1.518   3.345  0.7868 -0.9494 -1.6278
25844SOL     OW79731   9.518   8.553   4.117  0.1126 -0.1369  0.0746
25844SOL    HW179732   9.432   8.562   4.158  0.2811  2.0438  0.1037
25844SOL    HW279733   9.579   8.552   4.190  0.2471  1.1213  0.0090
25845SOL     OW79734   8.808   6.890   3.863 -0.1476 -0.1610  0.4149
25845SOL    HW179735   8.785   6.820   3.926  0.5320 -0.6818  0.0891
25845SOL    HW279736   8.732   6.895   3.805  1.1642 -3.2400 -1.8786
25846SOL     OW79737   7.136   7.944   6.032 -0.0522 -0.1788  0.7049
25846SOL    HW179738   7.100   8.027   6.001  0.1662 -0.4435 -0.2736
25846SOL    HW279739   7.194   7.915   5.962  0.2353 -0.9307  1.2446
25847SOL     OW79740   5.174   5.295   2.697  0.3284  0.0760  0.1207
25847SOL    HW179741   5.098   5.249   2.731 -1.0650  2.5304  0.5332
25847SOL    HW279742   5.159   5.299   2.602 -0.0812  0.5942  0.2070
25848SOL     OW79743   7.609   7.819   8.678 -0.9673 -0.0327  0.6263
25848SOL    HW179744   7.639   7.809   8.768  0.2414  0.3311  0.2961
25848SOL    HW279745   7.664   7.759   8.628  1.1278  2.4648 -0.3400
25849SOL     OW79746   4.479   8.352   6.848 -0.7974  0.1222 -0.1070
25849SOL    HW179747   4.401   8.365   6.793  0.1240  1.6629 -1.1193
25849SOL    HW279748   4.495   8.438   6.887  0.1087 -0.3077  0.4930
25850SOL     OW79749   8.648   3.554   6.264  0.0224  0.2309 -0.1365
25850SOL    HW179750   8.734   3.516   6.286 -0.2454 -0.6690 -0.5856
25850SOL    HW279751   8.646   3.637   6.311  1.3945  0.5577 -0.5981
25851SOL     OW79752   1.829   4.192   4.321  0.1589 -0.0113  0.7464
25851SOL    HW179753   1.908   4.138   4.323  0.6571  0.6654  0.1230
25851SOL    HW279754   1.761   4.134   4.286  0.8615 -0.0284 -0.6530
25852SOL     OW79755   8.008   9.560   2.897 -0.3446  0.0818  0.2367
25852SOL    HW179756   8.035   9.650   2.919  2.0190 -0.7034  0.9438
25852SOL    HW279757   7.971   9.566   2.809  0.4262  1.6533 -0.0125
25853SOL     OW79758   5.640   5.394   0.862  1.1503  0.0408  0.4338
25853SOL    HW179759   5.721   5.344   0.849  0.6435 -1.0604  1.3647
25853SOL    HW279760   5.575   5.328   0.886 -0.1670  0.8401 -0.8311
25854SOL     OW79761   1.310   6.713   1.820 -0.2006  0.1439  0.3103
25854SOL    HW179762   1.260   6.773   1.764 -0.4849 -1.0278 -0.7485
25854SOL    HW279763   1.243   6.659   1.864  0.0702 -0.9460 -0.5567
25855SOL     OW79764   3.585   8.119   8.759 -0.1636 -0.5341  0.5965
25855SOL    HW179765   3.523   8.082   8.821 -0.6991 -1.1041 -0.2494
25855SOL    HW279766   3.557   8.085   8.674 -1.4138  2.6823 -0.4344
25856SOL     OW79767   8.758   0.175   2.697 -0.0184  0.2466 -0.3216
25856SOL    HW179768   8.810   0.239   2.746  2.1329 -1.2458 -0.5574
25856SOL    HW279769   8.726   0.114   2.764  1.6458 -0.9089 -0.5070
25857SOL     OW79770   3.089   2.376   1.295 -0.3194  0.1977 -0.2010
25857SOL    HW179771   3.109   2.465   1.322  1.5056 -0.5858  1.2723
25857SOL    HW279772   3.008   2.353   1.341  0.7148  0.1826  1.6913
25858SOL     OW79773   2.489   7.689   0.091 -0.0766  0.0136 -0.5411
25858SOL    HW179774   2.580   7.713   0.079 -0.3839  1.0901 -0.8454
25858SOL    HW279775   2.445   7.720   0.012 -1.0856  1.6796  0.5806
25859SOL     OW79776   7.936   4.023   2.649  0.6903 -0.1320 -0.1435
25859SOL    HW179777   7.959   4.116   2.649 -0.3230  0.1276  0.6458
25859SOL    HW279778   8.021   3.978   2.656  1.1851  0.7196 -0.4871
25860SOL     OW79779   2.756   8.518   4.513 -0.8155  0.4909  0.4233
25860SOL    HW179780   2.800   8.451   4.565  0.0377  0.0170 -0.8592
25860SOL    HW279781   2.803   8.518   4.429 -1.2142  2.2426  0.1646
25861SOL     OW79782   9.279   2.540   6.555  0.1006  0.3580 -0.1816
25861SOL    HW179783   9.334   2.617   6.572 -0.0181  0.9996 -2.4372
25861SOL    HW279784   9.206   2.574   6.504  0.4895 -1.3450 -1.9919
25862SOL     OW79785   7.666   0.869   4.919  0.1576  0.4538 -0.3539
25862SOL    HW179786   7.659   0.843   4.827 -1.9253 -0.6679  0.0563
25862SOL    HW279787   7.708   0.795   4.962 -0.7455  0.0789 -0.0906
25863SOL     OW79788   8.566   9.259   8.201  0.2960 -0.3304  0.5624
25863SOL    HW179789   8.539   9.351   8.190 -1.1823 -0.8751 -0.7488
25863SOL    HW279790   8.530   9.234   8.286 -0.6503 -0.1188  0.2406
25864SOL     OW79791   8.303   3.742   4.850 -0.6052 -0.2816  0.2328
25864SOL    HW179792   8.327   3.833   4.832  1.3932 -0.4491  1.7574
25864SOL    HW279793   8.360   3.690   4.793  1.0091 -0.6387  2.1148
25865SOL     OW79794   1.413   5.635   6.358  0.1527  0.2263 -0.2262
25865SOL    HW179795   1.357   5.654   6.283 -0.0363 -1.7556 -0.6342
25865SOL    HW279796   1.413   5.716   6.409 -0.2705  1.3808 -1.9942
25866SOL     OW79797   5.582   3.891   5.034 -0.1397  0.0482 -0.7674
25866SOL    HW179798   5.616   3.935   5.111 -0.3645  0.2492 -0.7834
25866SOL    HW279799   5.493   3.926   5.023 -0.0119  0.2220 -1.2711
25867SOL     OW79800   3.734   2.888   2.130  0.2500  0.5276  0.0198
25867SOL    HW179801   3.800   2.861   2.066 -0.4660 -1.1093 -0.0805
25867SOL    HW279802   3.703   2.805   2.168 -0.8956  1.3433  0.9176
25868SOL     OW79803   4.935   6.024   1.124 -0.2611 -0.4250  0.2321
25868SOL    HW179804   5.023   5.989   1.142 -0.2538 -0.3644  0.3153
25868SOL    HW279805   4.876   5.950   1.142 -0.2375 -0.4256  0.3097
25869SOL     OW79806   0.023   6.567   9.168 -0.4960  0.1765  0.3597
25869SOL    HW179807   0.018   6.662   9.153 -2.5140 -0.0945 -1.0173
25869SOL    HW279808  -0.062   6.545   9.205 -0.7115 -1.3437 -0.9540
25870SOL     OW79809   8.327   7.634   6.925 -0.1664 -0.9359  0.1476
25870SOL    HW179810   8.399   7.673   6.875 -0.8563 -1.3397 -1.2274
25870SOL    HW279811   8.278   7.709   6.959  0.8800 -0.6586  1.1066
25871SOL     OW79812   6.588   1.451   0.404 -0.4286  0.2929  0.2645
25871SOL    HW179813   6.569   1.423   0.494 -1.1358  2.0003  0.6870
25871SOL    HW279814   6.573   1.546   0.405  2.0847  0.7797 -1.0234
25872SOL     OW79815   5.948   4.470   3.735  0.2060  0.0334 -0.0524
25872SOL    HW179816   5.855   4.484   3.717  0.0221 -0.3308  0.6148
25872SOL    HW279817   5.969   4.533   3.804  1.3223  2.6437 -2.5446
25873SOL     OW79818   5.479   5.920   6.540  0.1064 -0.3218  0.2088
25873SOL    HW179819   5.489   5.919   6.635  0.0741  2.3884  0.3384
25873SOL    HW279820   5.384   5.914   6.525  0.0538 -0.0513  0.4193
25874SOL     OW79821   7.348   8.515   8.435  0.3244  0.0462 -0.2629
25874SOL    HW179822   7.383   8.564   8.360  1.6615  0.6598  0.7053
25874SOL    HW279823   7.351   8.578   8.507 -0.6310 -0.6355  0.3852
25875SOL     OW79824   6.716   2.874   6.537 -0.3826 -0.2091 -0.7029
25875SOL    HW179825   6.632   2.920   6.543 -1.0421 -1.4665  0.2957
25875SOL    HW279826   6.737   2.852   6.628  0.8164 -0.2943 -0.9899
25876SOL     OW79827   5.079   0.030   3.825  0.3509  0.0250  0.1917
25876SOL    HW179828   4.988   0.010   3.847  0.6331 -0.6814  0.7460
25876SOL    HW279829   5.121   0.045   3.909  0.8597 -0.1542 -0.0279
25877SOL     OW79830   8.553   3.249   6.573 -0.6237  0.6128  0.4796
25877SOL    HW179831   8.567   3.179   6.510 -0.3740  1.5396 -0.5224
25877SOL    HW279832   8.519   3.205   6.651  0.0793 -0.6799  0.0762
25878SOL     OW79833   5.479   2.583   4.138 -0.2335  0.1525 -0.5022
25878SOL    HW179834   5.529   2.507   4.110  0.1879  0.4839 -0.6714
25878SOL    HW279835   5.451   2.625   4.057  0.7963  0.9885 -0.4650
25879SOL     OW79836   7.182   9.054   8.797  0.2480  0.2495 -0.6565
25879SOL    HW179837   7.269   9.089   8.777  0.2359  0.0982 -0.9649
25879SOL    HW279838   7.199   8.976   8.849  0.2973  0.1891 -0.7639
25880SOL     OW79839   6.834   7.373   1.346 -0.6255  0.1274 -0.5835
25880SOL    HW179840   6.813   7.380   1.253 -2.1136  1.8859 -0.1848
25880SOL    HW279841   6.779   7.440   1.388  1.5127  0.8533  1.3081
25881SOL     OW79842   5.492   5.001   0.536  0.6700  0.4006  0.0754
25881SOL    HW179843   5.445   5.017   0.454  1.1467  0.0160 -0.2813
25881SOL    HW279844   5.429   4.954   0.591  0.3033  0.7723 -0.0235
25882SOL     OW79845   5.185   5.870   6.770  0.1732 -0.1604 -0.0042
25882SOL    HW179846   5.202   5.803   6.836  0.5129 -0.8958 -0.8244
25882SOL    HW279847   5.183   5.952   6.819 -1.1671 -0.8494  1.1585
25883SOL     OW79848   3.254   7.588   1.859  0.2774  0.1791 -0.5721
25883SOL    HW179849   3.276   7.563   1.769 -1.7866  0.6212 -1.2380
25883SOL    HW279850   3.161   7.567   1.868  0.1379  1.3128  1.0427
25884SOL     OW79851   5.209   4.429   8.052 -0.1373  0.4404 -0.2011
25884SOL    HW179852   5.178   4.406   7.965  1.5709 -0.2549 -0.6765
25884SOL    HW279853   5.141   4.398   8.111 -0.0068 -1.7952 -1.1248
25885SOL     OW79854   2.966   4.477   0.157 -0.8201 -0.6726  0.1613
25885SOL    HW179855   2.985   4.476   0.063 -0.0856 -0.9403  0.3087
25885SOL    HW279856   3.020   4.408   0.194  0.5577  0.8113  1.0789
25886SOL     OW79857   7.774   5.503   4.464  0.5193  0.3959  0.1241
25886SOL    HW179858   7.720   5.535   4.391 -0.9542 -1.8606  0.1287
25886SOL    HW279859   7.847   5.459   4.422  0.9072  1.0488  0.0876
25887SOL     OW79860   1.322   3.674   4.803 -0.6886  0.3655 -0.4226
25887SOL    HW179861   1.256   3.742   4.798 -0.8991  0.1561 -0.5100
25887SOL    HW279862   1.399   3.711   4.759 -0.9353  0.3867 -0.8321
25888SOL     OW79863   9.121   5.223   1.340 -0.2625  0.1046 -0.6624
25888SOL    HW179864   9.028   5.247   1.339 -0.1975  0.6488 -3.4748
25888SOL    HW279865   9.124   5.140   1.293  0.7141  0.3748 -1.0943
25889SOL     OW79866   0.583   0.460   7.608  0.1776 -0.1693 -0.0672
25889SOL    HW179867   0.670   0.489   7.579  0.8036 -0.0393  1.8245
25889SOL    HW279868   0.597   0.427   7.697 -1.8367  0.4371  0.5213
25890SOL     OW79869   4.755   1.846   2.880  0.2878  0.3845 -0.5258
25890SOL    HW179870   4.764   1.797   2.798  0.6768  0.4048 -0.4987
25890SOL    HW279871   4.838   1.833   2.925 -0.2862 -0.4457  0.3327
25891SOL     OW79872   1.705   8.342   0.124 -0.2564 -0.9211 -0.0631
25891SOL    HW179873   1.771   8.385   0.179  0.3545 -1.4475 -0.3749
25891SOL    HW279874   1.679   8.264   0.174  1.6349 -2.4052 -1.2846
25892SOL     OW79875   2.007   8.944   3.874  0.3463 -0.1878  0.0076
25892SOL    HW179876   1.958   8.869   3.908 -0.5421  0.7816  0.9663
25892SOL    HW279877   2.090   8.907   3.845  0.1271 -1.4731  0.9072
25893SOL     OW79878   2.970   4.834   0.519 -0.1353  0.2463  0.1976
25893SOL    HW179879   2.995   4.908   0.464 -3.0416 -0.2422 -1.9753
25893SOL    HW279880   2.931   4.874   0.597  0.3126  0.9801  0.0566
25894SOL     OW79881   1.501   7.812   4.775 -0.0216 -0.3969  0.4214
25894SOL    HW179882   1.507   7.806   4.680  1.6416  0.2244  0.4469
25894SOL    HW279883   1.409   7.832   4.792 -0.1157  0.6485 -1.1271
25895SOL     OW79884   6.827   7.621   8.792  0.9693 -0.4016  0.0065
25895SOL    HW179885   6.734   7.600   8.794  0.9225 -0.1367  1.1645
25895SOL    HW279886   6.850   7.638   8.883  2.2569 -0.9010 -0.2035
25896SOL     OW79887   2.591   0.104   1.789  0.2240 -0.0574  0.2321
25896SOL    HW179888   2.589   0.105   1.884 -0.4120 -1.0529  0.2490
25896SOL    HW279889   2.500   0.115   1.763  0.3979  0.2442 -0.2579
25897SOL     OW79890   1.020   1.543   1.791  0.4493 -0.1207 -0.0403
25897SOL    HW179891   1.015   1.637   1.770 -0.1375 -0.2015 -0.2843
25897SOL    HW279892   0.990   1.500   1.711  0.3144 -0.5020  0.2173
25898SOL     OW79893   2.056   0.165   4.006 -0.1999  0.3433  0.0576
25898SOL    HW179894   2.120   0.095   3.992  0.5875  1.1094 -0.2372
25898SOL    HW279895   2.045   0.167   4.101 -0.5573 -0.4618  0.0436
25899SOL     OW79896   6.851   4.396   5.098 -0.5904 -0.4654  0.5579
25899SOL    HW179897   6.833   4.486   5.070 -0.8775 -0.6632  0.0799
25899SOL    HW279898   6.938   4.377   5.062 -0.9901 -0.7448 -0.3027
25900SOL     OW79899   4.421   7.888   4.976  0.3248  0.0585  0.4120
25900SOL    HW179900   4.393   7.862   4.888  0.3968  0.1752  0.3547
25900SOL    HW279901   4.482   7.819   5.003  0.6437  0.2554  0.1927
25901SOL     OW79902   3.863   3.687   4.542 -0.4239  0.1516 -0.1929
25901SOL    HW179903   3.861   3.699   4.447 -0.0348  3.0437  0.0687
25901SOL    HW279904   3.949   3.720   4.568 -0.0198 -1.7457  1.0982
25902SOL     OW79905   2.648   3.738   7.090  0.3064 -0.3175  0.1223
25902SOL    HW179906   2.694   3.680   7.029  0.6723 -1.1311  1.1570
25902SOL    HW279907   2.600   3.679   7.148  1.2308  0.3564  1.6404
25903SOL     OW79908   0.666   7.837   8.497  0.0200  0.1531 -0.1796
25903SOL    HW179909   0.670   7.857   8.590 -3.3752 -1.4365  0.4626
25903SOL    HW279910   0.612   7.907   8.460  0.5758  0.2619 -0.8179
25904SOL     OW79911   1.631   7.022   8.955  0.1006 -0.2886  0.1627
25904SOL    HW179912   1.644   7.071   9.036  0.9529 -0.4217  0.1107
25904SOL    HW279913   1.573   7.078   8.903  0.3945  0.2816  0.4388
25905SOL     OW79914   7.401   9.428   4.208 -0.2010 -0.3866  0.2298
25905SOL    HW179915   7.403   9.334   4.189 -0.2358 -0.2891 -0.2584
25905SOL    HW279916   7.361   9.468   4.131  2.8014  0.3749 -1.0731
25906SOL     OW79917   3.991   2.397   9.094 -0.4611  0.1045 -0.3832
25906SOL    HW179918   4.006   2.483   9.134 -1.5933 -0.6525  1.8966
25906SOL    HW279919   3.896   2.388   9.091 -0.3855 -0.3537 -2.3243
25907SOL     OW79920   2.863   8.216   0.222 -0.1795  0.7153  0.4960
25907SOL    HW179921   2.958   8.214   0.219 -0.0665  0.6298  2.7078
25907SOL    HW279922   2.836   8.129   0.192  0.4020  0.7849 -0.2739
25908SOL     OW79923   0.582   2.163   5.112  0.6235  0.3692 -0.8046
25908SOL    HW179924   0.602   2.157   5.206 -0.4985  1.5029 -0.4677
25908SOL    HW279925   0.624   2.244   5.084 -0.1189  0.6858 -1.0003
25909SOL     OW79926   5.158   2.319   3.379  0.4980 -0.0749  0.1037
25909SOL    HW179927   5.251   2.301   3.362  0.3426 -1.2644  0.4222
25909SOL    HW279928   5.119   2.233   3.392 -0.4981  0.4606  0.7978
25910SOL     OW79929   4.364   2.079   6.554 -0.7371  0.0516  1.3309
25910SOL    HW179930   4.362   2.172   6.531 -0.3700 -0.7143 -2.4390
25910SOL    HW279931   4.272   2.052   6.554 -0.7740  0.1746  1.4368
25911SOL     OW79932   7.213   2.518   4.598  0.1528  0.3542 -0.2974
25911SOL    HW179933   7.170   2.588   4.548 -0.8520 -0.6627 -0.9124
25911SOL    HW279934   7.302   2.514   4.563 -0.7529 -0.8638 -2.6412
25912SOL     OW79935   0.876   1.883   7.425 -0.1369 -0.7229  0.5263
25912SOL    HW179936   0.904   1.796   7.396  0.4416 -0.2457 -0.3516
25912SOL    HW279937   0.906   1.888   7.516 -0.0113 -1.3571  0.5279
25913SOL     OW79938   9.412   0.056   3.928 -0.0211  0.2564  0.7855
25913SOL    HW179939   9.387   0.146   3.908 -0.2277 -0.3184 -2.0325
25913SOL    HW279940   9.506   0.052   3.907 -0.2840 -0.4478 -0.3357
25914SOL     OW79941   3.947   7.144   5.111  0.0208  0.4145 -0.2790
25914SOL    HW179942   4.028   7.144   5.060  0.1081 -0.4978 -0.1645
25914SOL    HW279943   3.887   7.088   5.061  0.1769 -0.6706  0.6906
25915SOL     OW79944   3.428   0.620   2.109 -0.1959  0.0091 -0.2266
25915SOL    HW179945   3.428   0.557   2.181 -0.3755  1.3694  1.0003
25915SOL    HW279946   3.337   0.623   2.080 -0.5603  1.0673  0.9686
25916SOL     OW79947   8.748   9.061   8.192  0.3053  0.5845 -0.2481
25916SOL    HW179948   8.783   9.040   8.105 -1.2148 -2.6681 -0.2430
25916SOL    HW279949   8.702   9.144   8.180  1.3799  0.9826 -2.1342
25917SOL     OW79950   0.582   8.639   2.658  0.3371 -0.0317  0.6484
25917SOL    HW179951   0.510   8.604   2.606  1.5099 -2.8621  0.7319
25917SOL    HW279952   0.542   8.705   2.713 -1.7359  0.1252 -0.9083
25918SOL     OW79953   8.545   6.580   9.182  0.1324  0.1211 -0.2322
25918SOL    HW179954   8.546   6.599   9.088  0.3797 -0.3884 -0.3333
25918SOL    HW279955   8.459   6.542   9.198 -0.0108  0.4532 -0.2005
25919SOL     OW79956   9.083   8.755   5.333  1.0070 -0.9677  0.3045
25919SOL    HW179957   9.060   8.694   5.264  1.6361 -0.9089  0.0411
25919SOL    HW279958   9.080   8.841   5.291  1.2776 -0.9214  0.3767
25920SOL     OW79959   7.398   2.783   0.747 -0.3406 -0.1584  0.1222
25920SOL    HW179960   7.431   2.756   0.833 -0.5723  0.7542  0.5083
25920SOL    HW279961   7.475   2.817   0.701 -0.3252 -0.1077  0.1852
25921SOL     OW79962   2.433   7.408   2.491 -0.3344  0.1521  0.0825
25921SOL    HW179963   2.526   7.415   2.472 -0.9362  3.4003 -2.5352
25921SOL    HW279964   2.426   7.427   2.585  1.5934  0.5618  0.1758
25922SOL     OW79965   4.128   6.514   4.347 -0.1136  0.5785 -0.2746
25922SOL    HW179966   4.106   6.433   4.394  3.0156 -0.8585 -0.9716
25922SOL    HW279967   4.151   6.576   4.416  0.1795 -0.0699  0.2312
25923SOL     OW79968   0.451   5.222   1.830 -0.1360  0.2623 -0.0012
25923SOL    HW179969   0.428   5.251   1.742  0.2783 -0.9504 -0.5325
25923SOL    HW279970   0.368   5.210   1.875 -0.4286 -0.6635 -0.7601
25924SOL     OW79971   8.981   2.169   7.835  0.0449 -0.0463  0.0463
25924SOL    HW179972   8.916   2.233   7.863  0.8637  1.0728 -0.4832
25924SOL    HW279973   8.931   2.098   7.795 -1.1176 -1.4739  3.7231
25925SOL     OW79974   8.320   3.337   8.202 -0.1450  0.1257 -0.4342
25925SOL    HW179975   8.372   3.332   8.282  0.0729  1.4358 -0.4814
25925SOL    HW279976   8.230   3.342   8.232 -0.2103 -1.2186 -0.3326
25926SOL     OW79977   5.985   5.094   8.642  0.6777 -0.3025  0.3494
25926SOL    HW179978   5.929   5.048   8.580  1.4295  0.5563 -1.0411
25926SOL    HW279979   5.996   5.181   8.603  2.2787 -0.1851  0.9988
25927SOL     OW79980   6.864   8.801   4.304 -0.1181  0.7348  0.1010
25927SOL    HW179981   6.917   8.746   4.362 -1.4244  0.6622  1.2832
25927SOL    HW279982   6.913   8.804   4.222  0.4689 -1.3930  0.3165
25928SOL     OW79983   7.627   2.599   4.796  0.2439 -0.2343 -0.7056
25928SOL    HW179984   7.576   2.575   4.873  0.1935  1.3844 -0.1978
25928SOL    HW279985   7.655   2.515   4.758 -0.3270 -1.0690  0.6570
25929SOL     OW79986   2.760   7.179   8.566 -0.0589 -0.2831 -0.4001
25929SOL    HW179987   2.688   7.145   8.619  2.0094 -3.0678  0.8452
25929SOL    HW279988   2.809   7.236   8.626 -0.1774  0.1452 -0.7005
25930SOL     OW79989   8.821   3.782   6.893  0.5452 -0.1765  0.4833
25930SOL    HW179990   8.819   3.807   6.985  1.0081 -1.6654  0.9206
25930SOL    HW279991   8.740   3.819   6.857  0.8395  1.2787  1.2210
25931SOL     OW79992   7.209   5.678   0.862  0.2240  0.2609  0.7905
25931SOL    HW179993   7.214   5.774   0.869 -1.9160  0.4527  0.2737
25931SOL    HW279994   7.119   5.661   0.836  0.3145 -1.9840  1.8004
25932SOL     OW79995   1.750   9.535   4.259  0.2596  0.4158 -0.0256
25932SOL    HW179996   1.700   9.555   4.338 -0.5302 -1.0047 -0.1279
25932SOL    HW279997   1.691   9.483   4.206  1.4322 -0.2677 -0.7113
25933SOL     OW79998   0.817   6.278   5.545  0.0886 -0.1653  0.5021
25933SOL    HW179999   0.759   6.355   5.540 -1.3723 -1.0938  2.0119
25933SOL    HW280000   0.899   6.307   5.506 -0.9508  1.6475 -0.4761
25934SOL     OW80001   5.861   7.998   4.407 -0.6504  0.6065 -0.3197
25934SOL    HW180002   5.947   7.956   4.413 -0.7824  0.4100  0.2887
25934SOL    HW280003   5.872   8.065   4.339 -0.5127 -0.5561 -1.4752
25935SOL     OW80004   3.195   9.401   9.058 -0.0217  0.7930  0.9034
25935SOL    HW180005   3.201   9.441   9.144 -0.8480 -0.8893  1.7832
25935SOL    HW280006   3.260   9.331   9.059 -1.8030 -0.9368  1.1677
25936SOL     OW80007   4.063   1.498   4.338  0.1408 -0.1903 -0.0236
25936SOL    HW180008   4.121   1.437   4.293  0.7572  1.4462 -1.5885
25936SOL    HW280009   3.990   1.511   4.277 -0.6691 -0.3848  0.8755
25937SOL     OW80010   7.192   1.743   1.662  0.0920 -0.0908  0.0827
25937SOL    HW180011   7.178   1.649   1.650  1.1540 -0.1522 -0.7904
25937SOL    HW280012   7.160   1.760   1.751  0.6153 -1.4329  0.5625
25938SOL     OW80013   4.542   5.396   7.552 -0.0061  0.3521 -1.0599
25938SOL    HW180014   4.568   5.488   7.561  1.0180  0.0290 -0.5036
25938SOL    HW280015   4.585   5.367   7.471 -0.1729  0.3108 -1.1337
25939SOL     OW80016   6.330   2.795   2.912  0.4323  0.0530 -0.1788
25939SOL    HW180017   6.299   2.837   2.832 -1.3335  0.0948  0.5022
25939SOL    HW280018   6.411   2.750   2.885  0.6340  1.2197 -1.6385
25940SOL     OW80019   3.870   5.835   4.864  0.0081  0.7326  0.2409
25940SOL    HW180020   3.824   5.862   4.785  0.7083  1.4275  0.0607
25940SOL    HW280021   3.925   5.762   4.836  0.6980  1.3536 -0.0609
25941SOL     OW80022   1.204   3.621   2.863  0.2686  0.4142 -0.0230
25941SOL    HW180023   1.283   3.566   2.865  0.6137  0.9206  0.6274
25941SOL    HW280024   1.235   3.707   2.836 -0.2143  0.3908 -0.6697
25942SOL     OW80025   3.269   2.308   6.697 -0.3461 -0.1990 -0.0046
25942SOL    HW180026   3.271   2.240   6.764 -0.0338 -0.3485 -0.1677
25942SOL    HW280027   3.328   2.376   6.730  0.9782 -0.9167 -0.8161
25943SOL     OW80028   5.612   3.931   1.571 -0.4205 -0.3651  0.3141
25943SOL    HW180029   5.587   3.852   1.619 -1.2274 -0.4218 -0.1846
25943SOL    HW280030   5.662   3.898   1.496  1.2832 -0.2495  1.3324
25944SOL     OW80031   2.047   8.334   3.499 -0.8297 -0.1221  0.6818
25944SOL    HW180032   2.076   8.255   3.454 -2.0258 -1.3861  2.0190
25944SOL    HW280033   2.116   8.398   3.483  1.4265 -2.1832  1.6074
25945SOL     OW80034   4.317   2.286   5.786  0.1425 -0.2557 -0.4650
25945SOL    HW180035   4.297   2.377   5.764  0.6359 -0.4210 -1.6900
25945SOL    HW280036   4.278   2.235   5.716  0.0172 -0.9891  0.1221
25946SOL     OW80037   7.716   4.438   7.905 -0.5833  0.0881 -0.2957
25946SOL    HW180038   7.734   4.532   7.916  1.5046 -0.1711 -0.9608
25946SOL    HW280039   7.719   4.424   7.810  0.3406 -0.8357 -0.1438
25947SOL     OW80040   6.920   0.033   2.799  0.4199 -0.0496  0.2877
25947SOL    HW180041   6.884   0.112   2.757  0.9588  0.2391  0.3596
25947SOL    HW280042   6.864   0.020   2.876 -2.0988 -1.9506 -1.6879
25948SOL     OW80043   2.695   7.500   9.393 -0.4337  0.0837 -0.0500
25948SOL    HW180044   2.681   7.417   9.346 -1.2224  0.5930 -0.7510
25948SOL    HW280045   2.649   7.488   9.476  0.7194 -0.7197  0.4886
25949SOL     OW80046   9.021   1.565   0.786  0.2530 -0.1036  0.2985
25949SOL    HW180047   8.947   1.551   0.845  0.6756 -0.6232  0.7196
25949SOL    HW280048   8.984   1.556   0.699 -0.4712  1.1131  0.4546
25950SOL     OW80049   7.674   3.513   0.115 -0.1894  0.0826 -0.2365
25950SOL    HW180050   7.665   3.566   0.194  0.4544  0.4990 -0.4326
25950SOL    HW280051   7.763   3.478   0.120 -0.4111 -0.5284 -0.3974
25951SOL     OW80052   2.524   6.788   0.982  0.1683 -0.2002 -0.2180
25951SOL    HW180053   2.605   6.789   1.033  0.6349  0.4450 -0.9416
25951SOL    HW280054   2.542   6.845   0.907 -0.6705 -0.7306 -0.8429
25952SOL     OW80055   9.367   5.438   2.537 -0.1656 -0.2068  0.1166
25952SOL    HW180056   9.402   5.514   2.491  1.5447 -0.7172  0.4931
25952SOL    HW280057   9.369   5.464   2.629  2.8550 -1.5084  0.5336
25953SOL     OW80058   3.417   6.018   4.149 -0.4118  0.2722 -0.1164
25953SOL    HW180059   3.461   6.099   4.124 -0.2238  0.0287 -0.5713
25953SOL    HW280060   3.479   5.948   4.129 -0.1820  0.0649  1.1723
25954SOL     OW80061   0.048   6.553   0.517 -0.0788  0.3948  0.5771
25954SOL    HW180062   0.058   6.640   0.556  0.9392  0.0087  1.2076
25954SOL    HW280063  -0.013   6.567   0.444  0.5336  1.7582  0.2918
25955SOL     OW80064   3.703   7.358   5.999 -0.3643  0.6282 -0.6659
25955SOL    HW180065   3.746   7.348   5.914 -0.6564  0.0616 -0.7592
25955SOL    HW280066   3.624   7.305   5.991  0.7253 -1.3348  0.7178
25956SOL     OW80067   9.221   5.106   2.714  0.4389  0.2460 -0.0133
25956SOL    HW180068   9.311   5.108   2.682  0.1907 -0.3335 -0.7815
25956SOL    HW280069   9.212   5.021   2.757  0.1691  0.1781 -0.2015
25957SOL     OW80070   6.759   2.639   6.986 -0.7696  0.0441  0.0085
25957SOL    HW180071   6.795   2.691   7.058 -0.9655 -0.0618  0.1808
25957SOL    HW280072   6.698   2.579   7.027  1.1971 -1.9924  0.1228
25958SOL     OW80073   4.252   1.169   7.404  0.0663 -0.3093  0.2543
25958SOL    HW180074   4.274   1.251   7.360 -0.6776 -0.9163 -1.3264
25958SOL    HW280075   4.337   1.125   7.417  0.2055 -1.0493 -2.5481
25959SOL     OW80076   9.247   5.324   1.988 -0.0827  0.1402 -0.5425
25959SOL    HW180077   9.266   5.293   1.899  1.6121  2.3769 -1.0325
25959SOL    HW280078   9.313   5.390   2.005 -2.4466  2.2808  1.0436
25960SOL     OW80079   3.748   8.266   4.746 -0.2933  0.0252  0.6680
25960SOL    HW180080   3.831   8.282   4.700 -0.1105 -1.3842  0.4499
25960SOL    HW280081   3.682   8.302   4.687 -0.0803 -1.9643 -0.9075
25961SOL     OW80082   1.184   3.338   9.126  0.1926 -0.5409  0.2689
25961SOL    HW180083   1.178   3.376   9.214 -0.0731  0.7733 -0.3066
25961SOL    HW280084   1.273   3.357   9.098 -0.4507  1.2081 -0.6916
25962SOL     OW80085   7.848   6.347   7.685 -0.0798 -0.2372 -0.0049
25962SOL    HW180086   7.783   6.411   7.714  0.3365  0.9564 -1.5909
25962SOL    HW280087   7.839   6.274   7.747 -2.9180 -0.1338 -0.1593
25963SOL     OW80088   8.204   7.307   7.822 -0.2502  0.0121  0.3439
25963SOL    HW180089   8.122   7.308   7.771  0.1744 -0.5214 -0.3594
25963SOL    HW280090   8.203   7.223   7.867  0.9096 -0.9877 -1.3631
25964SOL     OW80091   2.251   0.890   7.887  0.5509 -0.1369 -0.3821
25964SOL    HW180092   2.163   0.864   7.859  0.0469  1.1063 -0.0284
25964SOL    HW280093   2.309   0.860   7.817 -0.4567  1.2740 -1.8877
25965SOL     OW80094   4.987   3.837   2.791  0.3233  0.1309  0.2946
25965SOL    HW180095   5.005   3.912   2.734  0.2912  0.4802  0.7380
25965SOL    HW280096   4.940   3.775   2.735 -1.2764  1.1930  0.3761
25966SOL     OW80097   2.661   1.564   2.137  0.1452 -0.1032  0.2585
25966SOL    HW180098   2.741   1.578   2.087  0.3629 -2.0869 -0.0011
25966SOL    HW280099   2.687   1.505   2.208 -1.3128 -1.8354 -0.5798
25967SOL     OW80100   4.867   1.944   5.795 -0.3166 -0.2161  0.2359
25967SOL    HW180101   4.825   1.981   5.717 -0.1935 -0.6760 -0.0501
25967SOL    HW280102   4.893   2.021   5.846 -1.5697  0.0764  0.4559
25968SOL     OW80103   5.027   7.917   0.944  0.3550  0.1606  0.4707
25968SOL    HW180104   5.039   7.917   1.039  3.0819 -0.6250  0.2109
25968SOL    HW280105   5.090   7.853   0.912 -0.9581 -0.0692 -1.8549
25969SOL     OW80106   3.287   3.551   2.466 -0.1153  0.0986 -0.2698
25969SOL    HW180107   3.312   3.470   2.512  1.8827  0.5422 -0.5246
25969SOL    HW280108   3.305   3.533   2.374  0.6247  0.9418 -0.2916
25970SOL     OW80109   9.570   2.784   1.672  0.4897 -0.2347  0.5164
25970SOL    HW180110   9.626   2.841   1.725  0.0561  0.4533  0.2415
25970SOL    HW280111   9.518   2.735   1.737  0.6223 -0.0767  0.7432
25971SOL     OW80112   0.401   8.524   5.786  0.7660 -0.4880  0.3430
25971SOL    HW180113   0.421   8.519   5.693  1.8733  2.7771  0.2688
25971SOL    HW280114   0.484   8.545   5.828 -0.0522  0.0657  1.7838
25972SOL     OW80115   4.586   4.020   8.358  0.5864  0.4397 -0.1440
25972SOL    HW180116   4.641   3.993   8.431  0.2963 -2.2148 -0.8187
25972SOL    HW280117   4.624   3.977   8.281 -1.8401 -0.7941 -0.7587
25973SOL     OW80118   7.164   1.187   5.158  0.8065 -0.1122 -0.8209
25973SOL    HW180119   7.239   1.170   5.102 -0.0840 -0.4860 -1.9275
25973SOL    HW280120   7.110   1.109   5.150  0.6085 -0.1415  0.5061
25974SOL     OW80121   2.868   0.578   1.818 -0.0293 -0.4427  0.1750
25974SOL    HW180122   2.806   0.576   1.745  1.2107 -1.7515 -0.9069
25974SOL    HW280123   2.911   0.493   1.814  0.5015 -0.2983  2.0868
25975SOL     OW80124   3.194   6.718   4.673 -0.4721  0.2594  0.0147
25975SOL    HW180125   3.182   6.690   4.582  0.1460  1.0815 -0.3368
25975SOL    HW280126   3.107   6.741   4.704 -0.8233 -0.9557 -0.0514
25976SOL     OW80127   2.942   9.414   5.294  0.0600  0.3399 -0.5597
25976SOL    HW180128   3.031   9.446   5.278  0.8970 -1.5412  0.0665
25976SOL    HW280129   2.934   9.336   5.239 -0.1690 -1.1087  1.4231
25977SOL     OW80130   7.589   4.355   4.320  0.6169  0.2166 -0.2937
25977SOL    HW180131   7.630   4.437   4.347  0.8772 -0.0575  0.1486
25977SOL    HW280132   7.576   4.364   4.225 -2.2687  2.0876  0.1386
25978SOL     OW80133   8.044   2.116   0.863  0.1004 -0.3161 -0.4511
25978SOL    HW180134   8.064   2.168   0.786  0.5339  0.3285  0.0860
25978SOL    HW280135   8.097   2.154   0.933  0.0603 -1.1700  0.0695
25979SOL     OW80136   7.379   7.019   6.760 -0.3428  0.8283  0.1301
25979SOL    HW180137   7.284   7.019   6.746 -0.1453  1.3956 -1.4646
25979SOL    HW280138   7.392   7.083   6.830 -1.1214  0.9811  0.1532
25980SOL     OW80139   4.405   3.624   1.086  0.0080 -0.9810  0.2242
25980SOL    HW180140   4.384   3.588   1.000  0.1469  0.6670 -0.5437
25980SOL    HW280141   4.345   3.698   1.096  1.4437  0.1894  0.5481
25981SOL     OW80142   2.999   0.334   0.830 -0.0426 -0.2145 -0.3869
25981SOL    HW180143   2.981   0.360   0.921 -2.4086 -0.6192 -0.6579
25981SOL    HW280144   2.927   0.372   0.780  1.4228  0.3214 -2.1901
25982SOL     OW80145   3.102   1.141   7.627 -0.1621 -0.1057  0.0908
25982SOL    HW180146   3.133   1.161   7.715 -1.5948  0.8235  0.4228
25982SOL    HW280147   3.058   1.221   7.598 -1.9667 -1.2122 -0.4231
25983SOL     OW80148   2.775   0.644   7.738  0.1607 -0.0967  0.2346
25983SOL    HW180149   2.849   0.674   7.685  1.6439 -0.7737  1.8100
25983SOL    HW280150   2.751   0.719   7.791  1.1579 -0.4593  1.2367
25984SOL     OW80151   3.031   5.190   8.045  0.6098 -0.2422  0.2268
25984SOL    HW180152   3.053   5.124   8.110  1.1924 -0.5379 -0.2561
25984SOL    HW280153   3.114   5.211   8.003  0.5235  1.1977  0.7237
25985SOL     OW80154   9.367   5.446   3.594 -0.2968  0.1885 -0.1517
25985SOL    HW180155   9.292   5.473   3.541  0.2003  1.9491 -0.0128
25985SOL    HW280156   9.367   5.508   3.667  1.8898  0.8863 -0.6904
25986SOL     OW80157   7.119   5.386   7.066  0.0282 -0.1485 -0.0746
25986SOL    HW180158   7.141   5.468   7.110 -0.4436  0.6154 -1.1994
25986SOL    HW280159   7.084   5.413   6.981 -1.1897 -1.4696 -0.0457
25987SOL     OW80160   2.940   7.693   3.225 -0.2202  0.9039 -0.2818
25987SOL    HW180161   3.030   7.663   3.219 -0.4973  0.0554 -0.4237
25987SOL    HW280162   2.899   7.663   3.144 -0.6672  1.1303 -0.1428
25988SOL     OW80163   5.942   0.119   6.567 -0.5204  0.0386 -0.4572
25988SOL    HW180164   5.989   0.193   6.528 -0.5323 -0.2884 -1.0970
25988SOL    HW280165   5.852   0.129   6.536 -1.0469  1.0232  1.2727
25989SOL     OW80166   7.782   0.216   3.174  0.0738 -0.6887 -0.1922
25989SOL    HW180167   7.709   0.256   3.127  0.4341  1.6030  1.0491
25989SOL    HW280168   7.857   0.227   3.115  0.1724  0.5744  0.1433
25990SOL     OW80169   1.844   1.242   3.045 -0.1775  0.5543 -1.0911
25990SOL    HW180170   1.835   1.194   3.128 -0.6229  1.9337 -0.3072
25990SOL    HW280171   1.814   1.180   2.978 -0.3255 -0.4036 -0.1686
25991SOL     OW80172   4.403   2.646   1.208 -0.2213 -0.8279  0.0823
25991SOL    HW180173   4.370   2.649   1.298  1.6580  1.2555  0.8083
25991SOL    HW280174   4.326   2.662   1.153 -1.5527 -2.9184  1.1914
25992SOL     OW80175   2.579   1.496   8.485  0.1645  0.3624 -0.0692
25992SOL    HW180176   2.654   1.555   8.473  1.1138 -0.9653 -0.9715
25992SOL    HW280177   2.590   1.430   8.416 -2.5845  0.8690 -1.0982
25993SOL     OW80178   7.071   6.337   2.531 -0.1803 -0.3958 -0.0737
25993SOL    HW180179   7.057   6.429   2.507  0.1430 -0.9444 -2.6966
25993SOL    HW280180   7.161   6.319   2.504 -0.6676 -1.8142 -0.8609
25994SOL     OW80181   1.424   4.212   4.768  0.1191 -0.1238 -0.0582
25994SOL    HW180182   1.370   4.279   4.810  0.4905  0.8256 -1.0529
25994SOL    HW280183   1.495   4.196   4.831 -0.2311  0.0744  0.3940
25995SOL     OW80184   4.291   6.220   0.743 -0.3336  0.3618  0.1420
25995SOL    HW180185   4.324   6.131   0.742  1.7198  1.0803 -0.3520
25995SOL    HW280186   4.274   6.238   0.836  0.7406 -0.0412  0.4343
25996SOL     OW80187   4.823   8.501   6.408  0.4003 -0.0861 -0.0467
25996SOL    HW180188   4.775   8.462   6.481  1.8237 -0.8886  0.4939
25996SOL    HW280189   4.913   8.510   6.440  0.8755  0.3160 -1.4218
25997SOL     OW80190   0.783   2.176   2.762  0.0271 -0.1283  0.5884
25997SOL    HW180191   0.845   2.209   2.827 -1.2979  2.6217  0.5947
25997SOL    HW280192   0.700   2.172   2.809 -0.6528  0.4911 -0.5179
25998SOL     OW80193   2.594   0.187   2.047 -0.3889  0.1851  0.0232
25998SOL    HW180194   2.572   0.275   2.077  0.3729  1.1846 -2.1453
25998SOL    HW280195   2.689   0.183   2.050 -0.4120 -0.5520  0.0187
25999SOL     OW80196   2.998   5.470   2.713  0.5826  0.0688  0.1340
25999SOL    HW180197   2.918   5.433   2.750  0.8420 -0.1340  0.5052
25999SOL    HW280198   3.024   5.538   2.776 -1.8001  3.4601 -2.2179
26000SOL     OW80199   3.428   0.473   3.056  0.0250 -0.0016 -0.0357
26000SOL    HW180200   3.472   0.550   3.020  0.8500 -0.2543  0.4044
26000SOL    HW280201   3.446   0.403   2.993 -1.2653  0.3056 -0.7612
26001SOL     OW80202   1.506   5.762   5.960 -0.4545 -0.3407  0.1941
26001SOL    HW180203   1.478   5.849   5.932  2.5787 -0.1602 -2.9502
26001SOL    HW280204   1.441   5.703   5.922 -2.0077  0.4280  1.5442
26002SOL     OW80205   0.444   4.319   5.197 -0.3505  0.3573  0.0972
26002SOL    HW180206   0.527   4.272   5.206 -0.6158  0.1626  1.8631
26002SOL    HW280207   0.397   4.272   5.128  0.1790 -0.7623  0.4826
26003SOL     OW80208   4.818   4.806   0.592 -0.2978 -0.3183  0.0801
26003SOL    HW180209   4.854   4.829   0.678  0.5812 -1.1812 -0.0362
26003SOL    HW280210   4.741   4.753   0.611  0.3676 -1.2021  0.3454
26004SOL     OW80211   7.958   0.048   9.056  0.3441 -0.6357  0.1730
26004SOL    HW180212   7.870   0.016   9.074  0.2102 -0.5475 -0.3166
26004SOL    HW280213   7.952   0.143   9.060  0.1614 -0.5837 -0.9697
26005SOL     OW80214   1.386   2.861   1.476 -0.4319 -0.0675  0.1288
26005SOL    HW180215   1.295   2.831   1.477 -0.5512  0.2717  0.9692
26005SOL    HW280216   1.437   2.786   1.507 -0.3963 -0.3295 -0.5565
26006SOL     OW80217   9.556   1.081   5.447  0.4979  0.5853 -0.1922
26006SOL    HW180218   9.506   1.101   5.526 -0.8703  2.3231 -1.4213
26006SOL    HW280219   9.644   1.116   5.465  0.7262 -0.5841  1.1643
26007SOL     OW80220   9.525   8.658   0.820 -0.1919 -0.0005 -0.7499
26007SOL    HW180221   9.458   8.697   0.764 -0.5259  0.2137 -0.2145
26007SOL    HW280222   9.532   8.718   0.895 -0.5680 -0.8614 -0.0067
26008SOL     OW80223   7.566   1.500   4.050 -0.5909  0.0033 -0.0630
26008SOL    HW180224   7.574   1.592   4.072  1.9793 -0.3161  0.6180
26008SOL    HW280225   7.508   1.464   4.116 -0.7665  0.9308  0.2940
26009SOL     OW80226   7.527   0.793   7.125 -0.4711 -0.2671 -0.1735
26009SOL    HW180227   7.582   0.752   7.191 -1.3475  1.4682  1.7581
26009SOL    HW280228   7.519   0.727   7.055  4.0939 -0.5355 -0.7017
26010SOL     OW80229   5.547   8.047   1.793 -0.3227  0.5631 -0.2926
26010SOL    HW180230   5.615   7.983   1.816 -0.3237  0.1461 -1.4033
26010SOL    HW280231   5.476   8.030   1.856  0.1190  0.2128  0.1217
26011SOL     OW80232   4.900   8.370   6.883  0.6855 -0.0061  0.2980
26011SOL    HW180233   4.865   8.445   6.836  1.1282 -0.2738 -0.4916
26011SOL    HW280234   4.832   8.346   6.946 -0.7467 -0.7429 -1.4192
26012SOL     OW80235   2.373   7.274   9.065  0.4833  0.5822  0.2606
26012SOL    HW180236   2.354   7.267   9.158 -0.6966  2.1251  0.1786
26012SOL    HW280237   2.451   7.331   9.060  0.3104  0.8261  0.3045
26013SOL     OW80238   6.357   4.913   5.192 -0.2312 -0.4875  0.0886
26013SOL    HW180239   6.303   4.873   5.124 -1.0224 -0.0411  0.4330
26013SOL    HW280240   6.357   4.849   5.263  1.1886 -1.2704 -0.5758
26014SOL     OW80241   7.947   7.166   4.047  0.6126  0.1056  0.3993
26014SOL    HW180242   7.953   7.121   4.132  0.1339  2.2972  1.6645
26014SOL    HW280243   7.853   7.172   4.030  0.7009 -0.0662 -0.1689
26015SOL     OW80244   3.351   4.584   9.395 -0.6167  0.2554  0.1679
26015SOL    HW180245   3.436   4.627   9.401 -0.4286  0.0520 -0.9062
26015SOL    HW280246   3.368   4.492   9.411 -0.7297  0.2970  0.5415
26016SOL     OW80247   5.208   9.461   5.442  0.1900  0.1265 -0.1017
26016SOL    HW180248   5.153   9.539   5.438  1.0922  0.7218 -1.8762
26016SOL    HW280249   5.147   9.388   5.431 -0.3481  0.7382 -1.2837
26017SOL     OW80250   7.684   5.598   6.266 -0.6562  0.2681  0.5934
26017SOL    HW180251   7.640   5.591   6.181  0.0018 -0.3476  0.2969
26017SOL    HW280252   7.698   5.507   6.293  0.6067  0.4450  0.5922
26018SOL     OW80253   8.819   2.056   4.580 -0.1839  0.0423 -0.5326
26018SOL    HW180254   8.793   2.144   4.551 -0.6566 -0.6750 -2.4474
26018SOL    HW280255   8.865   2.019   4.505 -0.1884 -1.4327  0.1623
26019SOL     OW80256   2.275   4.223   8.823  0.3505 -0.2705 -0.1511
26019SOL    HW180257   2.220   4.265   8.889 -1.8352  1.3062 -2.7631
26019SOL    HW280258   2.333   4.166   8.873 -1.9290 -0.0867  3.0224
26020SOL     OW80259   6.255   1.378   7.635  0.0058 -0.4397 -0.2438
26020SOL    HW180260   6.318   1.417   7.575  0.7376  0.1731  0.8915
26020SOL    HW280261   6.308   1.340   7.705 -0.8637 -0.0264  0.6709
26021SOL     OW80262   1.626   8.741   2.156 -0.0583  0.5047  0.0759
26021SOL    HW180263   1.587   8.795   2.225 -2.1543 -0.3472 -0.3785
26021SOL    HW280264   1.615   8.793   2.076  1.8195  1.2236  0.2288
26022SOL     OW80265   8.115   0.750   7.853 -0.1161  0.2854  0.1232
26022SOL    HW180266   8.084   0.838   7.831 -1.9904  0.0098  1.4057
26022SOL    HW280267   8.052   0.718   7.918  1.0847 -1.6337  0.4263
26023SOL     OW80268   7.993   1.265   2.048  0.1426 -0.8451  0.2896
26023SOL    HW180269   8.080   1.280   2.011 -0.3710  1.3499 -0.1325
26023SOL    HW280270   8.010   1.219   2.131  1.6523 -0.9094 -0.0232
26024SOL     OW80271   2.854   7.707   5.041  0.5493 -0.7282 -0.2512
26024SOL    HW180272   2.853   7.789   4.993 -1.0881 -1.0085 -0.7622
26024SOL    HW280273   2.823   7.729   5.128 -0.8174 -0.9166 -0.6612
26025SOL     OW80274   0.319   0.339   8.162 -0.4586 -0.2853  0.0069
26025SOL    HW180275   0.270   0.366   8.239  2.3548  0.6095  1.6237
26025SOL    HW280276   0.262   0.275   8.119 -3.4590  1.4753  1.0536
26026SOL     OW80277   0.535   4.115   7.176  0.8174  0.6446 -0.1905
26026SOL    HW180278   0.563   4.046   7.114 -0.9055  1.1690 -1.6245
26026SOL    HW280279   0.458   4.078   7.218  1.0649  0.9291  0.5110
26027SOL     OW80280   9.318   4.865   6.831  0.7166 -0.2537 -0.1286
26027SOL    HW180281   9.394   4.843   6.777  0.6358  0.0244 -0.3568
26027SOL    HW280282   9.271   4.932   6.781  1.6135  1.3566  1.0770
26028SOL     OW80283   6.058   4.795   5.928 -0.0993  0.0462 -0.2719
26028SOL    HW180284   5.968   4.819   5.952  0.0497 -0.0630  0.4191
26028SOL    HW280285   6.100   4.879   5.908  0.2457  0.3510  1.5361
26029SOL     OW80286   2.170   3.362   1.748  0.2768  0.0233 -0.0978
26029SOL    HW180287   2.140   3.275   1.720 -2.6392  0.8073  0.2020
26029SOL    HW280288   2.153   3.418   1.672 -0.4401  0.7910  0.6095
26030SOL     OW80289   2.045   2.197   2.489  0.6067  0.3164  0.3919
26030SOL    HW180290   2.027   2.128   2.553  0.8430 -0.4574 -0.3644
26030SOL    HW280291   2.090   2.152   2.417  1.8125  1.4575  0.3947
26031SOL     OW80292   3.194   4.937   2.532 -0.3099  0.7154  0.4716
26031SOL    HW180293   3.204   5.032   2.540 -1.1133  0.8610 -0.1746
26031SOL    HW280294   3.169   4.923   2.441  0.6752 -0.2035  0.3179
26032SOL     OW80295   5.882   4.217   7.673 -0.2590 -0.4877 -0.7291
26032SOL    HW180296   5.805   4.169   7.644 -1.0401 -0.7642  1.5782
26032SOL    HW280297   5.867   4.307   7.644 -1.9585 -0.3263  0.5100
26033SOL     OW80298   9.426   6.454   6.308  0.2072 -0.8321 -0.3059
26033SOL    HW180299   9.363   6.412   6.366 -1.2991 -0.8692 -1.8786
26033SOL    HW280300   9.417   6.406   6.225 -1.8859  2.6670 -2.3454
26034SOL     OW80301   1.300   6.290   3.771  0.3434 -0.6300 -0.4600
26034SOL    HW180302   1.362   6.233   3.816  0.2662  1.1297  2.0792
26034SOL    HW280303   1.321   6.378   3.802 -1.6955  0.3379 -1.6298
26035SOL     OW80304   8.037   8.345   9.155 -0.6739  0.8473  0.2155
26035SOL    HW180305   8.018   8.354   9.061  0.8965  1.3354 -0.0750
26035SOL    HW280306   7.959   8.381   9.198 -1.6342  0.1418 -0.8831
26036SOL     OW80307   7.410   1.334   4.222 -0.6430  0.3273  0.0458
26036SOL    HW180308   7.457   1.264   4.267  1.0227  0.1794 -1.7973
26036SOL    HW280309   7.330   1.345   4.273  0.6330 -0.5235  2.3954
26037SOL     OW80310   8.805   0.577   4.834  0.0486 -0.1402  0.9268
26037SOL    HW180311   8.865   0.535   4.773 -2.6394 -0.9269 -1.3585
26037SOL    HW280312   8.827   0.539   4.919  0.5135 -3.0100 -0.3708
26038SOL     OW80313   0.415   4.755   2.327  0.2159  0.0411  0.0954
26038SOL    HW180314   0.364   4.835   2.338 -0.4558 -0.3575 -0.0791
26038SOL    HW280315   0.504   4.786   2.309  0.8463  0.7613  3.7823
26039SOL     OW80316   5.772   7.197   0.014  0.3439 -0.1478 -0.7669
26039SOL    HW180317   5.706   7.245   0.064  1.6860 -0.0750  1.0652
26039SOL    HW280318   5.855   7.224   0.053  1.3168 -1.9160 -1.4927
26040SOL     OW80319   4.843   7.044   3.821 -0.4275  0.1195  0.0098
26040SOL    HW180320   4.885   7.130   3.825 -2.0653  1.0703 -1.7358
26040SOL    HW280321   4.911   6.986   3.785  0.7732  0.5716  1.4438
26041SOL     OW80322   0.430   7.219   4.765 -0.2191 -0.1580  0.0827
26041SOL    HW180323   0.518   7.197   4.734 -0.2523 -0.7863  0.4195
26041SOL    HW280324   0.429   7.314   4.771  0.8187 -0.2053  1.2062
26042SOL     OW80325   3.496   1.567   3.596 -0.4650  0.0318  0.1770
26042SOL    HW180326   3.459   1.552   3.684 -0.5430 -2.2099 -0.1867
26042SOL    HW280327   3.502   1.479   3.557  2.1869  0.6626 -1.0364
26043SOL     OW80328   0.159   4.264   6.879  0.4791  0.2002 -0.1203
26043SOL    HW180329   0.251   4.292   6.879  0.3968  0.4910 -0.7048
26043SOL    HW280330   0.127   4.287   6.967  0.1440  2.9170 -0.8463
26044SOL     OW80331   5.956   7.840   2.848  0.0063  0.3885  0.0316
26044SOL    HW180332   5.996   7.921   2.881 -0.5261  0.6313  0.0938
26044SOL    HW280333   5.917   7.799   2.925  0.4221 -0.0156  0.0290
26045SOL     OW80334   3.672   5.489   1.779  0.1410  0.0724  0.0775
26045SOL    HW180335   3.710   5.550   1.842 -1.5724  1.1362  0.1533
26045SOL    HW280336   3.725   5.499   1.700  0.6567  0.7029  0.4933
26046SOL     OW80337   5.614   1.796   5.873  0.4634 -0.0574 -0.4778
26046SOL    HW180338   5.521   1.784   5.853  0.2099  1.6131 -0.4337
26046SOL    HW280339   5.647   1.850   5.801  1.0964  0.4102  0.1525
26047SOL     OW80340   7.361   4.366   0.331  0.3159 -0.0507 -0.1687
26047SOL    HW180341   7.413   4.352   0.252 -2.0830  2.5776 -2.4277
26047SOL    HW280342   7.297   4.295   0.332  1.3755 -1.0314  0.4190
26048SOL     OW80343   5.833   8.181   8.183  0.4660 -0.3932  0.1768
26048SOL    HW180344   5.756   8.152   8.135  0.4865 -0.1487 -0.0101
26048SOL    HW280345   5.801   8.199   8.272  0.8714 -3.0561  0.9399
26049SOL     OW80346   7.166   1.107   4.397 -0.2508  0.6054  0.1904
26049SOL    HW180347   7.191   1.048   4.468 -0.9409  1.1448  0.8932
26049SOL    HW280348   7.220   1.185   4.410 -1.9438  1.6313  1.5026
26050SOL     OW80349   2.711   7.844   9.012 -0.3196 -0.9885  0.3402
26050SOL    HW180350   2.700   7.925   9.063 -1.4146  0.1700 -1.6164
26050SOL    HW280351   2.693   7.774   9.074  2.1192  0.1316  2.5255
26051SOL     OW80352   1.557   4.344   7.997  0.2649 -0.5203  0.1252
26051SOL    HW180353   1.572   4.438   8.012  1.9305 -0.6211 -0.6811
26051SOL    HW280354   1.578   4.303   8.081  0.6655 -0.2576  0.1607
26052SOL     OW80355   0.711   5.595   5.146 -0.0863 -0.3227 -0.2783
26052SOL    HW180356   0.662   5.546   5.080  0.7958 -1.3585 -0.1912
26052SOL    HW280357   0.767   5.654   5.096  0.1308 -0.6657 -0.4408
26053SOL     OW80358   2.438   4.729   2.631 -0.1647  0.8647 -0.2385
26053SOL    HW180359   2.382   4.792   2.675  0.2751  0.9326  0.2233
26053SOL    HW280360   2.525   4.743   2.668  0.2589  1.0636 -1.2698
26054SOL     OW80361   9.054   8.411   4.645  0.7123  0.0066  0.1812
26054SOL    HW180362   8.996   8.345   4.606  1.1402  0.7084 -1.7594
26054SOL    HW280363   9.139   8.395   4.605  1.5750 -0.1706  2.0098
26055SOL     OW80364   8.430   4.130   0.141  0.3948  0.4429 -0.2990
26055SOL    HW180365   8.418   4.075   0.064 -1.9484  0.2297  0.1455
26055SOL    HW280366   8.463   4.213   0.106 -1.3684  0.6337 -1.6764
26056SOL     OW80367   6.918   6.318   8.593 -0.1109  0.0597  0.0933
26056SOL    HW180368   7.013   6.310   8.583  0.6130  1.9111  3.6354
26056SOL    HW280369   6.895   6.248   8.654 -0.4487  1.2937  1.4337
26057SOL     OW80370   8.850   0.473   1.168  0.2542  0.1100 -0.5453
26057SOL    HW180371   8.771   0.510   1.128  1.3048  2.5828 -0.5137
26057SOL    HW280372   8.832   0.474   1.262  0.3598  0.8218 -0.5270
26058SOL     OW80373   8.793   3.833   7.155  0.1841  0.4191 -0.1813
26058SOL    HW180374   8.771   3.922   7.181 -0.8286  0.3284 -0.6732
26058SOL    HW280375   8.872   3.811   7.205  0.0322  1.3325  0.4625
26059SOL     OW80376   9.415   9.127   3.788 -0.0956  0.4333 -0.9027
26059SOL    HW180377   9.328   9.127   3.829  0.5815 -2.2700  0.8086
26059SOL    HW280378   9.465   9.193   3.836  0.4547 -2.1321  2.4299
26060SOL     OW80379   1.136   1.812   3.756 -0.2849 -0.1845  1.2465
26060SOL    HW180380   1.051   1.799   3.715  0.4387 -1.1748 -0.0517
26060SOL    HW280381   1.142   1.906   3.769 -0.8688  0.0981 -0.3069
26061SOL     OW80382   4.822   3.228   7.181  0.1157 -0.1231  0.4662
26061SOL    HW180383   4.881   3.194   7.248  1.4820  0.8052 -0.2369
26061SOL    HW280384   4.749   3.267   7.230 -0.0321 -1.4454  1.3329
26062SOL     OW80385   8.462   1.696   4.906  0.2951 -0.2430 -0.5598
26062SOL    HW180386   8.508   1.774   4.877  1.7724 -0.5828  0.7479
26062SOL    HW280387   8.529   1.627   4.907 -0.6554 -1.1969 -0.3525
26063SOL     OW80388   5.551   7.531   6.053 -0.2736 -0.0648  0.8862
26063SOL    HW180389   5.593   7.613   6.077 -1.5687  0.0350  3.1291
26063SOL    HW280390   5.593   7.505   5.971 -1.0949  3.7367 -0.9405
26064SOL     OW80391   3.068   5.834   1.684  0.2232 -0.1771 -0.0406
26064SOL    HW180392   3.090   5.870   1.598 -0.2117 -1.6205 -0.7879
26064SOL    HW280393   3.145   5.853   1.738  0.9605 -0.1915 -1.0450
26065SOL     OW80394   1.679   7.397   3.838  0.4330  0.5003  0.1222
26065SOL    HW180395   1.773   7.412   3.845  0.7311 -1.1471  0.1707
26065SOL    HW280396   1.654   7.436   3.755  1.5935 -0.9098 -0.9351
26066SOL     OW80397   7.492   2.556   6.880 -0.3378 -0.7113  0.0916
26066SOL    HW180398   7.423   2.621   6.879  0.0194 -0.1856 -3.5727
26066SOL    HW280399   7.568   2.602   6.915 -0.9826 -0.3215  1.0228
26067SOL     OW80400   1.472   7.873   2.911  0.5270 -0.0848 -0.2022
26067SOL    HW180401   1.519   7.852   2.831 -0.5238 -0.2317 -0.8015
26067SOL    HW280402   1.434   7.959   2.894 -0.4004 -0.4793 -0.2102
26068SOL     OW80403   3.624   8.452   3.067  0.1579 -0.3239 -0.0234
26068SOL    HW180404   3.674   8.533   3.058 -1.1343  0.6493  1.0841
26068SOL    HW280405   3.689   8.387   3.093  0.8089  1.0614  2.0988
26069SOL     OW80406   8.514   0.233   6.345  0.3254  0.1843 -0.2678
26069SOL    HW180407   8.554   0.303   6.294 -2.0151  0.7763 -1.4555
26069SOL    HW280408   8.461   0.185   6.281 -1.4287 -0.0517  1.2696
26070SOL     OW80409   0.068   1.051   3.758 -0.1357 -0.7565  0.0452
26070SOL    HW180410   0.066   1.065   3.663  0.3806  0.2762  0.1758
26070SOL    HW280411   0.025   0.967   3.771  0.8988 -1.5189 -1.2267
26071SOL     OW80412   4.843   4.210   5.144 -0.1340  0.2105 -0.0030
26071SOL    HW180413   4.917   4.258   5.106  1.3241 -1.5176  0.4865
26071SOL    HW280414   4.837   4.131   5.090  0.3187 -1.0607  1.7382
26072SOL     OW80415   3.987   5.304   2.591  0.7461 -0.3022  0.2512
26072SOL    HW180416   3.921   5.305   2.660  0.2868 -0.1574 -0.1819
26072SOL    HW280417   4.051   5.371   2.618 -0.9676  1.9395 -0.9036
26073SOL     OW80418   0.088   0.237   7.028  0.0799  0.1494  0.3565
26073SOL    HW180419   0.153   0.243   7.098  1.1149  0.3682 -0.5940
26073SOL    HW280420   0.036   0.160   7.049  0.5587  0.0549  1.2152
26074SOL     OW80421   5.897   8.574   3.962  0.1565 -0.2407 -0.0107
26074SOL    HW180422   5.959   8.646   3.974  0.7384 -0.6019 -0.7300
26074SOL    HW280423   5.846   8.572   4.043 -0.6721  1.7092 -0.4353
26075SOL     OW80424   2.771   7.792   5.284 -0.5783 -0.2222  0.0768
26075SOL    HW180425   2.681   7.782   5.313  0.2735 -0.7004  2.8838
26075SOL    HW280426   2.812   7.847   5.351  1.5395 -1.1252 -0.3778
26076SOL     OW80427   6.262   2.451   5.271  0.2669  0.1498  0.3889
26076SOL    HW180428   6.250   2.363   5.235  1.4698  0.2392 -0.2675
26076SOL    HW280429   6.245   2.442   5.365 -2.7882 -0.1296 -0.0923
26077SOL     OW80430   8.168   4.263   0.679 -0.5117 -1.0751 -0.4864
26077SOL    HW180431   8.173   4.339   0.737  0.5490 -0.9171 -0.7623
26077SOL    HW280432   8.255   4.223   0.686 -0.5118 -1.3012 -1.6379
26078SOL     OW80433   1.626   2.746   3.906  0.2303 -0.2200  0.3278
26078SOL    HW180434   1.648   2.682   3.839 -0.7339 -0.5817  0.3422
26078SOL    HW280435   1.571   2.810   3.861 -1.0015 -0.8285  0.8881
26079SOL     OW80436   2.614   3.636   4.178 -0.3614 -0.7231  0.1850
26079SOL    HW180437   2.549   3.610   4.112  0.8050 -1.2617 -0.7969
26079SOL    HW280438   2.691   3.661   4.127  0.7484 -1.6053  1.3611
26080SOL     OW80439   9.227   9.332   7.335  0.3172  0.2325  0.5588
26080SOL    HW180440   9.158   9.391   7.303  1.1429  1.3796  0.8616
26080SOL    HW280441   9.217   9.254   7.280  0.1620  1.2288 -0.9023
26081SOL     OW80442   4.033   2.573   4.739 -0.2778  0.0309 -0.4741
26081SOL    HW180443   4.019   2.499   4.679 -1.3798 -0.0677 -0.1099
26081SOL    HW280444   3.950   2.581   4.787 -0.1315  1.4352 -0.4288
26082SOL     OW80445   1.661   1.249   8.780  0.6577  0.6713 -0.0696
26082SOL    HW180446   1.727   1.318   8.771  0.5190  0.7406 -0.5533
26082SOL    HW280447   1.711   1.172   8.807  0.4778  1.6740  3.7035
26083SOL     OW80448   2.594   1.470   3.231  0.1443 -0.1892 -0.5450
26083SOL    HW180449   2.677   1.432   3.260 -0.3669  0.1224  1.4616
26083SOL    HW280450   2.619   1.548   3.181  1.0680  1.0721  1.7539
26084SOL     OW80451   5.141   0.074   7.666 -0.3546 -0.0386 -0.4601
26084SOL    HW180452   5.131  -0.020   7.677  1.1009 -0.3545 -1.6181
26084SOL    HW280453   5.056   0.104   7.633 -0.6587 -1.0203 -0.5816
26085SOL     OW80454   5.353   6.857   7.181 -0.0023 -0.3210 -0.8741
26085SOL    HW180455   5.326   6.790   7.118 -0.0489  1.5255 -2.9481
26085SOL    HW280456   5.278   6.917   7.187  0.3242  0.0013  0.3088
26086SOL     OW80457   0.349   8.053   5.318  0.4549 -0.5012  0.3376
26086SOL    HW180458   0.257   8.066   5.338 -0.3735 -2.3258 -1.8688
26086SOL    HW280459   0.376   8.133   5.272 -0.4500 -0.5556 -0.3027
26087SOL     OW80460   3.728   7.574   6.218 -0.2201  0.4016 -0.4121
26087SOL    HW180461   3.715   7.541   6.129 -1.7556  1.2568 -0.5410
26087SOL    HW280462   3.668   7.648   6.225  0.4438  0.8384  1.0912
26088SOL     OW80463   7.829   6.373   6.415 -0.5129 -0.1422 -0.1871
26088SOL    HW180464   7.766   6.433   6.455  0.4005  0.9837 -0.3850
26088SOL    HW280465   7.889   6.350   6.486 -0.3345 -0.0984 -0.3231
26089SOL     OW80466   9.397   3.767   3.091  0.2461 -0.1378 -0.4962
26089SOL    HW180467   9.412   3.861   3.102  0.0729 -0.2511  0.8406
26089SOL    HW280468   9.485   3.729   3.089  0.3552 -0.2376  2.1029
26090SOL     OW80469   2.062   1.083   2.227 -0.1081  0.5398  0.2979
26090SOL    HW180470   2.063   0.988   2.212  0.9899  0.8389 -1.9464
26090SOL    HW280471   1.973   1.110   2.204 -0.4198  0.0624  0.9221
26091SOL     OW80472   7.320   4.763   0.480  0.2948  0.0755  0.5165
26091SOL    HW180473   7.336   4.843   0.431 -1.0459 -1.2254 -2.2291
26091SOL    HW280474   7.234   4.775   0.520 -1.0012 -0.7688 -1.8291
26092SOL     OW80475   7.491   3.983   1.215  0.5061  0.2745 -0.5342
26092SOL    HW180476   7.508   4.062   1.164 -1.5294  1.6802  0.8204
26092SOL    HW280477   7.502   4.010   1.306 -1.4843 -0.6066  0.0232
26093SOL     OW80478   8.932   6.774   7.429  0.0439  0.4385  0.0109
26093SOL    HW180479   8.873   6.845   7.404 -1.9379 -0.9259  0.5095
26093SOL    HW280480   8.994   6.813   7.490 -0.9632  1.7632  0.2272
26094SOL     OW80481   0.469   5.469   2.823 -0.6284  0.4792 -0.3162
26094SOL    HW180482   0.551   5.511   2.848 -0.1066  1.0588 -2.7388
26094SOL    HW280483   0.478   5.378   2.853  0.4673  0.7836  0.3094
26095SOL     OW80484   0.425   3.992   3.358 -0.3544 -0.6327  0.0100
26095SOL    HW180485   0.510   4.030   3.382 -0.8806  1.4963 -1.1838
26095SOL    HW280486   0.439   3.954   3.271 -0.5826 -0.3944 -0.1328
26096SOL     OW80487   4.563   6.640   6.136 -0.1788 -0.0491  1.0001
26096SOL    HW180488   4.599   6.692   6.208  0.0684 -0.3935  1.1309
26096SOL    HW280489   4.540   6.704   6.069  2.1911  0.0788  0.2419
26097SOL     OW80490   8.934   5.166   3.231  0.0783  0.0848 -0.5753
26097SOL    HW180491   9.022   5.193   3.204  0.7400 -1.1768  0.1528
26097SOL    HW280492   8.935   5.175   3.327  0.5488 -2.8146 -0.2074
26098SOL     OW80493   4.209   5.990   5.620  0.1929  0.2763  0.0169
26098SOL    HW180494   4.207   6.061   5.556 -1.7965 -0.5269 -0.9153
26098SOL    HW280495   4.206   6.034   5.705  1.1410  1.3257 -0.4714
26099SOL     OW80496   7.899   2.390   7.267  0.0502 -0.1001  0.0051
26099SOL    HW180497   7.825   2.439   7.304  0.6808  0.0995  1.0298
26099SOL    HW280498   7.861   2.344   7.192 -1.6495 -1.6656  1.7080
26100SOL     OW80499   8.156   4.696   9.277 -0.1062  0.2062  0.1530
26100SOL    HW180500   8.203   4.614   9.293 -0.2648  0.1174  0.1649
26100SOL    HW280501   8.174   4.717   9.185  1.5172  1.1772  0.6560
26101SOL     OW80502   2.555   0.536   0.417 -0.7738  0.5727  0.3087
26101SOL    HW180503   2.644   0.503   0.404 -0.5213  1.7092 -1.1208
26101SOL    HW280504   2.509   0.464   0.460  0.7728 -0.1120  0.8978
26102SOL     OW80505   8.159   8.168   5.717  0.5608  0.3968 -0.2018
26102SOL    HW180506   8.237   8.140   5.766  1.1287  2.9018  0.4642
26102SOL    HW280507   8.178   8.258   5.692 -1.1313  0.2547 -2.2226
26103SOL     OW80508   3.213   2.376   0.153  0.3842 -0.2850 -0.2966
26103SOL    HW180509   3.211   2.362   0.059 -0.2887  0.4881 -0.4147
26103SOL    HW280510   3.195   2.289   0.191 -0.9810 -0.3121 -0.9245
26104SOL     OW80511   6.246   8.586   4.802  0.2968  0.6219 -0.3542
26104SOL    HW180512   6.180   8.535   4.848  0.4812  1.3058  0.6889
26104SOL    HW280513   6.321   8.528   4.794 -0.2715 -0.0270 -1.2068
26105SOL     OW80514   9.511   9.529   4.239 -0.3182 -0.0478 -0.2199
26105SOL    HW180515   9.496   9.571   4.155 -2.2384  2.1911  1.1283
26105SOL    HW280516   9.580   9.582   4.280 -0.3957 -0.2515  0.1771
26106SOL     OW80517   5.737   0.799   5.302 -0.2239 -0.2056 -0.6548
26106SOL    HW180518   5.747   0.799   5.397  2.7608 -0.1795 -0.8841
26106SOL    HW280519   5.666   0.737   5.285 -0.4681 -0.5988  1.5419
26107SOL     OW80520   0.899   0.045   6.269  0.2476  0.2660  0.2642
26107SOL    HW180521   0.806   0.054   6.247  0.2450  1.3347  0.6331
26107SOL    HW280522   0.935   0.133   6.257  1.1122 -0.0327  0.5888
26108SOL     OW80523   2.524   2.656   4.815  0.4498  0.0816  0.3177
26108SOL    HW180524   2.494   2.575   4.774  1.4424  0.2704 -0.8052
26108SOL    HW280525   2.459   2.722   4.789 -0.4850 -0.3648  1.4189
26109SOL     OW80526   6.273   4.429   8.618  0.1935 -0.0053 -0.4672
26109SOL    HW180527   6.222   4.372   8.560 -0.6458  0.2764 -0.0142
26109SOL    HW280528   6.320   4.369   8.676 -0.6817 -0.2477  0.0020
26110SOL     OW80529   3.322   2.318   1.581 -0.0867 -0.3567  0.2360
26110SOL    HW180530   3.333   2.356   1.668 -0.4188 -1.7335  0.9052
26110SOL    HW280531   3.228   2.323   1.564  0.0051  0.1160 -0.1450
26111SOL     OW80532   7.682   9.218   8.586 -0.4977 -0.0103 -0.4511
26111SOL    HW180533   7.601   9.168   8.577 -0.6334 -0.6475  2.9986
26111SOL    HW280534   7.734   9.192   8.509 -1.5071 -3.6595 -0.1261
26112SOL     OW80535   0.171   4.031   5.297 -0.0420 -0.4773  0.2565
26112SOL    HW180536   0.140   3.988   5.377 -2.0752  1.5539  0.6691
26112SOL    HW280537   0.207   4.114   5.327 -0.9586  0.3778 -0.9306
26113SOL     OW80538   6.713   9.106   0.349 -0.4605 -0.4935 -0.2569
26113SOL    HW180539   6.735   9.044   0.279  1.5282 -0.2472  0.0765
26113SOL    HW280540   6.750   9.066   0.428 -0.1533  0.5746  0.1477
26114SOL     OW80541   0.230   8.789   1.470  0.1743 -0.0596  0.4987
26114SOL    HW180542   0.135   8.783   1.470  0.1466  0.3736  0.2649
26114SOL    HW280543   0.250   8.863   1.414  0.6810 -0.7274 -0.2319
26115SOL     OW80544   4.842   6.717   3.728  0.0289 -0.1836  0.4914
26115SOL    HW180545   4.802   6.633   3.704 -0.0431  0.3933 -1.5200
26115SOL    HW280546   4.928   6.715   3.687  1.3926 -0.5708  3.1285
26116SOL     OW80547   8.685   0.496   3.845 -0.0441 -0.4641 -0.3979
26116SOL    HW180548   8.629   0.419   3.856 -1.5811  0.5898 -0.4448
26116SOL    HW280549   8.701   0.527   3.934  1.0291 -1.1360 -0.3498
26117SOL     OW80550   2.992   5.382   1.852 -0.6040  0.1370 -0.2114
26117SOL    HW180551   2.991   5.407   1.760  0.0458 -0.7024 -0.4559
26117SOL    HW280552   2.981   5.287   1.851  2.2080 -0.2810  0.4110
26118SOL     OW80553   4.760   3.771   4.232  0.8776  0.1736 -0.2424
26118SOL    HW180554   4.700   3.713   4.187  2.0167 -0.1508 -1.4141
26118SOL    HW280555   4.812   3.712   4.288  0.7744  0.3102 -0.0050
26119SOL     OW80556   6.233   0.683   3.869  0.0988 -0.1078 -0.4521
26119SOL    HW180557   6.255   0.775   3.855 -0.5445  0.2589  0.7769
26119SOL    HW280558   6.317   0.642   3.891 -0.0424  0.9461  2.5480
26120SOL     OW80559   6.748   5.117   4.555  0.1025 -0.0904 -0.7818
26120SOL    HW180560   6.714   5.028   4.547  2.8550 -1.0765 -2.5111
26120SOL    HW280561   6.738   5.154   4.468 -2.4787  2.0001  0.2527
26121SOL     OW80562   2.702   5.966   4.409  0.5954  0.0447  0.1722
26121SOL    HW180563   2.691   6.043   4.465  1.3539 -0.8614  1.6158
26121SOL    HW280564   2.733   5.897   4.468  1.5684 -0.9135 -1.3877
26122SOL     OW80565   3.142   7.158   0.782  0.0603 -0.2374  0.0324
26122SOL    HW180566   3.142   7.245   0.823  0.6381 -0.1086 -0.2340
26122SOL    HW280567   3.224   7.118   0.810 -0.1316 -0.6421  0.0273
26123SOL     OW80568   9.028   5.704   5.482 -0.2651 -0.2341  0.0658
26123SOL    HW180569   9.077   5.775   5.441 -0.9628 -0.5440 -1.3479
26123SOL    HW280570   9.088   5.670   5.549  1.3801 -0.4479 -1.4262
26124SOL     OW80571   0.169   8.547   8.776 -0.3822  0.1120 -0.2875
26124SOL    HW180572   0.097   8.608   8.758 -0.9620 -0.5760 -0.3634
26124SOL    HW280573   0.164   8.531   8.870  0.1298  0.6159 -0.1710
26125SOL     OW80574   0.969   5.469   2.858 -0.3926  0.1782  0.5901
26125SOL    HW180575   1.029   5.396   2.841  0.7279  1.1762  0.0781
26125SOL    HW280576   0.888   5.444   2.815  0.4232 -0.1792 -0.8150
26126SOL     OW80577   4.358   6.242   9.460 -0.1240 -0.0761  0.0741
26126SOL    HW180578   4.381   6.152   9.481 -0.7605 -0.1480  0.4896
26126SOL    HW280579   4.270   6.236   9.422  0.3162  0.2405 -1.0362
26127SOL     OW80580   5.910   9.335   4.759  0.6548  0.4552 -0.1203
26127SOL    HW180581   5.825   9.292   4.754  0.6853  0.2542  0.9846
26127SOL    HW280582   5.889   9.428   4.760  0.5724  0.5172 -2.0947
26128SOL     OW80583   8.938   9.255   8.367  0.0332  0.5345 -0.4136
26128SOL    HW180584   8.942   9.173   8.415  2.2183  0.3544 -0.8195
26128SOL    HW280585   8.906   9.231   8.280  0.7177  0.0786 -0.5481
26129SOL     OW80586   6.485   8.290   7.355  0.3970 -0.1485 -0.3799
26129SOL    HW180587   6.406   8.296   7.301  0.0318  0.3509  0.1999
26129SOL    HW280588   6.529   8.211   7.325 -1.1268 -1.3288  0.3662
26130SOL     OW80589   6.367   5.078   3.274 -0.5896  0.2227 -0.1034
26130SOL    HW180590   6.365   4.984   3.294  1.2424  0.5643  2.1972
26130SOL    HW280591   6.368   5.120   3.360 -0.1129  2.3137 -1.0688
26131SOL     OW80592   2.694   7.829   7.285  0.1854  0.5836 -0.3583
26131SOL    HW180593   2.731   7.915   7.269 -0.9770  0.7798 -2.3590
26131SOL    HW280594   2.757   7.768   7.245  0.2261  0.6246 -0.3559
26132SOL     OW80595   7.474   2.200   1.276  0.8314  0.4316 -0.5255
26132SOL    HW180596   7.398   2.203   1.334  0.9486 -0.1179 -0.3355
26132SOL    HW280597   7.445   2.242   1.195 -0.3226 -1.5872 -1.2042
26133SOL     OW80598   7.393   0.252   2.443  0.4616  0.7721  0.4678
26133SOL    HW180599   7.323   0.294   2.393  1.5175  0.8344 -1.0314
26133SOL    HW280600   7.444   0.204   2.377  0.9440 -0.5333  1.7367
26134SOL     OW80601   8.610   0.919   7.221  0.5842  0.6473  0.1012
26134SOL    HW180602   8.597   0.841   7.274 -0.7657  1.1504  0.5498
26134SOL    HW280603   8.705   0.932   7.221  0.6229  1.1490  3.2144
26135SOL     OW80604   3.523   6.667   2.297 -0.1228 -0.5003  0.4728
26135SOL    HW180605   3.545   6.608   2.369  1.2116 -2.3916 -1.3590
26135SOL    HW280606   3.568   6.748   2.318  1.5698 -1.5400  1.0200
26136SOL     OW80607   2.339   2.378   4.425 -0.1702 -0.1418  0.1745
26136SOL    HW180608   2.416   2.322   4.437 -0.2513 -0.1296  0.7615
26136SOL    HW280609   2.324   2.377   4.331 -1.8542 -3.3453  0.3631
26137SOL     OW80610   8.625   2.888   4.656  0.5695  0.4063  0.1724
26137SOL    HW180611   8.717   2.897   4.632  0.4148 -0.3901 -0.7976
26137SOL    HW280612   8.577   2.906   4.575 -0.0138 -1.4361  0.0435
26138SOL     OW80613   4.042   4.085   2.797 -0.3235 -0.3498 -0.4479
26138SOL    HW180614   4.026   4.046   2.883 -1.3094 -1.2346 -0.9918
26138SOL    HW280615   4.010   4.175   2.804  1.1763  0.1357  0.5822
26139SOL     OW80616   0.538   5.978   4.799 -0.2553 -0.0339 -0.2736
26139SOL    HW180617   0.556   5.886   4.819 -2.0414 -0.8842 -2.1631
26139SOL    HW280618   0.583   6.027   4.867  1.7786 -2.2413  0.0849
26140SOL     OW80619   5.829   7.267   7.697 -0.0419 -0.2528  0.3288
26140SOL    HW180620   5.818   7.178   7.730 -0.1542 -0.7046 -0.8809
26140SOL    HW280621   5.866   7.256   7.610 -0.5459  0.8702 -0.0476
26141SOL     OW80622   1.657   5.910   8.358  0.3350  0.3801  0.6057
26141SOL    HW180623   1.677   5.818   8.374  0.0957  0.1194 -0.5348
26141SOL    HW280624   1.562   5.915   8.363  0.2270  0.2383 -0.8858
26142SOL     OW80625   2.120   6.866   2.432  0.6255  0.2874  0.1298
26142SOL    HW180626   2.131   6.923   2.508  0.5244  0.9723 -0.3635
26142SOL    HW280627   2.208   6.830   2.416  0.2122 -1.7985  2.0372
26143SOL     OW80628   3.697   6.587   5.882  0.7337 -0.3572 -0.5700
26143SOL    HW180629   3.756   6.551   5.948 -0.6208 -1.7437 -0.0352
26143SOL    HW280630   3.655   6.510   5.844 -0.9731  0.5687 -0.6628
26144SOL     OW80631   8.202   9.103   7.916 -0.1606  0.2023  0.4777
26144SOL    HW180632   8.284   9.117   7.964 -0.4046  0.2970  0.8752
26144SOL    HW280633   8.146   9.054   7.977 -0.2582 -0.2126  0.0640
26145SOL     OW80634   2.441   1.544   7.189  0.1560  0.0389  0.5729
26145SOL    HW180635   2.465   1.572   7.101 -0.6102  0.2753  0.4292
26145SOL    HW280636   2.523   1.546   7.238  0.3101  1.5172  0.2886
26146SOL     OW80637   6.010   3.611   0.744 -0.0893 -0.1493  0.4128
26146SOL    HW180638   6.080   3.665   0.781 -0.2721  1.3902 -1.3625
26146SOL    HW280639   5.930   3.662   0.757 -0.3699 -0.2902 -0.6551
26147SOL     OW80640   4.916   0.815   8.464  0.0053  0.3744 -0.4900
26147SOL    HW180641   4.822   0.823   8.480 -0.7144 -2.2645 -2.6680
26147SOL    HW280642   4.926   0.821   8.369  1.8382 -0.6556 -0.4229
26148SOL     OW80643   2.515   2.998   6.010 -0.1364 -0.1415 -0.0327
26148SOL    HW180644   2.542   3.072   5.955 -0.7926  0.5738  0.5736
26148SOL    HW280645   2.568   2.925   5.980  2.2043  1.0885  0.8253
26149SOL     OW80646   7.633   5.527   9.370  0.5914 -0.0321  0.2553
26149SOL    HW180647   7.670   5.575   9.295  0.0823 -1.6991 -1.1412
26149SOL    HW280648   7.681   5.444   9.370 -0.6914 -0.7889  0.6375
26150SOL     OW80649   2.673   1.279   4.619  0.1769 -0.1708  0.0316
26150SOL    HW180650   2.618   1.346   4.578 -0.1983 -0.7134 -0.3774
26150SOL    HW280651   2.723   1.326   4.686 -0.6431  0.3703  0.2757
26151SOL     OW80652   0.949   5.821   6.801 -0.2900 -0.1771  0.5418
26151SOL    HW180653   0.990   5.858   6.723  0.6797  1.0305  1.5793
26151SOL    HW280654   1.019   5.770   6.843 -0.4913  0.0451  1.1600
26152SOL     OW80655   3.681   2.685   5.676 -0.2502 -0.4718  0.7786
26152SOL    HW180656   3.758   2.695   5.620 -0.6771  0.4598  0.3261
26152SOL    HW280657   3.697   2.743   5.750 -0.2398 -0.7412  0.9857
26153SOL     OW80658   1.590   6.765   1.492  0.7924  0.1587  0.0464
26153SOL    HW180659   1.649   6.793   1.422 -0.0173  3.0644  0.3628
26153SOL    HW280660   1.504   6.761   1.450  0.8284 -1.8778  0.0823
26154SOL     OW80661   3.788   4.643   6.379  0.3826 -0.1429 -0.3738
26154SOL    HW180662   3.793   4.722   6.432 -0.7717 -0.2691 -0.0470
26154SOL    HW280663   3.771   4.674   6.290 -1.9429 -0.0434  0.0493
26155SOL     OW80664   5.037   7.660   3.041  0.4446  0.8670  1.0519
26155SOL    HW180665   4.947   7.691   3.050  0.5773  1.1816  1.3463
26155SOL    HW280666   5.029   7.565   3.035 -0.0245  0.9730 -0.5389
26156SOL     OW80667   6.328   3.435   3.616  0.2458  0.1178 -0.4507
26156SOL    HW180668   6.421   3.420   3.599  0.6733  1.5929  0.3716
26156SOL    HW280669   6.326   3.477   3.702 -1.2357 -0.3306 -0.2295
26157SOL     OW80670   0.115   0.304   6.115 -0.2192 -0.3615  0.4308
26157SOL    HW180671   0.134   0.368   6.048 -1.6879 -0.0385  0.2801
26157SOL    HW280672   0.151   0.222   6.082  1.1210  0.2522  0.3446
26158SOL     OW80673   5.836   8.283   2.245 -0.4237 -0.0375  0.1711
26158SOL    HW180674   5.926   8.309   2.224 -0.8107  0.9875 -0.2910
26158SOL    HW280675   5.815   8.331   2.324 -0.0201 -1.5557  1.2438
26159SOL     OW80676   2.466   7.643   6.742 -0.0553 -0.3334 -0.0251
26159SOL    HW180677   2.397   7.587   6.776 -1.9742  0.1767 -2.7260
26159SOL    HW280678   2.507   7.591   6.673 -1.2466  1.1116 -1.9386
26160SOL     OW80679   8.142   0.080   5.276 -0.2430  0.0433 -0.2212
26160SOL    HW180680   8.115   0.093   5.185  0.1455  1.7645 -0.1166
26160SOL    HW280681   8.221   0.133   5.286 -1.3149  1.3895  1.6038
26161SOL     OW80682   5.870   2.288   0.743  0.2260  0.0425 -0.1721
26161SOL    HW180683   5.809   2.352   0.707 -0.7715 -0.0355  1.3039
26161SOL    HW280684   5.952   2.303   0.695 -1.6408 -2.0134 -4.6296
26162SOL     OW80685   4.106   2.134   6.550  0.0131  0.0311 -0.0716
26162SOL    HW180686   4.041   2.065   6.539 -1.2599  1.0751  0.5970
26162SOL    HW280687   4.061   2.200   6.603  1.3698  1.1370 -0.2650
26163SOL     OW80688   1.243   0.813   7.278  0.2467  0.1131  0.5696
26163SOL    HW180689   1.333   0.810   7.247 -0.0306  1.4700 -0.4936
26163SOL    HW280690   1.192   0.835   7.200 -0.9100  0.1242  1.3071
26164SOL     OW80691   6.296   6.347   2.846  0.2939  0.2285 -0.4265
26164SOL    HW180692   6.255   6.303   2.772 -3.5322 -0.0608  1.5943
26164SOL    HW280693   6.312   6.436   2.815 -3.2186  0.7563 -1.1595
26165SOL     OW80694   7.469   4.333   9.200  0.1957 -0.0678 -0.1933
26165SOL    HW180695   7.541   4.277   9.171 -0.5176 -0.8133 -0.5306
26165SOL    HW280696   7.508   4.386   9.270  1.5526  0.7773 -1.5219
26166SOL     OW80697   2.297   4.603   5.431 -0.1823 -0.5469  0.3314
26166SOL    HW180698   2.247   4.685   5.431  3.0213  1.5956 -0.0149
26166SOL    HW280699   2.368   4.619   5.492  1.5881 -2.3875 -1.1183
26167SOL     OW80700   0.914   7.702   4.039  0.2119 -0.3761 -1.0198
26167SOL    HW180701   0.965   7.721   3.961  1.4442 -0.8751 -0.3602
26167SOL    HW280702   0.863   7.624   4.017  1.6125 -1.3565 -0.8702
26168SOL     OW80703   2.301   3.222   4.119  0.0967 -0.5371  0.0980
26168SOL    HW180704   2.283   3.237   4.212  0.7375 -0.6326  0.2426
26168SOL    HW280705   2.216   3.196   4.082 -0.1928 -0.3581  0.6249
26169SOL     OW80706   6.178   2.393   3.799  0.0695 -0.4002  0.0701
26169SOL    HW180707   6.112   2.419   3.864 -0.3095  1.8210 -1.1158
26169SOL    HW280708   6.128   2.349   3.730  0.1471 -0.6448  0.1673
26170SOL     OW80709   2.508   3.832   4.338 -0.6182 -0.1074  0.4070
26170SOL    HW180710   2.575   3.777   4.297  0.2071  1.1631 -0.0316
26170SOL    HW280711   2.428   3.781   4.331  0.1993 -1.4479  0.4565
26171SOL     OW80712   3.407   6.753   3.385 -0.3002  0.4070 -0.2922
26171SOL    HW180713   3.361   6.693   3.325 -2.0824  0.8628  0.5484
26171SOL    HW280714   3.368   6.735   3.471  1.6139  0.3573  0.6197
26172SOL     OW80715   8.907   6.017   2.822  0.2262  0.3685  0.3203
26172SOL    HW180716   8.941   6.051   2.739  0.0549 -0.1210  0.0436
26172SOL    HW280717   8.814   6.001   2.806  0.2538 -0.0115  0.5124
26173SOL     OW80718   0.303   7.479   2.375  0.1656 -0.1156  0.2114
26173SOL    HW180719   0.328   7.538   2.447  1.4884  0.4651 -0.6909
26173SOL    HW280720   0.384   7.461   2.329 -0.6014 -0.7867 -0.9387
26174SOL     OW80721   2.416   4.449   6.028 -0.7563  0.1204 -0.2402
26174SOL    HW180722   2.408   4.420   5.937 -2.4351  0.3006 -0.1857
26174SOL    HW280723   2.327   4.477   6.052  0.2291  2.9518  0.4986
26175SOL     OW80724   1.014   6.810   9.253 -0.1051  0.2058  0.0613
26175SOL    HW180725   1.086   6.749   9.270 -0.4622 -0.0479  0.7219
26175SOL    HW280726   0.971   6.820   9.339  0.2801  1.8130  0.0903
26176SOL     OW80727   6.275   5.510   9.017 -0.1067  0.4617  0.2224
26176SOL    HW180728   6.222   5.491   8.939  0.2520 -0.2567  0.1484
26176SOL    HW280729   6.363   5.479   8.995  0.1603  0.8940  0.6554
26177SOL     OW80730   9.075   1.249   4.888 -0.3872 -0.6502 -0.3247
26177SOL    HW180731   9.120   1.255   4.804  0.6896  1.9462  0.3217
26177SOL    HW280732   9.144   1.224   4.950  0.0540  2.1320  0.4681
26178SOL     OW80733   6.334   4.613   3.828 -0.0621  0.7162  0.2372
26178SOL    HW180734   6.252   4.653   3.859 -0.4916 -0.8403  1.2124
26178SOL    HW280735   6.384   4.596   3.908  1.0360  1.2513 -0.3232
26179SOL     OW80736   5.864   3.283   4.697 -0.5045 -0.1481  0.7747
26179SOL    HW180737   5.890   3.251   4.784 -0.4422  0.6265  1.0527
26179SOL    HW280738   5.771   3.302   4.706 -0.1871  1.4064  1.1619
26180SOL     OW80739   5.954   2.934   7.520 -0.2685 -0.1108 -0.0417
26180SOL    HW180740   5.970   3.028   7.517  2.3219 -0.4944 -1.3100
26180SOL    HW280741   5.918   2.914   7.433 -0.2221 -0.3918  0.0044
26181SOL     OW80742   1.709   9.376   0.618  0.7191 -0.7030 -0.2196
26181SOL    HW180743   1.799   9.381   0.650  0.7923 -0.9891 -0.3708
26181SOL    HW280744   1.714   9.317   0.543  0.5106 -0.2228 -0.6125
26182SOL     OW80745   8.990   2.150   0.543  0.3359 -0.2625  0.1567
26182SOL    HW180746   9.047   2.227   0.542  0.6620 -0.3889  2.6945
26182SOL    HW280747   9.040   2.083   0.496  1.0200  0.4314 -0.1241
26183SOL     OW80748   9.481   3.132   8.527 -0.8923 -0.3907 -0.2552
26183SOL    HW180749   9.493   3.191   8.453 -1.6789 -1.0514 -0.9294
26183SOL    HW280750   9.401   3.164   8.570  0.0724  0.5784  0.9073
26184SOL     OW80751   6.997   5.804   3.991  0.0104 -0.1381 -0.3677
26184SOL    HW180752   6.982   5.866   3.920 -0.4144  1.4737  1.0701
26184SOL    HW280753   7.020   5.859   4.067  1.7395 -1.8518  0.4509
26185SOL     OW80754   0.662   1.440   0.743 -0.3448 -0.1597  0.4346
26185SOL    HW180755   0.572   1.456   0.775 -0.1366 -1.1620  1.5978
26185SOL    HW280756   0.702   1.527   0.744 -1.1800  0.2443  0.3007
26186SOL     OW80757   2.676   9.480   0.050 -0.1593  0.2862  0.6763
26186SOL    HW180758   2.654   9.464   0.142 -1.8126 -0.0818  0.2580
26186SOL    HW280759   2.741   9.550   0.052 -0.9253  0.9896  2.0875
26187SOL     OW80760   0.639   3.233   6.800 -0.1849  0.6335 -0.3769
26187SOL    HW180761   0.544   3.237   6.812 -0.1662 -0.2268  0.1639
26187SOL    HW280762   0.653   3.260   6.709 -1.2552 -2.1326 -1.4749
26188SOL     OW80763   8.072   1.750   2.951  0.2244  0.2881  0.2490
26188SOL    HW180764   8.059   1.663   2.911 -0.8126  0.9214 -0.8871
26188SOL    HW280765   8.157   1.778   2.920 -0.5955  0.8011 -1.6991
26189SOL     OW80766   4.389   0.970   0.231 -1.1151  0.9100  0.3848
26189SOL    HW180767   4.324   0.933   0.171 -0.7127  0.3942  0.2624
26189SOL    HW280768   4.473   0.947   0.192 -0.8336  0.0830  1.4320
26190SOL     OW80769   6.162   7.679   4.258  1.2125  0.7537  0.1607
26190SOL    HW180770   6.162   7.587   4.232  1.2437  0.7551  0.1561
26190SOL    HW280771   6.253   7.699   4.279  1.2110  0.7927  0.1304
26191SOL     OW80772   1.085   1.385   5.814  0.1862 -0.1829  0.0177
26191SOL    HW180773   1.179   1.368   5.818  0.2798  0.4632  0.7562
26191SOL    HW280774   1.045   1.298   5.821  0.7257 -0.4574 -0.2544
26192SOL     OW80775   7.566   0.303   1.536  0.1340  0.2559 -0.2300
26192SOL    HW180776   7.599   0.334   1.620 -1.8856  0.1059  0.6770
26192SOL    HW280777   7.517   0.377   1.500 -1.0276 -0.4307 -0.1161
26193SOL     OW80778   5.049   9.434   4.836  0.3323 -0.2808 -0.1553
26193SOL    HW180779   5.126   9.394   4.877  0.6811  2.6463  2.4321
26193SOL    HW280780   4.978   9.372   4.852  1.2552 -0.9549  1.6125
26194SOL     OW80781   1.953   8.440   9.090 -0.9200  0.0798  0.1084
26194SOL    HW180782   1.947   8.534   9.106 -0.1512  0.1265  0.1662
26194SOL    HW280783   2.010   8.407   9.160 -2.0863 -0.6176  0.7632
26195SOL     OW80784   8.163   1.987   6.217  0.2050  0.1095 -0.5593
26195SOL    HW180785   8.124   2.064   6.258  1.7668  0.3785  0.4957
26195SOL    HW280786   8.126   1.985   6.129 -2.2008  0.2938  0.3645
26196SOL     OW80787   2.493   3.320   1.519  0.6055  0.2070 -0.0153
26196SOL    HW180788   2.529   3.289   1.602  0.3586 -0.7731 -0.2489
26196SOL    HW280789   2.432   3.250   1.493  0.9619  0.3168 -1.1995
26197SOL     OW80790   2.068   2.179   1.706  0.2962 -0.4106  0.2448
26197SOL    HW180791   1.989   2.136   1.673  1.1265 -2.2577  0.5414
26197SOL    HW280792   2.035   2.248   1.764 -1.1114  0.3908 -1.4409
26198SOL     OW80793   7.295   4.008   9.505 -0.3817 -1.0241 -0.2604
26198SOL    HW180794   7.383   4.028   9.473 -0.1845 -2.2390 -0.5364
26198SOL    HW280795   7.308   3.979   9.595 -0.4388 -1.6684 -0.4561
26199SOL     OW80796   0.234   6.168   1.618  0.5401 -0.3263 -0.2807
26199SOL    HW180797   0.183   6.232   1.666  0.3323 -1.4265  1.0253
26199SOL    HW280798   0.232   6.090   1.673  0.8830 -1.4180 -1.7611
26200SOL     OW80799   7.623   0.774   3.188 -0.1789  0.5582  0.4396
26200SOL    HW180800   7.567   0.833   3.138 -0.7522 -0.5485 -0.2530
26200SOL    HW280801   7.571   0.750   3.265 -0.5059 -0.1336  0.0115
26201SOL     OW80802   5.991   1.102   8.579  0.2993  0.1010  0.3857
26201SOL    HW180803   5.909   1.068   8.615 -0.9113  0.2531 -2.0542
26201SOL    HW280804   6.060   1.053   8.624 -1.2488 -4.7805 -1.9821
26202SOL     OW80805   6.019   5.679   9.022  0.1870 -0.5299 -1.1085
26202SOL    HW180806   5.953   5.614   8.999 -1.3096  0.7421 -0.5453
26202SOL    HW280807   6.102   5.639   8.995 -0.6444 -2.7342 -0.5974
26203SOL     OW80808   3.317   5.726   3.838 -0.0595  0.1570  0.1588
26203SOL    HW180809   3.265   5.806   3.832  1.8802  1.4833  0.2877
26203SOL    HW280810   3.375   5.740   3.912  0.8106 -1.0699 -0.2536
26204SOL     OW80811   3.219   4.258   0.116  0.0444 -0.4183 -0.5671
26204SOL    HW180812   3.194   4.295   0.201  1.9027 -0.4744  0.0577
26204SOL    HW280813   3.170   4.310   0.052 -0.6573  0.2744  0.4879
26205SOL     OW80814   9.422   0.649   4.155 -0.1966 -0.3783 -0.2251
26205SOL    HW180815   9.420   0.681   4.245 -1.1725 -1.8783  0.3307
26205SOL    HW280816   9.515   0.636   4.137 -0.0553 -2.9554  1.7244
26206SOL     OW80817   1.035   6.075   1.406 -0.0601  0.4937  0.0667
26206SOL    HW180818   1.108   6.115   1.453  0.8765 -0.1485 -0.7986
26206SOL    HW280819   1.050   5.981   1.416 -1.2128  0.3447  0.5250
26207SOL     OW80820   8.862   3.228   0.111 -0.0744  0.4335 -0.4320
26207SOL    HW180821   8.784   3.210   0.059  0.8812  0.2004 -1.8453
26207SOL    HW280822   8.837   3.206   0.200 -1.2893 -0.6834 -1.0153
26208SOL     OW80823   5.476   3.814   4.161 -0.5778  0.0613 -0.1173
26208SOL    HW180824   5.493   3.780   4.248 -2.2172 -0.0219  0.1896
26208SOL    HW280825   5.461   3.907   4.174 -0.4307  0.1224 -0.3744
26209SOL     OW80826   3.679   8.261   1.629  0.1081  0.1007 -0.5340
26209SOL    HW180827   3.735   8.245   1.706 -0.8974  0.3187  0.2715
26209SOL    HW280828   3.617   8.188   1.629  1.6011 -1.2844 -2.6208
26210SOL     OW80829   1.937   3.312   2.452  0.1947 -0.3073  0.2198
26210SOL    HW180830   1.895   3.296   2.368  0.4393  0.1552  0.0078
26210SOL    HW280831   1.866   3.306   2.516 -0.2688  0.8062 -0.1684
26211SOL     OW80832   6.237   4.007   0.933 -0.6095 -0.3922 -0.6786
26211SOL    HW180833   6.305   4.016   1.000 -1.4195  3.4226 -0.1646
26211SOL    HW280834   6.228   3.912   0.920  2.3306 -1.1258  1.7124
26212SOL     OW80835   2.561   0.866   1.417  0.1254  0.7099  0.2724
26212SOL    HW180836   2.531   0.922   1.345  0.8362 -2.0944 -2.4121
26212SOL    HW280837   2.544   0.777   1.387  1.6063 -0.6754  3.1110
26213SOL     OW80838   0.311   7.445   7.840 -0.5107 -0.1463 -0.7877
26213SOL    HW180839   0.380   7.399   7.791  0.1777  0.6053 -0.5607
26213SOL    HW280840   0.271   7.504   7.775  0.4612  0.9148 -0.4604
26214SOL     OW80841   8.122   6.907   1.030 -0.1849  0.0424 -0.3449
26214SOL    HW180842   8.117   6.832   1.089  0.6061 -0.0759 -0.4145
26214SOL    HW280843   8.050   6.894   0.968 -2.1097  1.0277  1.5434
26215SOL     OW80844   8.644   6.619   8.374  0.2546 -0.2564 -0.1793
26215SOL    HW180845   8.623   6.556   8.443  0.3014 -1.4231 -1.1817
26215SOL    HW280846   8.621   6.574   8.293  0.9516  0.7606 -0.9735
26216SOL     OW80847   9.465   2.171   1.647  0.2890 -0.1132 -0.4657
26216SOL    HW180848   9.538   2.216   1.605 -0.2780  0.1085 -1.2297
26216SOL    HW280849   9.423   2.239   1.700  1.3298 -0.5169  0.9574
26217SOL     OW80850   9.334   0.232   1.791 -0.3504  0.3387 -0.1361
26217SOL    HW180851   9.249   0.187   1.785 -1.2340  2.0023 -0.8355
26217SOL    HW280852   9.349   0.266   1.703  1.2128 -0.1657 -0.0898
26218SOL     OW80853   8.865   6.210   3.028 -0.2176 -0.2188 -0.4385
26218SOL    HW180854   8.771   6.224   3.030 -0.1237  0.6972 -1.7288
26218SOL    HW280855   8.879   6.148   2.956  0.1864 -0.2589 -0.3319
26219SOL     OW80856   1.347   1.491   7.348  0.5603  0.5602  0.0834
26219SOL    HW180857   1.432   1.526   7.321  0.4241  0.3136 -0.6740
26219SOL    HW280858   1.288   1.511   7.276 -0.0997  0.9878  0.7334
26220SOL     OW80859   7.586   7.231   3.332 -0.3580  0.0837  0.3895
26220SOL    HW180860   7.625   7.145   3.351  0.2782  0.2682 -0.0556
26220SOL    HW280861   7.519   7.213   3.266 -0.7050 -0.1626  0.7987
26221SOL     OW80862   0.212   6.333   6.751 -0.0563 -0.2523 -0.1873
26221SOL    HW180863   0.151   6.400   6.780  1.1493  1.0922 -0.6725
26221SOL    HW280864   0.166   6.287   6.680 -1.0607 -0.2620  0.4597
26222SOL     OW80865   7.314   5.375   5.504 -0.2428 -0.3430  0.4288
26222SOL    HW180866   7.262   5.336   5.574  2.1393 -0.1757  2.4625
26222SOL    HW280867   7.254   5.431   5.456 -1.5229  1.5946  3.9837
26223SOL     OW80868   5.215   7.469   4.672 -0.4048  0.3226  0.6312
26223SOL    HW180869   5.184   7.409   4.740 -0.8238  0.2882  0.4113
26223SOL    HW280870   5.270   7.414   4.615 -1.1252  0.0412  0.1909
26224SOL     OW80871   5.137   3.254   4.458  0.0855 -0.0709  0.2708
26224SOL    HW180872   5.181   3.247   4.544  1.5001  2.0967 -0.1814
26224SOL    HW280873   5.053   3.295   4.478  0.8152  1.3579  0.5835
26225SOL     OW80874   0.437   2.907   8.749  0.4987  0.1045  0.2580
26225SOL    HW180875   0.509   2.890   8.809 -0.6576 -0.7005  1.4617
26225SOL    HW280876   0.359   2.879   8.796 -0.6251  1.0221 -0.9850
26226SOL     OW80877   3.902   4.752   5.340 -0.2263 -0.2424  0.3758
26226SOL    HW180878   3.987   4.710   5.330 -0.1497  0.2884 -1.6639
26226SOL    HW280879   3.864   4.712   5.419  2.1596  0.0064  1.7401
26227SOL     OW80880   2.419   0.475   3.338 -0.4955  0.2649 -0.0250
26227SOL    HW180881   2.457   0.531   3.406 -3.0848  0.6756  1.1953
26227SOL    HW280882   2.364   0.413   3.386  0.6982 -2.0872 -1.5020
26228SOL     OW80883   0.960   1.447   7.453  0.3472  0.0864  0.3722
26228SOL    HW180884   0.892   1.470   7.516 -1.1033  3.2173 -2.0930
26228SOL    HW280885   1.039   1.490   7.485 -0.6692  2.7238 -0.4508
26229SOL     OW80886   2.229   9.448   9.287  0.2468  0.6691  0.2002
26229SOL    HW180887   2.172   9.518   9.255  1.9303  1.3035 -1.5731
26229SOL    HW280888   2.263   9.482   9.370 -2.4588 -0.0613  1.7245
26230SOL     OW80889   7.722   8.210   0.583  0.8468  0.6705  0.3137
26230SOL    HW180890   7.707   8.282   0.645 -0.8777  0.8688 -0.2674
26230SOL    HW280891   7.665   8.230   0.509  1.7479 -0.3469 -0.6897
26231SOL     OW80892   3.659   1.636   5.702 -0.2259 -0.2077  0.1313
26231SOL    HW180893   3.619   1.578   5.638  2.4240 -1.0325 -0.9392
26231SOL    HW280894   3.590   1.699   5.725 -1.4912 -0.2391 -3.0561
26232SOL     OW80895   6.510   1.830   9.571  0.0033  0.4330 -0.1812
26232SOL    HW180896   6.447   1.764   9.602  1.2905 -0.5331  0.4972
26232SOL    HW280897   6.477   1.913   9.604 -1.7938  0.1927 -1.2491
26233SOL     OW80898   1.138   0.522   0.284 -0.9838  0.5089 -0.3724
26233SOL    HW180899   1.059   0.469   0.271 -1.4243  0.9972  0.2726
26233SOL    HW280900   1.164   0.504   0.375  0.4653 -0.7296 -0.9876
26234SOL     OW80901   3.756   8.812   9.188 -0.0335  0.0977  0.1259
26234SOL    HW180902   3.752   8.807   9.283  0.2499 -0.2876  0.1210
26234SOL    HW280903   3.773   8.722   9.160 -3.0535 -0.3775 -0.4597
26235SOL     OW80904   7.307   1.037   6.457  0.3975 -0.2061 -0.2289
26235SOL    HW180905   7.245   1.107   6.437  1.1104  0.1608 -1.2326
26235SOL    HW280906   7.252   0.964   6.486 -0.3352  0.9093  1.3914
26236SOL     OW80907   3.644   1.868   5.194  0.0333  0.2804 -0.4112
26236SOL    HW180908   3.710   1.799   5.194 -2.2371 -2.0702 -0.6525
26236SOL    HW280909   3.583   1.843   5.263 -0.3128  2.6989  0.2425
26237SOL     OW80910   4.016   5.455   1.235 -0.2120  0.2696 -0.2701
26237SOL    HW180911   4.082   5.522   1.250 -0.0811 -0.0201  0.4828
26237SOL    HW280912   4.028   5.392   1.307 -0.3696 -0.5278 -0.9185
26238SOL     OW80913   3.963   8.589   7.100 -0.1193  0.4439  0.6188
26238SOL    HW180914   4.010   8.506   7.092 -0.5552  0.2847 -0.5478
26238SOL    HW280915   3.873   8.564   7.120 -0.2315  0.6382  0.3604
26239SOL     OW80916   8.224   8.656   5.052  0.0805  0.2142  0.4743
26239SOL    HW180917   8.300   8.611   5.015 -1.7701 -1.7529 -1.1737
26239SOL    HW280918   8.228   8.745   5.016 -0.1928 -0.8575 -2.4724
26240SOL     OW80919   8.209   5.434   3.760 -0.1967 -0.2047  0.2661
26240SOL    HW180920   8.207   5.354   3.812  0.1282 -1.2203 -1.1974
26240SOL    HW280921   8.165   5.410   3.678  0.0478  1.0597 -0.2584
26241SOL     OW80922   7.678   2.406   7.903 -0.5143  0.0338  0.0958
26241SOL    HW180923   7.698   2.499   7.890 -0.7686  0.6919  3.5261
26241SOL    HW280924   7.582   2.403   7.904 -0.5029 -0.2322  0.1851
26242SOL     OW80925   5.686   5.710   0.533  0.5913 -0.1844 -0.7238
26242SOL    HW180926   5.779   5.702   0.509  0.4564  0.6982 -1.5832
26242SOL    HW280927   5.650   5.773   0.471 -0.0591  1.3105  1.0747
26243SOL     OW80928   4.805   5.080   3.268  0.3115 -0.0069 -0.0604
26243SOL    HW180929   4.769   5.115   3.187 -0.5355  1.1345  0.7600
26243SOL    HW280930   4.798   5.153   3.330  0.4675 -0.9924  1.1635
26244SOL     OW80931   2.464   9.157   3.519 -0.1765  0.2485  0.1200
26244SOL    HW180932   2.398   9.226   3.511  0.7154  1.0499 -0.4050
26244SOL    HW280933   2.465   9.136   3.613 -1.3090  0.0702  0.1161
26245SOL     OW80934   7.596   2.446   5.111  0.3300  0.3658  0.5445
26245SOL    HW180935   7.606   2.378   5.177 -0.9313 -1.2415 -0.8039
26245SOL    HW280936   7.511   2.485   5.130  0.4012  0.5607  0.4621
26246SOL     OW80937   4.104   7.139   9.210  0.0037 -0.4058  0.0622
26246SOL    HW180938   4.025   7.121   9.159  0.1622 -1.2605  0.0975
26246SOL    HW280939   4.080   7.212   9.267 -0.6952 -0.5201 -0.0756
26247SOL     OW80940   6.339   4.466   1.582  0.0025  0.5251 -0.0969
26247SOL    HW180941   6.260   4.476   1.634 -0.4786  0.6171 -0.8389
26247SOL    HW280942   6.328   4.526   1.508  1.5160  1.8015  0.6518
26248SOL     OW80943   2.651   5.474   3.427 -0.2451 -0.1399 -0.4239
26248SOL    HW180944   2.698   5.453   3.508 -0.9661  1.1131  0.3427
26248SOL    HW280945   2.705   5.540   3.384  0.1330 -0.7967 -1.0018
26249SOL     OW80946   7.553   4.512   5.305  0.3152 -0.0818 -0.2863
26249SOL    HW180947   7.631   4.551   5.345 -1.4727  1.2433  2.2055
26249SOL    HW280948   7.482   4.571   5.330 -1.9623 -2.8295  0.2082
26250SOL     OW80949   7.463   5.048   4.588  0.4104 -0.0611 -0.1428
26250SOL    HW180950   7.468   5.143   4.582  1.8158 -0.0423  0.9528
26250SOL    HW280951   7.476   5.029   4.681  0.1705 -1.3380 -0.3532
26251SOL     OW80952   4.344   5.200   2.632 -0.1171 -0.5698 -0.0470
26251SOL    HW180953   4.411   5.135   2.655 -0.2906 -1.6391 -2.2386
26251SOL    HW280954   4.261   5.153   2.640 -0.5246  0.3470  1.3436
26252SOL     OW80955   2.500   2.110   1.247  0.0687  0.0350  0.1951
26252SOL    HW180956   2.587   2.118   1.287 -0.4684 -0.6522  1.5344
26252SOL    HW280957   2.446   2.173   1.295 -0.5284 -0.6162  0.3847
26253SOL     OW80958   2.064   0.367   3.656 -0.7888  0.4533 -0.1726
26253SOL    HW180959   1.976   0.355   3.622 -0.7653 -0.7747  0.1202
26253SOL    HW280960   2.054   0.367   3.751 -0.5152  0.6679 -0.1418
26254SOL     OW80961   3.728   3.678   8.244  0.1962 -0.4162  0.1401
26254SOL    HW180962   3.811   3.720   8.267  0.5228 -1.5787  1.2289
26254SOL    HW280963   3.751   3.586   8.232 -1.0765 -0.9580  1.4930
26255SOL     OW80964   3.244   3.721   7.575 -0.3626 -0.0248  0.5284
26255SOL    HW180965   3.284   3.719   7.662 -0.1209  1.0362  0.4544
26255SOL    HW280966   3.298   3.783   7.525  0.9100 -2.3244 -1.0996
26256SOL     OW80967   6.977   7.219   2.041  0.2702 -0.4409  0.0662
26256SOL    HW180968   6.954   7.280   1.971  0.8858 -0.3143 -0.0290
26256SOL    HW280969   6.920   7.244   2.114 -1.1640 -1.2700 -0.7200
26257SOL     OW80970   5.855   2.828   3.185 -0.3795 -0.2621  0.0433
26257SOL    HW180971   5.822   2.910   3.150  0.7734  0.1734 -0.0289
26257SOL    HW280972   5.950   2.836   3.183 -0.2288 -0.3113  2.9970
26258SOL     OW80973   7.534   7.530   1.868 -0.0577 -0.0941 -0.2611
26258SOL    HW180974   7.451   7.483   1.876 -0.8334  1.3353  0.7220
26258SOL    HW280975   7.534   7.590   1.943  1.8571 -0.0218 -0.2736
26259SOL     OW80976   5.154   8.707   6.383  0.1713  0.3004 -0.2168
26259SOL    HW180977   5.233   8.747   6.420  0.9014  0.8549 -2.2313
26259SOL    HW280978   5.086   8.773   6.395  0.4153  0.5160  0.0133
26260SOL     OW80979   7.383   4.339   4.565  0.8749 -0.4049 -0.0204
26260SOL    HW180980   7.428   4.332   4.480  0.2158  0.1172 -0.4274
26260SOL    HW280981   7.453   4.344   4.629  1.4001 -0.0609 -0.6033
26261SOL     OW80982   0.622   8.361   3.791 -0.3669  0.2826 -0.0503
26261SOL    HW180983   0.530   8.337   3.788 -0.4560  0.6400 -0.1611
26261SOL    HW280984   0.638   8.380   3.884  0.0288 -1.4548  0.2692
26262SOL     OW80985   8.997   7.196   6.023 -0.2822  0.3718  0.3140
26262SOL    HW180986   9.074   7.190   6.079 -1.7081  2.0565  2.6259
26262SOL    HW280987   8.981   7.105   5.996  2.7438  0.0317 -0.7425
26263SOL     OW80988   2.684   9.194   4.622  0.0629  0.3072 -0.3982
26263SOL    HW180989   2.764   9.159   4.581  0.4361  0.6371  0.0334
26263SOL    HW280990   2.670   9.138   4.698 -0.6025 -0.2743 -0.9362
26264SOL     OW80991   8.442   5.059   5.026  0.1144  0.0177 -0.6287
26264SOL    HW180992   8.365   5.113   5.008  0.4054  0.6837  0.0643
26264SOL    HW280993   8.438   5.040   5.119  0.0866 -1.0789 -0.8390
26265SOL     OW80994   9.228   7.572   9.137  0.1643  0.5447 -0.4277
26265SOL    HW180995   9.285   7.510   9.093 -1.0133  0.1464 -1.4739
26265SOL    HW280996   9.216   7.643   9.073 -0.9478  0.3372 -0.4757
26266SOL     OW80997   3.471   7.361   0.819 -0.4594 -0.5006  0.2135
26266SOL    HW180998   3.531   7.432   0.840  0.4742 -0.6359 -1.8093
26266SOL    HW280999   3.411   7.397   0.754 -1.1933 -1.0184  0.5814
26267SOL     OW81000   6.144   2.185   0.877 -0.1591  0.4993  1.0218
26267SOL    HW181001   6.123   2.242   0.803 -2.0126 -2.1546 -0.6512
26267SOL    HW281002   6.210   2.125   0.843 -2.0657 -1.6849  0.8823
26268SOL     OW81003   5.706   7.371   0.652 -0.4255  0.3923 -0.1567
26268SOL    HW181004   5.730   7.302   0.714  0.1590 -0.4999 -1.3290
26268SOL    HW281005   5.631   7.414   0.692 -0.7843 -0.9076  0.6361
26269SOL     OW81006   4.342   7.646   7.491  0.3451  0.7007 -0.0374
26269SOL    HW181007   4.363   7.655   7.584 -0.9944  0.9083  0.2599
26269SOL    HW281008   4.256   7.686   7.481  1.3665  2.6534 -1.7985
26270SOL     OW81009   3.198   5.845   7.312 -0.5179 -0.1047  0.1359
26270SOL    HW181010   3.124   5.827   7.370 -0.2275  0.0565  0.5629
26270SOL    HW281011   3.214   5.761   7.268 -0.5037 -0.3331  0.5648
26271SOL     OW81012   2.224   3.555   0.228 -0.2089  0.5528 -0.7862
26271SOL    HW181013   2.137   3.577   0.262 -0.7451  0.7764 -2.2168
26271SOL    HW281014   2.224   3.460   0.222 -0.1236  0.5144 -0.2161
26272SOL     OW81015   9.539   0.355   7.688 -0.5677  0.3220  0.4617
26272SOL    HW181016   9.511   0.395   7.770 -1.0482 -0.0172  0.4687
26272SOL    HW281017   9.465   0.300   7.661 -0.7179  1.0019 -0.5894
26273SOL     OW81018   4.590   9.485   2.882  0.3261 -0.2082 -0.3234
26273SOL    HW181019   4.633   9.569   2.866  4.7081 -1.8667  1.2619
26273SOL    HW281020   4.625   9.427   2.815 -2.0251 -1.1045 -0.9023
26274SOL     OW81021   9.210   4.604   0.641  0.0228 -0.6785  0.3478
26274SOL    HW181022   9.286   4.657   0.616  0.5571 -1.6073 -0.0356
26274SOL    HW281023   9.244   4.515   0.647 -0.3106 -0.7157  3.2718
26275SOL     OW81024   8.170   4.583   7.663  0.4931 -0.0233  0.3370
26275SOL    HW181025   8.187   4.633   7.583  2.0743  0.5479  0.9860
26275SOL    HW281026   8.202   4.495   7.642 -1.0318 -0.4596 -0.3360
26276SOL     OW81027   3.962   8.529   8.480 -0.1676  0.3247  0.1739
26276SOL    HW181028   4.052   8.551   8.455 -0.6824  0.3172 -1.8492
26276SOL    HW281029   3.970   8.496   8.570  1.5007  2.6962  1.0190
26277SOL     OW81030   5.170   3.464   1.966 -0.2688 -0.0006  0.0731
26277SOL    HW181031   5.114   3.523   2.017  1.1672  0.3326  1.3378
26277SOL    HW281032   5.150   3.484   1.875 -1.2335  1.0456  0.4928
26278SOL     OW81033   9.353   2.199   1.002  0.0189 -0.2426 -0.3569
26278SOL    HW181034   9.280   2.224   0.945  0.5983 -0.5698 -1.2589
26278SOL    HW281035   9.430   2.241   0.963  0.5315 -1.0211 -0.2034
26279SOL     OW81036   7.686   0.660   7.312  0.5979  0.2835  0.1090
26279SOL    HW181037   7.643   0.704   7.386 -1.0844 -0.2694 -0.4952
26279SOL    HW281038   7.708   0.573   7.346 -0.8759 -0.2450 -0.2423
26280SOL     OW81039   8.976   5.475   3.125 -0.5640  0.1477  0.2016
26280SOL    HW181040   9.008   5.563   3.143 -0.4504 -0.3150  2.5468
26280SOL    HW281041   9.055   5.422   3.115 -0.5740 -0.1518  1.4956
26281SOL     OW81042   4.361   6.981   1.147  0.1181 -1.1437  0.0992
26281SOL    HW181043   4.342   6.901   1.195 -0.6103 -1.1743 -0.2269
26281SOL    HW281044   4.275   7.022   1.133  0.6355  0.9657  2.4108
26282SOL     OW81045   4.647   6.812   4.534 -0.0483  0.5699  0.3830
26282SOL    HW181046   4.566   6.802   4.583  0.3101  1.2614  1.1524
26282SOL    HW281047   4.620   6.815   4.442 -0.7655 -0.4263  0.5494
26283SOL     OW81048   4.483   0.422   8.042  0.0308  0.7978 -0.1928
26283SOL    HW181049   4.425   0.450   8.114  1.4471  1.5887  0.6887
26283SOL    HW281050   4.468   0.328   8.035 -0.1615  0.7073  1.1429
26284SOL     OW81051   0.277   2.845   4.008  0.1246  0.0780 -0.5619
26284SOL    HW181052   0.217   2.819   4.078  1.8908 -0.4496  0.8456
26284SOL    HW281053   0.347   2.893   4.053  0.9724  0.3054 -2.0574
26285SOL     OW81054   1.102   4.913   0.643  0.4482 -0.0429  0.2902
26285SOL    HW181055   1.142   4.894   0.558  1.7939  1.0602  0.6412
26285SOL    HW281056   1.055   4.995   0.630  0.5786  0.0798  0.5725
26286SOL     OW81057   7.030   0.876   8.654 -0.1755  0.2744  0.5571
26286SOL    HW181058   7.061   0.951   8.604  1.3084 -0.4609  0.2963
26286SOL    HW281059   7.000   0.913   8.737  2.2876  1.0143  1.1976
26287SOL     OW81060   7.612   8.560   7.652  0.1171 -0.4111 -0.0465
26287SOL    HW181061   7.563   8.526   7.577 -1.0584 -0.3416  0.6656
26287SOL    HW281062   7.621   8.485   7.711 -0.2514 -0.1130  0.3933
26288SOL     OW81063   2.144   7.859   7.052  0.3818 -0.6822 -0.0875
26288SOL    HW181064   2.104   7.880   7.136  0.8468 -0.9265  0.2024
26288SOL    HW281065   2.153   7.764   7.052  1.4847 -0.5971  0.1145
26289SOL     OW81066   0.230   4.430   7.756  0.1374 -0.0682 -0.6717
26289SOL    HW181067   0.216   4.345   7.799 -0.8948 -0.6925 -2.1470
26289SOL    HW281068   0.272   4.484   7.823 -0.2643 -1.3684  0.6942
26290SOL     OW81069   6.491   2.509   5.951  0.0137  0.1729  0.5260
26290SOL    HW181070   6.525   2.424   5.979  0.6274  1.0461  2.7131
26290SOL    HW281071   6.497   2.508   5.856  0.2914 -2.0954  0.5200
26291SOL     OW81072   0.546   8.145   0.352 -0.2118 -0.4871  0.4129
26291SOL    HW181073   0.519   8.067   0.399 -1.6097 -0.0208  0.4239
26291SOL    HW281074   0.620   8.180   0.403 -1.0263 -0.5643  1.6761
26292SOL     OW81075   0.362   1.458   3.614 -0.2271 -0.0758 -0.0403
26292SOL    HW181076   0.338   1.528   3.553  1.4697 -0.2858 -1.0279
26292SOL    HW281077   0.447   1.428   3.582 -0.0942 -1.3664  1.4474
26293SOL     OW81078   3.624   3.635   1.335  0.5469 -0.3068 -0.2672
26293SOL    HW181079   3.713   3.671   1.335  0.3377  0.2166  0.0621
26293SOL    HW281080   3.629   3.560   1.276  0.8986  0.4915 -1.2862
26294SOL     OW81081   3.891   0.483   2.529  0.7420  0.1756 -0.0808
26294SOL    HW181082   3.958   0.447   2.586 -0.6139 -1.1033  0.7536
26294SOL    HW281083   3.810   0.476   2.579 -0.1464  1.0400 -1.3348
26295SOL     OW81084   2.578   8.995   2.383  0.0339  0.1548 -0.7876
26295SOL    HW181085   2.569   8.919   2.326  2.2367 -2.1327  1.6221
26295SOL    HW281086   2.494   9.002   2.429  0.4216 -2.1818  0.3974
26296SOL     OW81087   0.206   1.205   8.481 -0.0059 -0.1027  0.2203
26296SOL    HW181088   0.122   1.161   8.486  0.6124 -1.2906  0.5179
26296SOL    HW281089   0.265   1.150   8.532  1.2576 -0.0268 -1.0966
26297SOL     OW81090   7.268   5.140   7.103 -0.0597 -0.3502  0.3000
26297SOL    HW181091   7.204   5.211   7.110 -0.4680 -0.7418  0.6214
26297SOL    HW281092   7.344   5.180   7.062 -0.8357 -0.0821 -0.9425
26298SOL     OW81093   7.392   0.700   5.926  0.2384 -0.4561 -0.3124
26298SOL    HW181094   7.456   0.734   5.863 -1.3575  0.0627 -1.7416
26298SOL    HW281095   7.377   0.773   5.986 -1.5977  0.7819 -2.1204
26299SOL     OW81096   5.168   6.301   1.536  1.2487  0.3794 -0.3757
26299SOL    HW181097   5.168   6.212   1.501  0.6159  0.2196  0.0205
26299SOL    HW281098   5.219   6.352   1.472  2.1419 -0.3811 -0.2894
26300SOL     OW81099   4.604   6.722   8.057 -0.0430  0.6815  0.0097
26300SOL    HW181100   4.519   6.681   8.069 -1.6824  4.0472  1.0677
26300SOL    HW281101   4.604   6.796   8.118  3.7282  0.7583  0.1491
26301SOL     OW81102   6.233   8.311   2.580 -0.1641 -0.5741 -0.4185
26301SOL    HW181103   6.218   8.238   2.520  0.6581  0.2051 -1.6277
26301SOL    HW281104   6.241   8.388   2.523  0.1029  0.2902  0.7378
26302SOL     OW81105   8.744   5.469   3.257 -0.2272  0.7325 -0.2880
26302SOL    HW181106   8.837   5.456   3.239  0.0916  1.7612  0.5587
26302SOL    HW281107   8.741   5.512   3.342 -1.5853 -2.2333  1.3577
26303SOL     OW81108   6.777   7.983   5.938 -0.2391 -0.0660 -0.6615
26303SOL    HW181109   6.816   8.029   5.864  0.7985 -0.3149 -0.2825
26303SOL    HW281110   6.846   7.925   5.970 -0.9807 -0.6710 -0.0913
26304SOL     OW81111   1.236   2.130   4.776 -0.0874 -0.1261 -0.2231
26304SOL    HW181112   1.171   2.184   4.822 -0.9394 -0.7934 -0.6063
26304SOL    HW281113   1.320   2.168   4.800 -0.3889 -1.0077  2.7322
26305SOL     OW81114   3.443   2.314   0.518 -0.9480  0.0836  0.7827
26305SOL    HW181115   3.402   2.394   0.552  0.3734  0.2143  2.2116
26305SOL    HW281116   3.456   2.260   0.596  1.1806 -0.1029  0.3400
26306SOL     OW81117   7.204   0.165   6.910  0.0632  0.1659  0.2836
26306SOL    HW181118   7.299   0.172   6.917 -0.0284 -0.1474  2.5913
26306SOL    HW281119   7.188   0.074   6.887  0.3311  0.6211 -1.8976
26307SOL     OW81120   8.238   4.272   8.789 -0.0541 -0.1883  0.0056
26307SOL    HW181121   8.264   4.186   8.823  1.4683  0.4421  0.5540
26307SOL    HW281122   8.171   4.253   8.724 -0.8062 -1.6731  1.1588
26308SOL     OW81123   4.189   3.653   2.039 -0.0739 -0.2948 -0.5255
26308SOL    HW181124   4.144   3.723   1.991 -1.9206  0.6616  2.3533
26308SOL    HW281125   4.255   3.699   2.091  2.3804 -1.3839 -2.4788
26309SOL     OW81126   7.780   2.954   1.837  0.5045  0.3819  0.4127
26309SOL    HW181127   7.737   2.975   1.754 -0.2517  0.8884  0.9174
26309SOL    HW281128   7.848   2.891   1.814  0.4011  0.6350 -0.6101
26310SOL     OW81129   3.785   0.034   7.250  0.2490 -0.7258  0.1133
26310SOL    HW181130   3.692   0.045   7.229 -0.1066 -0.7600  1.5330
26310SOL    HW281131   3.831   0.079   7.179 -0.9433  2.2098  1.0109
26311SOL     OW81132   7.722   6.322   1.894 -0.6162  0.6836  0.1744
26311SOL    HW181133   7.698   6.271   1.817 -0.4792 -0.1796  0.6916
26311SOL    HW281134   7.667   6.286   1.964  0.6451  0.1166  0.9110
26312SOL     OW81135   3.144   0.871   6.800 -0.3194 -0.0575 -0.3853
26312SOL    HW181136   3.151   0.812   6.726 -2.1086 -0.1130 -0.5439
26312SOL    HW281137   3.142   0.814   6.877  0.2464 -0.0596 -0.3635
26313SOL     OW81138   1.300   6.312   4.438  0.3989  0.1406  0.1910
26313SOL    HW181139   1.394   6.327   4.437  0.2800  0.9848  0.8612
26313SOL    HW281140   1.291   6.218   4.422  1.3845 -0.0854  0.9037
26314SOL     OW81141   8.518   0.898   3.652  0.0693 -0.3482 -0.4981
26314SOL    HW181142   8.546   0.866   3.738 -0.1071  2.1902  0.5865
26314SOL    HW281143   8.590   0.953   3.622 -1.1275  1.3109 -0.4911
26315SOL     OW81144   8.502   0.717   2.533  0.1345  0.3891  0.7444
26315SOL    HW181145   8.531   0.729   2.623  1.7171  0.2777  0.2875
26315SOL    HW281146   8.528   0.798   2.488  0.8014 -0.1732  0.0741
26316SOL     OW81147   6.789   1.754   7.541 -0.1406 -0.5158  0.4333
26316SOL    HW181148   6.862   1.757   7.480  1.1217 -0.4588  1.8993
26316SOL    HW281149   6.747   1.669   7.523  1.4712 -1.4523  0.8877
26317SOL     OW81150   3.538   1.002   3.939  0.1995  0.5420  0.1136
26317SOL    HW181151   3.467   1.017   3.877  0.7381  1.3645 -0.3206
26317SOL    HW281152   3.608   0.963   3.885 -0.1520 -0.9157  0.6680
26318SOL     OW81153   2.017   6.418   2.971 -0.0352 -0.4214 -0.8256
26318SOL    HW181154   1.986   6.499   3.011  0.1162 -1.0488  0.6193
26318SOL    HW281155   2.113   6.424   2.973 -0.0148 -0.1239 -1.8479
26319SOL     OW81156   4.359   2.090   4.857  0.4429  0.0267  0.3897
26319SOL    HW181157   4.361   2.133   4.943 -0.0265 -0.7260  0.7930
26319SOL    HW281158   4.385   2.000   4.876  0.5991 -0.0766 -0.3057
26320SOL     OW81159   7.199   2.536   2.658  0.0425  0.4586 -0.3029
26320SOL    HW181160   7.209   2.579   2.742 -2.7206 -1.6694  1.2963
26320SOL    HW281161   7.228   2.446   2.673 -1.9698 -0.3846 -1.0744
26321SOL     OW81162   2.234   3.400   1.260  0.3148 -0.0273 -0.6825
26321SOL    HW181163   2.288   3.330   1.296  0.1632 -0.4347 -1.2353
26321SOL    HW281164   2.144   3.370   1.275  0.2195  0.7788  0.4979
26322SOL     OW81165   8.798   5.870   3.306  0.0650 -0.2241  0.0654
26322SOL    HW181166   8.827   5.817   3.380 -1.2314 -1.8575 -0.5352
26322SOL    HW281167   8.716   5.909   3.335 -1.0513 -1.7935 -0.8496
26323SOL     OW81168   7.748   1.856   5.226 -0.0269  0.4035  0.8399
26323SOL    HW181169   7.828   1.879   5.273  0.1021  0.4848  0.5832
26323SOL    HW281170   7.773   1.856   5.134  0.2987 -2.0014  0.8666
26324SOL     OW81171   5.665   5.378   5.120 -0.1569 -0.6926 -0.3973
26324SOL    HW181172   5.671   5.464   5.078  0.3199 -0.4002  0.2531
26324SOL    HW281173   5.755   5.346   5.123 -0.5055 -2.0636 -2.3214
26325SOL     OW81174   5.076   9.150   0.844 -0.1550 -0.0231 -0.1915
26325SOL    HW181175   5.163   9.111   0.841  0.1948  0.8216 -1.7936
26325SOL    HW281176   5.020   9.090   0.795 -1.0042 -1.6223  2.4831
26326SOL     OW81177   0.890   8.757   7.265 -0.1241 -0.8468  0.2172
26326SOL    HW181178   0.874   8.683   7.207 -0.8831  0.1423 -0.8801
26326SOL    HW281179   0.832   8.826   7.233 -1.2604 -0.5227  2.6997
26327SOL     OW81180   8.177   3.017   3.620  0.2754  0.3103  0.5811
26327SOL    HW181181   8.225   2.937   3.643  0.2795 -0.2666 -1.2811
26327SOL    HW281182   8.105   2.986   3.565 -0.2634  1.5123  0.5859
26328SOL     OW81183   7.122   8.198   2.637  0.1451 -0.4784  0.1590
26328SOL    HW181184   7.088   8.125   2.586 -0.3601  2.0398 -3.5002
26328SOL    HW281185   7.071   8.196   2.718 -0.7544 -3.3354 -0.3509
26329SOL     OW81186   9.140   7.673   8.384 -0.0876 -0.2221 -0.4201
26329SOL    HW181187   9.082   7.696   8.311 -0.6012  0.9233  0.3269
26329SOL    HW281188   9.201   7.610   8.347 -1.4564 -1.0296 -1.3788
26330SOL     OW81189   3.459   1.388   0.977  0.3883 -0.2077  0.3592
26330SOL    HW181190   3.384   1.396   0.918 -0.6433  0.8449  1.7634
26330SOL    HW281191   3.433   1.434   1.057  2.6305  0.4040  0.8156
26331SOL     OW81192   6.907   1.469   2.389  1.0620 -0.2969  0.0872
26331SOL    HW181193   6.850   1.498   2.460  0.8290  0.2607 -0.3214
26331SOL    HW281194   6.883   1.377   2.375  2.4061 -0.9704  1.9713
26332SOL     OW81195   4.117   5.301   9.409 -0.3549  0.4069 -0.6699
26332SOL    HW181196   4.069   5.258   9.339 -0.8305 -1.5621  0.7741
26332SOL    HW281197   4.195   5.247   9.423  1.3428  2.4460 -1.6281
26333SOL     OW81198   7.442   6.255   7.499  0.2484  0.2455  0.0457
26333SOL    HW181199   7.448   6.315   7.424 -0.4686  1.0647  0.6248
26333SOL    HW281200   7.442   6.312   7.576  0.8918 -0.5854  0.6774
26334SOL     OW81201   0.611   4.289   8.918 -0.5931  0.8603 -0.8367
26334SOL    HW181202   0.599   4.384   8.930 -0.2258  0.6673  1.5116
26334SOL    HW281203   0.572   4.250   8.996  2.7654 -0.6444  0.2772
26335SOL     OW81204   8.762   4.046   8.789  0.2811  0.7028  0.0819
26335SOL    HW181205   8.706   4.057   8.866 -0.5259 -0.6743 -0.2752
26335SOL    HW281206   8.845   4.015   8.825  0.6250  2.0865  0.5545
26336SOL     OW81207   0.506   2.018   1.810  0.6975  0.6149  0.0052
26336SOL    HW181208   0.465   2.080   1.870 -1.1812 -0.2123 -0.3437
26336SOL    HW281209   0.488   2.053   1.723  0.1356 -0.0783 -0.1709
26337SOL     OW81210   0.232   2.359   6.185  0.4221 -0.1361 -0.0280
26337SOL    HW181211   0.169   2.287   6.192  1.2864 -0.8329  0.8360
26337SOL    HW281212   0.304   2.323   6.133  1.4065 -0.3366  1.4012
26338SOL     OW81213   7.351   2.926   9.512  0.1238 -0.4050 -0.2840
26338SOL    HW181214   7.356   2.850   9.570  0.4606 -0.5095 -0.4511
26338SOL    HW281215   7.365   2.891   9.424 -0.4848 -0.2592 -0.4404
26339SOL     OW81216   3.050   2.413   7.766 -0.7546  0.2804 -0.4018
26339SOL    HW181217   3.075   2.323   7.789  2.5892  1.1671 -0.0349
26339SOL    HW281218   3.024   2.408   7.674  0.5005 -0.9132 -0.7217
26340SOL     OW81219   1.130   8.209   4.123  0.5581 -0.4187  0.4322
26340SOL    HW181220   1.133   8.145   4.194  1.4915 -1.0285 -0.1269
26340SOL    HW281221   1.192   8.175   4.058 -1.8423 -1.0456 -1.6656
26341SOL     OW81222   1.462   4.139   2.462  0.1460 -0.5847 -0.7183
26341SOL    HW181223   1.447   4.049   2.491  0.9953 -1.0204 -1.5556
26341SOL    HW281224   1.510   4.180   2.533  0.2946 -0.9822 -0.5892
26342SOL     OW81225   1.452   7.905   6.670 -0.2930  0.3448 -0.0388
26342SOL    HW181226   1.478   7.954   6.592  0.6836  0.6365  0.4534
26342SOL    HW281227   1.394   7.964   6.718 -0.1054  0.5446 -0.0571
26343SOL     OW81228   2.925   7.646   5.512  0.3176  0.4786  0.2514
26343SOL    HW181229   2.891   7.562   5.543  0.5604  0.2116 -0.2021
26343SOL    HW281230   2.941   7.633   5.418  0.5062  0.9800  0.2102
26344SOL     OW81231   8.237   1.232   0.008 -0.0680 -0.1694  0.2096
26344SOL    HW181232   8.181   1.309   0.011 -0.4823 -0.4878  1.1359
26344SOL    HW281233   8.266   1.220   0.099  0.6683 -0.6115 -0.0747
26345SOL     OW81234   2.212   6.795   0.239 -0.1956 -0.0335  0.0949
26345SOL    HW181235   2.150   6.742   0.190  0.1010  0.2930 -0.6430
26345SOL    HW281236   2.199   6.768   0.330  0.3389 -1.8024 -0.2939
26346SOL     OW81237   9.298   4.467   5.474  0.4166  0.1294  0.2586
26346SOL    HW181238   9.239   4.472   5.398 -0.4650  0.3099  0.9309
26346SOL    HW281239   9.288   4.378   5.507 -0.9851  0.6954  1.5054
26347SOL     OW81240   6.862   9.026   3.071 -0.0699 -0.1155 -1.1042
26347SOL    HW181241   6.777   9.002   3.034 -0.2109  1.7191 -2.0752
26347SOL    HW281242   6.881   9.112   3.035  0.2285  1.4323  2.3988
26348SOL     OW81243   4.554   1.338   6.513  0.1446  0.2535  0.0132
26348SOL    HW181244   4.613   1.367   6.582 -0.5367  0.0159  0.7136
26348SOL    HW281245   4.597   1.363   6.431  0.8446  0.7549  0.5317
26349SOL     OW81246   2.728   3.640   6.153  0.2267  0.0965 -0.0514
26349SOL    HW181247   2.742   3.574   6.221  1.6558  0.3857 -0.0365
26349SOL    HW281248   2.643   3.679   6.175  0.1369 -0.5905  0.8971
26350SOL     OW81249   1.188   1.803   3.392 -0.1996 -0.1737  0.8596
26350SOL    HW181250   1.128   1.867   3.430  0.5935  0.2057  1.5059
26350SOL    HW281251   1.220   1.845   3.312 -1.0742 -0.5415  0.2981
26351SOL     OW81252   6.151   0.332   4.705  0.0804  1.0943  0.4379
26351SOL    HW181253   6.162   0.409   4.761  0.5778  2.8467 -1.9139
26351SOL    HW281254   6.217   0.342   4.637  1.1362 -2.2050  0.7627
26352SOL     OW81255   8.123   4.711   6.771  0.2336 -0.3780 -0.3893
26352SOL    HW181256   8.119   4.682   6.862 -0.0939  0.3600 -0.1589
26352SOL    HW281257   8.154   4.635   6.722  2.5702 -0.1743  0.6335
26353SOL     OW81258   0.893   1.391   8.816 -0.3724 -0.7590  0.1756
26353SOL    HW181259   0.852   1.443   8.885  3.0112  1.1254  0.9905
26353SOL    HW281260   0.895   1.449   8.740  0.8839 -0.7014  0.2302
26354SOL     OW81261   5.323   0.258   6.650  0.1643 -0.2209 -0.1016
26354SOL    HW181262   5.365   0.187   6.699 -1.1802 -0.3406  0.9339
26354SOL    HW281263   5.372   0.336   6.676 -0.4434 -0.3010  1.3767
26355SOL     OW81264   2.207   1.674   3.162  0.1472 -0.4362  0.0510
26355SOL    HW181265   2.285   1.730   3.159  0.4428 -0.8586 -0.1394
26355SOL    HW281266   2.139   1.731   3.198  0.2679  0.2608 -0.7775
26356SOL     OW81267   0.558   3.557   3.074  0.1262 -0.1093  0.3646
26356SOL    HW181268   0.600   3.627   3.124  0.8381 -0.8248  0.7944
26356SOL    HW281269   0.593   3.567   2.986  2.2830 -1.4518  0.9675
26357SOL     OW81270   9.158   7.204   8.890  0.0157  0.0358 -1.4374
26357SOL    HW181271   9.122   7.161   8.812 -1.2165  0.1544 -0.9505
26357SOL    HW281272   9.136   7.145   8.962 -0.9992  1.0682 -0.8682
26358SOL     OW81273   9.061   9.414   3.803 -0.0464  0.4683 -0.0354
26358SOL    HW181274   9.053   9.324   3.772 -1.7168  0.5146  0.1478
26358SOL    HW281275   9.113   9.408   3.883 -0.2023 -0.3496  0.0087
26359SOL     OW81276   3.717   7.306   4.603 -0.2020 -0.2958 -0.2463
26359SOL    HW181277   3.750   7.389   4.638  0.3471 -0.2118 -0.9530
26359SOL    HW281278   3.783   7.278   4.539 -0.7844 -0.8576 -0.6164
26360SOL     OW81279   2.406   1.823   4.850 -0.2470  0.4715  0.1826
26360SOL    HW181280   2.496   1.803   4.877  0.3726  2.4358 -0.1853
26360SOL    HW281281   2.382   1.752   4.792  1.6276  0.5783 -0.8184
26361SOL     OW81282   0.618   2.588   8.829  0.5008 -0.5552 -0.4976
26361SOL    HW181283   0.647   2.676   8.852  1.8268 -1.0071 -0.3304
26361SOL    HW281284   0.699   2.541   8.809 -0.3350 -1.0642 -3.0315
26362SOL     OW81285   5.155   6.406   3.915  0.4640  0.2690  0.8035
26362SOL    HW181286   5.217   6.475   3.940  1.5128  0.2235 -1.4046
26362SOL    HW281287   5.208   6.326   3.912 -0.2631 -0.2450  1.2131
26363SOL     OW81288   3.170   6.042   7.027  0.1008 -0.0672 -0.3612
26363SOL    HW181289   3.202   6.126   7.060 -0.3220  0.0065 -0.1406
26363SOL    HW281290   3.247   5.984   7.030  0.6099  0.5254 -1.2883
26364SOL     OW81291   0.148   3.468   1.513  0.2744 -0.1883  0.2200
26364SOL    HW181292   0.094   3.507   1.444  0.1220  1.6630  1.3329
26364SOL    HW281293   0.148   3.374   1.493  0.6585  0.3312 -2.5738
26365SOL     OW81294   5.815   8.875   5.943  0.0801  0.1886  0.0112
26365SOL    HW181295   5.778   8.878   6.031 -0.7070 -1.8518 -0.1805
26365SOL    HW281296   5.860   8.790   5.939  1.4398  0.9155 -1.0651
26366SOL     OW81297   5.045   3.014   1.875 -0.3254  0.2940  0.4200
26366SOL    HW181298   4.969   3.012   1.933 -0.8362  0.7141 -0.2175
26366SOL    HW281299   5.112   3.061   1.925 -0.2884 -0.5739  1.2069
26367SOL     OW81300   3.125   7.422   3.018  0.0975  0.5333 -0.3539
26367SOL    HW181301   3.094   7.374   3.095  2.0943 -0.9198 -0.3825
26367SOL    HW281302   3.215   7.446   3.040 -1.0740  5.5342  0.2020
26368SOL     OW81303   3.319   9.240   2.084 -0.1567  0.1141 -0.1727
26368SOL    HW181304   3.347   9.206   1.999 -0.0085 -2.2425  0.7352
26368SOL    HW281305   3.228   9.268   2.071 -0.4995 -1.2664 -0.8641
26369SOL     OW81306   7.682   5.220   8.101 -0.8798 -0.1690 -0.1941
26369SOL    HW181307   7.649   5.297   8.054 -0.5760 -0.7393 -1.3969
26369SOL    HW281308   7.760   5.252   8.146 -1.1695  0.3968 -0.0796
26370SOL     OW81309   5.326   0.184   6.387  0.2120  0.2178  0.4802
26370SOL    HW181310   5.342   0.231   6.469 -2.3283  1.1979  0.5010
26370SOL    HW281311   5.385   0.226   6.324 -1.6471  3.2913  0.5981
26371SOL     OW81312   9.488   6.642   0.284 -0.0517  0.7119 -0.0826
26371SOL    HW181313   9.494   6.733   0.253 -2.3035  0.3339 -1.8706
26371SOL    HW281314   9.507   6.589   0.206 -0.4578 -0.3441  0.5244
26372SOL     OW81315   4.711   8.799   2.645  0.2781  0.2186  0.5830
26372SOL    HW181316   4.622   8.772   2.624  1.1309 -2.1375 -0.3586
26372SOL    HW281317   4.700   8.876   2.702 -2.2676  1.7613 -1.7478
26373SOL     OW81318   4.715   7.055   7.982 -0.4171 -0.2153  0.1858
26373SOL    HW181319   4.784   7.026   8.042  0.1436  1.0989  0.2135
26373SOL    HW281320   4.634   7.038   8.029  0.0294  1.4707  1.7058
26374SOL     OW81321   0.039   6.869   9.126  0.4033  0.6432 -0.5199
26374SOL    HW181322   0.117   6.888   9.179 -0.0519 -1.2726  0.9526
26374SOL    HW281323   0.025   6.949   9.075  3.0659  1.2114 -0.5323
26375SOL     OW81324   0.590   0.430   9.150 -0.2190 -0.2372  0.0378
26375SOL    HW181325   0.632   0.437   9.065 -0.0813  0.5274  0.1542
26375SOL    HW281326   0.654   0.466   9.212 -1.0079  0.9545  0.2098
26376SOL     OW81327   2.199   5.830   0.935  0.2059  0.0650  0.2231
26376SOL    HW181328   2.168   5.921   0.938 -1.8592 -0.6130  0.7562
26376SOL    HW281329   2.280   5.831   0.985  0.8446  1.8209 -0.7332
26377SOL     OW81330   4.246   6.222   2.249 -0.5913  0.4217 -0.4922
26377SOL    HW181331   4.157   6.231   2.216 -1.0079 -1.9672 -0.1579
26377SOL    HW281332   4.235   6.192   2.339  0.5801  1.6569  0.1016
26378SOL     OW81333   7.479   2.352   7.641 -0.1734 -0.0211 -0.0491
26378SOL    HW181334   7.403   2.390   7.596 -0.2653  0.4461  0.4917
26378SOL    HW281335   7.477   2.391   7.728  0.6187 -0.1015  0.0090
26379SOL     OW81336   4.105   1.598   5.152 -0.2860 -0.1211  0.3139
26379SOL    HW181337   4.105   1.639   5.238 -1.2204  0.5290  0.0324
26379SOL    HW281338   4.032   1.641   5.106 -0.1452 -0.8409 -0.6065
26380SOL     OW81339   3.215   0.973   5.801 -0.0072  0.4374 -0.4428
26380SOL    HW181340   3.148   0.904   5.798 -1.0823  1.4330 -0.0720
26380SOL    HW281341   3.173   1.048   5.759  0.7400  1.1976  0.1525
26381SOL     OW81342   1.418   9.070   5.296  0.2500 -0.2169  0.2280
26381SOL    HW181343   1.405   9.011   5.222 -2.4246 -1.0311  1.2415
26381SOL    HW281344   1.372   9.150   5.271  2.3318  0.8701 -0.3791
26382SOL     OW81345   6.206   1.568   2.032 -0.5974  0.4635  0.0633
26382SOL    HW181346   6.243   1.579   1.944 -0.4549  1.0210  0.1904
26382SOL    HW281347   6.267   1.614   2.090 -0.9510  0.5138  0.4000
26383SOL     OW81348   9.473   7.727   1.053 -0.4185 -0.1702  0.2420
26383SOL    HW181349   9.482   7.706   1.145  0.1477 -2.5739 -0.3159
26383SOL    HW281350   9.558   7.763   1.028 -0.4160  0.0334  0.5374
26384SOL     OW81351   6.949   4.887   6.964  0.5933  0.9764 -0.5745
26384SOL    HW181352   6.941   4.795   6.939 -1.4378 -0.5554  4.4055
26384SOL    HW281353   6.878   4.931   6.917 -0.2838 -0.6405 -0.8370
26385SOL     OW81354   9.433   7.806   3.827 -0.2652 -0.4402  0.8391
26385SOL    HW181355   9.349   7.817   3.782 -0.0242 -2.3699 -0.1964
26385SOL    HW281356   9.478   7.739   3.777  0.9622 -1.0897  2.7153
26386SOL     OW81357   5.415   8.578   4.465  0.2036  0.1489  0.1370
26386SOL    HW181358   5.406   8.610   4.375  1.6688  0.0394 -0.0766
26386SOL    HW281359   5.331   8.537   4.484 -0.6197  1.3545 -0.6943
26387SOL     OW81360   6.646   3.404   6.064 -0.0989 -0.0020 -0.3298
26387SOL    HW181361   6.618   3.493   6.042 -3.6022 -0.6837  0.7579
26387SOL    HW281362   6.638   3.400   6.160 -1.8214 -1.9341 -0.4935
26388SOL     OW81363   7.845   5.408   0.415 -0.0551  0.5182 -0.2906
26388SOL    HW181364   7.885   5.332   0.457 -2.1189 -0.4040  0.1451
26388SOL    HW281365   7.831   5.470   0.487 -0.4946  0.3290 -0.2067
26389SOL     OW81366   4.380   8.142   5.072 -0.7590  0.0229  0.5974
26389SOL    HW181367   4.402   8.070   5.013 -1.9199 -0.3022  0.5471
26389SOL    HW281368   4.350   8.100   5.152 -1.3363  0.4463  0.6094
26390SOL     OW81369   2.023   8.887   6.881 -0.0585  0.9487  0.1287
26390SOL    HW181370   2.073   8.903   6.801  0.1855  0.2870  0.1385
26390SOL    HW281371   1.992   8.796   6.871 -0.4725  1.0420  0.5430
26391SOL     OW81372   2.973   9.134   0.578 -0.0260 -0.0326  0.2073
26391SOL    HW181373   2.941   9.186   0.505 -0.1896  0.7141  0.7922
26391SOL    HW281374   2.896   9.086   0.608 -0.2675  0.6069  0.6546
26392SOL     OW81375   4.120   9.119   5.504 -0.4135  0.0412 -0.6278
26392SOL    HW181376   4.119   9.080   5.592  3.4797  0.0979 -0.4208
26392SOL    HW281377   4.107   9.044   5.445  3.1200 -1.1436 -0.0946
26393SOL     OW81378   4.871   8.010   7.789  0.0767 -0.0161  0.4129
26393SOL    HW181379   4.836   7.963   7.714  1.3290  0.4951 -0.5259
26393SOL    HW281380   4.890   7.942   7.854 -0.5335 -0.5115  0.0772
26394SOL     OW81381   1.465   7.546   2.609 -0.3483 -0.2341 -0.1745
26394SOL    HW181382   1.516   7.518   2.685 -0.5512 -1.4544 -0.4667
26394SOL    HW281383   1.530   7.561   2.540 -0.1701  0.8131  0.1884
26395SOL     OW81384   9.454   0.722   0.346  0.4567  0.3889  0.0088
26395SOL    HW181385   9.449   0.726   0.250  0.8163  0.4793 -0.0092
26395SOL    HW281386   9.372   0.681   0.373  1.3475 -1.8186 -0.4753
26396SOL     OW81387   7.873   4.830   1.545 -0.1113  0.1661  0.0504
26396SOL    HW181388   7.812   4.775   1.594  3.1708 -1.7926  2.4232
26396SOL    HW281389   7.884   4.907   1.600 -2.2909  1.8527 -1.7057
26397SOL     OW81390   0.371   6.139   6.855  0.1790 -0.4160  0.1865
26397SOL    HW181391   0.322   6.208   6.812 -0.8543 -0.5192  1.1446
26397SOL    HW281392   0.461   6.173   6.861 -0.0615  0.3369 -0.3869
26398SOL     OW81393   3.440   2.516   9.328 -0.4454 -0.3607 -0.1915
26398SOL    HW181394   3.498   2.451   9.366 -0.8690 -1.3615 -1.1938
26398SOL    HW281395   3.432   2.584   9.395 -0.6018 -1.7055  1.1927
26399SOL     OW81396   8.274   9.491   4.650  0.9185 -0.0286 -0.1537
26399SOL    HW181397   8.275   9.578   4.690  2.5207 -0.4095  0.7215
26399SOL    HW281398   8.307   9.505   4.561 -1.1461  0.5778 -0.8923
26400SOL     OW81399   1.142   6.188   7.730 -0.1878 -0.3811  0.3111
26400SOL    HW181400   1.101   6.116   7.776 -2.4462  2.1132  2.5210
26400SOL    HW281401   1.221   6.207   7.781  0.0909 -0.8669  0.0703
26401SOL     OW81402   0.364   0.164   6.861 -0.1896 -0.6909  0.1916
26401SOL    HW181403   0.329   0.078   6.886 -0.6854 -0.6697 -0.3971
26401SOL    HW281404   0.287   0.215   6.837  0.1910 -0.4510 -0.5641
26402SOL     OW81405   0.125   6.261   8.696  0.2378 -0.0195 -0.3251
26402SOL    HW181406   0.110   6.167   8.690 -1.6786  0.2501 -0.1971
26402SOL    HW281407   0.109   6.281   8.788 -0.3964  0.5800 -0.5593
26403SOL     OW81408   3.795   5.924   6.724  0.5871 -0.3336  0.2433
26403SOL    HW181409   3.866   5.891   6.779 -0.1707 -0.5757  1.1007
26403SOL    HW281410   3.735   5.850   6.715  0.8838 -0.4153 -1.2458
26404SOL     OW81411   3.924   7.755   0.033 -0.4454  0.2967  0.8881
26404SOL    HW181412   3.880   7.755   0.118  0.4321 -0.5328  1.3584
26404SOL    HW281413   3.920   7.664   0.004 -0.7979  0.5857 -0.0061
26405SOL     OW81414   7.575   1.573   6.706  0.0309  0.2720 -0.1837
26405SOL    HW181415   7.640   1.638   6.734 -0.3099  0.7932 -0.5712
26405SOL    HW281416   7.618   1.489   6.718 -0.1044  0.4541  1.9534
26406SOL     OW81417   5.903   4.416   3.205 -0.2873 -0.2339  0.0980
26406SOL    HW181418   5.878   4.369   3.285 -1.1620  0.4499  0.2298
26406SOL    HW281419   5.949   4.350   3.153 -0.8916 -1.0518  0.5813
26407SOL     OW81420   3.745   7.870   1.833  0.5202 -0.0047 -0.1418
26407SOL    HW181421   3.695   7.933   1.781  0.5452  1.2617  1.3098
26407SOL    HW281422   3.777   7.920   1.908  0.3336 -1.8113  1.2105
26408SOL     OW81423   5.393   1.102   7.097 -0.2059 -0.0543  0.0115
26408SOL    HW181424   5.323   1.066   7.042 -2.0893  0.9916  1.5849
26408SOL    HW281425   5.408   1.190   7.062  1.3774 -0.7595 -1.1886
26409SOL     OW81426   9.322   6.734   2.500 -0.0087 -0.0235 -0.0678
26409SOL    HW181427   9.355   6.644   2.500  0.6002  0.1880 -0.4177
26409SOL    HW281428   9.229   6.726   2.522  0.2805 -0.6424  1.0479
26410SOL     OW81429   6.127   5.443   5.785  0.3333 -0.1568  0.0080
26410SOL    HW181430   6.195   5.376   5.776  1.2085  0.7409 -0.1951
26410SOL    HW281431   6.145   5.506   5.715 -1.0889 -0.2134 -0.4435
26411SOL     OW81432   8.441   8.100   6.731 -0.5697 -0.2683 -0.0341
26411SOL    HW181433   8.452   8.111   6.637 -1.2097  1.9069  0.0895
26411SOL    HW281434   8.483   8.177   6.769 -1.1513 -0.6250  1.3967
26412SOL     OW81435   8.625   1.959   2.836 -0.5978  0.6049  0.5525
26412SOL    HW181436   8.689   1.993   2.773 -1.4662  1.6989  0.2423
26412SOL    HW281437   8.545   2.007   2.817 -1.4318 -0.5116  1.1599
26413SOL     OW81438   4.033   2.177   0.534  0.3142 -0.2002  0.0432
26413SOL    HW181439   3.968   2.157   0.601  0.9295 -1.0562  0.3907
26413SOL    HW281440   4.076   2.094   0.516  0.0084 -0.0417 -1.5851
26414SOL     OW81441   6.832   1.373   6.842  0.0863  0.4569 -0.2461
26414SOL    HW181442   6.883   1.305   6.886  0.7588  1.5674  0.7794
26414SOL    HW281443   6.898   1.431   6.804 -0.4360  1.0452 -0.2790
26415SOL     OW81444   8.916   5.274   0.058 -0.4498  0.0516 -0.5848
26415SOL    HW181445   8.974   5.198   0.053 -1.0405 -0.4623  0.2354
26415SOL    HW281446   8.965   5.338   0.109 -0.0337  0.1521 -1.1002
26416SOL     OW81447   3.828   3.555   7.017  0.9377 -0.5312  0.0002
26416SOL    HW181448   3.921   3.554   6.996  1.1062 -2.9435  0.5793
26416SOL    HW281449   3.784   3.550   6.932  1.3845 -0.9186 -0.2093
26417SOL     OW81450   2.650   2.779   1.782  0.1210 -0.5222  0.2906
26417SOL    HW181451   2.676   2.856   1.730 -2.5756  0.8660  0.8121
26417SOL    HW281452   2.709   2.780   1.857  1.6072 -0.3267 -0.8365
26418SOL     OW81453   8.270   5.348   8.471  0.2468 -0.2259  0.5371
26418SOL    HW181454   8.267   5.372   8.378 -1.8282  2.1838  1.1175
26418SOL    HW281455   8.182   5.315   8.490  0.6664 -0.7291  1.6537
26419SOL     OW81456   9.081   5.036   2.986 -0.0135  0.2730 -0.0307
26419SOL    HW181457   9.023   5.063   3.056 -1.0727  1.1067 -1.1814
26419SOL    HW281458   9.150   5.104   2.985  1.1910 -0.8509  1.4938
26420SOL     OW81459   2.818   3.410   5.972  0.1428 -0.0478  0.7819
26420SOL    HW181460   2.722   3.412   5.979  0.0579 -2.2523  0.9571
26420SOL    HW281461   2.844   3.337   6.028  1.6653 -1.4377 -1.5848
26421SOL     OW81462   3.020   2.432   2.145 -0.0377 -0.0696  0.6349
26421SOL    HW181463   3.062   2.504   2.191  0.2098 -0.1862  0.5948
26421SOL    HW281464   2.939   2.416   2.194  0.8782 -1.1045  1.8895
26422SOL     OW81465   3.612   0.484   8.324  0.0051 -0.0310  0.1103
26422SOL    HW181466   3.578   0.409   8.276 -3.4882  2.5345 -1.8976
26422SOL    HW281467   3.582   0.471   8.414 -2.6434 -0.0551 -0.6850
26423SOL     OW81468   6.698   4.818   5.384  0.2191  0.0431 -0.2014
26423SOL    HW181469   6.707   4.749   5.318 -0.4483  0.4267 -0.6975
26423SOL    HW281470   6.663   4.893   5.336  0.0982  0.4467  0.5131
26424SOL     OW81471   2.409   0.905   2.431 -0.2783 -0.4172  0.2227
26424SOL    HW181472   2.435   0.893   2.522 -2.1081  0.1769  0.8544
26424SOL    HW281473   2.337   0.968   2.434 -1.8856 -2.0432 -1.4026
26425SOL     OW81474   9.468   3.311   3.074 -0.7269  0.4624  0.1274
26425SOL    HW181475   9.482   3.355   3.158 -2.5093 -0.4290  0.9597
26425SOL    HW281476   9.502   3.371   3.009 -0.0960  1.5708  1.4262
26426SOL     OW81477   1.639   4.208   2.947  0.2557  0.3416 -0.4611
26426SOL    HW181478   1.716   4.265   2.944 -0.1767  1.0789  1.1349
26426SOL    HW281479   1.585   4.244   3.018  0.2145 -2.3374  1.0229
26427SOL     OW81480   9.280   4.148   2.811  0.2510 -0.4998 -0.1637
26427SOL    HW181481   9.310   4.112   2.895 -2.0654 -0.1585  0.8615
26427SOL    HW281482   9.262   4.240   2.829 -0.7818 -0.5475 -0.9020
26428SOL     OW81483   6.186   4.653   1.496  0.6919 -0.3428 -0.9061
26428SOL    HW181484   6.218   4.699   1.574 -0.0505 -0.9528 -0.2265
26428SOL    HW281485   6.120   4.711   1.459  2.3249  0.8141 -2.1818
26429SOL     OW81486   1.737   6.093   3.264 -0.1153 -0.3896 -0.9308
26429SOL    HW181487   1.822   6.105   3.306  0.0580  0.1347 -1.4244
26429SOL    HW281488   1.714   6.002   3.282  0.0984 -0.2594  0.0307
26430SOL     OW81489   5.808   7.620   1.409  0.1088  0.7978  0.2668
26430SOL    HW181490   5.805   7.716   1.415  0.6844  0.7970  0.5544
26430SOL    HW281491   5.867   7.602   1.336 -1.1180  0.6748 -0.7370
26431SOL     OW81492   8.973   1.277   8.053  0.2793 -0.0978  0.2467
26431SOL    HW181493   9.030   1.238   7.987 -0.2864 -0.6065  0.0406
26431SOL    HW281494   8.932   1.351   8.009 -0.3480 -0.6328 -0.0951
26432SOL     OW81495   9.572   5.891   2.106  0.1617 -0.1212 -0.2637
26432SOL    HW181496   9.486   5.933   2.110 -0.6106 -1.4154 -1.9351
26432SOL    HW281497   9.607   5.916   2.021  1.6077  0.6361  0.5290
26433SOL     OW81498   6.125   1.120   1.487  0.2791 -0.0796 -0.6366
26433SOL    HW181499   6.202   1.136   1.542 -0.9990  0.2389  1.1340
26433SOL    HW281500   6.112   1.202   1.439  0.0654  0.4706  0.3369
26434SOL     OW81501   0.804   6.683   9.570 -0.4774 -0.5023 -0.4075
26434SOL    HW181502   0.821   6.753   9.507  0.0175 -0.6823 -0.4756
26434SOL    HW281503   0.876   6.622   9.559  0.7143  0.4286  1.6912
26435SOL     OW81504   4.268   6.159   0.428 -0.2176  0.1221  0.2924
26435SOL    HW181505   4.289   6.235   0.374  0.2763 -0.2081  0.0165
26435SOL    HW281506   4.298   6.184   0.516 -2.3602  1.2566  0.7766
26436SOL     OW81507   5.769   6.061   8.542 -0.3119 -0.1626  0.5680
26436SOL    HW181508   5.757   5.993   8.476  0.4945  0.5398 -0.3301
26436SOL    HW281509   5.859   6.049   8.572  0.8321  2.1707 -1.6040
26437SOL     OW81510   6.128   9.222   4.656  0.0918  0.7042  0.6869
26437SOL    HW181511   6.083   9.266   4.728  0.6981 -0.7550  2.0179
26437SOL    HW281512   6.057   9.184   4.603 -0.4162  2.8391 -0.2570
26438SOL     OW81513   9.535   1.262   4.850  0.1360  0.1604 -0.4818
26438SOL    HW181514   9.616   1.283   4.897  0.4706 -1.2161 -0.3964
26438SOL    HW281515   9.475   1.333   4.873  1.4190  1.4038 -0.8362
26439SOL     OW81516   4.568   4.139   2.120 -0.0442 -0.0527 -0.0967
26439SOL    HW181517   4.571   4.050   2.084  1.5639  0.0622 -0.2843
26439SOL    HW281518   4.651   4.150   2.165  0.2972  1.7618 -1.0606
26440SOL     OW81519   5.448   5.424   5.933  0.2729 -0.0548  0.6032
26440SOL    HW181520   5.383   5.431   6.002  0.7434  0.6806  0.9874
26440SOL    HW281521   5.472   5.332   5.931 -0.5939 -0.2809  0.6278
26441SOL     OW81522   2.097   1.681   9.266  0.0568 -0.1073  0.0315
26441SOL    HW181523   2.161   1.688   9.195 -1.0064 -1.7635 -1.1801
26441SOL    HW281524   2.014   1.711   9.227 -0.4425 -0.5808  0.7022
26442SOL     OW81525   0.652   6.153   8.451 -0.3562  0.5193  0.3459
26442SOL    HW181526   0.666   6.125   8.361 -0.1116 -0.2563  0.6094
26442SOL    HW281527   0.571   6.110   8.478  0.9500 -1.5150  1.3317
26443SOL     OW81528   3.711   0.343   5.864  0.0568 -0.3143  0.3645
26443SOL    HW181529   3.790   0.355   5.917  0.6650 -0.5110 -0.4588
26443SOL    HW281530   3.736   0.378   5.778 -1.0174  0.3265  0.3099
26444SOL     OW81531   7.578   9.109   4.300 -0.1782  0.2512 -0.9737
26444SOL    HW181532   7.602   9.079   4.213 -0.4275  0.2910 -1.0566
26444SOL    HW281533   7.484   9.092   4.306 -0.1055 -0.0501 -0.5980
26445SOL     OW81534   6.477   6.154   2.359  0.4919 -0.3303  0.0114
26445SOL    HW181535   6.429   6.103   2.424 -0.4508  0.2536 -0.2095
26445SOL    HW281536   6.570   6.136   2.378  0.2036 -2.4677 -0.3431
26446SOL     OW81537   4.297   1.810   5.512 -0.0718 -1.2824  0.3229
26446SOL    HW181538   4.297   1.849   5.600 -1.1372 -0.6287  0.0481
26446SOL    HW281539   4.379   1.761   5.508  0.2418 -0.8924  1.4950
26447SOL     OW81540   4.259   9.108   0.807  0.0708  0.2413 -0.0508
26447SOL    HW181541   4.229   9.189   0.766 -1.8317 -0.0568  0.6248
26447SOL    HW281542   4.295   9.056   0.735  1.7502  1.8332 -0.4194
26448SOL     OW81543   2.224   0.192   7.928 -0.0801 -0.1574 -0.2267
26448SOL    HW181544   2.254   0.199   8.019 -1.9112 -0.6747  0.4461
26448SOL    HW281545   2.248   0.276   7.889 -1.5153  1.0899  1.4385
26449SOL     OW81546   0.922   4.692   4.155  0.7569 -0.0525 -0.1470
26449SOL    HW181547   0.912   4.635   4.232  0.1003 -2.0357 -1.6288
26449SOL    HW281548   1.014   4.682   4.130  0.6806 -0.3414 -0.3127
26450SOL     OW81549   6.622   2.030   6.145 -0.5902 -0.5744  0.1105
26450SOL    HW181550   6.694   1.980   6.107 -0.1755 -0.6665  0.9872
26450SOL    HW281551   6.583   1.971   6.210 -0.2981  0.0974  0.9239
26451SOL     OW81552   0.760   3.319   0.284  0.2767 -0.2233  0.9195
26451SOL    HW181553   0.687   3.308   0.223 -0.2445  0.3782  1.4164
26451SOL    HW281554   0.750   3.248   0.347 -0.2146  0.1797  1.3063
26452SOL     OW81555   5.168   0.237   9.358  0.0621 -0.1723  0.1662
26452SOL    HW181556   5.137   0.181   9.286  0.4512 -1.5241  1.0019
26452SOL    HW281557   5.145   0.187   9.437 -1.2268  1.7078  1.0506
26453SOL     OW81558   9.258   3.437   0.531 -0.2675 -0.4482 -0.1842
26453SOL    HW181559   9.353   3.439   0.529 -0.2742  2.3942 -1.5008
26453SOL    HW281560   9.232   3.523   0.563 -2.4352 -1.1848  0.2429
26454SOL     OW81561   6.807   5.582   2.850  0.1508  1.1556 -0.0985
26454SOL    HW181562   6.779   5.670   2.824 -0.8812  0.5144 -1.2834
26454SOL    HW281563   6.883   5.563   2.796 -0.2657  0.9255 -0.6123
26455SOL     OW81564   0.710   3.079   8.806  0.1926 -0.1241 -0.1327
26455SOL    HW181565   0.746   3.084   8.895  2.3009  0.8138 -0.9823
26455SOL    HW281566   0.765   3.015   8.762 -1.0682 -0.8490 -0.7116
26456SOL     OW81567   2.885   5.287   3.238 -0.0603  0.5496 -0.2863
26456SOL    HW181568   2.871   5.382   3.240  0.4065  0.6352 -0.6546
26456SOL    HW281569   2.860   5.262   3.149  0.4854  0.4483 -0.4189
26457SOL     OW81570   0.627   9.031   5.013  0.3786 -0.5144  0.2681
26457SOL    HW181571   0.648   9.061   5.102  1.5878 -0.1794 -0.1191
26457SOL    HW281572   0.537   8.998   5.020 -0.7619  2.3967  0.9452
26458SOL     OW81573   7.912   5.451   2.990  0.2576 -0.1020  0.1628
26458SOL    HW181574   7.866   5.497   3.061 -0.4727  0.2071 -0.4921
26458SOL    HW281575   7.982   5.510   2.965 -0.6527  0.6654 -0.6472
26459SOL     OW81576   2.728   3.322   9.080  0.3803 -0.5727  0.2493
26459SOL    HW181577   2.769   3.361   9.002 -0.6222  1.1157  0.5069
26459SOL    HW281578   2.794   3.333   9.149 -0.1326  1.4646  0.4935
26460SOL     OW81579   0.014   0.552   6.476 -0.0175  0.1188 -0.1421
26460SOL    HW181580   0.092   0.596   6.441  0.2850  0.3404  0.7818
26460SOL    HW281581  -0.007   0.600   6.556 -1.1348  0.0775 -0.3955
26461SOL     OW81582   5.065   9.454   3.316 -0.1975  0.3041  0.0834
26461SOL    HW181583   5.095   9.463   3.226 -1.2148 -0.4175 -0.3376
26461SOL    HW281584   5.049   9.361   3.328 -0.9104  0.4963  0.7319
26462SOL     OW81585   6.075   5.935   3.236 -0.2945  0.3008  0.1610
26462SOL    HW181586   6.158   5.893   3.213 -1.0703 -0.6154 -1.0650
26462SOL    HW281587   6.100   6.025   3.257  1.2351 -0.4127  1.6662
26463SOL     OW81588   8.102   0.281   3.172  0.3297 -0.3950 -0.4250
26463SOL    HW181589   8.073   0.357   3.122  2.0716  0.8072  0.2896
26463SOL    HW281590   8.192   0.266   3.144  0.6257 -1.0273  0.7686
26464SOL     OW81591   4.109   2.773   4.581  0.3316  0.1380  0.3466
26464SOL    HW181592   4.053   2.847   4.603 -1.0888 -0.6883 -0.3140
26464SOL    HW281593   4.070   2.699   4.627  1.2866 -0.3425  0.4024
26465SOL     OW81594   7.335   9.571   0.301  0.0590 -0.4409  0.8898
26465SOL    HW181595   7.351   9.595   0.392  1.1026  0.6591  0.4425
26465SOL    HW281596   7.380   9.639   0.250 -2.1786  0.1068 -0.4735
26466SOL     OW81597   7.078   6.917   5.724 -0.4582  0.0582  0.2877
26466SOL    HW181598   7.017   6.849   5.752  0.4518 -1.1545 -0.5355
26466SOL    HW281599   7.025   6.996   5.717 -1.8007 -0.8243  0.1632
26467SOL     OW81600   2.131   9.197   8.761  0.0341 -0.2167  0.4344
26467SOL    HW181601   2.082   9.277   8.779 -0.0723 -0.0836 -0.4196
26467SOL    HW281602   2.071   9.143   8.710  0.1995 -0.7356  0.7858
26468SOL     OW81603   5.802   0.015   5.881 -0.3018 -0.1108 -0.1842
26468SOL    HW181604   5.859  -0.055   5.849 -0.6330 -1.5264  2.0824
26468SOL    HW281605   5.817   0.017   5.976 -0.3119  2.9360 -0.1646
26469SOL     OW81606   6.330   1.898   6.511  0.3674 -0.1044 -0.0643
26469SOL    HW181607   6.340   1.923   6.603  0.2230 -1.0065  0.2141
26469SOL    HW281608   6.235   1.897   6.497  0.4106  1.4555 -0.6560
26470SOL     OW81609   1.845   0.120   8.701  0.2913  0.5962 -0.2680
26470SOL    HW181610   1.831   0.063   8.625  0.5875  2.1006 -1.4965
26470SOL    HW281611   1.788   0.083   8.769 -0.4687 -0.4149 -1.4056
26471SOL     OW81612   4.492   2.979   6.406 -0.0055  0.1927 -0.0082
26471SOL    HW181613   4.521   2.921   6.335  0.1892 -0.4887  0.6140
26471SOL    HW281614   4.467   3.060   6.362  1.8962  0.4720 -0.6975
26472SOL     OW81615   2.361   9.199   0.790 -0.0687 -0.0990 -0.1874
26472SOL    HW181616   2.367   9.290   0.760  1.7573  0.6458  2.1583
26472SOL    HW281617   2.328   9.151   0.714  0.2651  2.2814 -1.9432
26473SOL     OW81618   2.649   9.433   9.340 -0.2291 -0.1117 -0.6416
26473SOL    HW181619   2.722   9.442   9.401  0.8310  0.0697 -1.8831
26473SOL    HW281620   2.622   9.523   9.322 -0.7192 -0.1761 -0.2469
26474SOL     OW81621   2.498   8.045   4.260  0.3039  0.4572 -0.6083
26474SOL    HW181622   2.463   7.967   4.302  0.5344 -0.5470 -2.1871
26474SOL    HW281623   2.483   8.115   4.323 -0.1528 -0.8004  0.7407
26475SOL     OW81624   7.298   1.160   1.484  0.3448  0.1999  0.2081
26475SOL    HW181625   7.213   1.197   1.459  0.7358  1.4054  0.5581
26475SOL    HW281626   7.352   1.169   1.406 -0.0298 -1.2113 -0.2358
26476SOL     OW81627   3.372   3.006   3.342 -0.4677 -0.7230  0.6166
26476SOL    HW181628   3.390   2.912   3.344 -3.4388 -1.4000  0.8176
26476SOL    HW281629   3.380   3.034   3.433 -0.3256 -0.9674  0.6803
26477SOL     OW81630   0.139   8.424   4.518 -0.0994 -0.3598 -0.1393
26477SOL    HW181631   0.106   8.436   4.607 -0.1049  0.2777 -0.2155
26477SOL    HW281632   0.134   8.330   4.502 -1.6806 -0.3084 -0.0802
26478SOL     OW81633   7.640   4.683   6.638  0.0990  0.4343  0.6802
26478SOL    HW181634   7.598   4.614   6.587 -0.5621  1.0874  0.3291
26478SOL    HW281635   7.695   4.730   6.575  1.5145 -0.5055  1.1625
26479SOL     OW81636   1.930   0.282   0.949 -0.4693 -0.3230 -0.0330
26479SOL    HW181637   1.961   0.287   1.040  0.8350  0.7923 -0.4977
26479SOL    HW281638   1.935   0.372   0.917 -0.5568 -0.7607 -1.3224
26480SOL     OW81639   5.884   7.914   7.975 -0.1478 -0.1283 -0.1259
26480SOL    HW181640   5.944   7.977   8.015 -0.5885 -1.4043  2.7728
26480SOL    HW281641   5.925   7.829   7.990 -1.0095 -0.7799 -1.2759
26481SOL     OW81642   8.261   3.663   8.774  0.0178 -0.2273 -0.3701
26481SOL    HW181643   8.274   3.646   8.681 -3.0530 -1.1663 -0.7463
26481SOL    HW281644   8.291   3.583   8.817  0.8394 -0.0442 -0.5752
26482SOL     OW81645   8.675   7.051   1.430 -0.2004 -0.1096 -0.7018
26482SOL    HW181646   8.580   7.054   1.419 -0.2758  1.0904  0.1060
26482SOL    HW281647   8.707   7.014   1.348 -1.5310 -3.2983  0.0550
26483SOL     OW81648   1.218   2.055   9.219 -0.2446  0.2864 -0.1354
26483SOL    HW181649   1.147   2.026   9.275  0.0970  1.3308  0.8789
26483SOL    HW281650   1.286   2.084   9.280  0.1951  1.3126 -1.0878
26484SOL     OW81651   4.044   5.687   4.076 -0.3311  0.1749  0.0744
26484SOL    HW181652   4.091   5.604   4.065 -0.6461 -0.0908  0.6826
26484SOL    HW281653   4.113   5.751   4.095 -0.1471 -0.0847  0.2940
26485SOL     OW81654   8.189   4.313   8.126 -0.5610 -0.2250 -0.2637
26485SOL    HW181655   8.186   4.369   8.049  0.9454  0.9155  0.4398
26485SOL    HW281656   8.251   4.357   8.185 -0.0482 -2.1443  0.7256
26486SOL     OW81657   5.969   0.290   9.419 -0.2652 -0.3498  0.3671
26486SOL    HW181658   5.899   0.331   9.367  0.4031  0.3845  0.0276
26486SOL    HW281659   5.934   0.288   9.508 -0.4396  0.6982  0.3415
26487SOL     OW81660   4.756   8.854   7.068  0.3096 -0.3108 -0.1262
26487SOL    HW181661   4.711   8.812   7.141 -1.4205 -0.6390 -1.3346
26487SOL    HW281662   4.748   8.948   7.086  1.0236 -0.3926  0.7272
26488SOL     OW81663   0.463   0.593   1.721 -0.4822  0.3090  0.2555
26488SOL    HW181664   0.489   0.638   1.801 -1.5680  0.3221  0.6132
26488SOL    HW281665   0.500   0.646   1.650  0.5907  0.2274  0.7387
26489SOL     OW81666   4.680   1.470   3.222  0.5958  0.4979  0.0416
26489SOL    HW181667   4.679   1.389   3.171 -0.0927  1.0851 -0.9205
26489SOL    HW281668   4.764   1.512   3.200 -0.5818  1.7812 -2.3729
26490SOL     OW81669   4.527   3.907   5.240 -0.2376 -0.0614  0.0354
26490SOL    HW181670   4.524   3.844   5.167  0.2159 -0.1890  0.1263
26490SOL    HW281671   4.578   3.863   5.308 -0.8782 -0.0468  0.5390
26491SOL     OW81672   3.145   1.152   1.987  0.2228 -0.5674 -0.2464
26491SOL    HW181673   3.134   1.185   1.897  0.2914 -1.5063 -0.6151
26491SOL    HW281674   3.237   1.127   1.991  0.8049  1.5106  0.8234
26492SOL     OW81675   6.459   4.920   2.268  0.5036 -0.1759  0.3084
26492SOL    HW181676   6.465   4.857   2.196 -1.7480 -0.7875  0.5474
26492SOL    HW281677   6.480   4.869   2.346  1.8719  0.2165  0.2182
26493SOL     OW81678   9.558   4.104   3.848 -0.1384 -0.2254 -0.2385
26493SOL    HW181679   9.561   4.094   3.753  2.3774 -0.1888 -0.2206
26493SOL    HW281680   9.649   4.117   3.874 -0.8530  0.6396  2.1039
26494SOL     OW81681   6.504   6.260   7.953 -0.8097  0.5457  0.2889
26494SOL    HW181682   6.424   6.213   7.975 -0.2521 -0.3468  0.4622
26494SOL    HW281683   6.568   6.229   8.018  0.4012 -0.8212 -1.4815
26495SOL     OW81684   0.966   2.054   8.619  0.7727  0.1474 -0.2293
26495SOL    HW181685   1.008   1.969   8.629  0.0377 -0.1404  0.5243
26495SOL    HW281686   1.032   2.108   8.576  1.7238 -0.4236  0.4763
26496SOL     OW81687   6.287   5.153   8.483 -0.0490 -0.3125  0.5808
26496SOL    HW181688   6.330   5.081   8.530  0.1992 -0.7949 -0.3656
26496SOL    HW281689   6.233   5.109   8.417 -0.7320  0.3428  0.7003
26497SOL     OW81690   8.658   8.367   1.408 -0.0659 -0.0427  0.2911
26497SOL    HW181691   8.632   8.421   1.483 -0.8755 -0.0100 -0.0005
26497SOL    HW281692   8.591   8.385   1.341 -0.6953 -1.8178  0.3884
26498SOL     OW81693   5.413   4.676   3.264  0.2264  0.0277  0.5421
26498SOL    HW181694   5.322   4.651   3.246 -0.3192  0.8482  1.9358
26498SOL    HW281695   5.457   4.594   3.286 -0.6115 -0.1945  1.4732
26499SOL     OW81696   7.141   3.453   7.415 -0.3247 -0.2077 -0.4134
26499SOL    HW181697   7.213   3.516   7.409 -0.8198  0.4683  0.5041
26499SOL    HW281698   7.181   3.375   7.455 -0.1624  0.2693  0.3700
26500SOL     OW81699   3.504   6.393   6.634 -0.3266 -0.6912 -0.1533
26500SOL    HW181700   3.409   6.402   6.633 -0.2498  0.1383 -0.1986
26500SOL    HW281701   3.522   6.325   6.570 -0.8909 -0.8852 -0.1115
26501SOL     OW81702   9.477   6.703   6.033  0.2719 -0.2023 -0.0614
26501SOL    HW181703   9.390   6.715   5.996  0.9441 -0.1713 -1.6921
26501SOL    HW281704   9.499   6.612   6.013  1.5576  0.4443 -1.8246
26502SOL     OW81705   0.884   4.795   5.682  0.0262  0.0156 -0.3815
26502SOL    HW181706   0.808   4.736   5.691 -0.2916  0.2840 -1.2288
26502SOL    HW281707   0.948   4.744   5.632 -0.7499  0.8058 -2.2796
26503SOL     OW81708   0.365   2.355   4.737 -0.0904  0.2218 -0.2844
26503SOL    HW181709   0.271   2.352   4.751 -0.7679 -1.0667 -4.1097
26503SOL    HW281710   0.396   2.267   4.758  0.5284  0.8405  1.7243
26504SOL     OW81711   7.088   5.581   3.135  0.5061 -0.2219 -0.4285
26504SOL    HW181712   7.148   5.509   3.152  0.8881  0.3541  0.7729
26504SOL    HW281713   7.098   5.640   3.210 -1.2738  0.0902 -0.3745
26505SOL     OW81714   2.459   2.857   5.743  0.1958  0.3762  0.4586
26505SOL    HW181715   2.428   2.798   5.812 -1.8032 -1.7306 -2.0109
26505SOL    HW281716   2.551   2.832   5.730 -0.6362 -2.5330 -0.6476
26506SOL     OW81717   0.017   2.967   2.394 -0.0963  0.6585  0.0989
26506SOL    HW181718   0.055   2.971   2.482  0.0024 -0.6508  0.1307
26506SOL    HW281719  -0.065   3.016   2.401  0.0090  0.7263  0.8733
26507SOL     OW81720   2.810   7.701   2.995 -0.4541 -0.0402 -0.1999
26507SOL    HW181721   2.717   7.717   3.007 -0.9865 -3.5157  1.5392
26507SOL    HW281722   2.836   7.760   2.925 -3.6615  1.8627  0.0332
26508SOL     OW81723   2.214   1.153   3.793 -0.6623 -0.0451 -0.8028
26508SOL    HW181724   2.146   1.143   3.860 -0.2532  0.6675 -0.2674
26508SOL    HW281725   2.257   1.235   3.815 -1.3310  0.8731 -2.6784
26509SOL     OW81726   1.777   8.354   1.240 -0.0942  0.4040  0.6864
26509SOL    HW181727   1.804   8.311   1.321 -2.1853  2.3945  2.5853
26509SOL    HW281728   1.793   8.447   1.256 -0.7888  0.8730 -1.1199
26510SOL     OW81729   5.199   2.455   3.913 -0.7799 -0.4020 -0.8081
26510SOL    HW181730   5.179   2.547   3.898  0.5715  0.6637  2.8407
26510SOL    HW281731   5.293   2.448   3.896 -0.5011 -0.6131  0.6996
26511SOL     OW81732   1.808   3.636   0.987 -0.5729 -0.2673 -0.8644
26511SOL    HW181733   1.720   3.669   0.969  0.1094  2.6385  0.5545
26511SOL    HW281734   1.795   3.566   1.051 -1.8422  0.4177 -0.3375
26512SOL     OW81735   9.520   7.137   2.707 -0.9672  0.5400 -0.0766
26512SOL    HW181736   9.593   7.149   2.647 -0.0755  1.5583  1.1563
26512SOL    HW281737   9.450   7.099   2.653  1.2786 -3.1063 -0.7346
26513SOL     OW81738   8.049   3.564   0.226  0.3582  0.0548  0.6751
26513SOL    HW181739   8.040   3.651   0.186 -3.7223  0.2820  1.6608
26513SOL    HW281740   8.034   3.503   0.154 -2.1677  0.3675  0.8639
26514SOL     OW81741   2.510   8.303   3.744 -0.3190  0.5585  0.3548
26514SOL    HW181742   2.593   8.347   3.726  0.2059 -0.5187  0.0587
26514SOL    HW281743   2.535   8.214   3.771 -1.4025 -0.0436 -0.5409
26515SOL     OW81744   6.977   3.396   5.812  0.5620  0.3945 -0.7514
26515SOL    HW181745   6.983   3.465   5.747 -0.9751 -1.3329 -2.9011
26515SOL    HW281746   7.055   3.341   5.797 -0.3625 -0.6362 -2.0097
26516SOL     OW81747   0.872   7.237   3.032  0.1882  0.2719  0.1028
26516SOL    HW181748   0.782   7.254   3.003  0.5367 -0.4097 -1.4662
26516SOL    HW281749   0.865   7.160   3.088 -0.3546  0.9540  0.9968
26517SOL     OW81750   3.701   8.771   2.410 -0.2732 -0.2198  0.1532
26517SOL    HW181751   3.658   8.770   2.324  0.7769  0.3908 -0.4035
26517SOL    HW281752   3.686   8.683   2.445  0.3806 -0.9335 -1.2470
26518SOL     OW81753   1.406   5.673   7.402 -0.2649 -0.1059 -0.5376
26518SOL    HW181754   1.398   5.578   7.390  1.8946 -0.3081 -0.7991
26518SOL    HW281755   1.468   5.700   7.334 -0.6030  1.4423 -0.2532
26519SOL     OW81756   8.438   2.046   7.249 -0.3262  0.1659  0.0486
26519SOL    HW181757   8.488   2.127   7.266 -0.2394  0.3646 -1.0500
26519SOL    HW281758   8.454   1.992   7.326 -0.0840  1.0497  0.6431
26520SOL     OW81759   8.737   7.700   7.334 -0.2064  0.0371 -0.5057
26520SOL    HW181760   8.649   7.714   7.298 -0.8246 -2.1122 -0.0364
26520SOL    HW281761   8.722   7.647   7.413  1.4945 -0.1191 -0.2447
26521SOL     OW81762   7.157   1.713   4.029 -0.2386 -0.0761 -0.0881
26521SOL    HW181763   7.200   1.669   4.102 -0.4495  0.5470  0.4254
26521SOL    HW281764   7.088   1.653   4.001  0.3822 -0.6821 -0.3266
26522SOL     OW81765   0.397   1.169   7.003  0.3667  0.2153  0.5766
26522SOL    HW181766   0.468   1.220   6.965  0.1239 -0.1423 -0.3822
26522SOL    HW281767   0.335   1.234   7.035  0.8808  0.5263  0.9563
26523SOL     OW81768   6.646   6.512   1.214  0.3303 -0.0291 -0.1019
26523SOL    HW181769   6.654   6.507   1.119 -0.2872  0.3545 -0.1805
26523SOL    HW281770   6.625   6.604   1.232  0.1197 -0.1663  0.3823
26524SOL     OW81771   0.870   9.020   5.731  0.2269 -0.0291 -0.4412
26524SOL    HW181772   0.844   9.005   5.640  2.1572  0.7006 -1.1745
26524SOL    HW281773   0.880   8.932   5.768 -0.9975 -0.3306 -0.7769
26525SOL     OW81774   5.125   0.273   4.917  0.2011 -0.0638  0.3563
26525SOL    HW181775   5.160   0.311   4.836  0.8260 -1.8122 -0.2440
26525SOL    HW281776   5.038   0.240   4.894  0.3641 -0.5313  0.3858
26526SOL     OW81777   6.716   4.505   1.500  0.4504  0.0891  0.8486
26526SOL    HW181778   6.797   4.555   1.489  0.6332  0.1699  2.3566
26526SOL    HW281779   6.739   4.415   1.478  0.3420  0.4618 -0.9932
26527SOL     OW81780   4.439   0.568   5.209 -0.3428 -0.2580  0.2890
26527SOL    HW181781   4.481   0.653   5.198  0.1602 -0.5890 -0.4017
26527SOL    HW281782   4.405   0.569   5.299  2.3821 -0.5364  1.4097
26528SOL     OW81783   0.257   1.403   4.479  0.1280 -0.0734 -0.3083
26528SOL    HW181784   0.162   1.410   4.490  0.3564  0.2742  1.7310
26528SOL    HW281785   0.270   1.316   4.441 -0.9475 -0.5731  0.4018
26529SOL     OW81786   1.475   5.586   4.518  0.3251 -0.2090 -0.5663
26529SOL    HW181787   1.530   5.541   4.582 -0.0494 -1.0424 -0.8138
26529SOL    HW281788   1.503   5.550   4.433  0.7106  0.7630 -0.8674
26530SOL     OW81789   0.875   9.055   6.776 -0.0971  0.2246 -0.6849
26530SOL    HW181790   0.820   9.113   6.829  0.3761 -0.5301  0.7008
26530SOL    HW281791   0.832   9.052   6.691 -1.1393  1.1460 -0.2222
26531SOL     OW81792   7.297   8.998   5.523  0.1824 -0.2395 -0.4817
26531SOL    HW181793   7.375   9.027   5.475  0.3058  0.0865 -0.0837
26531SOL    HW281794   7.224   9.032   5.472  0.3212  0.8954  0.0358
26532SOL     OW81795   6.059   5.261   3.099 -0.0643 -0.6050 -0.0644
26532SOL    HW181796   5.996   5.333   3.087 -0.4632 -0.9556 -0.0764
26532SOL    HW281797   6.018   5.186   3.055  1.2640 -0.3441 -1.8520
26533SOL     OW81798   0.298   8.097   1.247 -0.3795  0.2185  0.5034
26533SOL    HW181799   0.210   8.125   1.223  0.8722  1.5472 -3.1921
26533SOL    HW281800   0.346   8.178   1.262  0.7061 -0.4193  0.5673
26534SOL     OW81801   9.367   1.996   2.308  0.3111  0.1520 -0.1637
26534SOL    HW181802   9.291   1.972   2.256 -0.0852 -0.0768  0.5131
26534SOL    HW281803   9.406   1.912   2.334  0.2107  0.2537  0.3308
26535SOL     OW81804   3.838   3.463   2.712 -0.1372 -0.0141 -0.3509
26535SOL    HW181805   3.855   3.540   2.659  2.7851  0.6875  1.3901
26535SOL    HW281806   3.924   3.424   2.726 -0.7400 -0.3723  3.4170
26536SOL     OW81807   4.075   9.502   3.884  0.6381 -0.0827 -0.4476
26536SOL    HW181808   4.014   9.536   3.819  1.4359 -0.4041 -1.4049
26536SOL    HW281809   4.157   9.547   3.865  1.0918 -0.7867 -0.2029
26537SOL     OW81810   9.368   5.019   4.304  0.2937  0.4329  0.1760
26537SOL    HW181811   9.383   5.067   4.385  0.7134  0.4220  0.1053
26537SOL    HW281812   9.450   4.973   4.288  0.4375  0.9578 -0.6079
26538SOL     OW81813   5.691   8.640   3.026 -0.2982 -0.0670  0.6794
26538SOL    HW181814   5.704   8.613   3.117 -0.7222 -0.0573  0.7419
26538SOL    HW281815   5.670   8.559   2.979 -0.7912  0.0321  0.7235
26539SOL     OW81816   0.452   5.890   4.196  0.1200  0.1840  0.0917
26539SOL    HW181817   0.381   5.938   4.238 -0.8553 -2.0595  1.1408
26539SOL    HW281818   0.492   5.954   4.136 -0.9804  2.3112  1.5031
26540SOL     OW81819   0.479   0.677   7.469  0.0999 -0.3921  0.2476
26540SOL    HW181820   0.533   0.604   7.499 -1.7690 -1.8206  0.2766
26540SOL    HW281821   0.449   0.720   7.549  0.9895  0.2822  0.2339
26541SOL     OW81822   7.093   0.475   5.047 -0.1386 -0.8377  0.0907
26541SOL    HW181823   7.046   0.447   5.126  2.4391 -1.0953  1.6421
26541SOL    HW281824   7.068   0.412   4.980 -3.3066  0.0426  0.2428
26542SOL     OW81825   7.187   9.408   2.943  0.4238  0.3123 -0.9810
26542SOL    HW181826   7.267   9.391   2.992 -0.5440  0.5390  0.7358
26542SOL    HW281827   7.197   9.498   2.912  0.5950  0.5304 -0.3087
26543SOL     OW81828   3.328   6.691   3.874 -0.1369  0.2206  0.0261
26543SOL    HW181829   3.393   6.710   3.942 -2.6307  1.7542  2.2075
26543SOL    HW281830   3.265   6.634   3.917 -2.1003  1.6829 -0.7686
26544SOL     OW81831   5.475   7.314   6.606  0.2016  0.0675  0.0396
26544SOL    HW181832   5.434   7.232   6.579  0.9495 -0.1292 -0.5337
26544SOL    HW281833   5.401   7.372   6.628 -0.4015 -0.1346 -1.3622
26545SOL     OW81834   5.572   2.725   8.604 -0.4496  0.0355 -0.2019
26545SOL    HW181835   5.591   2.673   8.682 -1.0227 -0.8871 -0.6642
26545SOL    HW281836   5.479   2.746   8.611 -0.4224  0.2497 -0.4557
26546SOL     OW81837   3.572   0.928   2.594 -0.3988  0.0071  0.2790
26546SOL    HW181838   3.509   0.892   2.656 -0.8524  0.9914  0.4066
26546SOL    HW281839   3.650   0.945   2.645 -0.3627 -0.3076  0.3274
26547SOL     OW81840   4.890   0.215   7.512  0.3204  0.2307  0.1285
26547SOL    HW181841   4.922   0.230   7.423  0.0369  0.5765  0.0854
26547SOL    HW281842   4.844   0.131   7.507 -1.1530  1.0358 -0.4520
26548SOL     OW81843   0.924   4.621   9.200 -0.3080 -0.3543  0.1725
26548SOL    HW181844   0.938   4.532   9.230 -0.1861 -0.6564 -0.7445
26548SOL    HW281845   0.830   4.636   9.209  0.0901  0.9610  4.3981
26549SOL     OW81846   7.098   8.567   5.883 -0.3389  0.0879  0.6223
26549SOL    HW181847   7.076   8.654   5.918  0.3493 -0.6917  3.2562
26549SOL    HW281848   7.186   8.578   5.847 -1.7574  1.3553 -2.8357
26550SOL     OW81849   5.236   5.016   6.025  0.0148  0.3807 -0.2650
26550SOL    HW181850   5.267   4.952   6.089  1.2269  1.1160 -0.1030
26550SOL    HW281851   5.166   4.970   5.978  0.5325 -0.8932  0.1693
26551SOL     OW81852   5.406   1.510   1.333  0.1167 -0.7406  0.2627
26551SOL    HW181853   5.390   1.454   1.257 -3.2368  1.5105 -0.9197
26551SOL    HW281854   5.366   1.464   1.406  0.7823 -1.5929  0.1027
26552SOL     OW81855   1.368   0.753   3.974  0.2263  0.6040 -0.1828
26552SOL    HW181856   1.352   0.749   4.068 -1.1850  1.5797 -0.3473
26552SOL    HW281857   1.457   0.720   3.963  0.9146  1.7383  1.6226
26553SOL     OW81858   2.101   6.859   3.134  0.1669  0.0300 -0.4787
26553SOL    HW181859   2.029   6.866   3.197  0.5350 -1.0722  0.0962
26553SOL    HW281860   2.137   6.947   3.128 -1.0417  0.5387 -0.5521
26554SOL     OW81861   8.200   4.002   2.073  0.6133  0.6410  0.1917
26554SOL    HW181862   8.251   4.017   1.994 -0.9136  0.9479 -0.7797
26554SOL    HW281863   8.235   3.921   2.110  2.4621  1.3905  0.1543
26555SOL     OW81864   0.628   0.393   7.875  0.0207 -0.6046  0.0598
26555SOL    HW181865   0.713   0.414   7.913  0.1846 -0.2260 -0.4921
26555SOL    HW281866   0.566   0.445   7.926  0.3534  0.7340 -0.8442
26556SOL     OW81867   3.520   1.641   2.883 -0.0235  0.2480  0.2605
26556SOL    HW181868   3.544   1.667   2.972 -1.7066  0.2439  0.7348
26556SOL    HW281869   3.585   1.685   2.828  0.0664  1.5932  1.3763
26557SOL     OW81870   8.404   4.434   8.480 -0.1695  0.1830  0.8569
26557SOL    HW181871   8.435   4.523   8.495 -0.5693  0.2534  1.2753
26557SOL    HW281872   8.424   4.417   8.387 -0.5130  0.8762  0.6506
26558SOL     OW81873   6.572   7.756   6.172 -0.1310 -0.0992 -0.3237
26558SOL    HW181874   6.541   7.777   6.084  1.0513 -1.2270 -1.0404
26558SOL    HW281875   6.657   7.714   6.159 -0.1615 -0.7589  1.3251
26559SOL     OW81876   8.087   1.638   1.977  0.4686 -0.0947  0.2133
26559SOL    HW181877   8.107   1.628   1.883 -1.3470  2.1292 -0.4914
26559SOL    HW281878   8.160   1.689   2.011  1.2784 -1.1449  0.1058
26560SOL     OW81879   4.054   5.688   7.538 -0.3831  0.1992  0.0714
26560SOL    HW181880   4.134   5.641   7.516 -1.7866 -2.2225 -0.2171
26560SOL    HW281881   4.084   5.767   7.585  2.1415 -0.2968 -0.5779
26561SOL     OW81882   1.544   4.878   6.201  0.3694  0.0718  0.2442
26561SOL    HW181883   1.495   4.842   6.127  0.3420  1.4130 -0.4281
26561SOL    HW281884   1.531   4.973   6.194  1.2478  0.2943  1.3555
26562SOL     OW81885   9.425   1.713   3.956  0.3266  0.3363  0.2899
26562SOL    HW181886   9.493   1.669   3.905 -0.6853 -0.2304 -0.6252
26562SOL    HW281887   9.360   1.644   3.973 -0.2130  0.9540  0.7832
26563SOL     OW81888   0.778   8.345   7.948 -0.2428  0.3444  0.4880
26563SOL    HW181889   0.741   8.311   8.029 -0.0299 -0.2769  0.3310
26563SOL    HW281890   0.735   8.430   7.935 -0.2319  0.4787  1.2791
26564SOL     OW81891   8.254   5.130   9.422  0.3748  0.2763  0.3559
26564SOL    HW181892   8.320   5.177   9.474  1.8720 -0.5164 -0.7582
26564SOL    HW281893   8.271   5.038   9.438 -2.1999  0.0039  2.0910
26565SOL     OW81894   6.556   9.468   7.697  0.4425 -0.2672 -0.1702
26565SOL    HW181895   6.615   9.416   7.752 -0.5470 -0.0494  1.1487
26565SOL    HW281896   6.482   9.410   7.680 -0.8916  0.7718  1.7042
26566SOL     OW81897   4.219   6.541   0.966 -0.5363  0.3530  0.4533
26566SOL    HW181898   4.219   6.446   0.979  1.5990  0.3999  1.3325
26566SOL    HW281899   4.311   6.566   0.979 -1.1274  2.6013  0.6573
26567SOL     OW81900   4.940   0.343   0.113 -0.4935 -0.1106 -0.2448
26567SOL    HW181901   4.929   0.341   0.208  1.1724  0.0271 -0.0171
26567SOL    HW281902   5.016   0.287   0.097  0.2829  1.1961 -1.3077
26568SOL     OW81903   3.555   0.663   4.253 -0.1103 -0.3809 -0.3751
26568SOL    HW181904   3.464   0.634   4.264  0.1993 -1.2667  0.0277
26568SOL    HW281905   3.549   0.757   4.241 -0.9544 -0.1253  1.6615
26569SOL     OW81906   2.330   1.128   9.187 -0.4685  0.1562 -0.1276
26569SOL    HW181907   2.421   1.115   9.213 -0.6316  0.0802  0.4273
26569SOL    HW281908   2.284   1.143   9.270 -1.2746 -1.6343 -0.2101
26570SOL     OW81909   1.638   3.009   1.923  0.1583 -0.4437 -0.1845
26570SOL    HW181910   1.634   2.954   2.001 -1.1534 -0.8900 -0.5463
26570SOL    HW281911   1.588   3.087   1.945  0.1550 -0.3737 -0.4295
26571SOL     OW81912   6.222   0.826   3.247 -0.6682 -0.2431 -0.2301
26571SOL    HW181913   6.150   0.887   3.262 -0.0265  0.5567 -0.3309
26571SOL    HW281914   6.207   0.755   3.309 -1.4511 -0.0053 -0.1369
26572SOL     OW81915   5.689   4.346   4.755 -0.2082  0.5243 -0.1308
26572SOL    HW181916   5.643   4.379   4.833 -0.6526 -0.7353  0.1805
26572SOL    HW281917   5.625   4.289   4.713 -0.1406  1.5614 -1.7160
26573SOL     OW81918   4.967   4.681   7.829 -0.3243 -0.1347  0.6503
26573SOL    HW181919   5.041   4.697   7.887 -0.4321 -0.2707  0.8289
26573SOL    HW281920   4.914   4.616   7.876 -0.0110 -0.8384  0.0528
26574SOL     OW81921   4.579   7.327   3.727  0.3153 -0.8097  0.4144
26574SOL    HW181922   4.581   7.293   3.816 -0.5844  0.8468  1.1090
26574SOL    HW281923   4.493   7.368   3.719  0.6875 -0.2462 -0.9642
26575SOL     OW81924   0.214   3.211   5.518 -0.9918  0.4176  0.0139
26575SOL    HW181925   0.309   3.205   5.506 -1.0983  0.2285 -0.8177
26575SOL    HW281926   0.202   3.283   5.580 -0.3868  1.6368 -1.2305
26576SOL     OW81927   1.533   6.855   8.680 -0.3761 -0.5470 -0.4393
26576SOL    HW181928   1.523   6.927   8.742  0.0378 -0.5989 -0.3127
26576SOL    HW281929   1.525   6.896   8.594 -1.0574 -0.4915 -0.3520
26577SOL     OW81930   1.066   0.898   7.776  0.0741 -0.0409  0.5013
26577SOL    HW181931   1.028   0.836   7.713  0.1370 -0.0612  0.4831
26577SOL    HW281932   1.002   0.901   7.847  0.2325 -0.3945  0.6629
26578SOL     OW81933   5.111   6.871   8.553  0.7094 -0.3152  0.1332
26578SOL    HW181934   5.068   6.874   8.468  1.3815 -0.4484 -0.2187
26578SOL    HW281935   5.086   6.786   8.590  0.4844 -0.2926  0.0330
26579SOL     OW81936   8.016   6.181   9.270  0.6675 -0.2379  0.3740
26579SOL    HW181937   7.938   6.199   9.323  1.1056 -1.2909  1.4441
26579SOL    HW281938   7.986   6.186   9.180 -0.5801 -0.3602  0.7627
26580SOL     OW81939   0.423   3.797   2.114 -0.2865 -0.0010 -0.3156
26580SOL    HW181940   0.464   3.713   2.134 -1.8700 -0.4142  1.4403
26580SOL    HW281941   0.370   3.779   2.036  1.6484  0.1797 -1.7398
26581SOL     OW81942   3.594   3.533   2.988  0.3365  0.0364  0.0193
26581SOL    HW181943   3.566   3.465   2.926  1.3816  0.5498 -1.0625
26581SOL    HW281944   3.648   3.592   2.936  0.5154  0.9920  1.2385
26582SOL     OW81945   8.979   0.764   6.424  0.0406  0.0668  0.1903
26582SOL    HW181946   8.908   0.824   6.403  0.0416  1.3906  3.3728
26582SOL    HW281947   8.952   0.722   6.506  1.3780 -2.1006 -0.3861
26583SOL     OW81948   2.197   9.318   1.928 -0.0461  0.4487  0.2198
26583SOL    HW181949   2.191   9.222   1.929 -0.1468  0.4420  1.6292
26583SOL    HW281950   2.122   9.346   1.875  0.0445 -0.2496 -0.2897
26584SOL     OW81951   2.102   5.224   4.202 -0.1551  0.0732 -0.1437
26584SOL    HW181952   2.067   5.158   4.262  2.6779 -0.8773  0.6030
26584SOL    HW281953   2.081   5.308   4.244 -1.9678 -0.3744 -0.0672
26585SOL     OW81954   7.592   6.875   1.304  0.0276  0.3624  0.2010
26585SOL    HW181955   7.510   6.913   1.336  0.5042 -0.2549  2.3205
26585SOL    HW281956   7.657   6.901   1.369  1.2112 -0.4876 -0.6051
26586SOL     OW81957   7.553   8.940   7.332 -0.6745 -0.8754  0.3456
26586SOL    HW181958   7.624   9.003   7.350 -0.3098 -0.4463 -2.1824
26586SOL    HW281959   7.514   8.971   7.250 -2.9779 -1.8557  0.9835
26587SOL     OW81960   8.413   9.313   5.357  0.2057 -0.1575 -0.1366
26587SOL    HW181961   8.503   9.346   5.357 -0.1804  0.9879  1.0378
26587SOL    HW281962   8.371   9.356   5.283  0.9261 -1.7205 -1.5274
26588SOL     OW81963   4.992   2.041   7.418 -0.0065  0.2065  0.0822
26588SOL    HW181964   5.042   1.972   7.374 -2.5833 -0.7854 -1.5338
26588SOL    HW281965   4.990   2.114   7.356  0.0522  0.5193  0.4454
26589SOL     OW81966   4.128   7.386   5.476  0.6446 -0.5362  0.7067
26589SOL    HW181967   4.162   7.414   5.561 -1.1830  0.0213  1.2999
26589SOL    HW281968   4.088   7.301   5.493  0.9249 -0.7713  0.2208
26590SOL     OW81969   8.863   2.306   3.776  0.1623 -0.3427  0.0447
26590SOL    HW181970   8.851   2.243   3.847  1.9340  0.3871  1.0666
26590SOL    HW281971   8.956   2.301   3.755  0.4424  2.1145  0.3798
26591SOL     OW81972   8.710   3.597   5.097  0.0421  0.0487  0.8982
26591SOL    HW181973   8.630   3.620   5.145 -1.5492 -0.4505 -1.3380
26591SOL    HW281974   8.719   3.667   5.031  1.9553  0.5315  1.5974
26592SOL     OW81975   0.833   7.801   5.816  0.3492 -0.2900 -0.3355
26592SOL    HW181976   0.797   7.801   5.727 -0.4677  1.5897 -0.0389
26592SOL    HW281977   0.924   7.831   5.805  0.0380  0.6372 -0.4910
26593SOL     OW81978   1.771   2.087   5.941 -0.0898  0.1129 -0.2532
26593SOL    HW181979   1.865   2.088   5.920  0.1192 -1.6690  0.4720
26593SOL    HW281980   1.754   2.174   5.977  1.3463  0.3792 -0.1708
26594SOL     OW81981   5.058   4.936   9.354 -0.5700 -0.3954  0.7129
26594SOL    HW181982   5.130   4.996   9.372 -1.7949  0.7926  1.8565
26594SOL    HW281983   5.034   4.954   9.263 -0.2664  0.1173  0.7325
26595SOL     OW81984   8.421   1.597   8.522  0.3118  0.2260 -0.4792
26595SOL    HW181985   8.402   1.580   8.429 -0.3629 -0.6397 -0.1942
26595SOL    HW281986   8.347   1.560   8.569  0.9593  0.0673  0.4540
26596SOL     OW81987   3.867   1.794   6.631 -0.2364 -0.0848 -0.0043
26596SOL    HW181988   3.911   1.762   6.552 -0.5149 -0.8212  0.1367
26596SOL    HW281989   3.861   1.717   6.688 -0.9930  0.1946  0.3028
26597SOL     OW81990   7.678   1.762   3.318 -0.0612  0.2705 -0.2264
26597SOL    HW181991   7.756   1.713   3.293  0.7339  1.2852  0.1551
26597SOL    HW281992   7.678   1.838   3.260  0.0912  1.0586  0.7755
26598SOL     OW81993   9.559   3.807   7.436  0.4482 -0.1463  0.1434
26598SOL    HW181994   9.471   3.837   7.458  0.8549 -0.2382  2.0023
26598SOL    HW281995   9.609   3.813   7.518  1.6834 -1.8364 -0.4173
26599SOL     OW81996   5.852   4.239   6.973 -0.5581 -0.6125  0.1710
26599SOL    HW181997   5.870   4.313   7.031  1.4954 -1.8723  1.2541
26599SOL    HW281998   5.870   4.272   6.885 -1.2091  0.5987  0.4664
26600SOL     OW81999   1.133   1.995   0.557 -0.3561 -0.2982 -0.0424
26600SOL    HW182000   1.126   2.067   0.494 -1.3673 -0.1010  0.2676
26600SOL    HW282001   1.226   1.992   0.580 -0.5377  2.1552  1.3402
26601SOL     OW82002   3.513   3.704   6.298 -0.3769 -0.2544  0.8058
26601SOL    HW182003   3.466   3.682   6.218 -1.3438  1.2811  0.9272
26601SOL    HW282004   3.511   3.799   6.303  3.1251 -0.0238  0.6292
26602SOL     OW82005   4.014   3.503   0.551  0.6581  0.0275  0.0512
26602SOL    HW182006   3.963   3.564   0.499 -0.6427 -0.8286  0.2945
26602SOL    HW282007   4.069   3.559   0.606  1.9415  0.9549 -2.0528
26603SOL     OW82008   7.605   1.152   9.406 -0.3408  0.4052  0.0456
26603SOL    HW182009   7.662   1.089   9.360  1.3257  0.4580  1.9183
26603SOL    HW282010   7.634   1.238   9.374 -0.2248  0.3743  0.0668
26604SOL     OW82011   5.371   9.435   5.896  0.3123  0.7297  0.0040
26604SOL    HW182012   5.415   9.512   5.933 -0.9845  1.2514  0.5340
26604SOL    HW282013   5.442   9.383   5.858  1.4132  1.4097  1.0233
26605SOL     OW82014   6.588   3.420   7.632 -0.0713 -0.5168  0.0544
26605SOL    HW182015   6.583   3.462   7.718 -1.9904 -3.0091  1.3214
26605SOL    HW282016   6.681   3.409   7.616  0.4216  2.1342  0.6381
26606SOL     OW82017   8.990   8.277   0.253 -0.1276 -0.1327  0.1663
26606SOL    HW182018   8.980   8.317   0.339  0.5862 -1.7840  1.0622
26606SOL    HW282019   8.977   8.183   0.268 -3.6611 -0.2132 -2.1705
26607SOL     OW82020   5.132   5.923   0.746 -0.3535 -0.1358  0.5076
26607SOL    HW182021   5.184   5.928   0.666  0.3906 -0.6720  0.9481
26607SOL    HW282022   5.088   6.008   0.751 -1.6633 -0.6527 -1.2949
26608SOL     OW82023   6.361   0.149   4.550  0.3976 -0.5661 -0.1797
26608SOL    HW182024   6.289   0.098   4.588  1.3638 -0.5946  1.7145
26608SOL    HW282025   6.328   0.239   4.551  0.7536 -0.4284  1.6993
26609SOL     OW82026   6.434   4.662   1.141  0.3549 -0.1275 -0.2360
26609SOL    HW182027   6.345   4.689   1.123  0.8089  1.7275  0.1060
26609SOL    HW282028   6.480   4.670   1.058 -0.0000 -2.1446 -0.6771
26610SOL     OW82029   4.252   0.370   0.453 -0.1003 -0.0230 -0.5171
26610SOL    HW182030   4.243   0.408   0.540 -0.9537  0.1061 -0.6480
26610SOL    HW282031   4.263   0.445   0.395 -0.8828 -0.0093 -0.6675
26611SOL     OW82032   0.228   5.224   8.894 -0.3354 -0.5537 -0.2823
26611SOL    HW182033   0.259   5.143   8.854 -0.8715 -0.6871 -0.4424
26611SOL    HW282034   0.295   5.246   8.958  0.7223 -0.1243 -1.5021
26612SOL     OW82035   4.390   6.657   3.240 -0.2355  0.4170  0.1545
26612SOL    HW182036   4.375   6.571   3.281  1.0599  0.1523  0.1041
26612SOL    HW282037   4.305   6.701   3.246 -0.3017  0.0865  2.4076
26613SOL     OW82038   4.117   1.201   6.529 -0.2322 -0.2516  0.0536
26613SOL    HW182039   4.060   1.277   6.540  1.5793  1.2301 -0.2344
26613SOL    HW282040   4.129   1.166   6.618  1.7159  2.0040  0.7643
26614SOL     OW82041   7.523   7.384   1.624 -0.1498 -0.0551 -0.0434
26614SOL    HW182042   7.525   7.444   1.699 -1.1980  1.0776 -0.8775
26614SOL    HW282043   7.442   7.334   1.636 -0.9258  0.9222 -0.9637
26615SOL     OW82044   0.405   8.003   6.669 -0.3475  0.1737 -0.1776
26615SOL    HW182045   0.341   7.960   6.613 -1.4307  1.2837  0.1498
26615SOL    HW282046   0.470   8.037   6.608 -0.0705 -0.9296 -0.5225
26616SOL     OW82047   9.491   8.119   1.016  0.3711 -0.2381 -0.2955
26616SOL    HW182048   9.575   8.113   0.970  0.0983  0.1158 -0.8494
26616SOL    HW282049   9.436   8.053   0.975  0.9966 -1.9778  1.4722
26617SOL     OW82050   0.001   9.036   5.828 -0.5295 -0.7259 -0.3336
26617SOL    HW182051   0.079   8.982   5.816 -0.3810 -0.7640  0.6848
26617SOL    HW282052  -0.002   9.053   5.922  0.3086  2.3454 -0.7544
26618SOL     OW82053   3.784   0.374   2.027 -0.3227  0.3234 -0.0809
26618SOL    HW182054   3.790   0.378   2.122  0.0761 -1.1018 -0.0288
26618SOL    HW282055   3.847   0.439   1.996 -0.6814  1.0243  0.6137
26619SOL     OW82056   4.403   6.715   5.546 -0.4504  0.2239  0.1397
26619SOL    HW182057   4.371   6.804   5.530 -2.8576 -0.8781 -1.6490
26619SOL    HW282058   4.393   6.703   5.640  1.9201  2.4798  0.8167
26620SOL     OW82059   5.545   5.762   6.285  0.4623  0.2459  0.4247
26620SOL    HW182060   5.615   5.749   6.350  0.3393  1.4708  0.8409
26620SOL    HW282061   5.469   5.717   6.322  0.4476  0.7682  1.0556
26621SOL     OW82062   5.727   4.717   5.432  0.0284 -0.5682 -0.5510
26621SOL    HW182063   5.739   4.665   5.352 -1.7262 -0.5381 -0.8703
26621SOL    HW282064   5.685   4.797   5.402 -1.9730 -1.1546  0.5307
26622SOL     OW82065   0.960   4.002   6.387  0.4971  0.2735 -0.6040
26622SOL    HW182066   0.916   4.003   6.473  2.2920 -0.8033  0.3872
26622SOL    HW282067   1.005   3.918   6.384  1.5587  0.8553 -2.0585
26623SOL     OW82068   0.357   2.407   2.628  0.3287 -0.6210  0.5072
26623SOL    HW182069   0.290   2.475   2.626  0.4765 -0.3922  2.2308
26623SOL    HW282070   0.434   2.450   2.666  0.6780 -1.5252  0.8544
26624SOL     OW82071   3.094   8.012   3.512 -0.5654 -0.7496 -0.4195
26624SOL    HW182072   3.070   7.921   3.494  2.2722 -1.6910  0.0750
26624SOL    HW282073   3.148   8.008   3.591  1.6434  1.0033 -1.7291
26625SOL     OW82074   6.276   8.970   8.642 -0.3567  0.0149 -0.5861
26625SOL    HW182075   6.348   9.029   8.619 -1.8223  2.2923  0.3262
26625SOL    HW282076   6.206   8.993   8.581 -1.4008  0.1531  0.6251
26626SOL     OW82077   3.628   0.665   5.986  0.3370  0.1180  0.5780
26626SOL    HW182078   3.664   0.754   5.979  1.1109 -0.2874 -0.8979
26626SOL    HW282079   3.701   0.612   6.016  0.5750 -0.4278 -0.8899
26627SOL     OW82080   2.011   6.432   5.509 -0.1257  0.3901  0.2532
26627SOL    HW182081   2.075   6.385   5.562  1.1818  0.7020 -0.9835
26627SOL    HW282082   1.982   6.504   5.566 -0.3454 -0.4779  1.2774
26628SOL     OW82083   2.049   4.820   7.570 -0.2855  0.3277 -0.3669
26628SOL    HW182084   1.997   4.739   7.565 -2.2921  1.4549  0.7290
26628SOL    HW282085   2.110   4.814   7.496 -0.7564 -1.9119 -0.6515
26629SOL     OW82086   6.519   7.698   1.312  0.9086  0.6788  0.1058
26629SOL    HW182087   6.469   7.714   1.392 -0.6427 -0.0578 -0.6736
26629SOL    HW282088   6.460   7.725   1.241  1.2912 -0.9583 -0.8831
26630SOL     OW82089   7.652   3.924   4.465 -0.2853  0.3184  0.7624
26630SOL    HW182090   7.645   3.859   4.535  0.7410 -0.2332  0.3782
26630SOL    HW282091   7.697   3.998   4.505  0.7893 -0.2111  0.5651
26631SOL     OW82092   2.570   5.841   3.285  0.3981  0.0011 -0.0062
26631SOL    HW182093   2.517   5.920   3.295 -0.5113 -0.4535 -1.1420
26631SOL    HW282094   2.591   5.815   3.375 -1.7322 -0.1013  0.4944
26632SOL     OW82095   2.265   1.802   2.547 -0.3716  0.0782  0.1792
26632SOL    HW182096   2.174   1.779   2.529 -0.3927 -0.7152  1.2126
26632SOL    HW282097   2.306   1.808   2.460 -0.9762 -1.4087 -0.2405
26633SOL     OW82098   5.503   6.769   6.612 -0.3372 -0.2944  0.4124
26633SOL    HW182099   5.546   6.848   6.644 -0.7568  0.4241 -0.7427
26633SOL    HW282100   5.520   6.768   6.518 -0.6488 -1.3902  0.3497
26634SOL     OW82101   1.237   2.588   1.751  0.0920  0.0828  0.0099
26634SOL    HW182102   1.306   2.524   1.734 -0.4157 -0.7173  0.8537
26634SOL    HW282103   1.224   2.584   1.846 -1.0624  0.2736 -0.1313
26635SOL     OW82104   0.685   4.612   8.399  0.0965 -0.1348  0.3148
26635SOL    HW182105   0.623   4.637   8.331  1.0376 -0.4641 -0.6941
26635SOL    HW282106   0.691   4.689   8.456 -1.2564 -0.1192  0.4568
26636SOL     OW82107   9.138   7.458   7.159  0.4265  0.1220  0.7687
26636SOL    HW182108   9.101   7.419   7.238 -0.8480  0.1802  0.2165
26636SOL    HW282109   9.125   7.552   7.170 -0.5012  0.0814  0.1449
26637SOL     OW82110   4.407   6.356   8.935 -0.0008 -0.1237 -0.4717
26637SOL    HW182111   4.498   6.338   8.911 -0.0694 -1.4882  0.1982
26637SOL    HW282112   4.413   6.429   8.997  0.6752 -0.4608 -0.1311
26638SOL     OW82113   5.534   7.163   3.930  0.3776 -0.0718  0.1719
26638SOL    HW182114   5.572   7.120   3.853  0.1479 -0.4988  0.2920
26638SOL    HW282115   5.491   7.092   3.977  1.7730 -0.1058  1.4841
26639SOL     OW82116   2.150   9.345   0.386  0.1799  0.6703  0.2675
26639SOL    HW182117   2.105   9.260   0.387 -0.2925  0.9014 -0.6650
26639SOL    HW282118   2.236   9.326   0.348 -0.1655  0.7141 -0.5523
26640SOL     OW82119   0.512   8.606   0.236  0.4452 -0.6931 -0.5423
26640SOL    HW182120   0.517   8.683   0.292  2.0524 -0.8888 -0.3737
26640SOL    HW282121   0.516   8.532   0.297  0.4207 -0.9053 -0.7959
26641SOL     OW82122   8.069   5.877   1.431 -0.2452 -0.7165  0.5822
26641SOL    HW182123   8.001   5.857   1.494 -1.2147  0.6054  0.0111
26641SOL    HW282124   8.114   5.954   1.468 -2.8665  2.1538 -1.6594
26642SOL     OW82125   9.188   0.126   2.484  0.2987 -0.1504  0.4607
26642SOL    HW182126   9.097   0.156   2.478  0.3908  0.0192 -0.1118
26642SOL    HW282127   9.189   0.044   2.435  1.2455  1.6763 -2.9147
26643SOL     OW82128   0.336   1.451   5.678 -0.8917  0.8025  0.1005
26643SOL    HW182129   0.368   1.450   5.768 -0.9032  0.4697  0.0988
26643SOL    HW282130   0.413   1.473   5.626 -0.7565  0.4075  0.1355
26644SOL     OW82131   1.595   4.133   9.229 -0.4777  0.3191  0.0075
26644SOL    HW182132   1.622   4.124   9.137  0.5962  0.0915  0.3312
26644SOL    HW282133   1.529   4.065   9.241 -0.7850  0.4932 -0.6519
26645SOL     OW82134   0.333   9.415   8.427  0.3447 -0.5475  0.0901
26645SOL    HW182135   0.340   9.498   8.379 -0.9282 -1.1849 -1.2932
26645SOL    HW282136   0.408   9.415   8.486  1.5846  0.6366 -1.3887
26646SOL     OW82137   5.200   6.969   6.673  0.0095 -0.1510  0.6616
26646SOL    HW182138   5.240   7.018   6.744 -2.0164  0.7315  1.2711
26646SOL    HW282139   5.225   7.017   6.594 -2.4764  2.4438  1.2825
26647SOL     OW82140   4.170   8.892   1.863  0.1582 -0.7697 -0.6822
26647SOL    HW182141   4.167   8.833   1.788  1.4177 -1.7739  0.0102
26647SOL    HW282142   4.235   8.853   1.922 -1.1462 -0.2938  1.1794
26648SOL     OW82143   1.730   0.468   4.044  0.4158 -0.2463  0.2035
26648SOL    HW182144   1.693   0.395   4.094  0.2650  0.7462  1.5621
26648SOL    HW282145   1.816   0.436   4.015 -0.1275 -1.3755 -0.2344
26649SOL     OW82146   1.252   8.747   5.106  0.0405 -0.4293  0.2081
26649SOL    HW182147   1.198   8.719   5.033 -1.1730 -1.4833  1.4708
26649SOL    HW282148   1.196   8.737   5.183  1.4561  0.1347  1.3582
26650SOL     OW82149   9.259   5.464   6.566 -0.1753 -0.0677 -0.2771
26650SOL    HW182150   9.209   5.480   6.646 -0.7406  0.9849 -0.8220
26650SOL    HW282151   9.245   5.542   6.513 -1.7374 -1.6661 -2.3990
26651SOL     OW82152   1.085   8.542   6.866  0.1191 -0.2077  0.8841
26651SOL    HW182153   1.084   8.636   6.846  2.9895 -0.3112 -0.1914
26651SOL    HW282154   1.047   8.500   6.789 -0.3793  0.0383  0.9970
26652SOL     OW82155   7.055   5.858   7.323 -0.1002  0.1933  0.5539
26652SOL    HW182156   7.124   5.923   7.338  0.1802 -0.1367  0.7117
26652SOL    HW282157   7.100   5.774   7.328 -0.2696  0.0063 -0.5896
26653SOL     OW82158   8.192   8.649   7.776  0.0745  0.4974 -0.4056
26653SOL    HW182159   8.251   8.596   7.829  1.1020  1.9460 -0.0241
26653SOL    HW282160   8.249   8.716   7.738 -0.9249  0.4731 -2.0355
26654SOL     OW82161   8.127   9.558   7.981  0.1292 -0.8631  0.3183
26654SOL    HW182162   8.154   9.631   7.925  2.1736 -2.1230 -0.4376
26654SOL    HW282163   8.126   9.482   7.924  1.9442 -2.1406  1.8728
26655SOL     OW82164   9.458   0.632   1.234  0.4692 -0.4296 -0.1621
26655SOL    HW182165   9.422   0.603   1.151 -0.6424  0.5385 -0.0369
26655SOL    HW282166   9.535   0.576   1.248 -0.5249 -2.0135 -0.8166
26656SOL     OW82167   6.247   2.276   9.420 -0.1490  0.5219  0.8069
26656SOL    HW182168   6.320   2.279   9.482  0.2075  1.6878  0.3583
26656SOL    HW282169   6.270   2.206   9.359  0.9835  1.3630  0.2300
26657SOL     OW82170   0.109   6.496   2.480 -0.0538 -0.2987 -0.0766
26657SOL    HW182171   0.095   6.404   2.457 -4.9265  0.4930 -1.6256
26657SOL    HW282172   0.096   6.499   2.575 -4.8413 -0.9192 -0.4531
26658SOL     OW82173   5.225   5.192   5.150 -0.1063 -0.6957  0.0241
26658SOL    HW182174   5.198   5.146   5.070 -0.3460 -1.6042  0.6104
26658SOL    HW282175   5.307   5.150   5.175  0.5057  0.2815 -0.2958
26659SOL     OW82176   1.040   5.653   1.018 -0.0559  0.7521 -0.3422
26659SOL    HW182177   1.055   5.701   1.099  0.4045 -0.5623  0.3922
26659SOL    HW282178   1.117   5.596   1.009 -1.1554 -0.7869 -0.4485
26660SOL     OW82179   3.794   2.518   0.315  0.3757 -0.0924 -0.6905
26660SOL    HW182180   3.790   2.426   0.340 -1.5566  0.3812  1.0145
26660SOL    HW282181   3.705   2.539   0.287  0.2783  1.6972  0.7742
26661SOL     OW82182   3.562   6.575   9.236 -0.2941  0.1790 -0.5877
26661SOL    HW182183   3.516   6.654   9.264  0.5199  0.1063  1.0682
26661SOL    HW282184   3.492   6.515   9.210 -0.9515  1.1935 -1.2633
26662SOL     OW82185   0.247   2.652   7.437  0.2325  0.0450  0.5996
26662SOL    HW182186   0.292   2.594   7.375 -1.3272 -0.5896  0.0195
26662SOL    HW282187   0.177   2.693   7.386 -2.1642 -1.7281  2.2411
26663SOL     OW82188   4.384   7.191   8.933 -0.3839 -0.2730  0.2421
26663SOL    HW182189   4.458   7.250   8.942 -1.1172  0.9252 -1.1993
26663SOL    HW282190   4.307   7.248   8.938 -1.1415 -1.2203 -0.2857
26664SOL     OW82191   3.877   4.514   6.739 -0.1863 -0.9159 -0.3659
26664SOL    HW182192   3.929   4.553   6.669 -0.7054 -2.2963 -1.5573
26664SOL    HW282193   3.787   4.515   6.706 -0.5154 -1.1083  0.4955
26665SOL     OW82194   3.370   2.881   6.046 -0.1995 -0.1044  0.1996
26665SOL    HW182195   3.291   2.921   6.082 -0.0551  1.9939 -1.5820
26665SOL    HW282196   3.434   2.888   6.116 -1.4209 -1.3912  1.4974
26666SOL     OW82197   6.879   2.895   7.403 -0.4034  0.0609  0.4792
26666SOL    HW182198   6.923   2.980   7.398 -0.8896  0.3512  1.0674
26666SOL    HW282199   6.933   2.843   7.463  0.9749 -0.7237 -1.3451
26667SOL     OW82200   5.689   8.872   1.263 -0.3661 -0.0953 -0.1415
26667SOL    HW182201   5.737   8.919   1.195  0.8547 -0.8120  0.1941
26667SOL    HW282202   5.640   8.940   1.308 -0.0651  0.5962 -0.8272
26668SOL     OW82203   8.464   1.304   2.025 -0.4449  0.0886  0.1812
26668SOL    HW182204   8.543   1.311   1.970 -0.1460 -0.2255  0.5703
26668SOL    HW282205   8.497   1.291   2.113 -0.9455 -0.7129  0.2560
26669SOL     OW82206   1.948   4.361   6.738  0.1252  0.2699  0.7171
26669SOL    HW182207   2.022   4.349   6.797 -1.0144 -1.2885  1.9156
26669SOL    HW282208   1.875   4.319   6.783 -0.8985 -0.6222 -1.6161
26670SOL     OW82209   5.659   8.192   5.613 -0.2214  0.3252  0.0321
26670SOL    HW182210   5.722   8.123   5.630  1.1899  1.6934  0.6390
26670SOL    HW282211   5.611   8.202   5.695  0.8422  1.2626  0.5737
26671SOL     OW82212   9.081   8.773   6.334  0.5327  0.2297 -0.1079
26671SOL    HW182213   9.048   8.852   6.290  0.7470  0.1784 -0.3612
26671SOL    HW282214   9.150   8.740   6.276 -2.0840 -2.3321 -2.0367
26672SOL     OW82215   8.989   4.330   4.128  0.0360  0.1651  0.3278
26672SOL    HW182216   8.999   4.285   4.044  2.2745  1.0120  0.0729
26672SOL    HW282217   9.057   4.398   4.127 -1.6585  1.9932  1.6932
26673SOL     OW82218   7.355   1.311   6.896 -0.1736  0.2307 -0.2283
26673SOL    HW182219   7.368   1.246   6.827  1.1262  1.5153 -1.2715
26673SOL    HW282220   7.289   1.371   6.860  2.2541  2.3057 -1.5329
26674SOL     OW82221   5.331   1.536   4.723 -0.0021  0.5502 -0.5817
26674SOL    HW182222   5.298   1.549   4.811 -1.6771  0.7227 -1.2070
26674SOL    HW282223   5.422   1.509   4.735 -0.5950 -0.8270  1.2496
26675SOL     OW82224   0.715   0.488   1.980  0.4994 -0.1712 -0.6377
26675SOL    HW182225   0.620   0.495   1.988  0.7430  0.7085  3.5882
26675SOL    HW282226   0.731   0.394   1.967 -0.9432 -0.6800  0.8554
26676SOL     OW82227   2.594   4.269   2.352 -0.1523 -0.0169  0.7222
26676SOL    HW182228   2.577   4.267   2.446  0.1792 -1.4425  0.7838
26676SOL    HW282229   2.508   4.257   2.312 -0.3419  0.9361  0.8180
26677SOL     OW82230   1.435   9.550   1.597 -0.2082 -0.5790 -0.3140
26677SOL    HW182231   1.475   9.636   1.585  0.3075 -0.6594  0.7541
26677SOL    HW282232   1.370   9.564   1.666  1.3873 -1.4845  1.4468
26678SOL     OW82233   3.466   0.862   1.678  0.3661 -0.0860  0.0618
26678SOL    HW182234   3.467   0.803   1.754  2.1692 -1.1430 -0.7061
26678SOL    HW282235   3.515   0.815   1.611  1.0965  1.9229 -0.8982
26679SOL     OW82236   2.400   5.234   6.836  0.8123  0.2658  0.4688
26679SOL    HW182237   2.454   5.155   6.829 -0.9924 -1.0007 -0.0897
26679SOL    HW282238   2.332   5.211   6.900  0.6127  1.6106  0.7681
26680SOL     OW82239   6.315   3.537   3.051  0.4262 -0.3946 -0.1757
26680SOL    HW182240   6.258   3.578   3.116  0.3219  2.2577 -1.8229
26680SOL    HW282241   6.255   3.485   2.997  0.0339 -0.0590 -0.0715
26681SOL     OW82242   3.054   4.188   4.512 -0.8447  0.1109  0.1477
26681SOL    HW182243   3.147   4.168   4.503 -1.1626 -2.1658  1.1368
26681SOL    HW282244   3.043   4.210   4.605 -1.4571 -0.7807  0.3007
26682SOL     OW82245   7.826   1.443   8.292 -0.1409  0.0845 -0.2859
26682SOL    HW182246   7.780   1.359   8.299  0.8175 -0.4174  0.1824
26682SOL    HW282247   7.911   1.428   8.334  1.1166  0.5091 -2.4902
26683SOL     OW82248   3.248   7.623   4.033 -0.5266 -0.5738  0.0689
26683SOL    HW182249   3.216   7.538   4.062 -1.3009 -0.4707 -0.4528
26683SOL    HW282250   3.172   7.664   3.991  0.4516 -0.5915 -1.8004
26684SOL     OW82251   7.001   7.873   6.787 -0.0625  0.7605  0.0015
26684SOL    HW182252   6.983   7.782   6.766  1.4122  0.8118 -1.7356
26684SOL    HW282253   6.940   7.923   6.733  0.7951  0.8186 -0.9385
26685SOL     OW82254   3.454   1.359   2.977 -0.3532  0.1494 -0.0048
26685SOL    HW182255   3.430   1.430   2.917 -2.5123 -0.8847 -0.4827
26685SOL    HW282256   3.422   1.279   2.933 -0.0335 -0.8640  1.5284
26686SOL     OW82257   2.783   1.175   6.269  0.3718  0.8828 -0.0655
26686SOL    HW182258   2.850   1.235   6.303  0.5290  1.7880 -1.8695
26686SOL    HW282259   2.735   1.147   6.347  0.5493  3.0561  0.8981
26687SOL     OW82260   0.698   4.966   3.821 -0.0346 -0.4142 -0.2732
26687SOL    HW182261   0.638   4.987   3.749 -0.6743 -1.2631 -0.0122
26687SOL    HW282262   0.782   4.950   3.779  0.2020  1.4505 -0.5868
26688SOL     OW82263   3.012   3.996   4.283 -0.9290 -0.3745 -0.8957
26688SOL    HW182264   3.032   4.026   4.371  0.8195 -2.2549 -0.5689
26688SOL    HW282265   3.096   3.995   4.237 -1.7977  0.5687 -2.6149
26689SOL     OW82266   0.666   5.019   6.115 -0.4516 -0.5172 -0.0968
26689SOL    HW182267   0.688   5.031   6.207  0.2289 -1.2494 -0.1600
26689SOL    HW282268   0.591   4.960   6.115  0.0850 -1.2106 -0.0377
26690SOL     OW82269   7.983   4.191   8.256 -0.2261  0.0406  0.0774
26690SOL    HW182270   8.047   4.225   8.193  1.0836  0.6058  1.6599
26690SOL    HW282271   7.901   4.234   8.233  0.0014 -0.4242 -1.7613
26691SOL     OW82272   3.776   5.014   4.992  0.4980  0.1324 -0.1007
26691SOL    HW182273   3.682   4.999   4.994  0.1489  2.1134  1.2429
26691SOL    HW282274   3.806   4.968   4.913 -1.3412 -1.6618  0.1756
26692SOL     OW82275   1.204   0.492   4.363  0.2695  0.6634  0.0114
26692SOL    HW182276   1.172   0.580   4.345 -0.3169  0.4324 -0.1131
26692SOL    HW282277   1.125   0.438   4.364  0.7983 -0.2052 -1.9169
26693SOL     OW82278   1.902   7.715   1.415 -0.1609 -0.4919  0.1209
26693SOL    HW182279   1.935   7.656   1.483  1.0931 -0.1106 -0.1401
26693SOL    HW282280   1.979   7.763   1.385 -1.0817  1.0193  0.0536
26694SOL     OW82281   2.448   8.937   9.075  0.2706  0.1303 -0.0787
26694SOL    HW182282   2.356   8.930   9.050  0.8851  1.0415 -2.8680
26694SOL    HW282283   2.456   9.025   9.111 -0.3391 -0.7304  2.3653
26695SOL     OW82284   4.141   2.310   5.009 -0.2661 -0.0635 -0.2683
26695SOL    HW182285   4.206   2.246   5.038 -0.9853 -0.3177  0.8257
26695SOL    HW282286   4.192   2.375   4.959  0.8206 -0.2503  0.5594
26696SOL     OW82287   3.289   3.623   8.938 -0.2265  0.3676  0.1613
26696SOL    HW182288   3.294   3.681   9.014  0.1980  0.2855  0.2013
26696SOL    HW282289   3.231   3.668   8.877  0.2103  0.9126  0.1307
26697SOL     OW82290   7.874   0.082   0.743 -0.4337 -0.3638  0.4704
26697SOL    HW182291   7.869   0.170   0.706 -0.7865  0.0819  1.5284
26697SOL    HW282292   7.965   0.056   0.732  0.1482  0.9293  1.8528
26698SOL     OW82293   6.197   3.398   5.552 -0.5633 -0.0498 -0.4440
26698SOL    HW182294   6.208   3.326   5.614 -1.9324 -0.2750 -0.4265
26698SOL    HW282295   6.284   3.436   5.543  0.0147 -1.1917  0.1801
26699SOL     OW82296   6.265   4.984   3.564 -0.0712  0.4967 -0.1715
26699SOL    HW182297   6.334   4.925   3.594 -0.4311 -0.3421 -0.9644
26699SOL    HW282298   6.267   5.057   3.626 -1.8900 -1.9031  3.0494
26700SOL     OW82299   0.217   5.862   3.303 -0.1150 -0.1366 -0.0040
26700SOL    HW182300   0.290   5.901   3.351 -1.8037  0.1057  2.5289
26700SOL    HW282301   0.161   5.937   3.280  0.4649 -0.2807 -2.1779
26701SOL     OW82302   5.247   5.094   0.414  0.4950  1.0502 -0.4607
26701SOL    HW182303   5.267   5.181   0.452 -1.1534  1.2669 -0.0233
26701SOL    HW282304   5.203   5.114   0.332  2.3096  0.5771 -1.5899
26702SOL     OW82305   3.904   4.719   7.207 -0.6337  0.6751  0.2317
26702SOL    HW182306   3.895   4.648   7.271 -0.4610  0.7650  0.3573
26702SOL    HW282307   3.921   4.674   7.124 -1.0102  0.5537  0.2219
26703SOL     OW82308   9.115   2.563   7.800 -0.3026 -0.1473  0.0733
26703SOL    HW182309   9.178   2.564   7.728  1.0792  0.6251  1.2358
26703SOL    HW282310   9.116   2.652   7.835 -1.1123 -0.4424  0.8993
26704SOL     OW82311   8.205   6.214   7.370  0.2430 -0.5492 -0.6486
26704SOL    HW182312   8.272   6.237   7.435  1.4107 -0.5989 -1.7900
26704SOL    HW282313   8.249   6.154   7.311 -0.7559 -0.4087 -1.5675
26705SOL     OW82314   2.703   4.810   2.691 -0.1056 -0.1151 -0.1078
26705SOL    HW182315   2.773   4.871   2.671  1.6616 -1.0454  2.6790
26705SOL    HW282316   2.692   4.816   2.786 -2.7289 -1.1810 -0.2477
26706SOL     OW82317   6.151   6.539   0.685 -0.5617 -0.1242  0.2189
26706SOL    HW182318   6.063   6.506   0.666 -0.3545 -0.0227 -0.9782
26706SOL    HW282319   6.201   6.521   0.605  0.7679 -1.0594  1.2221
26707SOL     OW82320   4.403   1.677   7.340 -0.1466  0.8471 -0.4344
26707SOL    HW182321   4.348   1.617   7.390  0.8748 -0.4026 -0.7633
26707SOL    HW282322   4.367   1.764   7.358 -0.4999  0.3305  1.5600
26708SOL     OW82323   7.186   8.277   1.325  0.5087 -0.1059  0.4163
26708SOL    HW182324   7.273   8.314   1.341  0.8332 -0.9965  0.7564
26708SOL    HW282325   7.189   8.190   1.364 -0.5550 -0.1346  0.4752
26709SOL     OW82326   1.695   2.742   4.170 -0.2434  0.6418  0.2476
26709SOL    HW182327   1.790   2.730   4.161 -0.5403 -2.3429  0.0002
26709SOL    HW282328   1.664   2.753   4.080 -0.3431 -1.2069  0.0039
26710SOL     OW82329   3.100   6.767   1.600 -0.1157 -0.1699  0.4929
26710SOL    HW182330   3.084   6.764   1.506  0.2007 -0.4228  0.4421
26710SOL    HW282331   3.028   6.717   1.639  0.2822 -0.9011  0.3069
26711SOL     OW82332   1.134   0.230   5.880  0.2490  0.2237  0.3119
26711SOL    HW182333   1.046   0.244   5.845 -0.2719 -1.5774  0.8028
26711SOL    HW282334   1.158   0.313   5.920 -1.7928  0.3464  1.3806
26712SOL     OW82335   7.731   6.135   0.854  0.0227  0.4678  0.2366
26712SOL    HW182336   7.741   6.227   0.877  1.3841  0.0172  1.6148
26712SOL    HW282337   7.669   6.100   0.918 -0.0366  0.2845  0.0809
26713SOL     OW82338   6.368   8.055   7.879  0.2314 -0.3582 -0.2104
26713SOL    HW182339   6.424   8.049   7.801  1.4717 -4.1430  0.7443
26713SOL    HW282340   6.420   8.016   7.949 -2.3798 -0.9782  1.5428
26714SOL     OW82341   4.469   1.238   4.090 -0.4845  0.0060  0.2591
26714SOL    HW182342   4.468   1.203   4.001 -1.7299  1.9488 -0.5667
26714SOL    HW282343   4.498   1.328   4.080  0.5993 -0.0981  2.0221
26715SOL     OW82344   3.842   0.055   6.496 -0.1597  0.3538 -0.3980
26715SOL    HW182345   3.885   0.070   6.580  0.9754  0.0916 -0.9121
26715SOL    HW282346   3.748   0.058   6.516  0.0504 -1.7621  1.2611
26716SOL     OW82347   1.337   2.901   5.400 -0.0303  0.6309 -0.0620
26716SOL    HW182348   1.423   2.916   5.437  0.1699  0.0612 -0.2976
26716SOL    HW282349   1.354   2.872   5.310 -0.4218 -0.5450  0.2257
26717SOL     OW82350   3.390   2.474   7.402 -0.0187  0.3843 -0.1469
26717SOL    HW182351   3.296   2.455   7.392 -0.3850  1.8377  0.3017
26717SOL    HW282352   3.393   2.543   7.469  1.3752  0.3948 -0.2036
26718SOL     OW82353   6.150   4.091   3.732  0.3746 -0.1086 -0.4310
26718SOL    HW182354   6.122   4.166   3.679 -0.5076  1.1247  1.6896
26718SOL    HW282355   6.134   4.117   3.822 -0.6760 -3.1548  0.3822
26719SOL     OW82356   2.055   2.100   4.237  0.5483 -0.0155 -0.9618
26719SOL    HW182357   2.002   2.123   4.160 -1.0447 -1.4936 -0.3790
26719SOL    HW282358   2.022   2.158   4.306  1.4505  0.7775 -1.1704
26720SOL     OW82359   3.124   5.662   9.344  0.1754  0.4808 -0.2143
26720SOL    HW182360   3.199   5.627   9.296  1.5715  1.7928  0.8936
26720SOL    HW282361   3.085   5.726   9.283  1.6162  1.7549  0.1300
26721SOL     OW82362   7.693   2.417   1.705  0.2212  0.2397  0.5427
26721SOL    HW182363   7.603   2.388   1.691  0.3665 -2.2753  3.6285
26721SOL    HW282364   7.739   2.392   1.625 -1.1868 -1.6023  0.2371
26722SOL     OW82365   0.975   9.335   1.961 -0.2418  0.3867 -0.3383
26722SOL    HW182366   1.001   9.426   1.952 -0.1992  0.3584 -0.5146
26722SOL    HW282367   0.893   9.337   2.010  0.8247  0.3913  1.5320
26723SOL     OW82368   0.977   0.556   8.789 -0.3426 -0.4661  0.1439
26723SOL    HW182369   0.985   0.581   8.881  0.1525 -0.1755  0.0265
26723SOL    HW282370   1.004   0.634   8.740 -1.1933 -0.4099 -0.2627
26724SOL     OW82371   0.388   1.863   7.325 -0.5348 -0.5131  0.3449
26724SOL    HW182372   0.366   1.771   7.312  1.5808 -0.8938 -1.0586
26724SOL    HW282373   0.471   1.862   7.371  0.1949  0.6387 -0.8785
26725SOL     OW82374   2.808   4.212   9.468 -0.2983 -0.3379  0.0406
26725SOL    HW182375   2.756   4.291   9.453  1.1478  0.4129 -1.3440
26725SOL    HW282376   2.787   4.186   9.558 -3.1647 -0.2198 -0.5134
26726SOL     OW82377   6.616   9.260   9.458 -0.2980 -0.2410  0.2533
26726SOL    HW182378   6.571   9.213   9.387  1.1463  0.6031 -1.2997
26726SOL    HW282379   6.690   9.203   9.481 -0.2258 -0.0824  0.4117
26727SOL     OW82380   6.160   5.960   1.398  0.4599 -0.3344  0.0290
26727SOL    HW182381   6.211   5.926   1.471 -1.1558  0.4470  1.5908
26727SOL    HW282382   6.078   5.991   1.437 -0.4853  0.0961 -2.1168
26728SOL     OW82383   2.767   6.288   1.486 -0.4235 -0.4228  0.5262
26728SOL    HW182384   2.675   6.295   1.510 -0.3221 -0.0868  0.8312
26728SOL    HW282385   2.779   6.354   1.418  0.2642  1.7415  2.5835
26729SOL     OW82386   3.757   3.591   4.293 -0.3254 -0.5514 -0.2946
26729SOL    HW182387   3.695   3.643   4.242 -0.3035 -0.1729  0.0572
26729SOL    HW282388   3.702   3.531   4.344 -0.3131 -1.5159 -1.3704
26730SOL     OW82389   6.973   4.619   3.528  0.1210  0.3997  0.2059
26730SOL    HW182390   6.960   4.660   3.442 -0.2816 -1.3895 -0.6482
26730SOL    HW282391   6.936   4.681   3.590 -2.1142  0.5932 -1.1736
26731SOL     OW82392   0.142   7.848   1.845 -0.0558 -0.2670  0.6912
26731SOL    HW182393   0.063   7.825   1.894 -1.1784  1.4808 -0.2037
26731SOL    HW282394   0.162   7.937   1.873 -0.4555  0.6109 -1.6063
26732SOL     OW82395   8.411   2.729   5.370  0.0109  0.4798 -0.0693
26732SOL    HW182396   8.323   2.761   5.389  0.6104  1.5761  1.0667
26732SOL    HW282397   8.446   2.793   5.307  0.2502  0.4871  0.0702
26733SOL     OW82398   3.027   2.615   1.419  0.5024  0.1728 -0.2180
26733SOL    HW182399   2.964   2.686   1.403 -0.3357 -0.4943  0.0917
26733SOL    HW282400   3.094   2.656   1.473  0.0731  0.7584 -0.1071
26734SOL     OW82401   1.234   2.540   1.229 -0.3619  0.8567 -0.1363
26734SOL    HW182402   1.256   2.469   1.290  1.0643  1.4333  0.0552
26734SOL    HW282403   1.159   2.584   1.270 -0.3974  0.2941  0.4256
26735SOL     OW82404   8.948   3.510   7.418 -0.3929  0.3135  0.0084
26735SOL    HW182405   8.858   3.477   7.408 -0.8607  1.8483 -1.2848
26735SOL    HW282406   8.944   3.568   7.493 -0.3135 -0.0939  0.3348
26736SOL     OW82407   1.054   4.971   6.197  0.8013  0.0069  0.6239
26736SOL    HW182408   1.074   5.064   6.184  0.9802 -0.1037  0.0787
26736SOL    HW282409   1.013   4.943   6.115 -0.4583 -0.0892  1.2594
26737SOL     OW82410   1.128   7.285   7.055  0.2399  0.2006 -0.5912
26737SOL    HW182411   1.078   7.364   7.075  2.0988  1.5882 -1.1216
26737SOL    HW282412   1.189   7.275   7.128  0.3231 -0.5058 -0.7467
26738SOL     OW82413   3.493   4.087   2.102 -0.2900 -0.4654 -0.4809
26738SOL    HW182414   3.452   4.003   2.121 -1.6665 -0.1090 -1.7566
26738SOL    HW282415   3.586   4.066   2.090  0.0412 -1.2506  2.6733
26739SOL     OW82416   0.777   1.567   9.019  0.1730 -0.0780  0.4780
26739SOL    HW182417   0.737   1.650   9.043  0.2670 -0.1120  0.7618
26739SOL    HW282418   0.845   1.554   9.085  1.7561  0.7658 -0.9107
26740SOL     OW82419   7.970   1.980   7.127 -0.0239  0.2262 -0.1123
26740SOL    HW182420   7.956   2.000   7.219 -2.8100  0.7870 -0.5904
26740SOL    HW282421   8.065   1.965   7.120  0.0244 -1.9283  3.2020
26741SOL     OW82422   1.530   8.867   4.541 -0.1780  0.4215 -0.0949
26741SOL    HW182423   1.508   8.857   4.448 -1.6383 -1.8315  0.4081
26741SOL    HW282424   1.480   8.798   4.585  0.5151  1.3904  2.3783
26742SOL     OW82425   7.089   3.959   7.651 -0.3809  0.2411 -0.0248
26742SOL    HW182426   7.001   3.968   7.687  0.0154 -0.2666  1.1225
26742SOL    HW282427   7.136   4.036   7.682 -0.5031  0.6919 -0.9265
26743SOL     OW82428   7.480   9.046   2.222  0.1574  0.1850 -0.2149
26743SOL    HW182429   7.503   9.053   2.129  0.3119 -1.2250 -0.2994
26743SOL    HW282430   7.431   8.965   2.229 -0.3952  0.5890  0.8441
26744SOL     OW82431   3.623   5.876   9.501 -0.4973 -0.0762 -0.2770
26744SOL    HW182432   3.610   5.839   9.414  0.3918 -0.1767 -0.3752
26744SOL    HW282433   3.717   5.868   9.517 -0.6269  0.0724  0.6326
26745SOL     OW82434   4.930   4.207   3.928 -0.1099 -0.2985 -0.0641
26745SOL    HW182435   4.976   4.130   3.895 -0.3120 -0.7195  0.6028
26745SOL    HW282436   4.850   4.211   3.875 -0.3973 -0.9247  0.3001
26746SOL     OW82437   2.834   7.188   7.891  0.4885 -0.3470 -0.4933
26746SOL    HW182438   2.895   7.147   7.953 -1.7937 -0.6099  1.7041
26746SOL    HW282439   2.783   7.249   7.944 -1.3898 -0.3781 -2.1504
26747SOL     OW82440   0.272   0.145   2.732 -0.2597 -0.0350 -0.3008
26747SOL    HW182441   0.360   0.155   2.767  0.1754  0.5708 -1.5369
26747SOL    HW282442   0.258   0.223   2.679 -0.9628 -0.8556 -1.3579
26748SOL     OW82443   7.623   7.241   7.421 -0.0474  0.1570  0.6618
26748SOL    HW182444   7.670   7.317   7.385 -1.2863 -0.0919 -1.7437
26748SOL    HW282445   7.667   7.221   7.503  2.0447  1.7972  0.0201
26749SOL     OW82446   7.864   1.636   9.217 -0.2645  0.4069 -0.5468
26749SOL    HW182447   7.836   1.552   9.181  1.1545  0.1507 -1.0854
26749SOL    HW282448   7.868   1.695   9.141 -0.6868  0.8260 -0.2560
26750SOL     OW82449   5.933   8.101   1.988 -0.4209 -0.7309  0.0911
26750SOL    HW182450   5.957   8.105   2.081  0.1135  0.4073 -0.0796
26750SOL    HW282451   6.005   8.053   1.947 -1.6189 -3.0553  0.5268
26751SOL     OW82452   8.664   5.555   5.161  0.2553 -0.2254  0.0136
26751SOL    HW182453   8.698   5.470   5.134 -0.5318 -0.5859  0.1408
26751SOL    HW282454   8.678   5.558   5.255  0.2937 -0.2041  0.0074
26752SOL     OW82455   1.968   8.528   5.184  0.5377  0.8889 -0.2434
26752SOL    HW182456   1.932   8.608   5.146 -0.7692  0.7764  0.6934
26752SOL    HW282457   1.913   8.511   5.260  1.0306 -0.7026 -0.2159
26753SOL     OW82458   8.978   8.994   2.909  0.5699 -0.2456 -0.0878
26753SOL    HW182459   9.035   9.050   2.856  1.4297 -1.0323 -0.0225
26753SOL    HW282460   8.896   9.043   2.917  0.2715 -0.2586 -2.4657
26754SOL     OW82461   2.419   6.142   0.962 -0.2416  0.0119  0.0242
26754SOL    HW182462   2.368   6.115   1.038 -1.2277  1.1840 -0.1955
26754SOL    HW282463   2.466   6.063   0.935 -3.7211 -1.8386 -1.1986
26755SOL     OW82464   6.319   9.001   2.924  0.0578 -0.5641 -0.1397
26755SOL    HW182465   6.279   9.086   2.904  1.4999  0.3701  0.7248
26755SOL    HW282466   6.411   9.012   2.897  0.4738 -1.5385  0.8336
26756SOL     OW82467   4.307   0.317   5.612 -0.6898  0.3270  0.4408
26756SOL    HW182468   4.311   0.221   5.618  0.2120  0.1607 -1.7052
26756SOL    HW282469   4.353   0.348   5.690  1.6876 -1.0828 -0.2925
26757SOL     OW82470   3.243   1.336   1.402 -0.0523  0.0266  0.3533
26757SOL    HW182471   3.302   1.308   1.472  1.7374 -0.2030 -1.1702
26757SOL    HW282472   3.175   1.269   1.400  0.6949 -0.7730  0.9302
26758SOL     OW82473   2.525   9.276   6.458  0.0498  0.1153  0.3902
26758SOL    HW182474   2.484   9.345   6.512 -1.3846  0.9349 -1.6150
26758SOL    HW282475   2.461   9.259   6.389  0.8944 -2.4294  0.1353
26759SOL     OW82476   8.416   9.264   0.387 -0.1755 -0.2149 -0.1507
26759SOL    HW182477   8.358   9.313   0.328 -1.7610 -1.1784  0.5424
26759SOL    HW282478   8.356   9.211   0.440  0.9551  1.9803  3.6736
26760SOL     OW82479   9.567   7.533   5.772  0.0473 -0.4488  0.1527
26760SOL    HW182480   9.514   7.469   5.821  1.1523 -0.1504  1.8125
26760SOL    HW282481   9.506   7.605   5.755 -0.4390 -0.6527  0.9365
26761SOL     OW82482   4.597   8.595   0.089 -0.1707 -0.2763 -0.3915
26761SOL    HW182483   4.672   8.537   0.094  0.3314  0.4454  1.0662
26761SOL    HW282484   4.620   8.659   0.022  0.9917  0.5344  0.7321
26762SOL     OW82485   2.947   6.248   4.764 -0.4493  0.5583 -0.1305
26762SOL    HW182486   2.945   6.316   4.831  1.3665  0.4455  0.0910
26762SOL    HW282487   3.038   6.218   4.762 -1.3533 -2.6157  0.5226
26763SOL     OW82488   5.606   5.280   2.407  0.0402  0.4130 -0.1602
26763SOL    HW182489   5.559   5.359   2.436  0.1393  0.6334 -0.5917
26763SOL    HW282490   5.665   5.312   2.339  1.4439  0.2941  0.9693
26764SOL     OW82491   0.073   9.506   8.316  0.0121  0.4606 -0.4369
26764SOL    HW182492   0.116   9.589   8.338 -1.5542  1.2127 -0.0554
26764SOL    HW282493  -0.014   9.532   8.285  0.3520 -0.8873 -2.7644
26765SOL     OW82494   7.660   5.233   2.215 -0.2864  0.4728  0.6524
26765SOL    HW182495   7.610   5.190   2.285 -2.4100  0.0834 -0.9932
26765SOL    HW282496   7.703   5.161   2.170 -1.6845  0.3092 -0.4760
26766SOL     OW82497   3.011   5.119   2.355 -0.5165 -0.1103 -0.1810
26766SOL    HW182498   2.991   5.056   2.286 -1.4772 -0.2979  0.2505
26766SOL    HW282499   3.009   5.204   2.311  2.0216 -0.4067 -1.0360
26767SOL     OW82500   8.096   5.595   2.260  0.6706  0.5218  0.0986
26767SOL    HW182501   8.009   5.562   2.280  0.8813 -0.1054  0.0122
26767SOL    HW282502   8.153   5.554   2.325  0.7641  1.7547  0.8269
26768SOL     OW82503   5.117   8.731   2.796 -0.1813  0.0985 -0.1650
26768SOL    HW182504   5.196   8.705   2.749  0.4621  1.5183  0.0699
26768SOL    HW282505   5.144   8.731   2.888 -0.6703 -0.1303 -0.0240
26769SOL     OW82506   1.452   2.753   0.518  0.5451  0.0006  0.1696
26769SOL    HW182507   1.385   2.696   0.481  0.1707  0.4703  0.1124
26769SOL    HW282508   1.410   2.793   0.594  0.5410  0.7887 -0.2401
26770SOL     OW82509   5.089   1.150   1.363 -0.1121 -0.2079  0.4973
26770SOL    HW182510   5.020   1.089   1.390 -1.8448  1.9171  1.1411
26770SOL    HW282511   5.115   1.195   1.443 -1.2488  2.1799 -0.3829
26771SOL     OW82512   7.924   6.289   0.034  0.0777 -0.4209  0.4484
26771SOL    HW182513   7.907   6.354   0.101 -1.1531 -0.6131  0.3504
26771SOL    HW282514   7.945   6.209   0.083 -1.4002 -0.7150  0.6440
26772SOL     OW82515   0.252   8.109   6.885  0.5315  1.0480  0.3839
26772SOL    HW182516   0.317   8.066   6.830 -0.0006  1.8003 -0.8617
26772SOL    HW282517   0.207   8.170   6.827 -0.0370  1.8893  1.6627
26773SOL     OW82518   8.573   6.478   0.822  0.3011 -0.2234 -0.8637
26773SOL    HW182519   8.649   6.462   0.766  0.6670 -0.8174 -0.2049
26773SOL    HW282520   8.517   6.402   0.809  0.7999 -0.8028  0.2300
26774SOL     OW82521   7.211   4.599   3.747 -0.1731 -0.1109  0.0475
26774SOL    HW182522   7.234   4.583   3.838  0.5988  2.1772  0.3303
26774SOL    HW282523   7.116   4.597   3.744 -0.1860 -0.6709  0.8057
26775SOL     OW82524   0.546   2.134   6.876 -0.1901 -0.3704  0.0495
26775SOL    HW182525   0.586   2.220   6.889  0.2416  0.0102 -3.0866
26775SOL    HW282526   0.600   2.092   6.810 -1.5649 -2.2704  0.0503
26776SOL     OW82527   9.537   8.042   0.594 -0.0560  0.2498  0.0555
26776SOL    HW182528   9.521   8.136   0.586  0.0613  0.2681  0.0297
26776SOL    HW282529   9.452   8.001   0.574  0.3640  0.2660 -1.9361
26777SOL     OW82530   7.836   7.015   4.835  0.2498  0.5171 -0.2693
26777SOL    HW182531   7.882   7.067   4.899  1.3492 -1.0797  0.2977
26777SOL    HW282532   7.748   7.004   4.871  1.2929 -1.7003  1.8684
26778SOL     OW82533   7.777   2.806   4.873  0.1107 -0.5907 -0.1503
26778SOL    HW182534   7.869   2.785   4.859 -0.2050  0.1739 -5.2786
26778SOL    HW282535   7.730   2.726   4.850 -0.6725 -0.8081  1.9238
26779SOL     OW82536   3.111   2.724   5.265  0.6306  0.5988 -0.0103
26779SOL    HW182537   3.199   2.718   5.227  0.8941  0.0768  0.6533
26779SOL    HW282538   3.086   2.633   5.281  1.0999  0.8127  2.3118
26780SOL     OW82539   6.904   3.530   3.161  0.3572  0.5085 -0.4408
26780SOL    HW182540   6.874   3.578   3.083 -0.6305 -1.3216 -1.2465
26780SOL    HW282541   6.833   3.541   3.224 -0.4833 -0.9038 -1.0928
26781SOL     OW82542   0.520   1.275   1.580  0.4173 -0.0477 -0.0164
26781SOL    HW182543   0.475   1.327   1.513 -1.2808 -1.1080  0.2172
26781SOL    HW282544   0.598   1.242   1.536  0.0036  0.3257 -1.0773
26782SOL     OW82545   3.710   6.735   2.661 -0.3023 -0.1343  0.5489
26782SOL    HW182546   3.790   6.702   2.704 -0.5175  0.9846  1.8760
26782SOL    HW282547   3.701   6.825   2.693 -0.8061  0.5681 -1.4534
26783SOL     OW82548   8.329   4.271   4.253 -0.0166 -0.1555  0.5775
26783SOL    HW182549   8.269   4.207   4.214  2.1085 -0.8941 -1.7155
26783SOL    HW282550   8.416   4.234   4.238  1.1915  2.3130  1.0720
26784SOL     OW82551   1.488   1.559   1.387 -0.1391 -0.3885 -0.2999
26784SOL    HW182552   1.413   1.588   1.439 -0.7510  0.4914 -1.6047
26784SOL    HW282553   1.453   1.491   1.329  0.5583 -1.4464  0.4965
26785SOL     OW82554   1.966   2.111   3.324 -0.0649 -0.2019  0.3540
26785SOL    HW182555   1.887   2.080   3.368 -0.3946 -0.3190 -0.3102
26785SOL    HW282556   1.935   2.147   3.241  0.4810  0.5745  0.4789
26786SOL     OW82557   3.348   4.427   1.337  0.7642 -0.1170 -0.2467
26786SOL    HW182558   3.429   4.473   1.313  0.3153  0.8348 -0.0080
26786SOL    HW282559   3.370   4.381   1.418  1.0467  0.1954 -0.1422
26787SOL     OW82560   8.300   0.292   9.003  0.0146  0.1523  0.1845
26787SOL    HW182561   8.264   0.346   9.072 -0.2702  1.1900 -0.7418
26787SOL    HW282562   8.338   0.216   9.048 -0.4737  0.6264  1.4202
26788SOL     OW82563   9.567   7.163   6.986  0.1741 -0.2878 -0.2782
26788SOL    HW182564   9.510   7.189   6.914  0.2088  0.1926 -0.1363
26788SOL    HW282565   9.651   7.205   6.967 -0.2827  1.2558  0.8973
26789SOL     OW82566   1.774   6.539   6.160  0.5014 -0.1035 -0.2870
26789SOL    HW182567   1.795   6.496   6.077  2.3588 -2.3504  1.2051
26789SOL    HW282568   1.679   6.550   6.157  0.5479  0.2754 -2.8386
26790SOL     OW82569   5.638   7.605   2.297  0.0015 -0.0841  0.1012
26790SOL    HW182570   5.715   7.560   2.262  0.7833  1.0624  0.2867
26790SOL    HW282571   5.637   7.583   2.390 -0.0830 -0.3453  0.0404
26791SOL     OW82572   5.140   7.673   0.011  0.3584 -0.0342  0.2101
26791SOL    HW182573   5.119   7.599   0.068 -1.5778 -1.8149 -2.5402
26791SOL    HW282574   5.168   7.743   0.071  1.4792 -2.6718  3.0049
26792SOL     OW82575   7.277   8.537   7.837 -0.5666  0.7351 -0.1353
26792SOL    HW182576   7.197   8.492   7.865 -1.4936  1.1599 -1.9558
26792SOL    HW282577   7.306   8.489   7.760  2.0286 -0.5215  1.4960
26793SOL     OW82578   6.411   3.619   0.786 -0.4365  0.1495 -0.2129
26793SOL    HW182579   6.479   3.685   0.801 -0.2792  0.0937 -0.6797
26793SOL    HW282580   6.419   3.596   0.694 -0.5355 -0.4727 -0.0763
26794SOL     OW82581   4.416   5.970   0.304 -0.9720  0.1543  0.0652
26794SOL    HW182582   4.470   6.031   0.254 -1.8979  1.3553  0.4821
26794SOL    HW282583   4.364   6.026   0.362  0.0517 -1.1699  2.3989
26795SOL     OW82584   8.651   3.081   7.971  0.2687  0.0609  0.1292
26795SOL    HW182585   8.719   3.021   8.002 -2.6698 -3.6444  0.1201
26795SOL    HW282586   8.615   3.120   8.050  1.3975  1.0075  0.2157
26796SOL     OW82587   2.743   8.323   5.775  0.3455  0.2644 -0.0878
26796SOL    HW182588   2.672   8.325   5.839  2.5486  0.6144  2.5220
26796SOL    HW282589   2.773   8.232   5.775  0.3982  0.2732 -0.6324
26797SOL     OW82590   6.914   3.175   1.422  0.2901 -0.0972  0.1098
26797SOL    HW182591   6.971   3.218   1.486  0.1723 -2.7632  2.2015
26797SOL    HW282592   6.965   3.101   1.391 -0.6454 -0.3186 -0.9642
26798SOL     OW82593   2.389   7.125   2.746  0.5679  0.3213 -0.2603
26798SOL    HW182594   2.479   7.146   2.722  1.2234 -1.5789  0.3456
26798SOL    HW282595   2.381   7.153   2.838  1.1057 -1.0034  0.2151
26799SOL     OW82596   4.838   4.574   1.627  0.2994  0.6800  0.4164
26799SOL    HW182597   4.758   4.571   1.681 -0.5221 -0.8339 -0.7890
26799SOL    HW282598   4.879   4.488   1.641  1.1826  1.0701  0.2439
26800SOL     OW82599   8.011   5.313   7.476 -0.2617 -0.1466  0.6760
26800SOL    HW182600   8.035   5.237   7.423 -1.9596  0.9543 -1.8833
26800SOL    HW282601   7.918   5.300   7.494  0.2222 -0.3787  3.3495
26801SOL     OW82602   6.491   6.236   0.821 -0.1296 -0.1301  0.4354
26801SOL    HW182603   6.565   6.252   0.762  0.2693  0.1425  0.9992
26801SOL    HW282604   6.531   6.213   0.905 -0.6474  1.3421  1.1282
26802SOL     OW82605   9.256   2.589   1.558  0.3754  0.2056  0.0961
26802SOL    HW182606   9.227   2.646   1.630 -1.6533 -0.1756 -0.3753
26802SOL    HW282607   9.239   2.640   1.479  0.4764 -0.2694 -0.2319
26803SOL     OW82608   2.008   4.462   7.105  0.0084  0.5904 -0.0226
26803SOL    HW182609   2.067   4.429   7.037  2.7587  2.0357  1.4816
26803SOL    HW282610   2.020   4.557   7.103 -0.7382  0.7482  1.6748
26804SOL     OW82611   6.146   6.679   3.096  0.1702  0.2811  0.5234
26804SOL    HW182612   6.157   6.585   3.082  0.5349  0.4505 -0.4016
26804SOL    HW282613   6.216   6.703   3.157  1.6347  0.3659 -1.1059
26805SOL     OW82614   3.378   8.166   3.602  0.4598  0.0495 -0.2068
26805SOL    HW182615   3.309   8.146   3.666 -1.3527  1.0017 -1.7406
26805SOL    HW282616   3.429   8.085   3.595 -1.8280 -1.4592 -0.5425
26806SOL     OW82617   8.624   3.187   1.170  0.2445  0.3466  0.3956
26806SOL    HW182618   8.563   3.260   1.176  0.3939  0.4771  0.3232
26806SOL    HW282619   8.698   3.211   1.226  1.0923  1.0309 -0.9540
26807SOL     OW82620   0.375   7.529   9.027  0.1093 -0.2374 -0.2853
26807SOL    HW182621   0.406   7.613   9.062  0.6423 -0.1812 -0.8666
26807SOL    HW282622   0.409   7.464   9.088 -0.2448 -0.0394  0.1291
26808SOL     OW82623   4.767   0.553   3.046  0.3434  0.3726 -0.2101
26808SOL    HW182624   4.692   0.495   3.048  1.2628 -0.9190  2.7593
26808SOL    HW282625   4.734   0.635   3.008 -2.6958  0.0363  1.4535
26809SOL     OW82626   2.459   2.472   5.149  0.2604 -0.1070  0.4191
26809SOL    HW182627   2.526   2.540   5.156  0.9689 -0.6823 -0.4832
26809SOL    HW282628   2.402   2.486   5.225  0.3770  1.4810  0.2539
26810SOL     OW82629   6.240   2.835   5.633 -0.0376 -0.8148 -0.4949
26810SOL    HW182630   6.199   2.764   5.584  0.8947 -0.4745 -1.8055
26810SOL    HW282631   6.298   2.879   5.570  0.8063 -0.0348  0.7646
26811SOL     OW82632   3.839   9.227   8.180 -0.4543 -0.2777  0.2548
26811SOL    HW182633   3.915   9.186   8.138  1.0473  1.9685  0.6372
26811SOL    HW282634   3.773   9.157   8.183  0.8928 -1.7557 -1.8361
26812SOL     OW82635   5.910   0.203   7.085  0.4217 -0.3571  0.1420
26812SOL    HW182636   5.939   0.206   6.994 -0.0031 -1.1327 -0.0310
26812SOL    HW282637   5.973   0.146   7.128  0.0433 -0.8176  0.0983
26813SOL     OW82638   4.833   6.678   8.801  0.3205  0.0195 -0.0628
26813SOL    HW182639   4.814   6.709   8.890 -0.8519  1.5054 -0.7849
26813SOL    HW282640   4.926   6.696   8.790  0.2167  0.9489  0.4533
26814SOL     OW82641   1.042   8.110   7.895 -0.4603 -0.1404  0.1420
26814SOL    HW182642   0.974   8.145   7.837 -0.0166  1.6598  0.6384
26814SOL    HW282643   1.099   8.185   7.913  1.5624 -1.5155 -0.0689
26815SOL     OW82644   8.134   9.524   2.252  0.3173  0.5327  0.0335
26815SOL    HW182645   8.151   9.608   2.295  0.4450  0.7434 -0.4241
26815SOL    HW282646   8.169   9.459   2.313  3.9951  0.9760 -1.3514
26816SOL     OW82647   8.239   7.375   6.691  0.2533 -0.1766 -0.4249
26816SOL    HW182648   8.229   7.408   6.602 -1.5086 -0.2787 -0.3071
26816SOL    HW282649   8.271   7.285   6.680 -0.3810 -0.3448 -1.0003
26817SOL     OW82650   8.637   8.747   1.816 -0.0739  0.2702  0.1484
26817SOL    HW182651   8.594   8.815   1.869  2.8114  0.8509  1.9718
26817SOL    HW282652   8.720   8.786   1.790  0.6141 -1.7429 -0.8388
26818SOL     OW82653   0.057   7.359   4.556  0.1741 -0.2774  0.5078
26818SOL    HW182654  -0.011   7.383   4.493  0.9034  1.7886  0.4188
26818SOL    HW282655   0.130   7.329   4.502  0.7678  1.4135  0.2854
26819SOL     OW82656   7.247   6.752   4.106  0.6087 -0.0294  0.5451
26819SOL    HW182657   7.198   6.689   4.159  1.0763 -0.5917  0.3238
26819SOL    HW282658   7.185   6.780   4.039 -0.0902  0.9403  1.5606
26820SOL     OW82659   8.769   4.056   6.650 -0.5265  0.2405  0.3928
26820SOL    HW182660   8.675   4.036   6.653 -0.4763 -0.3919 -1.2944
26820SOL    HW282661   8.810   3.977   6.616  0.5691  0.6881  0.6185
26821SOL     OW82662   5.896   0.973   5.175 -0.6874  0.1739  0.3329
26821SOL    HW182663   5.907   1.052   5.228  1.6725 -0.5542  1.0342
26821SOL    HW282664   5.859   0.908   5.235  1.6575 -0.5456  1.1062
26822SOL     OW82665   5.658   6.185   5.177 -0.2677 -0.2961  0.0732
26822SOL    HW182666   5.564   6.178   5.162 -0.1674 -1.2773 -0.1335
26822SOL    HW282667   5.698   6.158   5.095  0.2080  0.0080  0.1978
26823SOL     OW82668   7.624   9.382   5.311 -0.1765 -0.2669 -0.3774
26823SOL    HW182669   7.675   9.303   5.328 -1.7975 -1.6929 -1.6563
26823SOL    HW282670   7.544   9.369   5.362 -0.3905  0.6138 -0.4847
26824SOL     OW82671   1.927   7.817   8.969 -0.2906 -0.4306 -0.3167
26824SOL    HW182672   2.016   7.835   8.998 -0.1038  2.9702 -2.4511
26824SOL    HW282673   1.873   7.879   9.018 -1.6097 -2.5245  1.0388
26825SOL     OW82674   3.350   0.588   5.776 -0.6226  0.2958 -0.0252
26825SOL    HW182675   3.379   0.516   5.832 -1.3533  0.1410  0.1627
26825SOL    HW282676   3.388   0.567   5.690 -1.4588 -0.7482 -0.1689
26826SOL     OW82677   6.489   5.604   3.184  0.1781  0.0950  0.6139
26826SOL    HW182678   6.413   5.649   3.221 -1.5568 -2.5685  0.6460
26826SOL    HW282679   6.467   5.589   3.092  0.8199 -0.3771  0.5231
26827SOL     OW82680   6.065   2.186   3.624 -0.0148  0.2626 -0.9796
26827SOL    HW182681   5.983   2.160   3.667  0.5169 -1.4769 -0.9273
26827SOL    HW282682   6.117   2.106   3.623  1.3451  1.1266 -1.8076
26828SOL     OW82683   1.570   9.535   8.119  0.1088 -0.3058 -1.0236
26828SOL    HW182684   1.531   9.597   8.181 -0.6578 -0.3266 -1.4695
26828SOL    HW282685   1.655   9.513   8.158 -0.2209 -0.0815 -0.1363
26829SOL     OW82686   1.345   2.723   2.168  0.1025  0.0080  0.0416
26829SOL    HW182687   1.336   2.818   2.173  0.3905  0.0096  0.6246
26829SOL    HW282688   1.429   2.708   2.125 -0.7205 -0.0007 -1.6604
26830SOL     OW82689   3.020   1.857   8.425 -0.7124  0.4759 -0.6298
26830SOL    HW182690   3.057   1.945   8.424 -0.4852  0.4264  1.0480
26830SOL    HW282691   3.048   1.820   8.508  1.6370 -2.2733 -2.4759
26831SOL     OW82692   8.966   5.484   9.150  0.3190  0.1533  0.0948
26831SOL    HW182693   9.027   5.413   9.168  0.0961 -0.2884 -0.8691
26831SOL    HW282694   8.908   5.450   9.082 -0.8877  0.6326  0.8458
26832SOL     OW82695   3.990   8.412   1.973  0.3041  0.3756  0.4749
26832SOL    HW182696   3.969   8.414   2.067  1.2186 -1.3032  0.7564
26832SOL    HW282697   4.065   8.470   1.964 -1.0204  2.1796  0.3772
26833SOL     OW82698   4.566   7.406   5.670  0.2351 -0.0649  0.7765
26833SOL    HW182699   4.516   7.325   5.666 -1.1711  0.7404  1.3246
26833SOL    HW282700   4.634   7.388   5.735  0.4937 -1.0792  0.2483
26834SOL     OW82701   9.299   5.490   0.170  0.7108 -0.1394  0.1723
26834SOL    HW182702   9.325   5.574   0.132 -0.0771  0.6538  1.2914
26834SOL    HW282703   9.346   5.486   0.254 -0.1216 -0.2687  0.6438
26835SOL     OW82704   9.190   1.247   7.719  0.6844  0.5199  0.5101
26835SOL    HW182705   9.136   1.171   7.739  0.6730  0.4116  0.0676
26835SOL    HW282706   9.270   1.211   7.682  0.5042  0.7384 -0.1034
26836SOL     OW82707   1.879   4.391   2.704  0.2617 -0.1993 -0.1428
26836SOL    HW182708   1.821   4.465   2.723  1.9342  0.8260  1.2869
26836SOL    HW282709   1.879   4.339   2.785  0.3060 -0.9334 -0.6030
26837SOL     OW82710   7.225   3.246   7.555  0.0069  0.0028 -0.2182
26837SOL    HW182711   7.172   3.220   7.630 -0.1979  2.3112  0.5026
26837SOL    HW282712   7.282   3.171   7.540 -0.7407 -0.9844  1.4923
26838SOL     OW82713   3.322   2.323   9.033  0.5708  0.4220  0.4317
26838SOL    HW182714   3.383   2.348   8.963 -1.2352  0.6126 -1.1354
26838SOL    HW282715   3.291   2.406   9.070 -1.0424  0.4409 -0.8756
26839SOL     OW82716   9.448   0.433   9.297 -0.0726  0.0074  0.4763
26839SOL    HW182717   9.516   0.461   9.358 -0.2503  0.6081  0.4135
26839SOL    HW282718   9.403   0.515   9.273 -0.0077 -0.2183 -0.4478
26840SOL     OW82719   0.471   6.435   8.696 -0.3696 -0.0299  0.0398
26840SOL    HW182720   0.440   6.400   8.613 -0.6113 -0.0838  0.1527
26840SOL    HW282721   0.562   6.460   8.679 -0.2137 -0.6575 -0.0573
26841SOL     OW82722   3.779   9.190   2.574  0.1708  0.2810  0.2182
26841SOL    HW182723   3.707   9.198   2.512  1.3293  0.3078 -1.1996
26841SOL    HW282724   3.843   9.255   2.545  0.5774  0.6017  1.7381
26842SOL     OW82725   3.551   7.394   5.315  0.2508  0.2899 -0.3855
26842SOL    HW182726   3.601   7.442   5.381  0.8864 -1.0158  0.1081
26842SOL    HW282727   3.572   7.439   5.233  0.3114  1.2543  0.1335
26843SOL     OW82728   1.177   3.244   0.573  0.3195 -0.4997  0.0065
26843SOL    HW182729   1.145   3.186   0.503 -2.4629  1.0531 -0.1386
26843SOL    HW282730   1.206   3.323   0.528 -0.8923  0.2585  0.4905
26844SOL     OW82731   8.609   8.762   5.090 -0.4086  0.1129  0.1713
26844SOL    HW182732   8.693   8.736   5.052  0.6445 -1.1421  3.0068
26844SOL    HW282733   8.566   8.680   5.113 -0.6589  0.7324  2.1468
26845SOL     OW82734   8.736   2.269   4.852  0.3958 -0.0824 -0.3215
26845SOL    HW182735   8.807   2.300   4.909  0.2272 -0.9821  0.3945
26845SOL    HW282736   8.780   2.231   4.777  0.6670 -0.1705 -0.1193
26846SOL     OW82737   6.218   3.800   4.378  0.0934  0.4662 -0.3551
26846SOL    HW182738   6.137   3.845   4.404 -0.0539 -0.3828  0.6976
26846SOL    HW282739   6.218   3.806   4.282 -1.8156 -0.4809 -0.4707
26847SOL     OW82740   1.460   2.103   6.314  0.6386  0.0998 -0.2937
26847SOL    HW182741   1.371   2.128   6.289  0.7498  3.4022  1.8878
26847SOL    HW282742   1.448   2.028   6.371 -0.6844  0.0097 -0.6450
26848SOL     OW82743   7.355   6.623   0.800  0.5117 -0.3291  0.3282
26848SOL    HW182744   7.388   6.598   0.886 -0.4163 -0.5406  0.6398
26848SOL    HW282745   7.384   6.713   0.787  1.4248 -0.5960  0.4616
26849SOL     OW82746   0.305   4.905   4.585 -0.3475 -0.0870  0.2501
26849SOL    HW182747   0.232   4.965   4.567 -0.8516 -0.9432 -0.5820
26849SOL    HW282748   0.297   4.886   4.679 -1.8072 -0.9634 -0.0349
26850SOL     OW82749   1.185   3.610   7.720  0.0245  0.0833 -0.7638
26850SOL    HW182750   1.229   3.643   7.641  0.3558 -0.0378 -0.6300
26850SOL    HW282751   1.094   3.638   7.709 -0.2784 -1.2489 -1.9350
26851SOL     OW82752   1.497   5.275   3.746 -0.3550  0.8467 -0.5791
26851SOL    HW182753   1.500   5.204   3.683  1.3160  0.0945  0.2802
26851SOL    HW282754   1.574   5.329   3.726  0.4277  0.3808  0.9915
26852SOL     OW82755   1.827   4.869   4.516  0.3015  0.0430 -1.1249
26852SOL    HW182756   1.764   4.877   4.588 -0.5406  1.7915 -1.9871
26852SOL    HW282757   1.791   4.800   4.460  0.2571 -0.4057 -0.5501
26853SOL     OW82758   1.701   2.556   7.935  0.1649  0.7139  0.6876
26853SOL    HW182759   1.788   2.588   7.911 -0.7367  2.2914 -0.7198
26853SOL    HW282760   1.692   2.473   7.888  1.9485 -1.0430  3.1669
26854SOL     OW82761   2.905   8.616   5.870 -0.0478 -0.2535 -0.4171
26854SOL    HW182762   2.949   8.533   5.891  0.4148 -0.0974 -0.7628
26854SOL    HW282763   2.831   8.591   5.815 -0.2807 -0.4970 -0.0032
26855SOL     OW82764   1.348   8.983   4.743  0.1498  0.0430  0.2383
26855SOL    HW182765   1.308   9.035   4.812  1.2033 -0.7017  1.4348
26855SOL    HW282766   1.372   9.047   4.675 -2.2773  0.6132 -0.1891
26856SOL     OW82767   7.989   4.987   0.871  0.3389  0.6528 -0.1316
26856SOL    HW182768   7.932   4.966   0.945  2.7268 -1.3838  1.3294
26856SOL    HW282769   8.045   5.058   0.903 -0.4876  1.7631 -1.0830
26857SOL     OW82770   6.055   1.651   5.940 -0.3781 -0.1287  0.3563
26857SOL    HW182771   6.066   1.561   5.909  1.3488  0.4491 -0.8162
26857SOL    HW282772   6.083   1.649   6.031 -1.1382 -0.9269  0.5863
26858SOL     OW82773   4.714   5.605   0.409  0.1929  0.3118  0.2566
26858SOL    HW182774   4.773   5.679   0.404 -0.3231  0.7156  0.0302
26858SOL    HW282775   4.639   5.630   0.354 -1.3674  0.9033  2.5302
26859SOL     OW82776   8.772   1.918   9.529  0.3954 -0.2564  0.6514
26859SOL    HW182777   8.868   1.913   9.534  0.3292 -1.7615  0.8815
26859SOL    HW282778   8.747   1.967   9.608  0.9486 -0.2147  0.8081
26860SOL     OW82779   6.262   2.657   8.281  0.0359 -0.1537  0.5281
26860SOL    HW182780   6.182   2.604   8.286 -0.8552  1.0574 -0.3725
26860SOL    HW282781   6.269   2.682   8.189  1.0726  0.3409  0.7258
26861SOL     OW82782   5.587   6.498   8.177 -0.2721 -0.2860 -0.2364
26861SOL    HW182783   5.664   6.551   8.200 -0.1438 -1.2356  1.7645
26861SOL    HW282784   5.618   6.408   8.183 -0.8953 -0.6491 -2.0330
26862SOL     OW82785   0.965   4.306   8.180  0.0427 -0.7222 -0.3201
26862SOL    HW182786   0.944   4.361   8.105 -0.3749 -2.4553 -1.5346
26862SOL    HW282787   1.039   4.253   8.151 -0.7952 -2.1609  0.0869
26863SOL     OW82788   2.315   2.537   8.030 -0.6799 -0.1677 -0.1012
26863SOL    HW182789   2.345   2.605   7.969 -0.5229 -0.3824 -0.2651
26863SOL    HW282790   2.245   2.579   8.080 -0.8028  0.0153 -0.4237
26864SOL     OW82791   5.881   2.920   5.993 -0.4407  0.4741 -0.6841
26864SOL    HW182792   5.966   2.962   5.980  0.4150 -0.9296  0.1227
26864SOL    HW282793   5.835   2.977   6.055  0.4925  0.4927  0.0003
26865SOL     OW82794   8.441   8.073   7.233 -0.0225 -0.1189 -0.0556
26865SOL    HW182795   8.399   8.103   7.153 -0.8207  0.2108  0.4801
26865SOL    HW282796   8.534   8.090   7.219 -0.0479 -0.7879 -1.2238
26866SOL     OW82797   3.145   7.632   5.863  0.1957 -0.4190 -0.3061
26866SOL    HW182798   3.171   7.614   5.773 -0.7402 -2.0219 -0.2917
26866SOL    HW282799   3.147   7.727   5.870 -1.6594 -0.1239 -2.6483
26867SOL     OW82800   8.969   9.044   8.536  0.6427 -0.4732  0.0755
26867SOL    HW182801   8.897   8.993   8.499 -0.1093  0.4594  0.1871
26867SOL    HW282802   9.044   8.985   8.535  0.0872 -1.1960 -0.8534
26868SOL     OW82803   0.102   9.427   7.672 -0.1685 -0.0726  0.6123
26868SOL    HW182804   0.017   9.412   7.715 -0.2944  1.9181  1.1313
26868SOL    HW282805   0.124   9.517   7.693  2.4401 -0.7324  1.0728
26869SOL     OW82806   2.315   5.760   7.661 -0.2696  0.6319 -0.2667
26869SOL    HW182807   2.348   5.845   7.633 -1.4204  1.4073  0.5948
26869SOL    HW282808   2.391   5.702   7.660  0.8585  2.0258  0.5146
26870SOL     OW82809   0.194   5.621   6.764  0.2670 -0.5367  0.1305
26870SOL    HW182810   0.187   5.710   6.799 -0.8476 -0.6305  0.1906
26870SOL    HW282811   0.259   5.628   6.694 -0.4462  0.5169 -0.4545
26871SOL     OW82812   0.394   2.783   4.390 -0.5192 -0.4645 -0.7456
26871SOL    HW182813   0.375   2.866   4.435  0.0461 -1.6841  1.9572
26871SOL    HW282814   0.488   2.770   4.401 -0.4035 -0.9562 -2.1336
26872SOL     OW82815   3.376   6.947   4.281 -0.2270 -0.3064 -0.1511
26872SOL    HW182816   3.339   6.922   4.196  0.6918  1.0901 -1.0099
26872SOL    HW282817   3.369   7.043   4.283  1.3924 -0.1639  0.5423
26873SOL     OW82818   5.606   0.968   3.245 -0.1709  0.3096  0.0282
26873SOL    HW182819   5.638   0.993   3.331 -0.1054 -2.8625  1.0642
26873SOL    HW282820   5.685   0.944   3.196 -0.4067 -0.7618  0.1528
26874SOL     OW82821   3.232   6.182   1.604 -0.0433 -0.0891 -0.1754
26874SOL    HW182822   3.324   6.163   1.588  0.2284  1.1423 -0.1957
26874SOL    HW282823   3.196   6.101   1.639  0.8794 -0.8033 -0.8408
26875SOL     OW82824   0.206   4.986   1.402 -0.3518  0.3757  0.6637
26875SOL    HW182825   0.111   4.979   1.402 -0.3158 -1.0023 -1.5033
26875SOL    HW282826   0.232   4.967   1.312  1.8615  2.9638  0.6301
26876SOL     OW82827   7.476   4.070   3.304 -0.1951  0.1440 -0.8287
26876SOL    HW182828   7.554   4.042   3.351 -1.4875 -0.5513  1.0019
26876SOL    HW282829   7.498   4.158   3.272  1.2669  0.0222 -0.2316
26877SOL     OW82830   8.785   6.801   4.456 -0.4093 -0.4591 -0.1410
26877SOL    HW182831   8.846   6.762   4.393 -1.9658 -1.7572 -0.9102
26877SOL    HW282832   8.778   6.737   4.526  0.8934  0.7449  1.1460
26878SOL     OW82833   5.182   6.450   1.781 -0.4178  0.1752  0.6242
26878SOL    HW182834   5.189   6.407   1.696  2.1822 -0.1205  0.9018
26878SOL    HW282835   5.153   6.539   1.761 -2.2094 -0.5708 -0.3060
26879SOL     OW82836   8.578   5.742   2.483  0.1986  0.1535  0.3101
26879SOL    HW182837   8.511   5.797   2.524  2.1763  1.6435  1.7514
26879SOL    HW282838   8.564   5.753   2.389 -0.4819  1.8819  0.5756
26880SOL     OW82839   6.877   9.103   5.628 -0.2164  0.2403 -0.0578
26880SOL    HW182840   6.877   9.011   5.655  0.2287 -0.0215 -0.9442
26880SOL    HW282841   6.785   9.122   5.610 -0.3864  0.1353  0.6550
26881SOL     OW82842   1.878   1.360   3.868  0.1516 -0.2238  0.0211
26881SOL    HW182843   1.881   1.373   3.963 -0.8659  0.3911 -0.0181
26881SOL    HW282844   1.945   1.419   3.833 -1.0954  1.3527  0.2024
26882SOL     OW82845   2.225   3.765   7.172  0.1372 -0.0339 -0.3079
26882SOL    HW182846   2.179   3.771   7.256 -1.2926 -1.4419 -0.9245
26882SOL    HW282847   2.300   3.708   7.191  0.8232  1.0609  0.3741
26883SOL     OW82848   3.799   2.763   4.366  0.2738 -0.9669 -0.4584
26883SOL    HW182849   3.781   2.754   4.460 -1.0447  0.9797 -0.4649
26883SOL    HW282850   3.724   2.722   4.323 -1.3117  1.7991 -0.5481
26884SOL     OW82851   1.830   4.564   8.808  0.1144  0.3522  0.2664
26884SOL    HW182852   1.867   4.477   8.799 -0.2299  0.0804  1.3801
26884SOL    HW282853   1.869   4.599   8.888  0.2203  1.2144 -0.1457
26885SOL     OW82854   9.531   9.575   7.075  0.1217  0.2431  0.3047
26885SOL    HW182855   9.584   9.547   7.149 -0.6306 -1.1426  0.3460
26885SOL    HW282856   9.451   9.610   7.113  0.3831  0.9876  0.1885
26886SOL     OW82857   8.548   7.936   1.108  0.3065 -0.1936 -0.1962
26886SOL    HW182858   8.471   7.950   1.162 -0.5797 -0.3145 -1.3859
26886SOL    HW282859   8.546   7.844   1.084  0.1650  0.0457 -1.1701
26887SOL     OW82860   0.270   6.910   6.240  0.4557  0.0994 -0.3133
26887SOL    HW182861   0.220   6.989   6.260  1.3515  0.2296  1.6211
26887SOL    HW282862   0.344   6.941   6.188  0.6506  0.5032  0.1993
26888SOL     OW82863   4.826   6.336   3.094 -0.2209  0.6623  0.3437
26888SOL    HW182864   4.757   6.385   3.052 -0.7441  1.0887  1.6448
26888SOL    HW282865   4.905   6.388   3.081 -0.8310  2.1047  2.0202
26889SOL     OW82866   4.377   3.101   2.218 -0.4605  0.3754  0.2918
26889SOL    HW182867   4.329   3.028   2.257 -1.3187  0.7401 -0.0498
26889SOL    HW282868   4.405   3.069   2.133  1.0292 -0.2711  1.0042
26890SOL     OW82869   5.006   2.998   3.205  0.0192  0.0960  0.0757
26890SOL    HW182870   4.989   2.993   3.111  0.9178 -1.3371 -0.0501
26890SOL    HW282871   4.949   2.932   3.244  0.3012  0.0467  0.4149
26891SOL     OW82872   6.564   8.791   2.739 -0.3225  0.1436 -0.2651
26891SOL    HW182873   6.531   8.819   2.654  0.9234  2.3448 -0.0960
26891SOL    HW282874   6.580   8.872   2.787 -0.5919 -1.0165  1.9458
26892SOL     OW82875   4.439   4.127   7.319 -0.3388  0.2859  0.0125
26892SOL    HW182876   4.484   4.061   7.372  0.0242 -0.2315 -0.9280
26892SOL    HW282877   4.358   4.084   7.292 -0.0717  0.1959 -0.6540
26893SOL     OW82878   1.249   2.301   1.966 -0.5022  0.6408  0.7418
26893SOL    HW182879   1.188   2.373   1.984 -0.8873  0.3446  0.6404
26893SOL    HW282880   1.272   2.267   2.052 -1.3330  0.0547  0.7364
26894SOL     OW82881   0.091   4.593   6.005 -0.2110  0.6094  0.0500
26894SOL    HW182882   0.064   4.638   5.925  0.4083  0.5335 -0.2085
26894SOL    HW282883   0.154   4.527   5.975  0.2199  0.7541  0.6282
26895SOL     OW82884   5.290   4.225   7.608  0.4676  0.5842 -0.0485
26895SOL    HW182885   5.216   4.178   7.570  1.0685  1.3768 -2.3672
26895SOL    HW282886   5.258   4.255   7.694 -2.4448  2.1245 -1.5100
26896SOL     OW82887   8.438   6.089   7.280 -0.1488  0.1644 -0.3935
26896SOL    HW182888   8.483   6.007   7.299 -0.1477 -0.2977 -2.2378
26896SOL    HW282889   8.501   6.157   7.303  0.4923 -0.3966 -0.4730
26897SOL     OW82890   7.716   0.871   2.400  0.0460 -0.3864 -0.2652
26897SOL    HW182891   7.763   0.953   2.415 -0.7982  0.4252 -1.8179
26897SOL    HW282892   7.739   0.816   2.475  0.3679  1.3795  0.9878
26898SOL     OW82893   7.933   3.348   3.843  0.5522  0.0734  0.2555
26898SOL    HW182894   7.930   3.357   3.748  2.5544  0.7766  0.2022
26898SOL    HW282895   7.867   3.409   3.876 -0.9510 -0.9846 -0.6639
26899SOL     OW82896   1.763   1.108   2.796 -0.4156  0.4134  0.5809
26899SOL    HW182897   1.759   1.199   2.768 -0.2749 -0.0213 -0.9583
26899SOL    HW282898   1.680   1.070   2.766  0.3078 -0.3946 -0.4535
26900SOL     OW82899   7.554   2.251   0.938  0.2451  0.4854 -0.6065
26900SOL    HW182900   7.524   2.192   0.869  0.7769 -1.6352  0.8825
26900SOL    HW282901   7.640   2.217   0.963 -1.2420 -0.9240  3.2880
26901SOL     OW82902   3.234   3.710   0.220 -0.5189 -0.0653 -0.2584
26901SOL    HW182903   3.213   3.796   0.256  1.2150 -0.0908  0.9183
26901SOL    HW282904   3.313   3.682   0.266 -1.9963 -3.1053  0.7422
26902SOL     OW82905   1.056   0.906   0.431 -0.4445 -0.3870 -0.3452
26902SOL    HW182906   1.088   0.875   0.516 -1.3197 -0.3694 -0.0011
26902SOL    HW282907   0.991   0.972   0.453  1.5086  1.9153 -1.0633
26903SOL     OW82908   7.272   6.783   2.334  0.0126 -0.4493  0.5411
26903SOL    HW182909   7.285   6.796   2.240 -1.0918  1.8620  0.6461
26903SOL    HW282910   7.353   6.813   2.374  0.2375 -0.8196  0.3672
26904SOL     OW82911   8.944   4.212   6.505  0.2906  0.1010  0.7059
26904SOL    HW182912   8.883   4.151   6.548 -2.2273  1.4585 -0.7303
26904SOL    HW282913   8.937   4.191   6.412  1.2494  1.0080  0.4074
26905SOL     OW82914   8.128   7.735   3.406 -0.2512 -0.0568 -0.4455
26905SOL    HW182915   8.089   7.787   3.335 -0.4037  0.8994  0.3100
26905SOL    HW282916   8.200   7.687   3.365 -0.7369 -0.0060 -1.3720
26906SOL     OW82917   2.292   1.162   1.125  0.2540  0.2773  0.5765
26906SOL    HW182918   2.367   1.104   1.115  0.6453  0.9880 -0.9411
26906SOL    HW282919   2.215   1.106   1.111  0.6499  0.2264 -1.7792
26907SOL     OW82920   4.824   1.744   0.218  0.3809  0.5750  0.2764
26907SOL    HW182921   4.793   1.830   0.246  0.2572  1.1711 -1.6041
26907SOL    HW282922   4.914   1.759   0.187  0.4389 -0.0120  0.1419
26908SOL     OW82923   6.556   4.925   4.387 -0.8685 -0.5025 -0.4729
26908SOL    HW182924   6.464   4.904   4.369 -1.2093  0.9373 -0.5278
26908SOL    HW282925   6.589   4.848   4.433 -2.4698 -0.5434  0.7059
26909SOL     OW82926   1.113   3.326   7.436  0.0290  0.0138 -0.2373
26909SOL    HW182927   1.142   3.413   7.408 -0.0046  0.4311  0.9671
26909SOL    HW282928   1.163   3.310   7.516  1.7078 -2.0365 -1.5768
26910SOL     OW82929   8.741   2.576   3.543  0.2765 -0.0350 -0.1928
26910SOL    HW182930   8.704   2.495   3.506 -0.0559 -0.3097  0.6914
26910SOL    HW282931   8.755   2.554   3.636 -0.4063  1.1186  0.1983
26911SOL     OW82932   1.530   7.706   8.712 -0.6830  0.2103 -0.4510
26911SOL    HW182933   1.619   7.736   8.734 -1.2905  0.5695  1.7588
26911SOL    HW282934   1.536   7.678   8.621  1.4509  1.1797 -0.6704
26912SOL     OW82935   4.245   5.687   2.974 -0.0603  0.1386 -0.1156
26912SOL    HW182936   4.193   5.752   2.928 -0.6828 -1.1222 -1.2755
26912SOL    HW282937   4.188   5.610   2.980  1.2849 -0.9435 -0.4910
26913SOL     OW82938   4.682   5.282   5.268 -0.0151 -0.3092 -0.5077
26913SOL    HW182939   4.763   5.316   5.306 -1.5045  2.1884  0.6608
26913SOL    HW282940   4.634   5.248   5.343  0.0005 -1.9974 -1.2303
26914SOL     OW82941   1.471   0.933   5.388 -0.6239  0.0619 -0.5882
26914SOL    HW182942   1.398   0.876   5.364 -0.0617 -1.5563  1.2348
26914SOL    HW282943   1.548   0.875   5.389  0.1973  1.1126  0.1039
26915SOL     OW82944   4.642   5.879   6.603  0.5241  0.2066  0.1579
26915SOL    HW182945   4.709   5.901   6.539  0.1646  0.7989 -0.0255
26915SOL    HW282946   4.627   5.960   6.651 -1.6441  0.7432 -1.2831
26916SOL     OW82947   4.857   8.648   3.146  0.0423 -0.1815 -0.1860
26916SOL    HW182948   4.856   8.586   3.218  2.2122  0.6975  0.6753
26916SOL    HW282949   4.845   8.594   3.068 -1.8511 -1.2000  0.7232
26917SOL     OW82950   3.743   3.531   6.315  0.1547  0.4674  0.1217
26917SOL    HW182951   3.732   3.486   6.231 -2.7176 -0.3197  0.7955
26917SOL    HW282952   3.663   3.583   6.324  0.3039  0.3709  2.4416
26918SOL     OW82953   1.058   2.537   7.664 -0.3921  0.4306 -0.5417
26918SOL    HW182954   1.118   2.540   7.738 -1.0908  0.3610  0.0328
26918SOL    HW282955   1.087   2.461   7.613  1.7547  1.9791 -1.7925
26919SOL     OW82956   8.417   0.553   3.980  0.5735 -0.3586  0.0020
26919SOL    HW182957   8.367   0.557   3.898  0.9863  0.2249 -0.2219
26919SOL    HW282958   8.360   0.505   4.040  0.7007 -1.7180 -0.9263
26920SOL     OW82959   3.375   0.982   8.124 -0.6104 -0.1564  0.3063
26920SOL    HW182960   3.387   0.986   8.219 -2.7819  1.3178  0.5974
26920SOL    HW282961   3.355   0.890   8.106  2.2012 -0.9661  0.8602
26921SOL     OW82962   2.990   3.597   7.102  0.0284  0.3468  0.0583
26921SOL    HW182963   2.916   3.554   7.059 -1.0951  0.3355  1.8925
26921SOL    HW282964   3.057   3.529   7.109 -1.0427 -0.6306  1.2735
26922SOL     OW82965   5.365   7.868   0.963 -0.4381  0.1702 -0.1111
26922SOL    HW182966   5.410   7.947   0.994  2.5278 -1.4797  0.1482
26922SOL    HW282967   5.407   7.797   1.011 -0.7684 -1.8397 -2.6478
26923SOL     OW82968   1.009   3.872   5.078 -0.3850  0.1059 -0.5167
26923SOL    HW182969   0.991   3.778   5.087 -0.9020  0.1872 -0.7103
26923SOL    HW282970   1.105   3.877   5.081 -0.3723 -0.1159  2.5406
26924SOL     OW82971   7.172   4.859   2.431 -0.5220  0.0505 -0.6302
26924SOL    HW182972   7.225   4.806   2.491 -0.5878  0.7384  0.0539
26924SOL    HW282973   7.106   4.900   2.487  1.0868  2.9261 -0.6136
26925SOL     OW82974   6.804   0.816   1.969  0.4980 -0.3693  0.0999
26925SOL    HW182975   6.899   0.803   1.965  0.7006  1.0869 -0.5859
26925SOL    HW282976   6.768   0.750   1.910  1.3286  0.9489 -1.9922
26926SOL     OW82977   0.526   7.599   6.343  0.1334 -0.2625 -0.0139
26926SOL    HW182978   0.604   7.544   6.335  1.0135  1.0655 -0.9439
26926SOL    HW282979   0.492   7.579   6.430 -0.1327 -2.9420 -0.6399
26927SOL     OW82980   8.062   8.121   4.038 -0.4076  0.6094 -0.4548
26927SOL    HW182981   8.049   8.036   3.996 -0.3910  0.4262 -0.0970
26927SOL    HW282982   8.072   8.183   3.966 -4.8820  1.1044 -0.9560
26928SOL     OW82983   9.115   3.388   5.493 -0.3931 -0.5350  0.9050
26928SOL    HW182984   9.037   3.362   5.445  0.5345 -2.3335  0.2847
26928SOL    HW282985   9.172   3.426   5.427  0.0408 -1.0715  0.9603
26929SOL     OW82986   4.378   3.681   3.955  0.2879 -0.2450  0.1259
26929SOL    HW182987   4.323   3.691   3.878  0.0805 -1.8794  0.0341
26929SOL    HW282988   4.317   3.662   4.026  0.6755 -1.9545  0.0450
26930SOL     OW82989   9.197   5.448   1.682  0.8592 -0.0252  0.2110
26930SOL    HW182990   9.161   5.499   1.609 -0.6224  0.4522  1.2351
26930SOL    HW282991   9.156   5.362   1.673 -1.0662  0.6640  1.6647
26931SOL     OW82992   7.710   9.364   1.223  0.0845  0.2880 -0.3797
26931SOL    HW182993   7.791   9.354   1.273  0.8915  1.5624 -1.3523
26931SOL    HW282994   7.739   9.368   1.131 -1.1040  0.4975 -0.7690
26932SOL     OW82995   3.622   1.998   0.284 -0.3710  0.5049  0.0890
26932SOL    HW182996   3.702   1.995   0.232 -0.7974 -0.5224 -0.5479
26932SOL    HW282997   3.553   1.970   0.224 -0.7294 -1.7147  1.4163
26933SOL     OW82998   5.763   4.152   9.266  0.4870 -0.1033  0.0779
26933SOL    HW182999   5.766   4.082   9.201 -0.3675  0.9848 -1.1895
26933SOL    HW283000   5.677   4.192   9.255  0.7062  0.7571  1.2110
26934SOL     OW83001   0.635   0.201   6.790  0.0738 -0.1803 -0.1860
26934SOL    HW183002   0.622   0.204   6.695 -0.9430  0.7895 -0.0422
26934SOL    HW283003   0.551   0.170   6.824  0.8149 -1.7034  0.3458
26935SOL     OW83004   1.636   6.909   2.882  0.4750 -0.2309  0.2935
26935SOL    HW183005   1.715   6.863   2.854 -0.7963 -1.4881 -1.4297
26935SOL    HW283006   1.613   6.966   2.808 -1.8403 -2.1080 -0.5590
26936SOL     OW83007   2.680   5.990   8.509  0.1671  0.3376 -0.1668
26936SOL    HW183008   2.621   5.954   8.575  0.0048 -1.0267 -1.0135
26936SOL    HW283009   2.622   6.031   8.444 -0.0540 -2.2460 -1.7455
26937SOL     OW83010   8.681   2.044   8.639  0.2471 -0.1645  0.3681
26937SOL    HW183011   8.661   2.109   8.706 -0.4827  0.1622 -0.1460
26937SOL    HW283012   8.763   2.003   8.668  0.6751  0.9224  0.7353
26938SOL     OW83013   4.949   2.300   0.594  0.1433 -0.5576  0.3126
26938SOL    HW183014   4.990   2.316   0.680 -0.5046 -1.2114  0.7584
26938SOL    HW283015   4.915   2.386   0.568 -0.1810 -0.4643  1.0016
26939SOL     OW83016   8.803   1.116   1.626 -0.2018 -0.0881  0.1872
26939SOL    HW183017   8.797   1.180   1.555 -0.8986  1.3851  1.5267
26939SOL    HW283018   8.712   1.098   1.649 -0.0172 -1.5845 -0.1464
26940SOL     OW83019   6.453   5.168   7.120 -0.6375 -0.2719  0.3692
26940SOL    HW183020   6.407   5.244   7.086 -1.5400 -0.7551  0.4700
26940SOL    HW283021   6.546   5.185   7.101 -0.7416  1.1753  1.0593
26941SOL     OW83022   1.546   5.120   4.428  0.3989  0.4760 -0.4571
26941SOL    HW183023   1.603   5.122   4.351 -0.7861 -1.1366 -1.4320
26941SOL    HW283024   1.469   5.171   4.403  0.2616  0.4444 -0.1117
26942SOL     OW83025   1.126   0.984   0.170 -0.0802 -0.4454  0.1103
26942SOL    HW183026   1.110   0.938   0.252  0.4107 -0.9732 -0.0925
26942SOL    HW283027   1.040   0.990   0.129 -0.3276 -0.1859  0.6521
26943SOL     OW83028   5.155   1.554   2.956  0.5854  0.1282  0.2102
26943SOL    HW183029   5.236   1.605   2.959  1.7958 -1.4168 -2.3916
26943SOL    HW283030   5.157   1.500   3.035  0.9261  1.6425  1.2890
26944SOL     OW83031   0.163   8.920   3.651  0.2259 -0.0629  0.3839
26944SOL    HW183032   0.197   8.953   3.735  2.6697 -2.1566  0.3515
26944SOL    HW283033   0.069   8.914   3.665  0.4846  0.1835  2.7958
26945SOL     OW83034   9.562   2.604   0.344 -0.0511 -0.0581  0.4672
26945SOL    HW183035   9.508   2.536   0.383  0.3746 -0.5776  0.1653
26945SOL    HW283036   9.500   2.663   0.300 -0.3729 -0.6237  0.1574
26946SOL     OW83037   0.412   6.604   0.693  0.1369 -0.4768  0.0873
26946SOL    HW183038   0.397   6.596   0.598  0.5634  0.7546 -0.0963
26946SOL    HW283039   0.505   6.584   0.703  0.3651  0.5537  0.0872
26947SOL     OW83040   2.377   7.575   8.553  0.1489 -0.4989  0.4294
26947SOL    HW183041   2.448   7.635   8.532 -0.4371 -0.0270 -0.3002
26947SOL    HW283042   2.412   7.517   8.620  1.4222 -0.6641 -0.3500
26948SOL     OW83043   6.607   5.623   0.164  0.4291 -0.2841  0.4823
26948SOL    HW183044   6.693   5.651   0.133  0.0949  0.2262  0.0011
26948SOL    HW283045   6.546   5.683   0.122 -0.2699 -1.4401 -0.2002
26949SOL     OW83046   0.099   5.037   5.035  0.8851 -0.7181 -0.3130
26949SOL    HW183047   0.098   5.069   5.125 -0.1892  0.0068 -0.5742
26949SOL    HW283048   0.090   5.115   4.981  1.3225 -1.1670 -1.0565
26950SOL     OW83049   2.617   6.041   9.124  0.3704  0.3573 -0.0471
26950SOL    HW183050   2.620   5.948   9.149 -0.4344  0.2901 -0.1766
26950SOL    HW283051   2.541   6.048   9.067 -1.0080  1.5336  1.8179
26951SOL     OW83052   2.951   3.250   3.666  0.2684  0.1721 -0.0304
26951SOL    HW183053   2.875   3.199   3.694  0.0699  0.4325 -0.0889
26951SOL    HW283054   2.924   3.342   3.679  0.1306  0.3027 -1.1722
26952SOL     OW83055   4.002   1.007   1.499 -0.1283 -0.3649  0.1596
26952SOL    HW183056   4.010   1.054   1.582  0.5619 -0.5679  0.2165
26952SOL    HW283057   4.065   1.051   1.441 -1.8952  0.9784 -0.8421
26953SOL     OW83058   3.098   7.603   6.726 -0.3819  0.1618 -0.1851
26953SOL    HW183059   3.049   7.570   6.650 -0.9123  0.8829 -0.1742
26953SOL    HW283060   3.033   7.606   6.796 -0.0858  0.2365  0.0850
26954SOL     OW83061   5.106   4.489   4.953 -0.2940 -0.4100  0.0574
26954SOL    HW183062   5.050   4.540   5.011  1.3571  0.5573  0.8709
26954SOL    HW283063   5.153   4.554   4.900 -0.1754 -1.1977 -0.8364
26955SOL     OW83064   4.655   0.529   8.687  0.2769 -0.1341 -0.1409
26955SOL    HW183065   4.748   0.509   8.673  0.0303 -0.5584 -1.3644
26955SOL    HW283066   4.642   0.613   8.643 -0.1914 -0.7341 -1.2050
26956SOL     OW83067   6.869   1.224   2.907 -0.1063  0.0440 -0.0096
26956SOL    HW183068   6.795   1.167   2.886  1.2622 -1.7811 -0.0756
26956SOL    HW283069   6.946   1.178   2.872  1.1802  1.4160  0.9036
26957SOL     OW83070   3.843   1.928   3.991 -0.2794 -0.1405 -0.4274
26957SOL    HW183071   3.804   1.988   3.928  0.1518  2.6706  1.7846
26957SOL    HW283072   3.772   1.869   4.015 -1.9584  1.9915  0.1533
26958SOL     OW83073   2.653   6.910   7.436  0.3776  0.7657  0.1216
26958SOL    HW183074   2.748   6.895   7.437  0.1024 -2.3053 -2.0441
26958SOL    HW283075   2.617   6.836   7.485 -0.9344  0.6120 -1.0086
26959SOL     OW83076   6.207   2.796   7.445 -0.0705  0.0797  0.1981
26959SOL    HW183077   6.290   2.843   7.437 -0.4670  1.2195  2.0996
26959SOL    HW283078   6.151   2.855   7.496 -0.1848 -2.8543  3.8780
26960SOL     OW83079   0.305   3.824   1.020 -0.0678  0.1607  0.1021
26960SOL    HW183080   0.312   3.729   1.014  1.0703  0.2065  0.5006
26960SOL    HW283081   0.306   3.843   1.114  0.2830  0.5939  0.0149
26961SOL     OW83082   7.093   1.988   7.478 -0.7227  0.4611  0.3134
26961SOL    HW183083   7.105   2.072   7.524  2.6095 -0.2996  1.0563
26961SOL    HW283084   7.178   1.969   7.439 -1.8674 -1.7874 -1.3408
26962SOL     OW83085   6.643   0.463   6.336 -0.5635  0.2283  0.2130
26962SOL    HW183086   6.604   0.387   6.293  0.3253 -0.6190  0.8714
26962SOL    HW283087   6.605   0.464   6.424  1.0896 -0.7956  0.9724
26963SOL     OW83088   2.570   8.660   3.835 -0.6069 -0.0858  0.2317
26963SOL    HW183089   2.556   8.576   3.793  0.3215 -0.4915  0.7033
26963SOL    HW283090   2.665   8.668   3.844 -0.6825  0.9460  0.3288
26964SOL     OW83091   1.595   3.056   7.834  0.1662  0.3715 -0.4811
26964SOL    HW183092   1.553   2.996   7.896  0.7120 -0.3028 -0.7562
26964SOL    HW283093   1.578   3.143   7.870 -0.6367  0.0560 -0.0747
26965SOL     OW83094   3.306   5.345   8.759 -0.2117 -0.4534 -0.1478
26965SOL    HW183095   3.370   5.307   8.819  0.0322  1.1019  0.6131
26965SOL    HW283096   3.249   5.398   8.814 -0.7096  0.0839 -1.1433
26966SOL     OW83097   7.047   0.037   1.488 -0.3734 -0.0690 -0.6217
26966SOL    HW183098   6.982   0.103   1.465 -0.6694 -0.8352 -2.0836
26966SOL    HW283099   7.130   0.075   1.457 -0.4915 -0.2070 -1.1205
26967SOL     OW83100   2.786   9.146   2.284 -0.4302  0.1088 -0.6683
26967SOL    HW183101   2.850   9.078   2.265  0.4341  1.1495 -1.6336
26967SOL    HW283102   2.708   9.099   2.312 -0.2907 -1.3528 -2.5424
26968SOL     OW83103   1.337   7.037   2.242  0.9004 -0.2043  0.4551
26968SOL    HW183104   1.429   7.013   2.236  1.2155  0.9494  0.2725
26968SOL    HW283105   1.296   6.995   2.166  1.5885  0.5264 -0.3442
26969SOL     OW83106   7.707   8.511   8.378  0.5084 -0.1120 -0.0577
26969SOL    HW183107   7.665   8.577   8.435  0.7885 -1.1753  1.4380
26969SOL    HW283108   7.679   8.427   8.415  3.3152 -0.8694  0.5398
26970SOL     OW83109   0.952   5.736   4.572 -0.1294 -0.2497 -0.7039
26970SOL    HW183110   0.956   5.820   4.619 -1.5167 -0.1667 -0.7196
26970SOL    HW283111   0.859   5.719   4.560  0.1624 -1.2190 -1.7496
26971SOL     OW83112   0.509   0.115   3.803 -0.1340  0.1905 -0.2406
26971SOL    HW183113   0.472   0.070   3.879  0.1104 -0.2266 -0.3690
26971SOL    HW283114   0.466   0.201   3.804 -0.5487 -0.0133  0.0435
26972SOL     OW83115   1.452   3.516   1.191  0.3775  0.1543  0.0297
26972SOL    HW183116   1.378   3.458   1.207 -0.3369  1.0548  0.0524
26972SOL    HW283117   1.492   3.527   1.277  0.2829  0.0137  0.0924
26973SOL     OW83118   1.662   0.750   3.963  0.6382 -0.2089  0.1107
26973SOL    HW183119   1.705   0.672   3.999  1.3595 -0.1309 -0.5534
26973SOL    HW283120   1.726   0.820   3.974  0.4329  0.0518 -0.3026
26974SOL     OW83121   6.844   8.755   7.532  0.1394 -1.0015  0.3438
26974SOL    HW183122   6.860   8.693   7.604  2.8411  1.0262  1.6805
26974SOL    HW283123   6.904   8.726   7.463  2.7098  0.8519  1.5990
26975SOL     OW83124   0.168   8.081   0.876  0.2481 -0.4366  0.1626
26975SOL    HW183125   0.164   7.995   0.917 -0.2551 -0.9493 -0.9186
26975SOL    HW283126   0.159   8.064   0.782 -0.4054  0.8252 -0.0386
26976SOL     OW83127   2.374   8.256   6.961 -0.2384  0.2919 -0.2120
26976SOL    HW183128   2.346   8.294   7.044  0.2617 -0.6302  0.3927
26976SOL    HW283129   2.296   8.211   6.927 -0.2407  0.0292  0.1359
26977SOL     OW83130   1.558   8.000   5.223  0.3667  0.2197  0.5511
26977SOL    HW183131   1.533   8.075   5.169 -0.3643 -0.4605 -0.0885
26977SOL    HW283132   1.475   7.962   5.252  0.7359  0.9970  2.8205
26978SOL     OW83133   8.851   6.073   6.746 -0.3970  0.5781  0.2881
26978SOL    HW183134   8.937   6.114   6.742  0.0165 -0.2862  0.0363
26978SOL    HW283135   8.791   6.138   6.711  0.0739  1.3854  0.9506
26979SOL     OW83136   6.090   9.266   4.953  0.3139  0.4008 -0.1141
26979SOL    HW183137   6.026   9.303   4.893 -0.3668  3.6420  2.3555
26979SOL    HW283138   6.160   9.332   4.957  0.9899 -0.3570  1.5684
26980SOL     OW83139   1.854   4.048   7.979  0.6772  0.3056  0.1134
26980SOL    HW183140   1.870   3.984   8.048  0.5933 -0.6551 -0.7369
26980SOL    HW283141   1.877   4.132   8.018 -0.9991  0.0068  1.8897
26981SOL     OW83142   1.137   3.627   9.320  0.0900  0.1235  0.5483
26981SOL    HW183143   1.068   3.561   9.313 -0.7004  0.9954 -0.1996
26981SOL    HW283144   1.219   3.577   9.320 -0.4803 -0.8397 -0.2838
26982SOL     OW83145   4.099   0.039   6.089  0.4680 -0.0291 -0.4918
26982SOL    HW183146   4.164   0.104   6.114 -0.3289  0.2326  1.0481
26982SOL    HW283147   4.110  -0.032   6.152 -0.1753 -0.3541 -0.7311
26983SOL     OW83148   1.396   4.506   6.842  0.1309 -0.3959 -0.1376
26983SOL    HW183149   1.465   4.560   6.881 -0.3266  0.6044 -0.6895
26983SOL    HW283150   1.315   4.537   6.882 -0.1335 -0.7318 -0.4015
26984SOL     OW83151   4.912   8.243   8.025 -0.2867 -0.3186  0.9495
26984SOL    HW183152   4.876   8.156   8.007 -0.1662 -0.6121  2.0491
26984SOL    HW283153   5.003   8.226   8.050 -0.3524  0.0814  1.4792
26985SOL     OW83154   4.823   7.257   1.560 -0.3255  0.2313  0.0653
26985SOL    HW183155   4.889   7.262   1.491 -1.1150 -1.1981 -0.8429
26985SOL    HW283156   4.809   7.347   1.587  0.0192  0.8247 -1.6384
26986SOL     OW83157   5.358   4.223   6.261 -0.3332  0.5803 -0.0907
26986SOL    HW183158   5.325   4.133   6.268 -2.3337  1.3621  1.3515
26986SOL    HW283159   5.327   4.254   6.176  0.1696  0.0207 -0.4927
26987SOL     OW83160   5.842   4.315   3.452 -0.6646  1.0032  0.2485
26987SOL    HW183161   5.785   4.365   3.511 -0.5334  1.7392 -0.2249
26987SOL    HW283162   5.825   4.224   3.473 -1.4747  1.2328  0.6249
26988SOL     OW83163   1.084   6.609   9.519  0.1516 -0.4049 -0.3010
26988SOL    HW183164   1.141   6.562   9.581  0.8241  0.7035 -0.0452
26988SOL    HW283165   1.123   6.592   9.434  0.2619 -0.4987 -0.2327
26989SOL     OW83166   0.872   7.566   1.880 -0.1089 -0.4096 -0.3158
26989SOL    HW183167   0.843   7.570   1.971 -0.9076 -0.7223 -0.5548
26989SOL    HW283168   0.812   7.505   1.838  1.0226 -1.2481 -0.7766
26990SOL     OW83169   6.375   5.887   7.791  0.0143 -0.0388 -0.2758
26990SOL    HW183170   6.373   5.830   7.713  1.0642 -3.0809  1.7158
26990SOL    HW283171   6.453   5.941   7.778 -1.0897  1.1852 -2.3223
26991SOL     OW83172   1.690   5.638   1.231 -0.2393  0.1990 -0.0572
26991SOL    HW183173   1.780   5.654   1.259 -0.5758  0.5350  0.8714
26991SOL    HW283174   1.681   5.688   1.150 -0.8632  3.8970  2.0743
26992SOL     OW83175   1.543   9.457   2.245  0.3087  0.9534 -0.1975
26992SOL    HW183176   1.604   9.483   2.176 -0.4309  1.0015 -0.8487
26992SOL    HW283177   1.479   9.528   2.250 -1.4766 -0.4161 -1.6969
26993SOL     OW83178   4.356   2.692   8.354 -0.1571 -0.3133 -0.7111
26993SOL    HW183179   4.427   2.671   8.293  0.5944 -0.2656  0.1263
26993SOL    HW283180   4.357   2.619   8.416  0.4028  0.6079  0.3933
26994SOL     OW83181   7.096   3.957   5.611  0.2077 -0.0287  0.4295
26994SOL    HW183182   7.027   3.914   5.561  0.8762 -1.7370  0.8876
26994SOL    HW283183   7.167   3.893   5.613  1.3173  1.1624  1.0770
26995SOL     OW83184   0.792   1.040   6.570 -0.1890  0.0187  0.5702
26995SOL    HW183185   0.847   1.083   6.635 -0.0322 -0.8664  1.0416
26995SOL    HW283186   0.847   0.970   6.535 -0.5599 -0.0358  0.0899
26996SOL     OW83187   3.175   0.758   0.004 -0.4659 -0.0296  0.6764
26996SOL    HW183188   3.115   0.692   0.038  0.4954 -2.3248 -1.6959
26996SOL    HW283189   3.262   0.727   0.029 -0.0761  2.2404  2.4367
26997SOL     OW83190   5.397   6.244   6.677 -0.0689  0.0112 -0.4713
26997SOL    HW183191   5.464   6.199   6.728 -0.5285 -1.3098 -0.9906
26997SOL    HW283192   5.319   6.243   6.732 -0.4474 -1.0432 -0.9883
26998SOL     OW83193   9.382   5.829   6.945 -0.2727  0.0078  0.1450
26998SOL    HW183194   9.442   5.802   6.876  0.4153  0.6922  0.4513
26998SOL    HW283195   9.384   5.925   6.942 -0.8151  0.0418  0.6189
26999SOL     OW83196   7.409   4.038   4.653  0.0677  0.1863 -0.4069
26999SOL    HW183197   7.453   3.991   4.724 -1.1271 -1.2378 -0.5652
26999SOL    HW283198   7.462   4.117   4.641  0.5703  0.2411  1.7284
27000SOL     OW83199   0.637   8.947   4.001  0.6345 -0.4309  0.0928
27000SOL    HW183200   0.618   9.007   3.929  1.3469 -0.9657 -0.5610
27000SOL    HW283201   0.732   8.955   4.014  0.6803 -1.1537  0.2343
27001SOL     OW83202   3.316   4.111   1.703  0.4553  0.0474 -0.3950
27001SOL    HW183203   3.272   4.038   1.748 -0.1798  0.5409 -0.1962
27001SOL    HW283204   3.295   4.098   1.611  2.2189 -1.2833 -0.6707
27002SOL     OW83205   5.832   9.269   6.386  0.1667 -0.6751 -0.2597
27002SOL    HW183206   5.911   9.314   6.357 -0.1070 -0.2930 -0.4184
27002SOL    HW283207   5.777   9.265   6.308 -0.1748 -0.4949 -0.0275
27003SOL     OW83208   8.398   3.143   0.932 -0.2596  0.1852 -0.0405
27003SOL    HW183209   8.322   3.140   0.988  0.8501 -1.2563  1.4938
27003SOL    HW283210   8.469   3.107   0.985  1.5117  1.4736 -1.3904
27004SOL     OW83211   1.030   6.270   9.350  0.3300  0.2566  0.2688
27004SOL    HW183212   1.099   6.204   9.346  0.3918  0.3375 -0.0232
27004SOL    HW283213   0.957   6.226   9.394  1.5877  1.0765  3.5275
27005SOL     OW83214   4.532   9.572   6.656 -0.1906 -0.1728 -0.7163
27005SOL    HW183215   4.506   9.495   6.706 -0.2923  0.0668 -0.3911
27005SOL    HW283216   4.603   9.611   6.708 -1.9672  1.4880  0.6125
27006SOL     OW83217   8.151   3.645   1.593  0.3623  0.0530 -0.1938
27006SOL    HW183218   8.240   3.671   1.567  0.0196  1.1183 -0.3591
27006SOL    HW283219   8.154   3.641   1.688  0.4031  0.8686 -0.1506
27007SOL     OW83220   2.180   4.077   7.904  0.2269 -0.1888 -0.2651
27007SOL    HW183221   2.223   4.134   7.841  1.7778  0.2234  1.1046
27007SOL    HW283222   2.087   4.096   7.894  0.4018 -0.3886 -2.6358
27008SOL     OW83223   9.555   1.326   3.805 -0.1328 -0.2109  0.6770
27008SOL    HW183224   9.619   1.375   3.857  0.9224 -2.5278  1.7130
27008SOL    HW283225   9.577   1.234   3.821 -2.2725 -1.0584 -0.8260
27009SOL     OW83226   3.470   4.753   4.821 -0.1090  0.2737 -0.6052
27009SOL    HW183227   3.531   4.728   4.752  1.8717  1.6345  0.5417
27009SOL    HW283228   3.388   4.771   4.775  1.2129  1.4784 -2.6887
27010SOL     OW83229   6.124   6.512   6.411  0.3554  0.1647 -0.4166
27010SOL    HW183230   6.088   6.533   6.325  0.8148  2.1053 -0.1698
27010SOL    HW283231   6.119   6.594   6.460  0.8173 -0.7131  1.1609
27011SOL     OW83232   9.276   1.121   4.485 -0.1659  0.1158  0.2068
27011SOL    HW183233   9.216   1.188   4.519 -1.7502 -1.8974  1.5892
27011SOL    HW283234   9.363   1.152   4.511 -0.8146  1.8050  0.4960
27012SOL     OW83235   8.156   3.787   9.008  0.1079 -0.2046 -0.1120
27012SOL    HW183236   8.161   3.714   8.945  3.4359 -1.7983  1.7087
27012SOL    HW283237   8.135   3.745   9.091 -0.3630  1.2956  0.5476
27013SOL     OW83238   9.408   7.572   6.645  0.2752 -0.2399  0.1278
27013SOL    HW183239   9.392   7.627   6.722 -0.4271  1.1564 -0.9601
27013SOL    HW283240   9.327   7.578   6.594 -0.0911 -2.8651  0.2657
27014SOL     OW83241   4.185   3.707   0.720 -0.2140  0.1328  0.2851
27014SOL    HW183242   4.226   3.766   0.658  0.3183 -0.0351  0.4737
27014SOL    HW283243   4.121   3.761   0.766  0.2427  0.5586  0.4325
27015SOL     OW83244   7.687   4.055   5.575 -0.3794  0.0369  0.2716
27015SOL    HW183245   7.780   4.068   5.596 -0.1509 -1.4929  0.3384
27015SOL    HW283246   7.657   4.141   5.546  2.1676 -0.2585 -4.0906
27016SOL     OW83247   7.841   2.644   9.200  0.4984 -0.0518 -0.3749
27016SOL    HW183248   7.914   2.604   9.247  1.2283  0.3404 -1.1488
27016SOL    HW283249   7.882   2.697   9.132 -0.5484 -0.7623 -1.5943
27017SOL     OW83250   3.981   8.313   7.958  0.2666 -0.5483 -0.3893
27017SOL    HW183251   4.010   8.392   7.913 -0.5328 -0.8875 -1.5428
27017SOL    HW283252   3.914   8.343   8.019 -0.7217 -0.4284 -1.5007
27018SOL     OW83253   7.880   5.514   3.322 -0.2323 -0.1431  0.2976
27018SOL    HW183254   7.922   5.543   3.403 -0.8297  0.1107  0.5202
27018SOL    HW283255   7.844   5.594   3.283 -2.9062 -0.6474  1.4989
27019SOL     OW83256   2.808   5.551   9.056  0.4392 -0.2130  0.4752
27019SOL    HW183257   2.896   5.588   9.065 -0.0761  0.9769  0.8371
27019SOL    HW283258   2.820   5.475   8.999  1.3099  1.4655 -1.7245
27020SOL     OW83259   5.580   2.941   4.393 -0.5462 -0.3890 -0.0105
27020SOL    HW183260   5.636   2.913   4.466 -1.2245  0.2931  0.7984
27020SOL    HW283261   5.567   3.035   4.408 -0.0284 -0.0564 -1.4819
27021SOL     OW83262   1.950   5.874   8.152 -0.4915 -0.0128 -0.0360
27021SOL    HW183263   1.868   5.922   8.138 -0.0298  0.5306 -1.0165
27021SOL    HW283264   1.987   5.865   8.065  1.0731  0.8212  0.5052
27022SOL     OW83265   6.923   9.308   4.213 -0.7936  0.1502 -0.0167
27022SOL    HW183266   6.873   9.228   4.227 -0.8637  0.3521  0.9194
27022SOL    HW283267   6.893   9.340   4.127 -2.5946  0.4895  0.6932
27023SOL     OW83268   8.575   1.166   0.053  0.4833 -0.4118  0.3305
27023SOL    HW183269   8.616   1.236   0.104  1.1897  0.4101 -1.2595
27023SOL    HW283270   8.569   1.092   0.113 -1.2219  1.2670  2.4003
27024SOL     OW83271   8.482   8.067   8.372 -0.1855 -0.8006  0.9333
27024SOL    HW183272   8.525   8.037   8.452 -1.6243  0.2390  2.1460
27024SOL    HW283273   8.496   8.162   8.370  1.6979 -1.0037 -1.2621
27025SOL     OW83274   3.739   7.446   9.543 -0.4070 -0.0365 -0.1879
27025SOL    HW183275   3.700   7.472   9.459  0.2060  1.8998  0.0706
27025SOL    HW283276   3.833   7.439   9.525 -0.2745  0.3618  0.3117
27026SOL     OW83277   5.352   3.098   1.717  0.4331 -0.5628  0.6413
27026SOL    HW183278   5.307   3.042   1.780  0.9453  0.6362  2.1446
27026SOL    HW283279   5.371   3.178   1.766  0.6412  0.5224 -1.1243
27027SOL     OW83280   3.373   5.003   7.199  0.3050  0.1529 -0.1227
27027SOL    HW183281   3.356   5.056   7.121 -0.5334 -0.1639 -0.1674
27027SOL    HW283282   3.315   5.039   7.266  0.9301  0.3420  0.3211
27028SOL     OW83283   8.563   3.490   5.980 -0.1802 -0.0472  0.4704
27028SOL    HW183284   8.540   3.516   6.069  1.3397  1.5365  0.4756
27028SOL    HW283285   8.481   3.463   5.940 -1.3859  1.7866  1.5430
27029SOL     OW83286   2.757   7.402   7.226  0.2159  0.2145 -0.2065
27029SOL    HW183287   2.792   7.489   7.209  0.3932  0.2715  0.4454
27029SOL    HW283288   2.672   7.401   7.180  0.3198  0.6389 -0.4138
27030SOL     OW83289   7.515   5.456   7.108  0.5283 -0.3080  0.2567
27030SOL    HW183290   7.443   5.519   7.119  1.8252  1.1319  1.0060
27030SOL    HW283291   7.485   5.397   7.039 -1.1470  0.5478  0.1820
27031SOL     OW83292   3.236   7.453   4.988  0.3534 -0.3827 -0.3911
27031SOL    HW183293   3.165   7.504   4.950  1.3855  0.9182 -0.6658
27031SOL    HW283294   3.257   7.388   4.921 -0.0894 -0.3014 -0.6122
27032SOL     OW83295   1.945   8.806   4.667 -0.2307 -0.1563  0.1425
27032SOL    HW183296   1.895   8.883   4.642 -0.1797  0.2768  1.3165
27032SOL    HW283297   1.930   8.744   4.596  0.1035  1.0847 -1.0482
27033SOL     OW83298   7.713   6.011   9.048 -0.0502  0.1743 -0.2710
27033SOL    HW183299   7.725   5.943   8.981 -0.6055  0.7501 -0.9790
27033SOL    HW283300   7.668   6.082   9.002 -1.5985  0.0876  1.0177
27034SOL     OW83301   2.977   3.604   4.753  0.3072 -0.2408 -0.0438
27034SOL    HW183302   3.009   3.579   4.667 -0.8656 -0.4719 -0.4255
27034SOL    HW283303   3.043   3.665   4.786  0.4757  0.3183 -1.3498
27035SOL     OW83304   1.458   1.753   5.673  0.6170  0.2993 -0.0501
27035SOL    HW183305   1.384   1.742   5.613  1.2574  0.0381 -0.8150
27035SOL    HW283306   1.480   1.846   5.666  0.1267  0.4559  0.4647
27036SOL     OW83307   4.706   0.610   1.464  0.5240 -0.6344  0.2008
27036SOL    HW183308   4.661   0.576   1.387 -1.0514 -0.3423  0.9489
27036SOL    HW283309   4.670   0.560   1.537  0.7008  0.2678  0.9329
27037SOL     OW83310   4.773   2.016   6.608 -0.3240 -0.0357 -0.0678
27037SOL    HW183311   4.711   1.980   6.672 -0.6868 -2.6452 -1.7298
27037SOL    HW283312   4.824   2.081   6.657 -2.8099  0.5363  1.9422
27038SOL     OW83313   1.124   0.731   4.608 -0.6394 -0.0030  0.2455
27038SOL    HW183314   1.168   0.785   4.542  0.4178 -1.8736 -0.6875
27038SOL    HW283315   1.102   0.791   4.679  1.3414  1.4527 -0.2999
27039SOL     OW83316   0.240   3.687   4.123 -0.0974  0.1983  0.2684
27039SOL    HW183317   0.306   3.749   4.154  0.1953  0.0129  0.0369
27039SOL    HW283318   0.255   3.683   4.028 -0.5898  0.3212  0.1850
27040SOL     OW83319   7.652   4.445   6.417  0.7219  0.0962 -0.2192
27040SOL    HW183320   7.603   4.436   6.335 -1.4634  0.0335  1.0258
27040SOL    HW283321   7.661   4.356   6.450 -0.9084  0.3241  0.9521
27041SOL     OW83322   1.159   0.840   2.976 -0.1193 -0.4654 -0.2333
27041SOL    HW183323   1.119   0.906   2.919  0.1269 -0.1963 -0.0942
27041SOL    HW283324   1.236   0.883   3.013 -0.3298 -0.6034  0.3803
27042SOL     OW83325   7.714   1.356   6.725  0.0289 -0.0772  0.1971
27042SOL    HW183326   7.722   1.280   6.783 -0.2374 -0.3138 -0.0796
27042SOL    HW283327   7.762   1.332   6.647  0.1728  0.1455  0.2170
27043SOL     OW83328   0.506   6.422   5.707 -0.3963 -0.1109  0.1278
27043SOL    HW183329   0.436   6.449   5.648  0.3693 -1.3501 -1.4429
27043SOL    HW283330   0.586   6.458   5.668  0.1197 -0.9190  0.4106
27044SOL     OW83331   0.908   3.703   8.249  0.6398  0.1979  0.4869
27044SOL    HW183332   0.878   3.649   8.176 -1.3698  3.0813 -1.0328
27044SOL    HW283333   1.003   3.710   8.237  0.8333 -2.1895  0.2759
27045SOL     OW83334   5.617   3.354   4.753  0.5290 -0.4269  0.3416
27045SOL    HW183335   5.529   3.316   4.746  0.5084 -0.1619 -1.3475
27045SOL    HW283336   5.601   3.447   4.770  0.2963  0.2736 -2.9747
27046SOL     OW83337   1.997   7.816   5.367  0.2675 -0.1134 -0.0668
27046SOL    HW183338   1.993   7.903   5.408  1.4731 -0.4882  0.9174
27046SOL    HW283339   2.068   7.823   5.303  2.8168 -1.2599  2.4312
27047SOL     OW83340   8.495   5.864   3.330 -0.0283  0.5068 -0.4622
27047SOL    HW183341   8.509   5.778   3.367 -0.8747  0.9801  1.0155
27047SOL    HW283342   8.551   5.922   3.381  0.1915  0.9223 -1.1492
27048SOL     OW83343   7.964   7.799   5.485  0.1859  0.6629  0.6144
27048SOL    HW183344   8.058   7.783   5.486  0.6263  2.7196 -0.7427
27048SOL    HW283345   7.949   7.860   5.558  0.4610  2.6386 -0.9054
27049SOL     OW83346   8.140   8.976   9.366 -0.2483  1.0003 -0.0072
27049SOL    HW183347   8.196   8.908   9.329  0.3128  0.8845  1.0126
27049SOL    HW283348   8.084   8.929   9.428 -0.6540  1.3005 -0.1427
27050SOL     OW83349   1.243   3.968   4.722 -0.7615 -0.1971  0.3331
27050SOL    HW183350   1.166   3.996   4.772 -2.0127  0.2093 -1.6915
27050SOL    HW283351   1.303   4.042   4.728 -2.3010  1.3145 -1.4443
27051SOL     OW83352   7.981   4.083   0.928 -0.0221 -0.4785  0.5173
27051SOL    HW183353   8.000   4.150   0.994 -0.6395 -0.6185  0.8376
27051SOL    HW283354   7.949   4.132   0.853  0.6029 -0.3258  0.3428
27052SOL     OW83355   2.957   0.200   8.586 -0.2642  0.0006 -0.0603
27052SOL    HW183356   3.047   0.171   8.601 -0.6874 -0.4580  1.8613
27052SOL    HW283357   2.954   0.223   8.493  1.9767  0.5718 -0.0378
27053SOL     OW83358   2.163   8.631   7.066  0.8376 -0.3453 -0.0077
27053SOL    HW183359   2.249   8.672   7.068  0.1052  1.4348 -1.3827
27053SOL    HW283360   2.139   8.632   6.973  0.4091 -3.2241  0.0063
27054SOL     OW83361   4.090   3.269   2.663 -0.0290 -0.7704  0.8043
27054SOL    HW183362   4.173   3.287   2.707 -0.3386  0.7816  0.8219
27054SOL    HW283363   4.114   3.233   2.578  0.6404 -0.9308  1.0577
27055SOL     OW83364   6.485   1.176   3.757  0.0222  0.4373  0.1817
27055SOL    HW183365   6.455   1.186   3.848 -1.6030 -0.3011 -0.2278
27055SOL    HW283366   6.557   1.113   3.763 -1.7645 -1.6873  0.7523
27056SOL     OW83367   6.607   1.535   5.982  0.1763 -0.5841 -0.3662
27056SOL    HW183368   6.693   1.560   5.948 -0.5853  0.3486 -1.6811
27056SOL    HW283369   6.549   1.537   5.905 -1.3384  0.3335  0.7437
27057SOL     OW83370   4.900   0.838   9.470 -0.5639 -0.1312  0.1168
27057SOL    HW183371   4.910   0.780   9.395 -0.2668 -0.0784  0.1143
27057SOL    HW283372   4.826   0.895   9.447  0.5181  0.9462 -0.8244
27058SOL     OW83373   1.883   8.160   7.088 -0.0947 -0.5939  0.3531
27058SOL    HW183374   1.925   8.238   7.124 -0.4464 -0.6338  0.8668
27058SOL    HW283375   1.915   8.154   6.998 -1.1091  0.8904 -0.1437
27059SOL     OW83376   9.116   7.355   2.144  0.0871  0.0515 -0.0342
27059SOL    HW183377   9.130   7.375   2.052  0.9310 -0.5038 -0.0398
27059SOL    HW283378   9.204   7.343   2.180 -0.1973  0.8300  0.9822
27060SOL     OW83379   0.230   1.486   8.487  0.2379 -0.0729 -1.1563
27060SOL    HW183380   0.222   1.391   8.477 -0.9872  0.1167 -2.2859
27060SOL    HW283381   0.302   1.498   8.549 -1.0624 -1.8148  0.8673
27061SOL     OW83382   5.408   1.215   3.424 -0.1139 -0.4787  0.2740
27061SOL    HW183383   5.402   1.221   3.520  2.0579 -1.0436  0.5006
27061SOL    HW283384   5.464   1.289   3.399  0.6088 -1.2216 -0.3691
27062SOL     OW83385   0.782   7.892   2.643 -0.4530  0.0473  0.3647
27062SOL    HW183386   0.743   7.944   2.574  0.5492  1.6885  0.9776
27062SOL    HW283387   0.867   7.865   2.608 -0.4622 -0.1673  0.5027
27063SOL     OW83388   6.856   3.555   3.862  0.0623 -0.0029  0.3104
27063SOL    HW183389   6.816   3.468   3.865 -0.9293  0.4619  1.8164
27063SOL    HW283390   6.797   3.610   3.915  1.3699  1.2881  0.4816
27064SOL     OW83391   5.677   4.814   2.742  0.9160 -0.5334  0.0321
27064SOL    HW183392   5.600   4.783   2.790  0.2893 -0.9366 -1.1951
27064SOL    HW283393   5.644   4.836   2.655  2.0174  0.2207 -0.2131
27065SOL     OW83394   0.960   4.191   6.654  0.5791  0.4994  0.3495
27065SOL    HW183395   0.983   4.238   6.734  0.0671 -0.2271  0.9395
27065SOL    HW283396   1.039   4.195   6.600  0.9696  0.9023  0.9372
27066SOL     OW83397   9.044   8.231   7.872 -0.8742 -0.0947 -0.4027
27066SOL    HW183398   9.118   8.170   7.873 -1.3963 -0.7942  2.1915
27066SOL    HW283399   8.970   8.178   7.844 -1.1727 -0.5060  1.0873
27067SOL     OW83400   0.003   8.046   9.547 -0.5513 -0.4849  0.2318
27067SOL    HW183401   0.005   8.042   9.451 -3.0874 -0.7171  0.1256
27067SOL    HW283402   0.071   8.110   9.570  1.1130 -1.4774 -1.5931
27068SOL     OW83403   3.302   9.491   9.317  0.0062  0.7890 -0.1503
27068SOL    HW183404   3.285   9.571   9.367 -1.2039  0.1629  0.4803
27068SOL    HW283405   3.380   9.511   9.265  1.9977  1.1425  2.7459
27069SOL     OW83406   8.472   1.254   9.413  0.4560 -0.0862  0.5903
27069SOL    HW183407   8.502   1.192   9.479  0.8380 -1.1480 -0.5418
27069SOL    HW283408   8.393   1.293   9.450  0.7050 -0.6000  1.6887
27070SOL     OW83409   4.318   5.406   0.108  0.8392 -0.0061  0.2364
27070SOL    HW183410   4.309   5.318   0.072 -0.7652  0.5665 -0.8716
27070SOL    HW283411   4.369   5.454   0.042  0.0126  0.3859 -0.1421
27071SOL     OW83412   5.717   1.604   9.150  0.6072 -0.2585  0.5745
27071SOL    HW183413   5.777   1.570   9.084 -0.5007 -1.3166  0.0579
27071SOL    HW283414   5.646   1.540   9.153 -1.1894  1.5941  0.1789
27072SOL     OW83415   2.163   1.422   4.472 -0.1567  0.0498  0.3330
27072SOL    HW183416   2.198   1.333   4.479  1.6620  0.6863 -0.0348
27072SOL    HW283417   2.086   1.422   4.528 -0.1824 -1.7526  0.3489
27073SOL     OW83418   5.449   8.766   5.210  0.2869 -0.1799 -0.1376
27073SOL    HW183419   5.435   8.756   5.115 -1.9089  0.7551  0.0289
27073SOL    HW283420   5.434   8.678   5.245 -0.9898 -0.1205 -0.4777
27074SOL     OW83421   3.028   1.790   9.404  0.1143  0.3409  0.8535
27074SOL    HW183422   2.989   1.722   9.459  2.0160 -0.2521  1.5366
27074SOL    HW283423   3.093   1.744   9.351  0.3814  1.4104  0.2229
27075SOL     OW83424   1.603   8.414   0.608  0.0233  0.7253  0.8697
27075SOL    HW183425   1.693   8.383   0.595 -0.4685 -1.1106  1.5076
27075SOL    HW283426   1.562   8.410   0.522 -0.5068 -2.1857  1.1667
27076SOL     OW83427   4.595   3.872   7.111  0.2280  0.4919 -0.4649
27076SOL    HW183428   4.521   3.879   7.052 -0.6650  0.9194  0.6668
27076SOL    HW283429   4.561   3.825   7.187  1.9509 -2.1795 -1.2038
27077SOL     OW83430   0.014   7.290   3.436  0.0865  0.0586 -0.2779
27077SOL    HW183431   0.045   7.292   3.345 -1.1769 -1.9348 -0.7959
27077SOL    HW283432  -0.039   7.369   3.444  1.0008  0.7685 -0.9615
27078SOL     OW83433   4.151   7.805   5.012  0.1768 -0.4353 -0.5336
27078SOL    HW183434   4.158   7.733   4.950 -0.5082  0.1214 -1.2826
27078SOL    HW283435   4.241   7.820   5.042  0.0710 -3.1980  1.5656
27079SOL     OW83436   0.823   4.680   7.910 -0.2067 -0.3972 -0.1086
27079SOL    HW183437   0.774   4.604   7.879 -3.1303  1.3663 -0.2341
27079SOL    HW283438   0.768   4.755   7.886  1.4375  1.6029  1.9333
27080SOL     OW83439   6.004   7.914   6.226 -0.0624  0.3976 -1.0665
27080SOL    HW183440   5.929   7.856   6.236 -0.6851  1.2402 -0.7705
27080SOL    HW283441   5.976   7.997   6.263  1.2220  0.5673 -0.4048
27081SOL     OW83442   3.252   6.999   2.067 -0.3085  0.1333 -0.3059
27081SOL    HW183443   3.332   6.997   2.119  0.8268  0.9351 -1.9469
27081SOL    HW283444   3.268   7.067   2.001 -1.3856 -1.3348 -2.1669
27082SOL     OW83445   4.983   7.810   2.039  0.0843  0.1365 -0.8152
27082SOL    HW183446   5.048   7.862   1.991  0.6877  0.0064 -0.1483
27082SOL    HW283447   5.012   7.813   2.130  0.7688 -2.3316 -0.9107
27083SOL     OW83448   2.544   5.637   2.824 -0.4084 -0.2708 -0.1632
27083SOL    HW183449   2.527   5.674   2.738 -1.0636 -0.4847 -0.1269
27083SOL    HW283450   2.559   5.714   2.881 -1.5185 -0.0574 -0.1384
27084SOL     OW83451   3.600   8.644   1.434  0.1650  0.4232 -0.1892
27084SOL    HW183452   3.639   8.701   1.501 -0.7506 -0.7302  1.3976
27084SOL    HW283453   3.535   8.700   1.390  1.6866  1.5733 -1.0498
27085SOL     OW83454   1.991   7.140   1.712  0.1657  0.5859 -0.7200
27085SOL    HW183455   2.001   7.202   1.784 -0.0527 -1.8330  1.5287
27085SOL    HW283456   2.060   7.075   1.727 -1.9106 -1.7570 -0.7023
27086SOL     OW83457   1.810   7.430   3.057  0.1059 -0.0256 -0.7845
27086SOL    HW183458   1.804   7.348   3.104  0.1930 -0.5550 -1.6756
27086SOL    HW283459   1.897   7.464   3.078  0.5807 -0.8079 -1.4271
27087SOL     OW83460   0.754   3.633   3.357  0.1963 -0.1443 -0.5593
27087SOL    HW183461   0.738   3.667   3.269  0.3310 -0.9225 -0.8929
27087SOL    HW283462   0.806   3.554   3.343 -0.2977 -0.6130  0.1737
27088SOL     OW83463   7.008   8.902   3.267 -0.3558  0.3427 -0.3377
27088SOL    HW183464   6.934   8.946   3.226 -1.0987  0.1096  0.7360
27088SOL    HW283465   6.970   8.836   3.323  0.7216 -0.8789 -0.9876
27089SOL     OW83466   2.890   0.056   3.411  0.2806 -0.3714 -0.2129
27089SOL    HW183467   2.917   0.147   3.414  0.8645 -0.5597  0.5058
27089SOL    HW283468   2.852   0.038   3.497 -1.1935 -0.4118 -0.8432
27090SOL     OW83469   5.519   9.053   5.121  0.3900  0.1589 -0.3369
27090SOL    HW183470   5.543   8.974   5.169  0.7416 -1.0431 -2.3703
27090SOL    HW283471   5.600   9.080   5.078 -0.2743  0.1634 -1.6250
27091SOL     OW83472   3.777   8.452   8.105 -0.1088 -0.5407 -0.2055
27091SOL    HW183473   3.844   8.519   8.111  0.3061 -1.0420  1.1683
27091SOL    HW283474   3.714   8.486   8.041  1.3825 -0.0301 -1.4617
27092SOL     OW83475   2.506   8.906   0.563  0.2619  0.2117 -0.2571
27092SOL    HW183476   2.429   8.959   0.541  0.5567  0.6542 -0.2440
27092SOL    HW283477   2.476   8.846   0.631  0.0347  0.6631  0.0417
27093SOL     OW83478   3.800   9.351   0.490 -0.5345 -0.6623  0.1305
27093SOL    HW183479   3.837   9.277   0.540  0.4046 -0.4084 -0.1682
27093SOL    HW283480   3.799   9.423   0.552  0.2116 -0.4676 -0.0696
27094SOL     OW83481   0.515   2.813   2.148  0.0380  0.5221  0.6364
27094SOL    HW183482   0.582   2.776   2.205 -0.1351  2.0624  1.9053
27094SOL    HW283483   0.433   2.803   2.197 -0.2852  0.9194  0.1884
27095SOL     OW83484   8.963   0.632   6.702 -0.5687  0.1866  0.2758
27095SOL    HW183485   9.038   0.665   6.751 -0.9233  1.2915  0.1107
27095SOL    HW283486   8.892   0.627   6.766 -0.8264  0.8997  0.0639
27096SOL     OW83487   1.204   7.183   3.313  0.9834 -0.4317 -0.1653
27096SOL    HW183488   1.153   7.228   3.246  0.6302  0.1805  0.4932
27096SOL    HW283489   1.287   7.230   3.315  0.0620  1.3264  1.6161
27097SOL     OW83490   8.747   6.166   1.638 -0.1746 -0.3116 -0.2053
27097SOL    HW183491   8.771   6.173   1.730 -1.5821 -1.7397  0.3133
27097SOL    HW283492   8.669   6.222   1.629  1.0750  1.3790 -1.0196
27098SOL     OW83493   6.644   8.726   3.886 -0.4604 -0.2640 -0.9405
27098SOL    HW183494   6.562   8.761   3.850 -0.5325  2.1763  1.2425
27098SOL    HW283495   6.616   8.677   3.964  0.1030  0.3863 -0.3165
27099SOL     OW83496   5.121   5.850   4.107 -0.0889 -0.2042 -0.2513
27099SOL    HW183497   5.047   5.826   4.051 -1.7455  1.8481  0.8748
27099SOL    HW283498   5.142   5.940   4.082  1.9323 -0.6537 -0.3649
27100SOL     OW83499   8.648   2.111   9.373 -0.2917 -0.5120  0.3279
27100SOL    HW183500   8.637   2.040   9.436 -1.1403  0.3679  1.2103
27100SOL    HW283501   8.603   2.080   9.294 -2.0494 -0.3404  1.2177
27101SOL     OW83502   2.322   2.584   2.186 -0.4125 -0.1680 -0.1636
27101SOL    HW183503   2.298   2.656   2.128  0.4108  0.8937  0.7574
27101SOL    HW283504   2.299   2.505   2.138  0.7193  0.6404 -2.1773
27102SOL     OW83505   0.321   0.492   6.575 -0.4742  0.2303 -0.3707
27102SOL    HW183506   0.296   0.406   6.540 -1.0236  0.0612  0.4305
27102SOL    HW283507   0.318   0.481   6.670 -0.9706  1.2653 -0.2612
27103SOL     OW83508   2.164   8.883   3.485  0.2242  0.4438  0.3923
27103SOL    HW183509   2.234   8.821   3.465 -1.1768 -0.6122 -1.6794
27103SOL    HW283510   2.084   8.832   3.476 -0.9555  2.3296 -0.5423
27104SOL     OW83511   3.535   4.293   7.488 -0.0648  0.4057 -0.2713
27104SOL    HW183512   3.608   4.339   7.531  0.1443  0.4268 -0.6484
27104SOL    HW283513   3.544   4.315   7.396 -0.8962  0.8905 -0.2501
27105SOL     OW83514   5.069   5.741   8.078  0.2790 -0.2949 -0.2539
27105SOL    HW183515   5.158   5.771   8.099  0.1173 -0.0162  0.0465
27105SOL    HW283516   5.024   5.820   8.048  0.0175 -0.3520 -0.0181
27106SOL     OW83517   4.459   3.881   5.708 -0.2785 -0.6778  0.1564
27106SOL    HW183518   4.425   3.890   5.619  1.6834 -2.1177 -0.8184
27106SOL    HW283519   4.509   3.961   5.723  0.4948 -1.0196 -0.5723
27107SOL     OW83520   3.946   1.044   7.849  0.0839 -0.3173 -0.6522
27107SOL    HW183521   3.938   1.003   7.935  0.9464 -0.1785 -0.4968
27107SOL    HW283522   4.026   1.006   7.812  0.2015  0.2816 -1.0219
27108SOL     OW83523   3.548   7.995   7.762  0.2483 -0.1445 -0.3281
27108SOL    HW183524   3.599   8.039   7.695  0.2820 -0.1746 -0.3223
27108SOL    HW283525   3.514   7.916   7.719  0.6695 -0.4143 -0.1683
27109SOL     OW83526   3.717   1.854   1.887 -0.0777 -0.2237  0.3122
27109SOL    HW183527   3.704   1.760   1.893  0.1209 -0.3386 -0.8708
27109SOL    HW283528   3.786   1.865   1.821  0.4859  0.7126  1.0297
27110SOL     OW83529   7.725   6.434   5.090 -0.4698 -0.0425 -0.2212
27110SOL    HW183530   7.651   6.488   5.062 -0.8506  0.1868  1.1338
27110SOL    HW283531   7.798   6.495   5.098 -0.6105  0.0781  0.1975
27111SOL     OW83532   2.193   4.744   7.337 -0.2003 -0.3081  0.3940
27111SOL    HW183533   2.164   4.656   7.361 -0.7383  0.2542  1.8960
27111SOL    HW283534   2.186   4.746   7.241  1.1328 -2.3314  0.1782
27112SOL     OW83535   7.683   6.991   2.377  0.2716 -0.0655 -0.1702
27112SOL    HW183536   7.717   6.931   2.443  1.6011  1.2359  0.3500
27112SOL    HW283537   7.729   6.966   2.296  2.0978  1.2768  0.3957
27113SOL     OW83538   3.460   4.659   7.199 -0.1924  0.0704 -0.8530
27113SOL    HW183539   3.365   4.647   7.201 -0.2175  0.1762  1.3677
27113SOL    HW283540   3.474   4.741   7.246  1.0834 -0.8858  0.5185
27114SOL     OW83541   4.985   3.938   3.801 -0.2754  0.2976 -0.0432
27114SOL    HW183542   4.951   3.926   3.712  1.3880  1.3624 -0.8841
27114SOL    HW283543   4.948   3.866   3.851 -2.0577  0.2420 -1.3581
27115SOL     OW83544   4.585   5.456   0.947  0.2554 -0.6384  0.2491
27115SOL    HW183545   4.494   5.443   0.919 -1.0596  2.1153  2.6750
27115SOL    HW283546   4.616   5.530   0.893  0.9986 -1.3739 -0.3607
27116SOL     OW83547   6.645   8.338   1.260 -0.0695 -1.0651  0.1314
27116SOL    HW183548   6.735   8.308   1.252 -0.7690 -3.3386  0.1787
27116SOL    HW283549   6.595   8.259   1.281 -2.3392 -0.2189 -1.6772
27117SOL     OW83550   4.702   1.396   5.915  0.4001 -0.1933  0.7855
27117SOL    HW183551   4.738   1.438   5.994  0.6833  0.6573  0.2219
27117SOL    HW283552   4.637   1.459   5.882  0.5798 -0.3518  0.1118
27118SOL     OW83553   3.899   7.389   5.237 -0.2573  0.2735 -0.4838
27118SOL    HW183554   3.995   7.390   5.230 -0.0641  0.5105  1.7037
27118SOL    HW283555   3.874   7.302   5.206  0.4636  0.8045 -2.7531
27119SOL     OW83556   1.405   8.668   4.682  0.1403  0.5507 -0.4105
27119SOL    HW183557   1.431   8.582   4.717 -1.3100 -0.5886 -1.9967
27119SOL    HW283558   1.353   8.707   4.752  0.7935  0.1558  0.3237
27120SOL     OW83559   5.054   8.251   4.933  0.2243  0.4197  0.5005
27120SOL    HW183560   5.071   8.180   4.994 -1.4650 -0.5783 -0.1252
27120SOL    HW283561   4.988   8.217   4.873  0.1814  2.1366 -0.5228
27121SOL     OW83562   0.517   2.663   6.447  0.1449  0.2048 -0.8358
27121SOL    HW183563   0.475   2.670   6.533  0.7836 -1.2876 -0.3749
27121SOL    HW283564   0.482   2.582   6.409  2.3100 -0.9068 -0.5721
27122SOL     OW83565   1.646   8.660   5.325  0.3054 -0.3484  0.6218
27122SOL    HW183566   1.713   8.627   5.386  0.8332 -1.2717 -0.4200
27122SOL    HW283567   1.689   8.730   5.278 -0.1431  0.4494  1.3770
27123SOL     OW83568   5.104   3.628   9.018  0.0059 -0.3251  0.5177
27123SOL    HW183569   5.062   3.671   8.943  1.9302  0.0885 -0.4041
27123SOL    HW283570   5.104   3.695   9.086  1.2701  0.5353 -0.2810
27124SOL     OW83571   2.090   4.827   3.879 -0.0716  0.3189  0.5004
27124SOL    HW183572   2.051   4.741   3.897  0.7795 -0.1179  0.3229
27124SOL    HW283573   2.043   4.887   3.937 -0.6040 -0.2787  0.7104
27125SOL     OW83574   4.999   4.585   0.116  0.2756 -0.2950 -0.7756
27125SOL    HW183575   4.977   4.601   0.208  0.9958 -0.3683 -0.5854
27125SOL    HW283576   5.007   4.672   0.078 -0.4544 -0.2672 -0.8806
27126SOL     OW83577   3.090   5.314   5.514  0.0195 -0.3854  0.2961
27126SOL    HW183578   3.097   5.226   5.551  0.4502 -0.3821  0.2234
27126SOL    HW283579   3.129   5.371   5.580 -0.2680 -0.2468  0.3479
27127SOL     OW83580   1.376   1.152   4.505  0.6633  0.0257 -0.4955
27127SOL    HW183581   1.415   1.065   4.499 -0.5861 -0.8455  2.2759
27127SOL    HW283582   1.440   1.204   4.554 -0.5086 -0.7802  2.0761
27128SOL     OW83583   5.737   5.963   5.004 -0.7282 -0.2188 -0.6925
27128SOL    HW183584   5.810   5.971   4.943 -0.4615  0.7010 -0.2767
27128SOL    HW283585   5.659   5.957   4.948 -0.3165 -1.6162 -1.1439
27129SOL     OW83586   2.433   7.254   8.471 -0.7013 -0.0409  0.1498
27129SOL    HW183587   2.419   7.325   8.408  1.6570  0.7857  0.4615
27129SOL    HW283588   2.447   7.176   8.417 -3.7180 -0.4991 -0.1953
27130SOL     OW83589   4.912   5.997   2.733  0.0192  0.0939  0.3484
27130SOL    HW183590   4.990   6.036   2.773 -0.2796 -0.2823  1.3541
27130SOL    HW283591   4.936   5.980   2.642  1.2580 -0.3793  0.7435
27131SOL     OW83592   2.113   6.502   1.382 -0.0515 -0.6262 -0.1372
27131SOL    HW183593   2.206   6.485   1.400  0.2202  1.3956  0.6208
27131SOL    HW283594   2.069   6.485   1.465 -0.2866 -1.0081 -0.3365
27132SOL     OW83595   6.144   7.260   0.795 -0.2754  0.7203  0.4303
27132SOL    HW183596   6.099   7.187   0.836  1.5524 -0.6282  0.1431
27132SOL    HW283597   6.082   7.333   0.802 -1.7100 -0.5465  1.7049
27133SOL     OW83598   7.320   0.041   0.561 -0.1017 -0.2977 -0.8654
27133SOL    HW183599   7.402   0.001   0.588 -0.7909 -1.8224 -0.9080
27133SOL    HW283600   7.305   0.112   0.624  0.6468 -0.7774 -0.1396
27134SOL     OW83601   0.242   1.841   8.362 -0.3324 -0.7883  0.1503
27134SOL    HW183602   0.161   1.892   8.370  1.1510  1.7546  0.1531
27134SOL    HW283603   0.221   1.756   8.401 -3.1667 -0.4615 -0.4658
27135SOL     OW83604   5.620   2.475   6.727  0.2624 -0.4825  0.1738
27135SOL    HW183605   5.573   2.475   6.643  0.3891 -1.7922  0.0838
27135SOL    HW283606   5.562   2.429   6.787  1.6120 -2.7310 -0.0999
27136SOL     OW83607   5.952   0.387   5.716 -0.0078  0.2130  0.3173
27136SOL    HW183608   5.988   0.475   5.731  1.9896 -0.0608 -2.2203
27136SOL    HW283609   5.922   0.389   5.625 -0.5812 -1.5490  0.4357
27137SOL     OW83610   6.687   5.817   5.707  0.4836 -0.1390 -0.2580
27137SOL    HW183611   6.633   5.877   5.758  1.0639  0.3826 -0.2513
27137SOL    HW283612   6.625   5.777   5.645 -0.3287 -1.1657  1.1606
27138SOL     OW83613   0.848   9.551   2.279 -0.0671 -0.5685  0.1993
27138SOL    HW183614   0.941   9.531   2.264 -0.2160 -0.4267 -1.0461
27138SOL    HW283615   0.845   9.647   2.280 -0.5928 -0.4443 -2.9694
27139SOL     OW83616   8.213   9.164   5.507 -0.0799 -0.1357 -0.1688
27139SOL    HW183617   8.255   9.237   5.462 -0.2212  0.0031 -0.0770
27139SOL    HW283618   8.247   9.168   5.597  1.9860 -1.7877 -0.7976
27140SOL     OW83619   2.500   0.536   7.561  0.1884  0.0118  0.4429
27140SOL    HW183620   2.576   0.552   7.505 -0.0726 -1.6784 -0.4670
27140SOL    HW283621   2.435   0.498   7.503 -0.2840 -1.3286  1.7801
27141SOL     OW83622   9.575   2.022   4.687  0.4575 -0.3666 -0.2169
27141SOL    HW183623   9.581   1.991   4.778  1.5477 -0.8455 -0.4238
27141SOL    HW283624   9.549   2.113   4.694  1.1337 -0.2211  0.6225
27142SOL     OW83625   6.718   6.687   0.051  0.3799  0.8948 -0.1541
27142SOL    HW183626   6.626   6.709   0.035  0.7813  2.0988 -0.9627
27142SOL    HW283627   6.747   6.644  -0.029 -0.1381 -1.9152  1.0721
27143SOL     OW83628   5.322   6.951   5.136 -0.6599  0.0863  1.0432
27143SOL    HW183629   5.256   6.901   5.184 -0.7401  0.8534  1.7494
27143SOL    HW283630   5.287   7.040   5.133 -0.3781  0.1695  0.0613
27144SOL     OW83631   4.252   4.646   7.414  0.5050  0.2266  0.0333
27144SOL    HW183632   4.295   4.692   7.341  1.7763 -1.2579 -0.2112
27144SOL    HW283633   4.247   4.555   7.385 -1.2384  0.0211  0.8214
27145SOL     OW83634   6.811   4.802   3.726 -0.0651  0.9019  0.4215
27145SOL    HW183635   6.742   4.751   3.684  1.9254 -1.2488 -0.4212
27145SOL    HW283636   6.767   4.884   3.752 -2.8407 -0.2531 -0.2358
27146SOL     OW83637   7.919   6.124   0.260  0.3915  0.5192 -0.4761
27146SOL    HW183638   7.842   6.074   0.288 -0.2867  1.6703 -0.2007
27146SOL    HW283639   7.986   6.102   0.325  0.5151 -0.9401 -1.0445
27147SOL     OW83640   6.407   5.743   5.259  0.1227  0.2656 -0.0094
27147SOL    HW183641   6.317   5.765   5.287 -0.9590 -3.2118 -0.2561
27147SOL    HW283642   6.399   5.720   5.167  1.0702 -0.8811  0.1674
27148SOL     OW83643   6.328   1.186   0.919 -0.0030 -0.5071  0.0693
27148SOL    HW183644   6.306   1.138   0.839 -1.3362 -0.6968  0.5214
27148SOL    HW283645   6.402   1.137   0.956  1.2375  0.1084 -1.4657
27149SOL     OW83646   6.525   8.093   7.654 -0.0878  0.2155 -0.1536
27149SOL    HW183647   6.554   8.013   7.611 -1.8221 -0.5905  0.1016
27149SOL    HW283648   6.526   8.159   7.585  0.5138 -0.2328 -0.5775
27150SOL     OW83649   3.904   4.784   1.351 -0.2285 -0.1362  0.0310
27150SOL    HW183650   3.850   4.808   1.276  0.3948  3.6980  0.6239
27150SOL    HW283651   3.990   4.765   1.314  0.6196  3.6256 -0.2660
27151SOL     OW83652   0.881   5.352   3.847 -0.7045 -0.2886 -0.3835
27151SOL    HW183653   0.812   5.325   3.785 -0.6572 -2.2840  0.3539
27151SOL    HW283654   0.961   5.316   3.810 -0.1381  1.2703 -0.7672
27152SOL     OW83655   2.982   9.004   1.780  0.1460  0.0399  0.2012
27152SOL    HW183656   3.055   8.980   1.837  0.6986 -1.5950 -1.1419
27152SOL    HW283657   2.904   8.976   1.829  0.4641  0.5224  1.0196
27153SOL     OW83658   3.335   2.575   0.583 -0.1182  0.3841  0.2000
27153SOL    HW183659   3.322   2.668   0.566 -2.1594  0.3479  1.2825
27153SOL    HW283660   3.252   2.545   0.620  0.6404 -1.7767  0.3174
27154SOL     OW83661   8.776   8.609   7.682 -0.2303 -0.0325  0.3775
27154SOL    HW183662   8.772   8.698   7.716 -2.1161 -0.5789  1.7505
27154SOL    HW283663   8.689   8.594   7.644 -0.1859 -1.5205  0.8145
27155SOL     OW83664   4.905   2.877   7.367  0.1471  0.6027  0.5210
27155SOL    HW183665   4.856   2.820   7.424 -0.3112  0.7369  0.2669
27155SOL    HW283666   4.915   2.959   7.416 -0.5737  0.8507  0.2747
27156SOL     OW83667   5.556   1.797   1.585  0.2371  0.4037  0.2369
27156SOL    HW183668   5.530   1.713   1.624 -0.5520 -0.1619 -1.3896
27156SOL    HW283669   5.529   1.789   1.493  1.5815  1.8357 -0.3195
27157SOL     OW83670   2.468   8.258   8.668 -0.0424 -0.0323  0.0405
27157SOL    HW183671   2.439   8.343   8.699 -0.5862 -0.0269 -0.4594
27157SOL    HW283672   2.530   8.227   8.734 -0.2758  0.4962  0.5065
27158SOL     OW83673   0.343   9.042   6.499  0.2591  0.2675  0.1923
27158SOL    HW183674   0.287   9.116   6.477 -1.0244 -0.5785  0.4855
27158SOL    HW283675   0.291   8.965   6.476  1.3178 -0.5543  0.4596
27159SOL     OW83676   9.412   9.411   3.295 -0.3359  0.9527  1.0034
27159SOL    HW183677   9.392   9.407   3.202  1.6109 -0.8851  0.5898
27159SOL    HW283678   9.479   9.478   3.303  0.5583  0.0911  0.8367
27160SOL     OW83679   3.681   5.582   6.151 -0.0294 -0.2033 -0.3851
27160SOL    HW183680   3.650   5.609   6.064 -1.1595 -2.1773 -0.6469
27160SOL    HW283681   3.743   5.512   6.133 -0.0084 -0.3857  0.3978
27161SOL     OW83682   4.572   7.061   8.651  0.2889 -0.5324  0.0973
27161SOL    HW183683   4.640   7.028   8.710  1.3033 -1.6271 -1.5754
27161SOL    HW283684   4.601   7.149   8.628  0.4263 -0.4833  0.4637
27162SOL     OW83685   5.329   1.846   6.287  0.1569  0.6095  0.0552
27162SOL    HW183686   5.321   1.751   6.282  0.5679  0.6003 -0.5103
27162SOL    HW283687   5.247   1.879   6.249  0.1325  0.4867  0.0023
27163SOL     OW83688   1.796   2.662   0.029 -0.4964  0.4375 -0.2011
27163SOL    HW183689   1.795   2.574  -0.009  0.8049 -0.3632  1.5122
27163SOL    HW283690   1.740   2.655   0.106  0.4543  0.8068  0.5321
27164SOL     OW83691   1.491   8.453   6.919 -0.0080  0.0279  0.4692
27164SOL    HW183692   1.583   8.472   6.941  0.3231  0.1415 -0.9437
27164SOL    HW283693   1.458   8.406   6.996  1.2004  0.0616  1.0430
27165SOL     OW83694   1.479   9.352   9.453  0.2484 -0.2873 -0.1521
27165SOL    HW183695   1.541   9.408   9.499 -0.3419 -0.2628  0.6585
27165SOL    HW283696   1.396   9.400   9.459 -0.0294 -0.7333 -0.4209
27166SOL     OW83697   6.907   6.657   5.714  0.2662 -0.5358 -0.0910
27166SOL    HW183698   6.905   6.599   5.790 -3.5445  0.3374  0.6831
27166SOL    HW283699   6.882   6.601   5.641 -2.1043 -0.2672  0.4350
27167SOL     OW83700   2.519   5.928   5.083  0.1148 -0.8881 -0.1761
27167SOL    HW183701   2.605   5.922   5.041 -0.7396 -0.5568 -2.0874
27167SOL    HW283702   2.476   6.000   5.038 -1.3131 -1.3277  0.4491
27168SOL     OW83703   2.342   0.471   8.349  0.0297  0.0676 -0.0353
27168SOL    HW183704   2.279   0.422   8.403  0.6619 -0.2408  0.4466
27168SOL    HW283705   2.355   0.553   8.396  0.9022 -0.3766  0.5280
27169SOL     OW83706   0.108   0.620   4.058 -0.1738  0.0745  0.0138
27169SOL    HW183707   0.187   0.673   4.064  0.7279 -1.3850  1.8822
27169SOL    HW283708   0.134   0.544   4.007 -0.6961  0.1290 -0.3365
27170SOL     OW83709   6.577   9.571   5.384 -0.3538 -0.0074  0.3820
27170SOL    HW183710   6.583   9.504   5.452  0.6715  0.2467  0.5556
27170SOL    HW283711   6.544   9.524   5.307 -1.0453 -0.3983  0.8985
27171SOL     OW83712   4.759   4.429   5.318 -0.6570 -0.2484  0.9619
27171SOL    HW183713   4.762   4.349   5.265  2.2471  1.1240 -1.2808
27171SOL    HW283714   4.823   4.414   5.387 -0.5455 -0.0957  0.8923
27172SOL     OW83715   8.822   1.683   7.138  0.2428 -0.2572  0.2496
27172SOL    HW183716   8.752   1.631   7.176 -0.9489  1.5390  0.6456
27172SOL    HW283717   8.809   1.771   7.174  0.8051  0.8558 -2.0855
27173SOL     OW83718   6.996   9.136   8.074  0.2415 -0.3448 -0.3391
27173SOL    HW183719   7.039   9.214   8.110  0.7934  0.3113 -2.2390
27173SOL    HW283720   7.060   9.101   8.011 -0.4107 -1.7638 -0.2538
27174SOL     OW83721   4.699   5.834   4.808  0.6593  0.1878 -0.1173
27174SOL    HW183722   4.657   5.770   4.751 -0.8742 -0.6433  1.8196
27174SOL    HW283723   4.638   5.908   4.810  1.5702  0.9853 -0.9311
27175SOL     OW83724   4.864   3.731   3.930 -0.2179  0.4074  0.4474
27175SOL    HW183725   4.775   3.765   3.924 -0.1676  0.4934  0.1722
27175SOL    HW283726   4.859   3.662   3.997 -0.2800  1.0750  1.1419
27176SOL     OW83727   5.794   8.992   3.418  0.4308 -0.3943  0.7243
27176SOL    HW183728   5.882   8.958   3.439 -0.0588 -2.3084 -0.1286
27176SOL    HW283729   5.735   8.941   3.474 -0.2313  0.2751  0.6553
27177SOL     OW83730   2.457   3.406   1.797 -0.7195 -0.1452 -0.2659
27177SOL    HW183731   2.518   3.386   1.868 -2.3849 -1.4942  0.8810
27177SOL    HW283732   2.437   3.321   1.758 -0.6148  0.4682 -1.7175
27178SOL     OW83733   6.775   1.668   1.688  0.8898 -0.7331 -0.3930
27178SOL    HW183734   6.758   1.756   1.723  1.0957 -0.8207 -0.0704
27178SOL    HW283735   6.868   1.652   1.707  0.5865 -1.4585  0.5373
27179SOL     OW83736   7.952   6.184   8.981 -0.3479  0.1034 -0.6585
27179SOL    HW183737   7.868   6.137   8.987 -0.2955  0.1771  1.2816
27179SOL    HW283738   7.932   6.260   8.926 -1.1922 -0.5912 -1.3558
27180SOL     OW83739   0.234   3.782   9.481  0.1629  0.1818 -0.0508
27180SOL    HW183740   0.240   3.730   9.401 -1.2844  2.7093 -1.9628
27180SOL    HW283741   0.313   3.836   9.480 -0.6390  1.4018 -0.7611
27181SOL     OW83742   7.229   6.165   1.291  0.1954 -0.3843  0.4720
27181SOL    HW183743   7.283   6.233   1.251 -1.0999  0.1762 -0.4093
27181SOL    HW283744   7.213   6.102   1.220 -2.5410  0.8698 -0.1762
27182SOL     OW83745   4.442   5.573   3.312  0.0239 -0.0465  0.3055
27182SOL    HW183746   4.370   5.635   3.324 -0.2991 -0.2848 -0.3191
27182SOL    HW283747   4.473   5.554   3.400 -1.2073 -0.5562  0.6489
27183SOL     OW83748   6.462   3.017   3.985  0.0240 -0.3149 -0.2191
27183SOL    HW183749   6.550   2.996   3.953 -0.2292  0.5188 -1.5825
27183SOL    HW283750   6.461   2.988   4.076  2.3588  1.3400  0.4376
27184SOL     OW83751   8.061   9.409   4.793 -0.1188  0.2645 -0.4828
27184SOL    HW183752   8.144   9.447   4.764  0.3578 -0.4548 -0.0866
27184SOL    HW283753   8.010   9.399   4.713  0.3437  0.3225 -0.7883
27185SOL     OW83754   4.290   1.021   3.422 -0.1700  0.2755  0.5893
27185SOL    HW183755   4.259   1.007   3.333  1.3559 -1.0689  0.2317
27185SOL    HW283756   4.225   1.080   3.461 -1.2231  0.3466 -1.1799
27186SOL     OW83757   9.106   6.655   6.228 -0.0607  0.1858  0.6229
27186SOL    HW183758   9.109   6.717   6.155  0.2094 -0.3166  0.1921
27186SOL    HW283759   9.071   6.575   6.188  1.5400 -0.5766  0.6730
27187SOL     OW83760   7.334   8.861   0.960  0.4976  0.0316 -0.2735
27187SOL    HW183761   7.373   8.805   1.028 -1.0278 -0.4907  0.2043
27187SOL    HW283762   7.348   8.950   0.992 -0.3019 -0.2124  0.8148
27188SOL     OW83763   2.455   7.182   4.549  0.1345  0.0885  0.1389
27188SOL    HW183764   2.491   7.243   4.613 -1.0730  0.5338  0.4196
27188SOL    HW283765   2.366   7.213   4.534 -0.1348 -0.9685 -0.5421
27189SOL     OW83766   7.541   4.847   1.563  0.0185  0.0829  0.4878
27189SOL    HW183767   7.608   4.913   1.550 -1.2131  1.1588 -0.6164
27189SOL    HW283768   7.458   4.894   1.556 -0.8935 -1.5235 -0.0814
27190SOL     OW83769   1.876   4.555   6.189 -0.2359 -0.3042 -0.2492
27190SOL    HW183770   1.829   4.549   6.272  1.9822  0.1014  1.1151
27190SOL    HW283771   1.886   4.649   6.174  0.5398 -0.3882 -0.2680
27191SOL     OW83772   7.065   1.525   0.351  0.0404 -0.3473  0.3213
27191SOL    HW183773   6.982   1.498   0.311  0.5940 -1.4233 -0.1582
27191SOL    HW283774   7.099   1.592   0.292  0.3324 -1.1530 -0.4475
27192SOL     OW83775   3.491   2.339   3.054  0.6966  0.1803  0.0633
27192SOL    HW183776   3.544   2.340   3.134  0.9364  0.8259 -0.1003
27192SOL    HW283777   3.519   2.260   3.008  1.6525  0.5998 -0.1054
27193SOL     OW83778   6.305   9.418   0.028  0.5161  0.0124 -0.3090
27193SOL    HW183779   6.277   9.464   0.107  0.8662 -0.1653 -0.0833
27193SOL    HW283780   6.272   9.472  -0.044 -0.3012 -0.1210 -0.0478
27194SOL     OW83781   6.675   5.596   9.108 -0.3966 -0.5520  0.0971
27194SOL    HW183782   6.735   5.521   9.113  0.5787  0.2820  1.6689
27194SOL    HW283783   6.733   5.672   9.104 -1.3679  0.1933 -0.1562
27195SOL     OW83784   1.171   2.150   8.270 -0.1853 -0.1753 -0.0607
27195SOL    HW183785   1.143   2.083   8.332 -1.3421  1.7784  1.6680
27195SOL    HW283786   1.094   2.164   8.214 -0.6503  0.9976  0.8299
27196SOL     OW83787   4.699   0.933   3.123 -0.1791  0.0255 -0.0324
27196SOL    HW183788   4.744   0.881   3.057  0.4144  0.0552  0.3388
27196SOL    HW283789   4.607   0.908   3.115 -0.2028  0.4178 -1.2190
27197SOL     OW83790   2.165   1.284   0.787  0.1001 -0.8363  0.3393
27197SOL    HW183791   2.123   1.350   0.842  2.2929  2.1669 -1.2888
27197SOL    HW283792   2.191   1.215   0.848  0.8886  1.5101  2.8431
27198SOL     OW83793   3.766   0.852   3.832  0.7096  0.6660 -0.2834
27198SOL    HW183794   3.839   0.810   3.878  1.1723  0.4722 -1.1794
27198SOL    HW283795   3.800   0.871   3.745  0.2167  2.1103 -0.1771
27199SOL     OW83796   9.036   1.459   7.780  0.2704  0.0635 -0.5297
27199SOL    HW183797   9.098   1.387   7.765  0.0010  0.1011 -1.9422
27199SOL    HW283798   9.087   1.523   7.830 -0.0880 -1.9211  2.6935
27200SOL     OW83799   8.631   8.876   7.597 -0.0346 -0.2101  0.8990
27200SOL    HW183800   8.599   8.868   7.507 -0.4565 -1.0161  1.1151
27200SOL    HW283801   8.714   8.924   7.589 -0.3028  0.1415  0.1352
27201SOL     OW83802   4.105   0.939   0.483 -0.0995 -0.1771  0.5140
27201SOL    HW183803   4.057   0.890   0.416  0.3757  0.9299 -0.6898
27201SOL    HW283804   4.182   0.885   0.502 -1.3541 -1.5725  1.8657
27202SOL     OW83805   9.271   6.096   8.650  0.3718  0.1116  0.1937
27202SOL    HW183806   9.191   6.120   8.602  0.8899 -1.0193 -1.3037
27202SOL    HW283807   9.325   6.175   8.647 -0.5975  0.8490  1.1070
27203SOL     OW83808   6.161   1.302   2.104 -0.1534 -0.1829  0.7629
27203SOL    HW183809   6.244   1.261   2.130  0.1276 -0.5864 -0.6663
27203SOL    HW283810   6.186   1.389   2.072 -0.5760  0.5793  2.4198
27204SOL     OW83811   8.600   2.169   5.194 -0.4253 -0.5978  0.1638
27204SOL    HW183812   8.666   2.109   5.230 -0.8614 -1.8462 -1.0023
27204SOL    HW283813   8.620   2.254   5.234  2.2100 -0.8065 -0.5005
27205SOL     OW83814   2.648   2.998   4.575 -0.1689  0.2913  0.2356
27205SOL    HW183815   2.695   3.075   4.607 -0.0444  0.4352 -0.2707
27205SOL    HW283816   2.700   2.924   4.605  0.2766  0.4440 -0.1483
27206SOL     OW83817   0.581   3.505   2.703  0.0037 -0.5855  0.2159
27206SOL    HW183818   0.581   3.413   2.731  2.5841 -0.9576 -0.7417
27206SOL    HW283819   0.572   3.502   2.608 -0.2721  0.1994  0.2054
27207SOL     OW83820   5.610   1.744   5.497  0.1528 -0.0742  0.9739
27207SOL    HW183821   5.571   1.812   5.443  0.4418 -0.9944 -0.4328
27207SOL    HW283822   5.679   1.788   5.546  1.5345  0.3323 -1.2249
27208SOL     OW83823   8.097   1.758   2.523  0.1050 -0.3117 -0.5168
27208SOL    HW183824   8.099   1.709   2.441  0.1076  1.1089 -1.4005
27208SOL    HW283825   8.061   1.697   2.587 -0.1183 -1.3714 -1.6278
27209SOL     OW83826   0.827   9.033   2.072  0.5711 -0.4185 -0.0500
27209SOL    HW183827   0.869   8.951   2.097  0.4914 -0.6843 -0.7605
27209SOL    HW283828   0.753   9.005   2.017  1.4437  0.1787 -1.5838
27210SOL     OW83829   2.997   8.671   1.523 -0.1908  0.2454 -0.5749
27210SOL    HW183830   2.994   8.634   1.434  0.6045 -0.8886 -0.1569
27210SOL    HW283831   2.997   8.594   1.580  0.8408  0.9182  0.3536
27211SOL     OW83832   7.239   8.549   0.665  0.0250  0.5763 -1.2288
27211SOL    HW183833   7.205   8.608   0.598 -1.1835 -0.7088 -1.8012
27211SOL    HW283834   7.223   8.461   0.631  0.4443 -0.1108  0.2309
27212SOL     OW83835   3.625   2.972   2.486  0.0170 -0.0290 -0.3654
27212SOL    HW183836   3.708   3.001   2.448 -1.1016 -0.2059 -3.2627
27212SOL    HW283837   3.607   2.888   2.444 -1.4199 -0.1779  0.4686
27213SOL     OW83838   8.462   7.593   6.079 -0.1156 -0.2498  0.1957
27213SOL    HW183839   8.385   7.595   6.022  0.3461 -1.1094 -0.4875
27213SOL    HW283840   8.436   7.644   6.156 -0.8332  0.7361 -0.6708
27214SOL     OW83841   7.053   8.772   5.497 -0.0157 -0.5614  0.4011
27214SOL    HW183842   7.025   8.810   5.580  2.1834 -1.0870  1.4498
27214SOL    HW283843   7.088   8.846   5.447  0.1010 -0.4941  0.5822
27215SOL     OW83844   0.529   5.290   5.255  0.0883  0.5517  0.0938
27215SOL    HW183845   0.565   5.231   5.189 -1.4086 -0.9045  0.5236
27215SOL    HW283846   0.603   5.310   5.313  0.5755 -1.2044  0.1299
27216SOL     OW83847   2.244   0.485   0.630  0.7499 -0.6012 -0.8407
27216SOL    HW183848   2.190   0.551   0.675  1.9079 -0.4663  0.4103
27216SOL    HW283849   2.192   0.460   0.554 -1.0205 -0.3707  0.2311
27217SOL     OW83850   3.652   8.476   7.559 -0.0258 -0.0827  0.6200
27217SOL    HW183851   3.728   8.517   7.517 -1.8568  1.3210 -1.5837
27217SOL    HW283852   3.629   8.404   7.500 -1.1575  0.3394  0.5267
27218SOL     OW83853   5.001   7.533   1.436  0.0368  0.5763 -0.1002
27218SOL    HW183854   4.985   7.606   1.376  1.1855 -0.1666 -1.3794
27218SOL    HW283855   5.006   7.574   1.523 -2.9172  1.5267 -0.2814
27219SOL     OW83856   0.285   0.551   7.308 -0.2086 -0.4501 -0.5374
27219SOL    HW183857   0.359   0.612   7.307  0.5235 -1.3034  0.1892
27219SOL    HW283858   0.314   0.479   7.364 -2.2686  0.0346  1.2395
27220SOL     OW83859   0.651   6.091   8.928  0.9811  0.1795  0.1695
27220SOL    HW183860   0.592   6.022   8.957  0.3495 -0.0226 -1.5075
27220SOL    HW283861   0.595   6.156   8.886  1.7774  0.8067  0.0276
27221SOL     OW83862   5.644   2.900   3.865  0.1517  0.2982 -0.4512
27221SOL    HW183863   5.738   2.886   3.871  0.3431  1.6256 -0.1298
27221SOL    HW283864   5.605   2.819   3.898  1.1727 -0.3048 -0.7037
27222SOL     OW83865   2.895   3.223   1.584  0.3023  0.0091 -0.3585
27222SOL    HW183866   2.892   3.312   1.621  1.8844  0.8403 -2.0639
27222SOL    HW283867   2.883   3.237   1.490 -0.5804 -1.7331 -0.5333
27223SOL     OW83868   6.560   0.739   3.534  0.5939 -0.1085 -0.1110
27223SOL    HW183869   6.481   0.695   3.502  1.0811 -0.7992 -0.3955
27223SOL    HW283870   6.527   0.809   3.591 -0.1957 -1.5625  1.3002
27224SOL     OW83871   0.817   5.059   1.593  0.2640  0.3567 -0.0622
27224SOL    HW183872   0.772   5.058   1.678 -0.2965 -0.9028 -0.3455
27224SOL    HW283873   0.746   5.050   1.529  0.8262 -0.6145 -0.5680
27225SOL     OW83874   7.259   2.488   7.525  0.3770  0.3603  0.5724
27225SOL    HW183875   7.214   2.422   7.472  0.5072  0.2206  0.6325
27225SOL    HW283876   7.198   2.561   7.529  0.5717  0.5730 -0.1850
27226SOL     OW83877   7.444   9.530   2.522 -0.0239 -0.2396  0.2208
27226SOL    HW183878   7.493   9.554   2.444 -0.6965  0.0155 -0.1281
27226SOL    HW283879   7.365   9.487   2.490 -0.3784 -0.0034  0.7499
27227SOL     OW83880   3.261   4.991   1.365  0.1965 -0.0923 -0.9613
27227SOL    HW183881   3.226   5.078   1.384 -0.8622 -0.0747 -2.7467
27227SOL    HW283882   3.320   5.004   1.291  1.5367 -0.6368 -0.0234
27228SOL     OW83883   6.203   1.485   4.613  0.2189 -0.4076 -0.0732
27228SOL    HW183884   6.226   1.462   4.702  1.2049  0.5645 -0.0552
27228SOL    HW283885   6.164   1.405   4.576  0.3929 -1.0022  1.0097
27229SOL     OW83886   4.463   5.025   1.564 -0.0565 -0.0545 -0.0173
27229SOL    HW183887   4.559   5.019   1.568  0.1295  0.2625 -2.4204
27229SOL    HW283888   4.439   4.974   1.487 -1.8745 -0.3436  0.6936
27230SOL     OW83889   0.555   1.260   2.607  0.4898 -0.1268  0.1555
27230SOL    HW183890   0.649   1.252   2.589  0.4939 -3.3035  0.8679
27230SOL    HW283891   0.548   1.244   2.701 -0.7680  0.1344  0.1217
27231SOL     OW83892   0.041   2.694   1.414 -0.7912 -0.0341  0.7190
27231SOL    HW183893   0.032   2.773   1.359  0.0759  0.0658  0.7097
27231SOL    HW283894   0.025   2.725   1.503 -1.9474 -0.1466  0.5616
27232SOL     OW83895   0.931   5.484   3.303  0.4363 -0.5175 -0.1396
27232SOL    HW183896   0.898   5.573   3.289  0.0063 -0.2008  2.4092
27232SOL    HW283897   0.866   5.427   3.262 -0.8644  0.2738  0.7400
27233SOL     OW83898   6.261   9.028   1.393 -0.0269  1.0975  0.0747
27233SOL    HW183899   6.181   9.051   1.346 -0.1126  0.7983  0.0683
27233SOL    HW283900   6.241   9.049   1.485  0.0965  1.5667 -0.0046
27234SOL     OW83901   1.166   8.114   5.130  0.2533 -0.1473  0.0310
27234SOL    HW183902   1.088   8.170   5.128  0.7677  0.5807 -1.9005
27234SOL    HW283903   1.240   8.175   5.127  0.8241 -0.8361 -2.4954
27235SOL     OW83904   5.324   1.917   8.500 -0.6236 -0.5829  0.4160
27235SOL    HW183905   5.340   1.933   8.593  1.3540 -1.0493  0.2144
27235SOL    HW283906   5.371   1.836   8.481 -0.1374  0.0279 -1.1939
27236SOL     OW83907   9.110   5.082   9.252  0.1512 -0.2360 -0.1391
27236SOL    HW183908   9.050   5.095   9.325  1.5608  0.6763  0.9143
27236SOL    HW283909   9.120   5.169   9.213  0.9906 -0.3221 -0.1320
27237SOL     OW83910   1.215   7.263   8.273 -0.3916  0.1014 -0.0872
27237SOL    HW183911   1.139   7.208   8.254 -1.0200  0.3536  1.4908
27237SOL    HW283912   1.178   7.348   8.296  0.5774  1.3883 -2.8736
27238SOL     OW83913   1.401   4.918   8.003 -0.4761  0.5237  0.0613
27238SOL    HW183914   1.334   4.913   8.070  0.1203  2.8791  0.9411
27238SOL    HW283915   1.365   4.868   7.929 -2.0434 -0.3896  1.3725
27239SOL     OW83916   9.094   1.290   4.589  0.2372  0.1955  0.2639
27239SOL    HW183917   9.084   1.383   4.569 -0.7992 -0.0294 -0.3388
27239SOL    HW283918   9.012   1.251   4.559  0.2031 -0.7421  1.5366
27240SOL     OW83919   2.134   0.830   6.823 -0.0869  0.0431 -0.0612
27240SOL    HW183920   2.132   0.894   6.752 -1.1094  1.1062  0.8893
27240SOL    HW283921   2.202   0.863   6.882  0.5175 -0.6491 -0.3610
27241SOL     OW83922   2.053   3.099   8.307  0.2236  0.0543  0.5127
27241SOL    HW183923   2.106   3.167   8.265  3.6791 -2.3949  0.5233
27241SOL    HW283924   2.055   3.122   8.400  1.8407 -0.2718  0.5873
27242SOL     OW83925   2.140   6.209   1.213 -0.0113  0.2307 -0.4704
27242SOL    HW183926   2.145   6.214   1.308  0.3188  0.9034 -0.5173
27242SOL    HW283927   2.051   6.177   1.195 -0.1279  0.2546  0.0620
27243SOL     OW83928   5.841   0.432   4.209 -0.5927  0.3372  0.4218
27243SOL    HW183929   5.814   0.345   4.237 -0.0552 -0.0564 -0.2648
27243SOL    HW283930   5.849   0.482   4.290  0.9796 -0.7909  1.0209
27244SOL     OW83931   5.327   7.983   7.750 -0.6691  0.4080 -0.0865
27244SOL    HW183932   5.384   8.042   7.699  0.7542 -1.7326 -1.1161
27244SOL    HW283933   5.280   7.933   7.684 -0.7682 -0.5987  0.7277
27245SOL     OW83934   4.559   3.995   1.820 -0.1925  0.3008 -0.3399
27245SOL    HW183935   4.538   3.954   1.736  2.2550  0.1774 -0.9733
27245SOL    HW283936   4.608   3.928   1.867  0.2989  1.1006  0.3037
27246SOL     OW83937   1.099   1.361   6.937 -1.0840  0.5239  0.3268
27246SOL    HW183938   1.024   1.416   6.915 -2.0708 -1.1383 -0.6379
27246SOL    HW283939   1.063   1.273   6.944  0.5702 -0.1189  1.1655
27247SOL     OW83940   7.620   9.498   8.519 -0.1337 -0.3345  0.4035
27247SOL    HW183941   7.707   9.458   8.520 -1.0034 -2.3787 -0.6138
27247SOL    HW283942   7.595   9.503   8.612 -0.4342 -3.3720  0.5979
27248SOL     OW83943   5.897   5.922   3.483  0.7734  0.2501 -0.4227
27248SOL    HW183944   5.867   5.985   3.417  1.1951  1.4336  0.4881
27248SOL    HW283945   5.869   5.959   3.566  0.5469 -1.0590  0.1036
27249SOL     OW83946   8.227   8.664   1.211 -0.9641  0.4757 -0.1742
27249SOL    HW183947   8.212   8.573   1.185  0.9515  0.0817 -0.0231
27249SOL    HW283948   8.199   8.667   1.302 -1.5536  0.1859 -0.3388
27250SOL     OW83949   1.912   0.215   6.530 -0.1334  0.1888  0.0411
27250SOL    HW183950   1.883   0.285   6.589  2.3766  0.6983  0.7729
27250SOL    HW283951   1.938   0.143   6.589  1.1488  0.2014 -0.4783
27251SOL     OW83952   5.391   3.326   6.513 -0.1531  0.0809 -0.0837
27251SOL    HW183953   5.374   3.325   6.418 -0.0303  1.0590 -0.1311
27251SOL    HW283954   5.450   3.400   6.525  0.0206 -0.1821  0.7386
27252SOL     OW83955   8.636   7.586   2.186  0.4865  0.0899  0.2288
27252SOL    HW183956   8.709   7.527   2.202  0.4916  0.1178  0.3052
27252SOL    HW283957   8.565   7.529   2.157  1.2467  0.2848 -2.2209
27253SOL     OW83958   0.104   0.840   4.779 -0.3746  0.2891 -0.4208
27253SOL    HW183959   0.037   0.896   4.819 -0.9563 -1.3627  1.0375
27253SOL    HW283960   0.077   0.833   4.688 -1.4275  0.7393 -0.1650
27254SOL     OW83961   8.688   7.435   6.059 -0.3097  0.3698 -0.0807
27254SOL    HW183962   8.623   7.505   6.056  1.0426  1.6515 -2.0316
27254SOL    HW283963   8.658   7.373   5.992  0.8114  1.3581 -1.5599
27255SOL     OW83964   0.091   7.084   4.224 -0.1415  0.4151  0.3801
27255SOL    HW183965   0.143   7.066   4.146  0.2188  1.2819  0.4049
27255SOL    HW283966   0.157   7.100   4.292 -0.4420 -1.0070  1.0413
27256SOL     OW83967   8.164   2.952   8.849  0.5213 -0.4341 -0.1012
27256SOL    HW183968   8.225   2.946   8.775  0.4741  0.1858 -0.1933
27256SOL    HW283969   8.179   3.039   8.886  0.8111 -0.8766  0.8583
27257SOL     OW83970   7.430   2.503   7.852  0.4465  0.5879 -0.1726
27257SOL    HW183971   7.355   2.520   7.909  0.1037 -0.0272 -0.4259
27257SOL    HW283972   7.467   2.589   7.835  0.3675  0.8152  0.7216
27258SOL     OW83973   2.508   7.989   7.411 -0.0407  0.2544 -0.1285
27258SOL    HW183974   2.532   7.977   7.319  2.1845 -0.8174  0.5169
27258SOL    HW283975   2.556   7.920   7.457 -3.1658 -0.9602  1.5857
27259SOL     OW83976   9.245   4.292   6.287 -0.3875 -0.0341  0.3236
27259SOL    HW183977   9.228   4.386   6.293  0.4195  0.1682 -0.3589
27259SOL    HW283978   9.270   4.279   6.195  1.8449 -0.4982  0.9382
27260SOL     OW83979   5.995   8.844   1.451 -0.3840 -0.5173  0.0835
27260SOL    HW183980   5.985   8.939   1.449 -0.0652 -0.4935 -0.4377
27260SOL    HW283981   5.920   8.813   1.503 -0.3284  0.0354  0.4929
27261SOL     OW83982   0.636   5.554   2.598  0.7700 -0.4774  0.5697
27261SOL    HW183983   0.542   5.538   2.601  0.3742  1.7294  1.8969
27261SOL    HW283984   0.660   5.572   2.689  2.0914  0.8490 -0.0046
27262SOL     OW83985   6.102   2.820   9.177  0.0694 -0.1605  0.5560
27262SOL    HW183986   6.092   2.915   9.173  0.6878  0.3894  5.3977
27262SOL    HW283987   6.025   2.790   9.226  1.0328 -1.7625  1.1734
27263SOL     OW83988   0.214   4.472   7.475  0.5957  0.0722  0.3766
27263SOL    HW183989   0.230   4.507   7.563  0.4410  1.8102 -0.2596
27263SOL    HW283990   0.238   4.543   7.416 -3.2354  0.5380 -0.8769
27264SOL     OW83991   3.518   1.995   6.367 -0.4067  0.2750  0.0648
27264SOL    HW183992   3.565   1.925   6.414  0.9383  1.6921  0.9580
27264SOL    HW283993   3.579   2.023   6.299 -0.9052  0.6079 -0.2482
27265SOL     OW83994   6.418   9.550   7.157 -0.1640 -0.2657  0.5116
27265SOL    HW183995   6.356   9.624   7.158  0.7633  0.5312  1.1362
27265SOL    HW283996   6.502   9.591   7.138  0.5226 -1.0474  1.7839
27266SOL     OW83997   4.320   5.286   4.293 -0.0361 -0.5431  0.3173
27266SOL    HW183998   4.346   5.221   4.358 -0.5978 -0.6020  0.4903
27266SOL    HW283999   4.347   5.369   4.330 -0.7576 -0.5317  0.8526
27267SOL     OW84000   2.556   1.339   6.380 -0.6165  0.1881 -0.0780
27267SOL    HW184001   2.465   1.328   6.406 -0.8098 -0.5428 -0.9971
27267SOL    HW284002   2.600   1.373   6.458 -1.3677 -0.8992  0.8511
27268SOL     OW84003   6.118   5.575   6.013 -0.6334 -0.2022  0.1586
27268SOL    HW184004   6.205   5.543   6.036  0.5212  2.0691 -0.6418
27268SOL    HW284005   6.096   5.529   5.932 -0.3037 -0.9926  0.5093
27269SOL     OW84006   8.628   4.915   1.572 -0.3308  0.0734  0.3188
27269SOL    HW184007   8.634   4.820   1.562 -0.4985  0.1260 -0.3837
27269SOL    HW284008   8.539   4.931   1.601 -0.4416  0.0390  0.0065
27270SOL     OW84009   3.617   4.503   5.548  0.0941 -0.5682 -0.2008
27270SOL    HW184010   3.613   4.441   5.476  0.2796  2.8568 -3.5071
27270SOL    HW284011   3.577   4.583   5.513  2.6540  2.1917  2.4955
27271SOL     OW84012   1.633   3.042   8.551  0.0776  0.0367  0.1380
27271SOL    HW184013   1.710   3.073   8.598 -0.4730 -1.9044  2.5295
27271SOL    HW284014   1.569   3.113   8.560  0.5294  0.3604  0.9262
27272SOL     OW84015   2.534   5.916   7.007 -0.1628 -0.3905 -0.2964
27272SOL    HW184016   2.592   5.914   6.931 -1.0043 -1.3979 -0.9376
27272SOL    HW284017   2.490   5.831   7.005  0.4992 -0.8500  1.8786
27273SOL     OW84018   6.775   7.038   7.307  0.2099  0.5414 -0.0810
27273SOL    HW184019   6.740   7.058   7.220  0.6300  0.6094 -0.2407
27273SOL    HW284020   6.822   7.118   7.333  0.2418  0.4556  0.1250
27274SOL     OW84021   2.207   8.061   4.833 -0.5276  0.0193 -0.9002
27274SOL    HW184022   2.262   8.133   4.864  0.4391 -0.4920 -1.3940
27274SOL    HW284023   2.132   8.062   4.892  0.3536  0.2695  0.2648
27275SOL     OW84024   7.876   1.455   7.792  0.0560 -0.0805  0.5510
27275SOL    HW184025   7.912   1.467   7.880 -0.9140 -0.3941  1.0108
27275SOL    HW284026   7.911   1.528   7.742  1.0217 -0.1777  1.0671
27276SOL     OW84027   0.590   4.328   0.658  0.1490 -0.4751  0.2609
27276SOL    HW184028   0.641   4.251   0.684 -0.6969 -0.3665  2.4599
27276SOL    HW284029   0.609   4.393   0.726 -0.1245  0.8332 -0.8769
27277SOL     OW84030   6.445   0.884   2.191  0.4843  0.3153  0.9205
27277SOL    HW184031   6.449   0.978   2.207 -1.1086  0.4317  0.7696
27277SOL    HW284032   6.381   0.851   2.254  0.6464 -0.5925  0.6345
27278SOL     OW84033   3.983   8.095   8.269 -0.0512  0.2326 -0.3022
27278SOL    HW184034   4.065   8.048   8.285 -1.3467 -1.5990  1.5645
27278SOL    HW284035   3.945   8.051   8.193 -0.3802 -0.5575  0.2988
27279SOL     OW84036   8.614   0.473   0.026  0.3247 -0.2985 -0.3494
27279SOL    HW184037   8.658   0.409   0.081 -0.9468 -0.8462  0.0691
27279SOL    HW284038   8.675   0.546   0.021  0.6377 -0.3838  1.4840
27280SOL     OW84039   7.650   6.618   3.116 -0.8293 -0.5853 -0.0679
27280SOL    HW184040   7.677   6.709   3.118  0.8013 -1.0392 -0.2925
27280SOL    HW284041   7.558   6.621   3.088 -0.2662  0.8779 -1.9399
27281SOL     OW84042   3.153   6.883   6.942  0.2228  0.4406 -0.3396
27281SOL    HW184043   3.229   6.843   6.902  0.4197  0.8985 -0.4369
27281SOL    HW284044   3.189   6.944   7.007 -0.1065 -1.7381  2.0242
27282SOL     OW84045   2.146   3.972   1.476  0.0400  0.4764  0.2952
27282SOL    HW184046   2.126   3.911   1.547  0.1486 -0.2130 -0.2593
27282SOL    HW284047   2.216   3.930   1.427  0.8851  1.5560  0.5445
27283SOL     OW84048   5.847   9.122   1.926 -0.2224  0.3982 -0.2452
27283SOL    HW184049   5.904   9.175   1.871  1.5646 -0.3428  0.8186
27283SOL    HW284050   5.834   9.041   1.877  1.3189 -0.2347  0.3300
27284SOL     OW84051   6.115   8.128   5.049 -0.0038 -0.0192 -0.5463
27284SOL    HW184052   6.068   8.198   5.095 -0.7118 -0.4055 -0.6623
27284SOL    HW284053   6.119   8.056   5.112  1.9794  0.5964  0.0802
27285SOL     OW84054   4.995   5.500   0.421  0.3273  0.6113  0.4879
27285SOL    HW184055   4.958   5.587   0.404 -1.3851 -0.3068 -0.8875
27285SOL    HW284056   4.927   5.454   0.470  0.7728 -0.2692  0.3149
27286SOL     OW84057   0.861   8.472   9.314  0.2295 -0.0027 -0.2659
27286SOL    HW184058   0.902   8.521   9.242  0.6904  0.8761  0.5803
27286SOL    HW284059   0.934   8.428   9.358 -0.1368 -1.1831 -0.7873
27287SOL     OW84060   9.490   2.309   6.496  0.0862 -0.1070  0.4702
27287SOL    HW184061   9.509   2.336   6.586 -1.8358  0.9514  0.6181
27287SOL    HW284062   9.478   2.391   6.449 -1.1513 -0.6509 -0.2150
27288SOL     OW84063   3.048   4.513   8.885  0.0778  0.6114  0.2643
27288SOL    HW184064   2.992   4.583   8.917 -3.0070 -0.8270 -1.5031
27288SOL    HW284065   3.079   4.543   8.801 -2.5468 -0.5495 -1.2558
27289SOL     OW84066   0.200   9.463   3.126  0.5832  0.2614  0.3268
27289SOL    HW184067   0.246   9.458   3.042  0.3383 -0.8441  0.2443
27289SOL    HW284068   0.184   9.557   3.138 -1.0483  0.3301 -1.7692
27290SOL     OW84069   4.930   8.050   4.774 -0.1039  0.2979  0.1618
27290SOL    HW184070   4.837   8.037   4.758 -0.9158  0.6420  3.7901
27290SOL    HW284071   4.964   7.962   4.792  0.3043  0.1799 -1.1015
27291SOL     OW84072   8.875   4.091   6.288  0.0197  0.1185 -0.1520
27291SOL    HW184073   8.815   4.018   6.273 -0.4600  0.4919 -0.0624
27291SOL    HW284074   8.852   4.155   6.221  1.7505 -0.5952 -1.5215
27292SOL     OW84075   6.864   8.476   2.429 -0.5250  0.1943  0.7457
27292SOL    HW184076   6.856   8.570   2.449 -0.3530  0.1820  0.8706
27292SOL    HW284077   6.839   8.432   2.510 -0.2113  0.1382  0.8106
27293SOL     OW84078   5.641   1.046   1.589  0.6002  0.4496  0.2853
27293SOL    HW184079   5.575   0.979   1.609  1.2590 -0.2979  0.0056
27293SOL    HW284080   5.601   1.128   1.617 -0.0566 -0.1103  1.0275
27294SOL     OW84081   2.752   7.659   7.578  0.0541 -0.8549  0.5029
27294SOL    HW184082   2.793   7.738   7.543  1.3213 -0.6932  2.2468
27294SOL    HW284083   2.669   7.652   7.531 -0.4379  1.9199  0.8298
27295SOL     OW84084   6.153   7.184   3.508  0.1121 -0.4370  0.1209
27295SOL    HW184085   6.171   7.136   3.588  0.8375  1.3091  1.0685
27295SOL    HW284086   6.125   7.118   3.446 -0.8321 -1.8140  1.9142
27296SOL     OW84087   1.202   2.282   9.566 -0.0502  0.0676  0.3944
27296SOL    HW184088   1.214   2.203   9.618  1.5714 -1.7335 -2.4437
27296SOL    HW284089   1.114   2.274   9.530 -0.0024 -0.3309  0.3571
27297SOL     OW84090   2.201   0.860   9.081 -0.4965  0.4866 -0.6099
27297SOL    HW184091   2.169   0.885   9.168  0.5049  0.2819 -0.1737
27297SOL    HW284092   2.288   0.900   9.075 -0.0894 -0.4437 -1.0596
27298SOL     OW84093   8.539   8.744   3.363 -0.8375  0.3240  0.3271
27298SOL    HW184094   8.481   8.818   3.351 -0.9577  0.2724  0.5795
27298SOL    HW284095   8.610   8.758   3.301 -0.6169  0.8955  0.6982
27299SOL     OW84096   1.638   8.977   0.420 -0.3160  0.0154 -0.6056
27299SOL    HW184097   1.636   8.898   0.474 -0.6424  1.1627  1.1346
27299SOL    HW284098   1.549   8.986   0.387 -0.1504 -0.6183 -1.2386
27300SOL     OW84099   2.867   5.286   5.861 -0.2808 -0.3551 -0.1047
27300SOL    HW184100   2.817   5.339   5.923  0.0381 -1.3054  0.9873
27300SOL    HW284101   2.800   5.234   5.816 -0.4200 -0.4484  0.2081
27301SOL     OW84102   5.725   8.602   4.176 -0.3449  0.3958  0.0452
27301SOL    HW184103   5.630   8.613   4.181 -0.4462 -0.8891  2.2818
27301SOL    HW284104   5.746   8.546   4.251  2.1754  0.5836 -0.4565
27302SOL     OW84105   4.087   6.703   8.507 -0.3309  0.5330 -0.4356
27302SOL    HW184106   4.033   6.630   8.474 -0.6280  0.8687 -0.6998
27302SOL    HW284107   4.026   6.759   8.555  0.1492 -0.0873  0.9508
27303SOL     OW84108   2.783   2.934   4.066  0.0008 -0.2721 -0.0505
27303SOL    HW184109   2.728   3.012   4.066  1.1754  0.5787  1.0187
27303SOL    HW284110   2.765   2.891   4.150  0.3587 -0.4243 -0.0479
27304SOL     OW84111   9.276   1.517   5.933  0.0212  0.3181  0.6228
27304SOL    HW184112   9.339   1.504   6.004  0.6894  1.6117  0.2915
27304SOL    HW284113   9.203   1.458   5.954  0.0470  0.9173  2.5696
27305SOL     OW84114   9.475   4.981   4.600 -0.1859  0.1141  0.1786
27305SOL    HW184115   9.560   5.023   4.585 -0.1440 -0.2485 -0.6698
27305SOL    HW284116   9.490   4.889   4.578 -1.4502  0.4946 -2.7318
27306SOL     OW84117   6.131   4.408   4.100 -0.1604 -0.0318 -0.1254
27306SOL    HW184118   6.107   4.472   4.033 -0.6584 -0.6141 -0.5161
27306SOL    HW284119   6.180   4.458   4.165  2.3330  0.1849 -1.9993
27307SOL     OW84120   9.078   6.427   6.076 -0.3724  0.1068 -0.2138
27307SOL    HW184121   9.049   6.346   6.118 -3.4177  0.6049 -1.1322
27307SOL    HW284122   9.173   6.423   6.081 -0.4643 -1.9118  2.7231
27308SOL     OW84123   1.759   8.203   5.534  0.5410  0.7436  0.2953
27308SOL    HW184124   1.737   8.186   5.625  0.6226 -0.3600  0.1262
27308SOL    HW284125   1.686   8.166   5.484  0.5893  1.1623 -0.0900
27309SOL     OW84126   1.895   6.319   5.010  0.0607  0.4368  0.2864
27309SOL    HW184127   1.947   6.317   5.091 -0.5916  2.0881  0.7791
27309SOL    HW284128   1.924   6.398   4.965 -0.6982  0.3646 -0.3372
27310SOL     OW84129   0.006   8.429   9.195  0.1679  0.2849 -0.1328
27310SOL    HW184130  -0.062   8.496   9.203 -0.8476 -0.2886 -2.8459
27310SOL    HW284131   0.068   8.465   9.132  0.7592 -0.4752 -0.0030
27311SOL     OW84132   4.629   3.720   6.646  0.0997 -0.3273  0.3768
27311SOL    HW184133   4.685   3.790   6.612 -0.3294 -0.8106 -1.4582
27311SOL    HW284134   4.589   3.682   6.568  0.3769 -2.6872  1.2968
27312SOL     OW84135   5.461   2.580   2.242  0.4322  0.4266 -0.2275
27312SOL    HW184136   5.501   2.666   2.226  0.2625  0.6067  0.3028
27312SOL    HW284137   5.395   2.596   2.310  0.0909 -0.0407 -0.4390
27313SOL     OW84138   8.714   9.269   8.806 -0.6217 -0.2641 -0.2128
27313SOL    HW184139   8.683   9.300   8.721  0.4776  0.5828 -0.3127
27313SOL    HW284140   8.808   9.255   8.794 -0.2064  1.0824  1.2057
27314SOL     OW84141   4.339   0.409   0.731  0.2679 -0.9135 -0.3189
27314SOL    HW184142   4.317   0.316   0.731  0.8132 -1.0690 -1.5220
27314SOL    HW284143   4.407   0.418   0.798  1.1161 -1.6501 -1.0381
27315SOL     OW84144   1.206   7.407   6.273 -0.0752  0.0993  0.1203
27315SOL    HW184145   1.130   7.439   6.224 -0.7822 -0.7922  0.6076
27315SOL    HW284146   1.245   7.340   6.216 -0.8384 -0.8653  0.6956
27316SOL     OW84147   0.282   4.295   1.318 -0.3366  0.1144  0.5998
27316SOL    HW184148   0.305   4.247   1.239 -0.2679  0.3636  0.4666
27316SOL    HW284149   0.212   4.355   1.290  0.4904  1.0336  0.4498
27317SOL     OW84150   8.408   3.419   1.630 -0.3927  0.2597  0.0719
27317SOL    HW184151   8.471   3.348   1.621 -0.2117  0.4759 -0.3755
27317SOL    HW284152   8.325   3.375   1.649 -0.6024 -0.1932 -1.6700
27318SOL     OW84153   4.168   4.963   6.146 -0.6675  0.0023 -0.2572
27318SOL    HW184154   4.183   4.873   6.115 -0.8163 -0.1073 -0.0156
27318SOL    HW284155   4.146   4.952   6.239  0.2462  0.3650  0.0179
27319SOL     OW84156   5.052   3.632   6.388 -0.2507  0.1483  0.2497
27319SOL    HW184157   5.005   3.591   6.460 -0.7572 -2.3316 -1.3708
27319SOL    HW284158   4.985   3.646   6.320  0.7783 -0.7421 -1.0003
27320SOL     OW84159   0.469   6.068   8.667  0.0823  0.7661 -0.1685
27320SOL    HW184160   0.391   6.013   8.676  0.0376  0.4627 -2.0851
27320SOL    HW284161   0.434   6.155   8.650  0.1416  0.5422 -1.4965
27321SOL     OW84162   2.259   6.459   0.218 -0.3876 -0.2882 -0.3755
27321SOL    HW184163   2.181   6.498   0.179  0.0194 -0.2051 -1.1231
27321SOL    HW284164   2.313   6.433   0.143  0.8621  0.7684  0.1325
27322SOL     OW84165   7.909   3.872   4.032  0.0639  0.6530  0.2889
27322SOL    HW184166   7.876   3.853   3.944  2.2709 -1.8604 -0.0858
27322SOL    HW284167   7.832   3.860   4.088 -0.3936 -2.4046 -0.8138
27323SOL     OW84168   4.705   7.007   5.418  0.2090 -0.8008  0.3084
27323SOL    HW184169   4.689   6.932   5.360 -1.6817  0.0889 -0.3902
27323SOL    HW284170   4.768   7.061   5.371  2.0692 -2.1882  1.0866
27324SOL     OW84171   2.118   0.837   8.164 -0.4027 -0.6581 -0.3579
27324SOL    HW184172   2.182   0.873   8.102  0.0320 -1.0739 -0.1618
27324SOL    HW284173   2.100   0.909   8.225 -1.1018 -0.1347 -1.1707
27325SOL     OW84174   4.221   6.617   5.216  0.0126  0.8358 -0.3338
27325SOL    HW184175   4.289   6.683   5.202  1.0400  0.2938  1.6915
27325SOL    HW284176   4.263   6.534   5.192 -0.4976  0.6843 -0.7008
27326SOL     OW84177   1.273   2.568   6.568  0.3949 -0.1794  0.0994
27326SOL    HW184178   1.239   2.487   6.529 -0.2831 -0.2950  0.8933
27326SOL    HW284179   1.195   2.622   6.581  0.7813  0.3964  0.0470
27327SOL     OW84180   8.289   0.242   2.076 -0.1013 -0.3099 -0.4029
27327SOL    HW184181   8.287   0.148   2.094  0.6467 -0.1000  0.9697
27327SOL    HW284182   8.355   0.276   2.137 -0.7421  1.1819 -0.4960
27328SOL     OW84183   1.974   3.298   1.326  0.2497 -0.6599 -0.0633
27328SOL    HW184184   1.994   3.207   1.303 -1.4048 -0.9153 -0.6356
27328SOL    HW284185   1.901   3.291   1.388 -0.3236  0.2867 -0.6028
27329SOL     OW84186   4.515   9.179   7.540  0.0808 -0.1980 -0.3478
27329SOL    HW184187   4.429   9.218   7.551  0.7846  1.3737 -0.1324
27329SOL    HW284188   4.525   9.118   7.613 -0.3514  0.5413  0.3279
27330SOL     OW84189   6.932   3.997   4.577  0.2993 -0.2365  0.3377
27330SOL    HW184190   6.865   3.991   4.646 -0.3889  2.0086 -0.0450
27330SOL    HW284191   7.002   4.050   4.617  1.4282 -1.6827  0.3712
27331SOL     OW84192   6.993   2.372   4.455  0.2358 -0.2301  0.0087
27331SOL    HW184193   7.073   2.416   4.485 -0.2857  0.2267  0.7532
27331SOL    HW284194   6.954   2.337   4.535 -2.1791  2.6249  0.2336
27332SOL     OW84195   2.310   0.292   0.157  0.1558  0.2679 -0.8802
27332SOL    HW184196   2.377   0.254   0.102  0.6037 -0.2607  0.0061
27332SOL    HW284197   2.326   0.387   0.154  0.9994  0.1412 -0.6179
27333SOL     OW84198   2.124   4.278   3.734 -0.2220 -0.3233  0.0456
27333SOL    HW184199   2.151   4.231   3.814  0.1213 -1.2427 -0.5941
27333SOL    HW284200   2.173   4.235   3.664 -0.1939  0.7612 -0.6130
27334SOL     OW84201   7.946   7.546   0.779  0.4890  0.9360  0.1608
27334SOL    HW184202   7.885   7.475   0.800  1.2122  0.5883  1.1821
27334SOL    HW284203   7.961   7.538   0.685 -0.0868  0.2560  0.1167
27335SOL     OW84204   5.672   7.722   0.124 -0.1631 -0.9344  0.4384
27335SOL    HW184205   5.702   7.712   0.214 -0.4978 -1.0947  0.5324
27335SOL    HW284206   5.704   7.809   0.097 -0.1543 -0.8433  0.7440
27336SOL     OW84207   3.447   8.524   4.397  0.4837  0.5616 -0.1727
27336SOL    HW184208   3.465   8.494   4.308  0.2931  1.1386 -0.4113
27336SOL    HW284209   3.534   8.540   4.434  0.5757 -0.0385 -0.1279
27337SOL     OW84210   2.347   7.445   7.531  0.5991 -0.0468 -0.0528
27337SOL    HW184211   2.418   7.507   7.517  0.8482 -0.5097 -0.9411
27337SOL    HW284212   2.317   7.462   7.620 -1.3327  3.3619 -1.1796
27338SOL     OW84213   8.657   1.687   7.529  0.1754  0.3236 -0.0314
27338SOL    HW184214   8.608   1.606   7.541  0.8307  0.1137  1.4362
27338SOL    HW284215   8.727   1.683   7.595  0.7812  1.6508 -0.5543
27339SOL     OW84216   7.921   3.803   1.619 -0.2643  0.0772 -0.4560
27339SOL    HW184217   7.998   3.755   1.585  0.0301 -0.6327  1.1260
27339SOL    HW284218   7.850   3.740   1.615  0.2804 -0.8596  2.3146
27340SOL     OW84219   5.566   4.933   6.657 -0.0252  0.7534  0.1895
27340SOL    HW184220   5.582   4.894   6.572 -0.1170 -0.9615  0.9168
27340SOL    HW284221   5.595   5.024   6.648  3.1995 -0.2242 -0.6936
27341SOL     OW84222   1.794   2.877   3.036  0.5710 -0.2255  0.1729
27341SOL    HW184223   1.857   2.889   2.964  0.5447 -1.2935 -0.0514
27341SOL    HW284224   1.842   2.823   3.099  0.1232 -0.4385  0.3291
27342SOL     OW84225   2.917   1.739   8.930  0.1291 -0.0611 -0.2157
27342SOL    HW184226   3.000   1.783   8.948  0.3037 -0.1816 -0.7042
27342SOL    HW284227   2.856   1.811   8.913 -0.0641  0.0570  0.9195
27343SOL     OW84228   7.136   4.906   7.694 -0.2676  0.1375 -0.4104
27343SOL    HW184229   7.081   4.884   7.618 -1.5560 -0.2454  0.5981
27343SOL    HW284230   7.217   4.857   7.679 -1.4897 -2.0516 -0.2915
27344SOL     OW84231   0.363   4.425   0.231 -0.5191 -0.5013  1.5151
27344SOL    HW184232   0.306   4.460   0.162 -2.1486 -0.7394  2.6823
27344SOL    HW284233   0.313   4.353   0.269  1.2310 -1.7077  1.6059
27345SOL     OW84234   4.336   4.464   4.389  0.0982 -0.0786 -0.0854
27345SOL    HW184235   4.362   4.529   4.323  1.6643 -0.0801  0.4891
27345SOL    HW284236   4.242   4.477   4.398  0.0017  0.5713 -1.6193
27346SOL     OW84237   2.415   6.922   0.539  0.3010 -0.2694 -0.8166
27346SOL    HW184238   2.455   6.989   0.484  0.5573  0.3146  0.0506
27346SOL    HW284239   2.343   6.968   0.584 -1.2922 -1.2547 -2.2242
27347SOL     OW84240   0.153   1.629   8.777  0.6865  0.2989  0.0707
27347SOL    HW184241   0.097   1.554   8.756 -0.9683  1.4095  0.3171
27347SOL    HW284242   0.208   1.641   8.699 -0.5145  0.1140 -0.8265
27348SOL     OW84243   4.555   6.306   4.773  0.2842 -0.3103  0.5658
27348SOL    HW184244   4.598   6.317   4.689 -1.9408 -0.3127 -0.6662
27348SOL    HW284245   4.620   6.334   4.838  2.2612 -0.8695 -1.0763
27349SOL     OW84246   4.181   7.474   2.091  0.2133 -0.1127 -0.0287
27349SOL    HW184247   4.248   7.461   2.158  1.0279 -0.1726 -0.8421
27349SOL    HW284248   4.227   7.516   2.018 -0.4511 -0.8599 -0.9071
27350SOL     OW84249   8.132   2.188   7.921 -0.5615  0.7449 -0.1352
27350SOL    HW184250   8.040   2.198   7.943 -1.0797 -2.0168 -0.7064
27350SOL    HW284251   8.139   2.223   7.832 -1.3828 -0.2572 -0.6145
27351SOL     OW84252   5.065   7.779   3.736  0.5235  0.4504  0.3070
27351SOL    HW184253   4.994   7.789   3.799  1.5526 -0.9742  1.7927
27351SOL    HW284254   5.106   7.865   3.732 -0.8457  1.1093 -0.0538
27352SOL     OW84255   6.967   4.237   2.584  0.2210  0.1712  0.6167
27352SOL    HW184256   7.053   4.239   2.628  0.1444  1.1804  0.7263
27352SOL    HW284257   6.981   4.285   2.502 -0.0217 -0.4300  0.2161
27353SOL     OW84258   4.948   2.510   4.153 -0.1141 -0.1081 -0.4597
27353SOL    HW184259   4.933   2.423   4.116  0.9880 -0.4140 -0.2387
27353SOL    HW284260   5.037   2.505   4.189  0.6437  1.6003 -1.9143
27354SOL     OW84261   0.481   2.174   2.678  0.3609  0.1136  0.2085
27354SOL    HW184262   0.479   2.165   2.773  0.0701 -1.4621  0.0889
27354SOL    HW284263   0.417   2.243   2.658  0.9198  0.9319  1.1776
27355SOL     OW84264   3.199   2.000   5.191 -0.2565  0.0589 -0.5495
27355SOL    HW184265   3.284   2.034   5.216 -0.0591 -1.0595  0.3816
27355SOL    HW284266   3.140   2.027   5.261 -0.3924 -0.3009 -0.5235
27356SOL     OW84267   0.349   2.727   4.794  0.6762  0.8901 -0.5275
27356SOL    HW184268   0.350   2.815   4.833 -0.0885  0.7735 -0.2415
27356SOL    HW284269   0.270   2.726   4.740 -1.4757 -0.8475  2.3536
27357SOL     OW84270   1.486   0.499   5.819 -0.1100 -0.4767  0.0802
27357SOL    HW184271   1.449   0.442   5.751  0.3845  0.0127 -0.6061
27357SOL    HW284272   1.505   0.581   5.774  0.5058 -0.2463  0.7476
27358SOL     OW84273   3.602   6.361   5.795 -0.0222 -0.3055  0.2380
27358SOL    HW184274   3.621   6.267   5.800 -3.3630 -1.0930  0.5329
27358SOL    HW284275   3.520   6.366   5.746  0.8182  2.6464 -1.0835
27359SOL     OW84276   4.048   0.397   6.877 -0.0970  0.1458  0.6227
27359SOL    HW184277   4.037   0.485   6.841  0.0705 -0.8124 -1.9939
27359SOL    HW284278   4.132   0.400   6.923  0.1430  1.2539  0.1420
27360SOL     OW84279   6.168   2.276   5.820 -0.5519 -0.0889  0.1119
27360SOL    HW184280   6.235   2.315   5.763 -0.6295  0.3927  0.3408
27360SOL    HW284281   6.207   2.280   5.907 -0.6293 -0.3802  0.1590
27361SOL     OW84282   0.260   0.295   1.344  0.1677 -0.1784  0.1641
27361SOL    HW184283   0.198   0.255   1.405 -1.9800  1.9804 -0.4339
27361SOL    HW284284   0.246   0.248   1.262  0.0173 -0.3400  0.2811
27362SOL     OW84285   3.480   5.349   2.498 -0.1025 -0.0509  0.3384
27362SOL    HW184286   3.491   5.258   2.523 -1.6662 -0.0948  0.9909
27362SOL    HW284287   3.410   5.348   2.432  0.1158  0.6378  0.0846
27363SOL     OW84288   9.332   0.338   8.328 -0.0010  0.6959 -0.1588
27363SOL    HW184289   9.398   0.312   8.393 -0.2170  0.2442 -0.1112
27363SOL    HW284290   9.380   0.346   8.246  0.8020  3.8136  0.4824
27364SOL     OW84291   9.355   8.305   5.328 -0.1904  0.3128  0.2925
27364SOL    HW184292   9.341   8.217   5.294  2.7981 -0.9282  1.9713
27364SOL    HW284293   9.291   8.315   5.398 -0.0013 -0.8752  0.6475
27365SOL     OW84294   6.679   2.157   3.546  0.0713 -0.0785  0.1813
27365SOL    HW184295   6.767   2.194   3.537  0.0400 -0.3835 -1.9702
27365SOL    HW284296   6.685   2.071   3.504 -0.8184 -0.9112  1.6685
27366SOL     OW84297   0.161   1.035   1.210 -0.1200  0.3221  0.8970
27366SOL    HW184298   0.165   0.942   1.231 -0.2001  0.6355  2.4076
27366SOL    HW284299   0.069   1.051   1.190  0.1041 -0.1568 -0.6308
27367SOL     OW84300   1.457   7.893   6.198 -0.3815  0.1555 -0.4285
27367SOL    HW184301   1.372   7.931   6.178  0.4834  2.1891 -0.3966
27367SOL    HW284302   1.459   7.811   6.147 -1.7039  0.8567 -1.6845
27368SOL     OW84303   3.450   1.702   1.731 -0.8376 -0.7660 -0.8682
27368SOL    HW184304   3.445   1.704   1.826  2.2320  1.8061 -0.6055
27368SOL    HW284305   3.399   1.778   1.703 -1.0457 -1.0442 -1.2664
27369SOL     OW84306   1.629   4.223   1.725 -0.7755 -0.2519 -0.4317
27369SOL    HW184307   1.691   4.162   1.764 -0.7195  0.5226  0.7443
27369SOL    HW284308   1.544   4.183   1.737 -0.8101  0.2168  0.9925
27370SOL     OW84309   9.123   9.352   0.550 -0.4649 -0.0136 -0.5987
27370SOL    HW184310   9.088   9.275   0.507  0.4261 -2.0846  2.0825
27370SOL    HW284311   9.049   9.390   0.597 -0.5998 -0.0502 -0.7819
27371SOL     OW84312   7.033   2.882   2.283  0.3323 -0.1887 -0.2135
27371SOL    HW184313   7.127   2.877   2.297  0.3493 -0.6300 -0.4645
27371SOL    HW284314   7.021   2.956   2.223  0.6204 -0.7885 -1.0321
27372SOL     OW84315   1.317   2.376   1.432  0.0637  0.1811 -0.8659
27372SOL    HW184316   1.264   2.337   1.502 -0.0729 -1.4479 -1.8345
27372SOL    HW284317   1.406   2.373   1.466 -0.2188  1.2406  0.0249
27373SOL     OW84318   2.277   5.659   6.292  0.6819 -0.1600  0.0636
27373SOL    HW184319   2.301   5.737   6.242  0.0232 -1.5245 -2.5559
27373SOL    HW284320   2.325   5.668   6.374 -0.5930  3.7574  0.6363
27374SOL     OW84321   4.671   4.337   1.464 -0.1310  0.1847  0.5500
27374SOL    HW184322   4.753   4.323   1.511  0.2001  1.4815  0.3674
27374SOL    HW284323   4.638   4.420   1.496 -0.9621  0.0821  0.0058
27375SOL     OW84324   7.569   5.083   0.749  0.7026 -0.0747  0.2600
27375SOL    HW184325   7.497   5.072   0.687  0.8868 -1.5160  0.2602
27375SOL    HW284326   7.542   5.156   0.804 -1.6978 -1.7006  1.4483
27376SOL     OW84327   7.018   5.054   4.722  0.3429 -0.8360  0.2449
27376SOL    HW184328   7.012   5.143   4.688 -0.4490 -1.3298 -1.0040
27376SOL    HW284329   6.958   5.052   4.797  0.1597 -0.3891  0.1115
27377SOL     OW84330   6.296   2.915   6.156 -0.1316 -0.0130  0.0437
27377SOL    HW184331   6.208   2.907   6.193  0.2437 -1.0377  0.7701
27377SOL    HW284332   6.309   2.833   6.109  0.3552  0.2348 -0.2610
27378SOL     OW84333   8.181   1.446   4.794  0.1191 -0.1988  0.1522
27378SOL    HW184334   8.197   1.355   4.821 -1.2963  0.0274  1.9535
27378SOL    HW284335   8.255   1.467   4.737 -0.5494 -3.1401 -2.0634
27379SOL     OW84336   5.914   8.978   3.144 -0.4145  0.3676  0.7730
27379SOL    HW184337   5.974   8.904   3.154 -0.0670  0.7455  1.5663
27379SOL    HW284338   5.860   8.978   3.223 -0.1417  1.1880  0.9771
27380SOL     OW84339   5.560   8.521   0.045 -0.0543  0.2541  0.2462
27380SOL    HW184340   5.542   8.608   0.010  1.2271  1.1059  1.5734
27380SOL    HW284341   5.646   8.498   0.010 -0.6382 -0.7649 -0.5740
27381SOL     OW84342   2.410   2.869   2.108  1.1255 -0.4827  0.2318
27381SOL    HW184343   2.322   2.834   2.116  1.9680 -2.5900  0.9736
27381SOL    HW284344   2.423   2.919   2.189  0.4031  0.4637 -0.2085
27382SOL     OW84345   2.720   8.555   5.657  0.1315 -0.4587  0.3608
27382SOL    HW184346   2.721   8.465   5.689 -0.5770 -0.1723  1.2393
27382SOL    HW284347   2.749   8.549   5.566  0.1409 -1.5627  0.4251
27383SOL     OW84348   5.304   5.805   7.624 -0.0785 -0.4183  0.2689
27383SOL    HW184349   5.379   5.857   7.651  1.1597 -0.6823 -2.3741
27383SOL    HW284350   5.244   5.867   7.582  0.2278 -0.6915 -0.6001
27384SOL     OW84351   0.558   4.156   6.525 -0.4919  0.0092 -0.3835
27384SOL    HW184352   0.502   4.080   6.505 -0.9358  0.3963 -0.6353
27384SOL    HW284353   0.512   4.230   6.486 -0.3398  0.4892  0.3396
27385SOL     OW84354   5.995   5.914   9.467  0.2502 -0.2553  0.3925
27385SOL    HW184355   6.037   5.880   9.387  0.3255  1.1389 -0.1773
27385SOL    HW284356   5.928   5.849   9.487  1.2927 -1.4576  0.1260
27386SOL     OW84357   6.543   5.025   8.403 -0.1375  0.0094 -0.0232
27386SOL    HW184358   6.536   4.932   8.425  0.4789  0.2168  1.1095
27386SOL    HW284359   6.635   5.046   8.416 -0.7399  1.4834  2.8748
27387SOL     OW84360   3.262   9.042   1.572  0.6883 -0.3004 -0.1304
27387SOL    HW184361   3.178   9.006   1.544  0.3979  0.7905 -0.7276
27387SOL    HW284362   3.289   9.098   1.499  1.1638  0.5951  0.7087
27388SOL     OW84363   3.302   2.961   9.478 -0.4582 -0.3226 -0.2372
27388SOL    HW184364   3.373   2.926   9.425 -1.0352 -1.7883 -0.0695
27388SOL    HW284365   3.225   2.956   9.421 -0.5326  0.8411 -0.2640
27389SOL     OW84366   5.288   1.717   3.416 -0.4397 -0.5163  0.5274
27389SOL    HW184367   5.260   1.689   3.503  2.3718 -1.2019  1.3239
27389SOL    HW284368   5.278   1.812   3.417 -1.2483 -0.5950  1.2744
27390SOL     OW84369   8.431   7.337   2.501  0.1238  0.1191  0.5104
27390SOL    HW184370   8.347   7.377   2.522 -0.7440  0.4130 -2.9089
27390SOL    HW284371   8.416   7.243   2.511 -1.0625  0.0813 -1.1859
27391SOL     OW84372   0.093   0.991   4.084  0.0853 -0.5216 -0.4493
27391SOL    HW184373   0.154   1.064   4.073 -2.1732  1.5240 -0.3117
27391SOL    HW284374   0.045   0.987   4.002 -0.9484 -0.7407  0.1539
27392SOL     OW84375   9.219   7.689   2.119  0.2817 -0.2197 -0.0923
27392SOL    HW184376   9.223   7.693   2.215  0.4974 -0.1310 -0.1048
27392SOL    HW284377   9.172   7.769   2.094  0.2668 -0.2194 -0.0644
27393SOL     OW84378   2.746   4.883   5.031  0.3456  0.3870  0.3145
27393SOL    HW184379   2.826   4.921   4.993 -0.2117 -0.6639 -2.1074
27393SOL    HW284380   2.705   4.836   4.958 -0.9433 -1.6410  2.2212
27394SOL     OW84381   5.835   4.494   4.463  0.8230 -0.0143 -0.3541
27394SOL    HW184382   5.924   4.528   4.471  0.1471  1.5416  1.1412
27394SOL    HW284383   5.817   4.457   4.549 -0.0506 -0.1438 -0.5887
27395SOL     OW84384   7.177   3.661   0.006 -0.5291 -0.2707 -0.2242
27395SOL    HW184385   7.253   3.703   0.045 -0.6961  0.7178 -0.9292
27395SOL    HW284386   7.205   3.640  -0.083 -1.0989  0.1493 -0.5048
27396SOL     OW84387   1.141   4.424   4.142 -0.0429 -0.1182  0.3090
27396SOL    HW184388   1.135   4.347   4.198  2.4475 -0.9451 -0.4565
27396SOL    HW284389   1.106   4.395   4.057  0.9581 -0.4533  0.0014
27397SOL     OW84390   4.594   8.338   6.209  0.0592 -0.5380  0.0955
27397SOL    HW184391   4.638   8.406   6.259  1.4423 -0.7311 -0.8090
27397SOL    HW284392   4.534   8.385   6.151  2.1576  0.0791 -1.6646
27398SOL     OW84393   1.867   3.455   8.365 -0.0198  0.2331 -0.4636
27398SOL    HW184394   1.935   3.499   8.314 -0.7641 -0.0195 -1.7260
27398SOL    HW284395   1.837   3.384   8.308 -0.6739 -0.2572  0.4657
27399SOL     OW84396   3.045   2.101   2.709 -0.2140  0.0150  0.0242
27399SOL    HW184397   2.965   2.113   2.761 -1.0337  0.8700 -1.3727
27399SOL    HW284398   3.015   2.093   2.619  1.2299 -0.5976 -0.4357
27400SOL     OW84399   5.359   5.073   8.803  0.4268 -0.1837  0.5605
27400SOL    HW184400   5.281   5.039   8.759 -0.1761  0.4563  1.1099
27400SOL    HW284401   5.431   5.019   8.770 -0.3457 -1.2486  0.5799
27401SOL     OW84402   2.473   1.735   7.849  0.1487 -0.4270  0.0202
27401SOL    HW184403   2.521   1.693   7.921 -0.9625 -2.7580 -0.4980
27401SOL    HW284404   2.491   1.680   7.773 -0.3942  0.7829 -1.0085
27402SOL     OW84405   7.522   2.101   1.870  0.4249 -0.2330  0.9008
27402SOL    HW184406   7.498   2.193   1.854  0.3712 -0.6681 -2.0533
27402SOL    HW284407   7.456   2.069   1.931 -1.0549  1.0590  0.0492
27403SOL     OW84408   6.683   5.761   1.286 -0.4532 -0.2372 -0.2452
27403SOL    HW184409   6.595   5.770   1.250  0.0859  0.2552 -1.4883
27403SOL    HW284410   6.722   5.688   1.238 -0.2173 -0.5348  0.3812
27404SOL     OW84411   1.330   3.685   1.474 -0.2657  0.1952 -0.4335
27404SOL    HW184412   1.351   3.593   1.492  2.4003  0.6862 -0.5993
27404SOL    HW284413   1.267   3.681   1.402 -2.6038 -1.5027  1.5266
27405SOL     OW84414   7.678   8.996   2.943  0.0709  0.4184  0.0060
27405SOL    HW184415   7.749   9.000   3.007  0.3777 -0.9626 -0.2291
27405SOL    HW284416   7.680   9.082   2.900  0.8985  0.7733  0.7305
27406SOL     OW84417   1.324   7.266   2.573  0.0486 -0.2711 -0.0246
27406SOL    HW184418   1.291   7.254   2.484 -0.5714  1.0678  0.0119
27406SOL    HW284419   1.379   7.344   2.568  1.3023 -1.0839  0.4491
27407SOL     OW84420   9.152   9.295   0.941 -0.3517  0.3033 -0.4502
27407SOL    HW184421   9.210   9.316   1.015 -0.4922  0.1214 -0.2861
27407SOL    HW284422   9.162   9.201   0.929 -1.0178  0.1806 -0.0707
27408SOL     OW84423   2.293   4.061   4.744 -0.0758  0.4794  0.3442
27408SOL    HW184424   2.288   4.136   4.684  0.6818 -0.1220 -0.4963
27408SOL    HW284425   2.208   4.061   4.789 -0.2383  1.6019  0.0801
27409SOL     OW84426   4.545   0.813   5.162  0.4232 -0.5967 -0.0143
27409SOL    HW184427   4.574   0.876   5.228 -0.7704 -1.6436  1.5948
27409SOL    HW284428   4.507   0.866   5.093 -0.5837  0.4907  1.3189
27410SOL     OW84429   4.282   5.749   8.874 -0.4130 -0.1861  0.1478
27410SOL    HW184430   4.276   5.845   8.870 -0.2978 -0.1508  0.6862
27410SOL    HW284431   4.333   5.725   8.797 -0.5515  0.1773 -0.0623
27411SOL     OW84432   4.176   4.504   6.177  0.4140  0.1776  0.1402
27411SOL    HW184433   4.226   4.475   6.254 -0.2532  1.0237  0.9049
27411SOL    HW284434   4.090   4.529   6.212  0.0071  0.3127 -0.9242
27412SOL     OW84435   6.624   6.122   3.402 -0.3239 -0.4687  0.4794
27412SOL    HW184436   6.695   6.183   3.381 -0.9801  1.1726  2.6104
27412SOL    HW284437   6.553   6.179   3.431 -1.6464 -2.2091  0.7793
27413SOL     OW84438   2.643   9.571   2.540  0.3812 -0.3268  0.0393
27413SOL    HW184439   2.662   9.580   2.446 -0.4223  1.7578  0.0161
27413SOL    HW284440   2.725   9.538   2.577  0.8621 -0.7680 -1.3291
27414SOL     OW84441   1.610   2.426   2.015  0.2930 -0.0267 -0.0117
27414SOL    HW184442   1.601   2.500   1.955 -1.6663 -0.1880  0.0073
27414SOL    HW284443   1.578   2.458   2.099 -0.8360 -0.9384 -0.0665
27415SOL     OW84444   4.771   8.701   1.900  0.1747  0.0684  0.2547
27415SOL    HW184445   4.688   8.662   1.871 -0.6664  0.3882  2.1106
27415SOL    HW284446   4.819   8.628   1.940  0.5721  0.0022 -0.3253
27416SOL     OW84447   7.237   7.379   7.732 -0.0879 -0.4062 -0.4390
27416SOL    HW184448   7.249   7.430   7.652  3.4730 -0.8258 -0.3010
27416SOL    HW284449   7.272   7.292   7.711  0.2833 -0.7271  1.3516
27417SOL     OW84450   8.776   1.021   5.671 -0.6026 -0.2245  0.2800
27417SOL    HW184451   8.783   1.003   5.577 -1.2717 -1.9654  0.5298
27417SOL    HW284452   8.714   1.094   5.677 -1.0635 -0.5327 -0.5902
27418SOL     OW84453   2.247   1.604   6.903  0.1126 -0.1330 -0.2485
27418SOL    HW184454   2.231   1.697   6.887 -1.5191 -0.3837 -0.1984
27418SOL    HW284455   2.342   1.597   6.909  0.2163  1.7367  1.0387
27419SOL     OW84456   4.590   3.042   0.323  0.4174  0.6062 -0.1453
27419SOL    HW184457   4.530   2.995   0.381  1.1370 -1.6935 -1.1314
27419SOL    HW284458   4.568   3.009   0.235  0.4230  2.7840 -1.0296
27420SOL     OW84459   9.550   2.595   4.451  0.3301 -0.2717 -0.4391
27420SOL    HW184460   9.486   2.630   4.513 -0.6750 -2.1326 -0.3674
27420SOL    HW284461   9.569   2.669   4.393 -1.7214  0.4077 -0.3357
27421SOL     OW84462   3.482   8.046   1.613 -0.1442 -0.3165 -0.4546
27421SOL    HW184463   3.448   7.977   1.670  0.4616 -0.1087  0.1752
27421SOL    HW284464   3.511   8.000   1.534 -0.3769 -0.6916 -0.3218
27422SOL     OW84465   6.078   7.724   8.317  0.2579 -0.2170  0.4345
27422SOL    HW184466   6.134   7.676   8.256 -0.4536  0.1398 -0.5361
27422SOL    HW284467   6.084   7.815   8.289 -0.5165 -0.1232  0.5397
27423SOL     OW84468   9.410   2.512   8.409  0.3643  0.1955 -0.2626
27423SOL    HW184469   9.483   2.481   8.356 -2.2457 -2.5251 -2.6166
27423SOL    HW284470   9.400   2.445   8.477 -0.3604  0.1164 -0.4355
27424SOL     OW84471   7.952   4.160   5.591  0.1013 -0.5660 -0.7428
27424SOL    HW184472   7.970   4.238   5.644 -1.1953 -0.5705 -0.2633
27424SOL    HW284473   7.974   4.186   5.502 -1.0881  0.6367 -0.7125
27425SOL     OW84474   7.735   3.515   3.906  0.4113 -0.7205 -0.3063
27425SOL    HW184475   7.710   3.506   3.998 -0.1747 -2.8786 -0.6353
27425SOL    HW284476   7.657   3.551   3.863  0.8556  0.7913  0.0761
27426SOL     OW84477   1.640   3.620   3.678  0.0987  0.0435  0.0344
27426SOL    HW184478   1.575   3.556   3.650 -2.4472  3.1642 -1.9762
27426SOL    HW284479   1.682   3.648   3.596 -0.4786  2.4025  0.4677
27427SOL     OW84480   7.472   1.112   6.278  0.3399  0.0928 -0.4950
27427SOL    HW184481   7.415   1.082   6.349  2.4263  0.0106  1.2592
27427SOL    HW284482   7.446   1.203   6.264 -0.6669 -0.1357 -0.2215
27428SOL     OW84483   0.080   2.323   1.533  0.1381  0.1611  0.0001
27428SOL    HW184484   0.065   2.405   1.487  1.8428  0.3928 -0.2330
27428SOL    HW284485   0.147   2.278   1.481 -0.3259 -1.1101  0.4548
27429SOL     OW84486   5.239   6.678   5.710 -0.3260  0.3219 -0.5822
27429SOL    HW184487   5.199   6.761   5.733  2.3936  1.5861  0.0549
27429SOL    HW284488   5.324   6.702   5.673 -0.0310 -2.1386 -1.6780
27430SOL     OW84489   6.181   7.806   2.393  0.2761 -0.3518 -0.1852
27430SOL    HW184490   6.117   7.792   2.463 -0.5421  2.1253 -0.3425
27430SOL    HW284491   6.212   7.895   2.406  2.4799 -0.8973 -1.1630
27431SOL     OW84492   5.827   4.745   4.803  0.1042  0.1770  0.2947
27431SOL    HW184493   5.817   4.831   4.761 -2.4807 -0.2617 -0.2168
27431SOL    HW284494   5.884   4.696   4.743  0.1021  0.9627 -0.3761
27432SOL     OW84495   3.668   4.595   6.978 -0.1063  0.3669  0.1870
27432SOL    HW184496   3.578   4.584   7.009 -0.1445 -0.6871 -0.2795
27432SOL    HW284497   3.664   4.576   6.884  0.7012 -0.2597  0.2671
27433SOL     OW84498   1.915   3.879   0.470 -0.7822  0.6195 -0.0181
27433SOL    HW184499   1.874   3.949   0.521  2.7142  2.3133  0.7769
27433SOL    HW284500   1.948   3.818   0.536 -3.9220 -2.0437 -0.7057
27434SOL     OW84501   8.657   9.462   0.426  0.1692  1.2286 -0.1218
27434SOL    HW184502   8.590   9.466   0.357 -0.3298 -0.5157  0.2294
27434SOL    HW284503   8.621   9.403   0.492  2.2650 -0.2387 -0.1789
27435SOL     OW84504   4.617   6.822   3.355  0.4027  0.2871 -0.3674
27435SOL    HW184505   4.541   6.766   3.370  0.7248 -0.0515  0.0595
27435SOL    HW284506   4.627   6.871   3.436  2.0378 -1.3993  0.5231
27436SOL     OW84507   3.796   4.464   4.032 -0.2279 -0.0952 -0.5339
27436SOL    HW184508   3.822   4.502   3.948 -1.1607  0.0000 -0.7915
27436SOL    HW284509   3.750   4.535   4.077  1.6576  0.3965  0.7774
27437SOL     OW84510   2.655   3.913   7.374 -0.1150 -0.8077  0.2369
27437SOL    HW184511   2.712   3.838   7.359 -1.8888 -1.9130 -1.5778
27437SOL    HW284512   2.573   3.875   7.406 -0.9294  0.3629 -0.3575
27438SOL     OW84513   1.024   5.950   4.119  0.4780 -0.1300  0.4422
27438SOL    HW184514   1.054   5.885   4.184  1.6119  0.0163  0.0829
27438SOL    HW284515   0.961   6.004   4.167 -0.1904 -1.2319  0.8651
27439SOL     OW84516   7.458   4.954   9.338 -0.0742  0.1836  0.4911
27439SOL    HW184517   7.514   4.907   9.401  0.3509 -0.5349 -0.3876
27439SOL    HW284518   7.413   5.020   9.390  0.3173 -0.3453  1.5362
27440SOL     OW84519   8.880   7.194   1.957  0.2581  0.0137 -0.3075
27440SOL    HW184520   8.878   7.201   1.862  0.0712  2.3701 -0.1809
27440SOL    HW284521   8.961   7.239   1.982  0.4770 -0.8767  0.6481
27441SOL     OW84522   8.876   8.946   2.547 -0.0833 -0.5415  0.4570
27441SOL    HW184523   8.822   8.868   2.533 -0.2648 -0.7842  2.2733
27441SOL    HW284524   8.866   8.996   2.466 -0.3919 -2.1330 -0.5390
27442SOL     OW84525   3.494   2.144   8.634 -0.3467  0.4727 -0.1700
27442SOL    HW184526   3.541   2.190   8.703 -0.5735 -1.8620  1.6598
27442SOL    HW284527   3.416   2.109   8.676  0.1113 -2.0670 -1.2203
27443SOL     OW84528   5.033   7.947   1.237 -0.1123 -0.2679  0.1850
27443SOL    HW184529   5.018   8.041   1.228 -0.7593 -0.1990  1.7544
27443SOL    HW284530   5.119   7.940   1.278  2.4191 -0.5647 -4.4547
27444SOL     OW84531   6.453   5.156   5.467 -0.0429  0.0791 -0.8060
27444SOL    HW184532   6.402   5.197   5.397 -2.9836 -1.3381  0.3893
27444SOL    HW284533   6.541   5.193   5.455 -1.5699  3.9025 -2.0315
27445SOL     OW84534   5.193   9.003   7.319  0.2909 -0.2009  0.2545
27445SOL    HW184535   5.109   9.011   7.365  0.7719  1.4036  0.9437
27445SOL    HW284536   5.196   9.079   7.261  0.7735 -0.8763 -0.6268
27446SOL     OW84537   0.715   6.066   6.436 -0.2949 -0.5059 -1.1935
27446SOL    HW184538   0.777   6.069   6.509 -1.1341 -2.4071 -0.3212
27446SOL    HW284539   0.652   6.135   6.455 -0.9635 -1.4883  0.3702
27447SOL     OW84540   0.384   7.987   4.858 -0.7518  0.3859  0.2248
27447SOL    HW184541   0.320   7.945   4.800 -0.2702 -0.8597  0.5578
27447SOL    HW284542   0.335   8.005   4.938 -0.8012 -0.1480  0.3155
27448SOL     OW84543   6.854   3.866   3.668 -0.0927  0.0915 -0.6680
27448SOL    HW184544   6.867   3.855   3.763 -1.2715 -0.3923 -0.5436
27448SOL    HW284545   6.843   3.961   3.657  0.0092  0.1489 -0.3090
27449SOL     OW84546   7.172   2.614   7.858  0.1705 -0.4389 -0.3741
27449SOL    HW184547   7.149   2.647   7.771 -1.2504 -0.7539 -0.1488
27449SOL    HW284548   7.088   2.595   7.899  0.5331  2.6292  2.2541
27450SOL     OW84549   5.090   0.403   7.643  0.2757 -0.1213 -0.0553
27450SOL    HW184550   5.166   0.407   7.585 -0.5501  0.4840 -1.1310
27450SOL    HW284551   5.018   0.375   7.586 -0.9253  2.1307  0.2375
27451SOL     OW84552   6.804   6.070   6.510  0.1579 -0.1257 -0.0111
27451SOL    HW184553   6.832   6.161   6.518  2.2846 -0.6722 -0.5728
27451SOL    HW284554   6.805   6.037   6.600 -2.8034  0.8940  0.5332
27452SOL     OW84555   5.536   5.931   2.877  0.1809 -0.1008 -0.7886
27452SOL    HW184556   5.531   5.855   2.819  0.6011 -0.4494 -0.3830
27452SOL    HW284557   5.509   6.004   2.823  1.6125 -0.2557 -1.7642
27453SOL     OW84558   3.995   0.118   6.749  0.2824  0.5935 -0.1459
27453SOL    HW184559   3.983   0.024   6.766  0.4909  0.1466 -2.1772
27453SOL    HW284560   4.088   0.134   6.767 -0.0139  0.7336  1.4186
27454SOL     OW84561   8.113   7.676   0.958  0.2030  0.8854  0.7166
27454SOL    HW184562   8.057   7.624   0.901  0.9653  0.0647  0.6792
27454SOL    HW284563   8.198   7.676   0.914  0.7221  0.4857  1.6946
27455SOL     OW84564   2.427   5.953   3.895  0.5205 -0.3703 -0.1205
27455SOL    HW184565   2.368   5.914   3.831  0.3882 -1.7338  0.8062
27455SOL    HW284566   2.510   5.909   3.881  1.1349  0.9376 -0.8370
27456SOL     OW84567   3.431   2.575   0.999  0.1615 -0.0757  0.1886
27456SOL    HW184568   3.445   2.483   0.979  1.9366 -0.3333  2.2034
27456SOL    HW284569   3.341   2.593   0.971 -0.2231 -2.4019 -0.2369
27457SOL     OW84570   1.250   4.634   5.045  0.0806 -0.3225  0.6502
27457SOL    HW184571   1.196   4.696   5.094  0.1901 -0.0118  0.3773
27457SOL    HW284572   1.248   4.666   4.955  1.2360  0.0565  0.7471
27458SOL     OW84573   7.148   4.228   0.158  0.0858  0.2828  0.0814
27458SOL    HW184574   7.104   4.144   0.148 -0.0694  0.5060 -1.3259
27458SOL    HW284575   7.169   4.255   0.068  2.8836  0.2934  0.6535
27459SOL     OW84576   6.570   5.533   1.803 -0.8261  0.1443  0.1256
27459SOL    HW184577   6.552   5.454   1.854  0.6391 -0.9670 -1.0000
27459SOL    HW284578   6.613   5.501   1.723  1.7270  2.1942  0.5364
27460SOL     OW84579   5.651   6.973   6.709  0.3553 -0.1333 -0.1436
27460SOL    HW184580   5.698   7.015   6.637 -0.0245  0.8369  0.1628
27460SOL    HW284581   5.641   7.042   6.775 -1.0455 -0.4506  0.0020
27461SOL     OW84582   3.552   7.544   3.958  0.1557  0.1616  0.3189
27461SOL    HW184583   3.598   7.578   3.882 -0.6472  0.5236 -0.0264
27461SOL    HW284584   3.612   7.480   3.998  0.2580 -0.6542 -1.0921
27462SOL     OW84585   9.395   4.300   1.147 -0.1732  0.7737 -0.3997
27462SOL    HW184586   9.381   4.291   1.053 -0.1159 -2.2427 -0.2096
27462SOL    HW284587   9.307   4.298   1.184 -0.1215  0.3278 -0.2992
27463SOL     OW84588   1.301   0.617   8.604  0.6961  0.2391  0.2753
27463SOL    HW184589   1.290   0.570   8.686 -3.0234  0.2067 -0.0806
27463SOL    HW284590   1.294   0.709   8.627  0.2538  0.2565  0.0844
27464SOL     OW84591   8.346   2.978   3.982  0.0004 -0.4402 -0.0907
27464SOL    HW184592   8.331   3.063   3.942 -0.3858 -0.4947 -0.0676
27464SOL    HW284593   8.441   2.970   3.989  0.0431 -0.1273 -0.3418
27465SOL     OW84594   2.787   5.093   4.734 -0.4137  0.3230  0.8081
27465SOL    HW184595   2.819   5.182   4.724 -0.3782  0.3034  0.7429
27465SOL    HW284596   2.761   5.067   4.645  0.3482 -0.0265  0.6804
27466SOL     OW84597   8.379   9.162   3.586  0.1271 -0.0338 -0.5830
27466SOL    HW184598   8.449   9.193   3.529 -0.2300  0.9437 -0.5079
27466SOL    HW284599   8.419   9.156   3.672  0.4931 -0.8765 -0.8003
27467SOL     OW84600   6.461   8.157   1.663  0.5097 -0.3951 -0.4014
27467SOL    HW184601   6.393   8.224   1.660  0.2685 -0.5766  0.7121
27467SOL    HW284602   6.543   8.206   1.654  0.3499  0.0965  0.6727
27468SOL     OW84603   7.987   2.803   9.016  0.2997  0.0652 -0.5180
27468SOL    HW184604   8.060   2.819   8.955  1.1767  0.8286  0.6905
27468SOL    HW284605   7.913   2.848   8.977  1.0793  1.3346 -0.5838
27469SOL     OW84606   0.015   0.931   8.236 -0.5732  0.2417  0.2196
27469SOL    HW184607  -0.031   1.013   8.256  0.1001  0.7919 -0.4396
27469SOL    HW284608  -0.010   0.872   8.308 -1.0776  1.0131  0.6968
27470SOL     OW84609   7.597   0.684   3.901 -0.1935 -0.1343 -0.0037
27470SOL    HW184610   7.663   0.714   3.963  1.9153 -0.9213 -1.7187
27470SOL    HW284611   7.593   0.590   3.913 -1.6002 -0.0180  0.5808
27471SOL     OW84612   0.244   5.661   1.263 -0.8757  0.1163  0.3235
27471SOL    HW184613   0.237   5.646   1.169  0.2998  0.7306  0.1118
27471SOL    HW284614   0.220   5.578   1.303 -1.7783 -0.0310 -0.4997
27472SOL     OW84615   8.885   4.213   8.302 -0.3929  0.9561 -0.0072
27472SOL    HW184616   8.886   4.309   8.294 -0.2386  0.8485 -1.6196
27472SOL    HW284617   8.811   4.195   8.360 -0.5437  2.0357  0.1636
27473SOL     OW84618   7.679   9.199   2.757  0.3677  0.0481 -0.5977
27473SOL    HW184619   7.736   9.246   2.697  0.8576 -0.3822 -0.4755
27473SOL    HW284620   7.592   9.207   2.718  0.4908  0.8025 -0.7254
27474SOL     OW84621   0.971   0.527   4.655  0.2825  0.9446 -0.5816
27474SOL    HW184622   0.971   0.469   4.579 -0.2385 -0.9761  0.8079
27474SOL    HW284623   1.029   0.599   4.630  0.9123 -0.1275 -2.4089
27475SOL     OW84624   5.755   0.988   8.649 -0.3514  0.2660 -0.1849
27475SOL    HW184625   5.675   1.008   8.600 -0.8739  0.9043  0.8858
27475SOL    HW284626   5.723   0.949   8.731  0.3787  1.0709  0.5098
27476SOL     OW84627   1.014   6.297   3.214  0.2874 -0.4732 -0.2037
27476SOL    HW184628   1.060   6.223   3.254  0.0697 -0.1820  0.6285
27476SOL    HW284629   1.082   6.349   3.172  0.7766  0.0723  1.2044
27477SOL     OW84630   4.648   0.912   1.771  0.6501  0.7196 -0.4243
27477SOL    HW184631   4.722   0.964   1.740  0.0494  1.3168 -0.8631
27477SOL    HW284632   4.655   0.915   1.866  0.7863  1.3607 -0.4509
27478SOL     OW84633   7.473   6.998   2.824 -0.5419  0.2762  0.3169
27478SOL    HW184634   7.552   6.944   2.831 -2.0408 -2.2181 -0.4893
27478SOL    HW284635   7.494   7.062   2.757  1.2398  0.5707  1.1005
27479SOL     OW84636   9.020   9.155   3.270 -0.8264 -0.7547 -0.4444
27479SOL    HW184637   9.095   9.105   3.301 -1.4845 -1.7764 -0.4471
27479SOL    HW284638   9.050   9.196   3.189  0.3234  0.4322  0.5562
27480SOL     OW84639   4.161   5.535   4.551  0.4886  0.2054 -0.0710
27480SOL    HW184640   4.174   5.549   4.645 -1.8064  2.3228  0.0237
27480SOL    HW284641   4.086   5.475   4.545  0.1622  0.6533 -0.5448
27481SOL     OW84642   5.475   4.696   4.553 -0.5615  0.0608 -0.0225
27481SOL    HW184643   5.550   4.676   4.496  0.7223 -1.1777  1.9481
27481SOL    HW284644   5.469   4.791   4.553  2.0107  0.2884  0.9026
27482SOL     OW84645   0.305   1.153   4.379  0.5728  0.0124 -0.1822
27482SOL    HW184646   0.352   1.092   4.436  1.0218 -1.2904 -1.8675
27482SOL    HW284647   0.214   1.125   4.384  0.4885  0.3697  0.4305
27483SOL     OW84648   8.598   5.685   8.217  0.2953  0.5347 -0.2987
27483SOL    HW184649   8.541   5.640   8.280  1.7586 -0.0541  0.6473
27483SOL    HW284650   8.625   5.764   8.263 -1.0262  1.6609 -1.3752
27484SOL     OW84651   0.966   7.131   6.918 -0.0207  0.3083 -0.1159
27484SOL    HW184652   1.025   7.182   6.974 -0.2024 -0.1407  0.4934
27484SOL    HW284653   1.013   7.050   6.900  0.1392  0.5520 -0.8291
27485SOL     OW84654   8.703   3.737   5.396 -0.4417 -0.1341 -0.2442
27485SOL    HW184655   8.767   3.710   5.330  1.3978  0.0634  1.3618
27485SOL    HW284656   8.721   3.830   5.410 -0.6714 -0.2149  0.6609
27486SOL     OW84657   6.313   5.863   6.196  0.5738  0.0948  0.3449
27486SOL    HW184658   6.245   5.797   6.182  0.3984  0.0594  1.3045
27486SOL    HW284659   6.264   5.945   6.207  0.7487  0.2554 -0.0681
27487SOL     OW84660   0.423   8.851   5.799 -0.2774 -0.4193  0.0872
27487SOL    HW184661   0.481   8.925   5.784 -0.7294 -0.2425 -0.8702
27487SOL    HW284662   0.479   8.774   5.789 -0.0245 -0.2293  0.0471
27488SOL     OW84663   4.299   5.841   4.089  0.1501 -0.2810  0.0595
27488SOL    HW184664   4.335   5.827   4.176 -0.9601 -1.0459  0.4132
27488SOL    HW284665   4.329   5.928   4.064  0.7243 -0.1721  1.0756
27489SOL     OW84666   6.078   7.787   1.488  0.0331 -0.2828 -0.2688
27489SOL    HW184667   6.065   7.819   1.399  0.0817 -0.1210 -0.2185
27489SOL    HW284668   6.019   7.840   1.541 -2.8567 -2.8361 -0.6513
27490SOL     OW84669   8.855   1.823   1.513 -0.0432 -0.5856  0.2678
27490SOL    HW184670   8.809   1.884   1.455  2.5502  0.5606 -0.7276
27490SOL    HW284671   8.873   1.747   1.457  0.9588 -0.2009  0.0558
27491SOL     OW84672   5.242   3.149   0.044 -0.3124 -0.5771  0.3054
27491SOL    HW184673   5.269   3.183   0.130 -0.3827 -0.6777  0.3673
27491SOL    HW284674   5.148   3.137   0.052 -0.4104 -0.0384  0.0253
27492SOL     OW84675   6.019   2.999   4.112  0.0088  0.1759  0.2187
27492SOL    HW184676   6.017   2.913   4.154  0.9679 -0.1555 -0.3768
27492SOL    HW284677   5.930   3.034   4.125 -0.3529 -0.8366  0.5962
27493SOL     OW84678   4.775   7.174   9.014 -0.0657  0.1709  0.2550
27493SOL    HW184679   4.850   7.208   8.966 -0.8872  0.6127 -0.7694
27493SOL    HW284680   4.755   7.242   9.078  0.8662 -0.2946  1.0567
27494SOL     OW84681   6.620   6.614   3.155 -0.1809  0.1377  0.2631
27494SOL    HW184682   6.636   6.600   3.061 -2.2175  0.4672 -0.1967
27494SOL    HW284683   6.697   6.661   3.186  0.4631  0.1851 -1.2924
27495SOL     OW84684   8.820   4.913   4.702 -0.2831 -0.2789  0.2793
27495SOL    HW184685   8.736   4.911   4.657 -0.4393  2.1591  0.3755
27495SOL    HW284686   8.804   4.869   4.786 -0.8633 -1.7359 -0.5546
27496SOL     OW84687   7.813   1.857   6.016  0.0550 -0.4652  0.3746
27496SOL    HW184688   7.886   1.913   6.042  0.2641 -0.8531  0.6361
27496SOL    HW284689   7.757   1.914   5.962 -0.5151  0.4226  1.8545
27497SOL     OW84690   5.455   9.115   4.675  0.3657  0.0745 -0.3486
27497SOL    HW184691   5.522   9.159   4.624 -0.4319 -0.1428 -1.6181
27497SOL    HW284692   5.372   9.144   4.637 -0.2213 -1.0253  0.0418
27498SOL     OW84693   5.685   4.273   5.381  0.1209  0.2588  0.5016
27498SOL    HW184694   5.632   4.339   5.335 -0.1227 -0.4938 -0.3301
27498SOL    HW284695   5.770   4.314   5.392  0.3335  0.3026 -1.0668
27499SOL     OW84696   8.787   2.928   7.388  0.1504  0.0487 -0.0937
27499SOL    HW184697   8.822   2.909   7.301  2.3240  0.5596  0.6308
27499SOL    HW284698   8.854   2.897   7.449 -0.9638  0.4435  1.3966
27500SOL     OW84699   1.682   1.363   5.033 -0.0960  0.5373 -0.0789
27500SOL    HW184700   1.623   1.432   5.002  1.2947  1.5976 -0.4750
27500SOL    HW284701   1.729   1.335   4.955  2.3815  2.1757  0.7415
27501SOL     OW84702   3.216   7.954   6.914 -0.6089  0.0483 -0.3397
27501SOL    HW184703   3.265   8.011   6.854  0.9887  0.2959  1.1117
27501SOL    HW284704   3.174   8.014   6.975 -2.7306 -0.1725 -1.4881
27502SOL     OW84705   3.473   3.959   6.387 -0.0734  0.3252 -0.2780
27502SOL    HW184706   3.433   4.044   6.370 -0.6334  0.1546  0.1754
27502SOL    HW284707   3.435   3.931   6.470 -0.3751 -0.6636 -0.7408
27503SOL     OW84708   3.233   6.150   4.017 -0.3303 -0.2251 -0.2351
27503SOL    HW184709   3.285   6.075   4.048 -1.1117  0.1617  2.2758
27503SOL    HW284710   3.272   6.226   4.062 -0.0074  0.8130 -2.1742
27504SOL     OW84711   6.994   2.145   7.033  0.9682  0.1071  0.0275
27504SOL    HW184712   6.993   2.085   7.108 -0.9414  0.9041  0.6999
27504SOL    HW284713   7.010   2.231   7.072  0.9619  0.4049 -0.6189
27505SOL     OW84714   2.624   7.786   6.933  0.9589 -0.3368 -0.1848
27505SOL    HW184715   2.713   7.770   6.902  0.9568 -1.7151  0.4307
27505SOL    HW284716   2.570   7.777   6.854  1.3275  0.2488 -0.5141
27506SOL     OW84717   6.956   1.357   9.147  0.1166 -0.1183 -0.4640
27506SOL    HW184718   6.894   1.288   9.173  1.2310 -1.4366 -1.1643
27506SOL    HW284719   7.037   1.334   9.193  0.6265  0.4931 -1.0550
27507SOL     OW84720   4.098   3.605   5.680 -0.2660  0.1790 -0.0756
27507SOL    HW184721   4.136   3.679   5.727 -1.4309  0.2214  0.8624
27507SOL    HW284722   4.052   3.644   5.606  1.8804  0.0845 -1.5362
27508SOL     OW84723   1.052   3.189   3.722 -0.3182  0.1728  0.5740
27508SOL    HW184724   1.137   3.193   3.767  0.0346  0.2404 -0.0816
27508SOL    HW284725   1.012   3.108   3.755 -1.0339  1.2927  2.6350
27509SOL     OW84726   5.208   1.115   7.511 -0.7847 -0.1124 -0.3358
27509SOL    HW184727   5.114   1.104   7.522 -1.0994  1.6185 -0.9611
27509SOL    HW284728   5.228   1.071   7.428 -1.0799 -0.2626 -0.3282
27510SOL     OW84729   7.532   3.838   8.743  0.0773  0.1853 -0.4000
27510SOL    HW184730   7.470   3.908   8.765 -0.4915 -0.8078  1.4215
27510SOL    HW284731   7.593   3.836   8.816  0.8419 -0.4134 -1.0347
27511SOL     OW84732   6.297   4.312   5.906 -0.5452 -0.1321 -0.0947
27511SOL    HW184733   6.242   4.369   5.961 -0.3819 -1.5444  1.6050
27511SOL    HW284734   6.373   4.366   5.885  0.1163  0.0040  2.3700
27512SOL     OW84735   4.533   0.076   6.174 -0.9678  0.1925 -0.4628
27512SOL    HW184736   4.550   0.012   6.105 -2.1880  0.1015 -0.7011
27512SOL    HW284737   4.504   0.023   6.248  3.9884 -0.1819  1.6208
27513SOL     OW84738   1.987   9.385   2.258  0.0006  0.8267 -0.7611
27513SOL    HW184739   2.038   9.315   2.298  0.7086  0.0666 -2.8667
27513SOL    HW284740   1.912   9.396   2.316  0.3300 -1.0540  0.1029
27514SOL     OW84741   6.118   4.197   7.783 -0.6699  0.4866  0.8547
27514SOL    HW184742   6.022   4.194   7.784 -0.6870  0.1458 -0.4146
27514SOL    HW284743   6.140   4.282   7.746 -0.4613  0.8980  1.8917
27515SOL     OW84744   7.630   2.812   2.136  0.1321 -0.6214 -0.1614
27515SOL    HW184745   7.540   2.845   2.139  0.0368 -0.6798 -1.6492
27515SOL    HW284746   7.684   2.890   2.124  0.3358 -0.5515  1.0357
27516SOL     OW84747   1.330   9.005   9.008  0.2926  0.0431  0.0834
27516SOL    HW184748   1.338   9.038   8.919 -0.1396  1.2485  0.4634
27516SOL    HW284749   1.416   9.020   9.047  0.1058  0.7490  0.2466
27517SOL     OW84750   5.589   0.781   2.902  0.6027  0.2345  0.3256
27517SOL    HW184751   5.601   0.706   2.961  2.0257 -0.7027 -1.0985
27517SOL    HW284752   5.617   0.857   2.954 -0.9200 -0.1470  1.8161
27518SOL     OW84753   3.858   8.251   2.833 -0.4434  0.2004 -0.8103
27518SOL    HW184754   3.944   8.237   2.871 -0.4712  1.4686 -0.2114
27518SOL    HW284755   3.797   8.226   2.902 -0.5349  0.5196 -0.7755
27519SOL     OW84756   8.648   1.696   1.801  0.3931 -0.0304 -0.0622
27519SOL    HW184757   8.691   1.755   1.863  0.1350 -0.0978  0.1861
27519SOL    HW284758   8.621   1.752   1.729  3.1055 -0.3693 -1.4398
27520SOL     OW84759   5.650   7.830   6.417 -0.0988  0.5769  0.0680
27520SOL    HW184760   5.658   7.746   6.463  0.9426  0.6611  0.0514
27520SOL    HW284761   5.574   7.871   6.458 -1.4183 -0.8929 -0.7748
27521SOL     OW84762   1.632   3.105   9.464 -0.0841  0.3028 -0.1719
27521SOL    HW184763   1.724   3.131   9.456 -0.0635  0.1678 -0.3824
27521SOL    HW284764   1.634   3.009   9.462 -0.3230  0.3049 -1.2647
27522SOL     OW84765   4.625   9.483   8.866  0.0778 -0.4394  0.0347
27522SOL    HW184766   4.703   9.507   8.916 -0.3619  0.3756  0.3498
27522SOL    HW284767   4.650   9.495   8.775  0.2789 -0.0316  0.1393
27523SOL     OW84768   2.068   3.805   6.537 -0.1016  0.1439  0.0161
27523SOL    HW184769   2.042   3.722   6.578 -0.2302  0.2396  0.1287
27523SOL    HW284770   1.985   3.851   6.521 -0.0583  0.0859 -0.4017
27524SOL     OW84771   4.596   2.567   7.552 -0.1932  0.8361 -0.0289
27524SOL    HW184772   4.528   2.500   7.551  0.1909  0.4006  1.0265
27524SOL    HW284773   4.554   2.646   7.519 -0.4783 -0.0652 -1.9760
27525SOL     OW84774   0.712   6.667   8.315 -0.1151  0.6465  0.3020
27525SOL    HW184775   0.722   6.699   8.225 -0.9220  0.4141  0.1243
27525SOL    HW284776   0.634   6.612   8.313  1.9735 -2.5820  0.2440
27526SOL     OW84777   0.555   6.283   6.508 -0.0627 -0.7208  0.1471
27526SOL    HW184778   0.502   6.363   6.512 -0.1215 -0.7423 -0.1436
27526SOL    HW284779   0.512   6.222   6.568  1.5988  0.3926  2.6284
27527SOL     OW84780   5.601   8.621   6.616  0.1164 -0.0127 -0.5393
27527SOL    HW184781   5.599   8.527   6.633  0.9943 -0.1023 -0.8798
27527SOL    HW284782   5.694   8.644   6.618  0.0461  0.5211 -2.1959
27528SOL     OW84783   7.218   1.929   9.398 -0.4950 -0.2721 -0.4377
27528SOL    HW184784   7.163   1.857   9.366 -0.4920 -0.1040 -0.8294
27528SOL    HW284785   7.276   1.949   9.325 -1.8134  1.4516 -1.0782
27529SOL     OW84786   5.261   4.849   7.706  0.0474 -0.2491 -0.2338
27529SOL    HW184787   5.170   4.874   7.697 -0.6364 -2.0521  1.0718
27529SOL    HW284788   5.294   4.903   7.778 -0.2488 -0.1949 -0.1378
27530SOL     OW84789   7.437   5.178   6.331 -0.0094  0.1883 -0.2596
27530SOL    HW184790   7.380   5.121   6.382  1.2132  0.5523  1.6207
27530SOL    HW284791   7.460   5.127   6.254 -2.2374 -0.2376 -0.7039
27531SOL     OW84792   1.773   6.034   0.681  0.0571  0.1182 -0.0913
27531SOL    HW184793   1.700   6.012   0.622  0.5023  1.3451 -1.1583
27531SOL    HW284794   1.733   6.087   0.750 -0.2841 -0.4051  0.1230
27532SOL     OW84795   1.690   4.216   2.344 -0.2103  0.2955  0.1031
27532SOL    HW184796   1.671   4.170   2.262 -1.0657 -0.7833  0.8803
27532SOL    HW284797   1.610   4.208   2.396  0.4466  0.6232  1.2094
27533SOL     OW84798   4.685   6.374   6.080  0.3163  0.3366 -0.0421
27533SOL    HW184799   4.616   6.439   6.094  0.6308  0.5121  0.7729
27533SOL    HW284800   4.639   6.295   6.052 -0.1333  0.7157 -0.3830
27534SOL     OW84801   1.891   3.706   8.039  0.3251 -0.4688 -0.2759
27534SOL    HW184802   1.910   3.669   7.953 -0.1396 -0.5607 -0.3367
27534SOL    HW284803   1.966   3.679   8.093  1.0517  0.3237 -0.8641
27535SOL     OW84804   8.471   3.518   7.834  0.3332 -0.1859 -0.2217
27535SOL    HW184805   8.540   3.452   7.824 -0.7352 -1.8084  2.1696
27535SOL    HW284806   8.498   3.569   7.910  0.0804  0.7916 -0.7707
27536SOL     OW84807   7.496   9.096   7.098  0.2105  0.4291 -0.3001
27536SOL    HW184808   7.488   9.115   7.005 -0.1266  1.5144 -0.0651
27536SOL    HW284809   7.575   9.142   7.126 -0.4227  1.2470  0.2077
27537SOL     OW84810   4.279   8.834   7.057 -0.4644  0.0231 -0.3083
27537SOL    HW184811   4.192   8.844   7.094  0.3764  1.5552  1.4217
27537SOL    HW284812   4.313   8.923   7.049  1.1269 -0.5575 -0.4711
27538SOL     OW84813   0.739   6.892   3.840 -0.2524 -0.0056 -0.3649
27538SOL    HW184814   0.709   6.980   3.819  1.2326  0.9288  1.1647
27538SOL    HW284815   0.815   6.879   3.782  0.2103  0.1779  0.1971
27539SOL     OW84816   8.863   1.882   8.752 -0.2749 -0.1382 -0.8517
27539SOL    HW184817   8.912   1.808   8.716 -1.2069 -0.4946 -1.4335
27539SOL    HW284818   8.834   1.851   8.838 -0.4285 -0.3573 -0.9790
27540SOL     OW84819   5.754   3.890   4.807  0.4298  0.0836 -0.0674
27540SOL    HW184820   5.786   3.806   4.841  0.0067 -0.5476 -1.1676
27540SOL    HW284821   5.692   3.921   4.873  1.7140  0.2979  1.0810
27541SOL     OW84822   4.775   6.052   6.443 -0.4663 -0.4576 -0.2640
27541SOL    HW184823   4.828   6.116   6.491  1.5349 -2.2940  0.1601
27541SOL    HW284824   4.833   6.021   6.373 -2.0207 -0.5585 -1.5655
27542SOL     OW84825   5.263   5.484   6.147 -0.1678 -0.0726 -0.0722
27542SOL    HW184826   5.282   5.540   6.223 -0.8496  0.6839 -0.4406
27542SOL    HW284827   5.250   5.397   6.184 -0.1402  0.2209  0.6453
27543SOL     OW84828   8.613   3.296   7.780 -0.1166  0.1174  0.3415
27543SOL    HW184829   8.648   3.258   7.699 -0.7724  0.0088  0.1031
27543SOL    HW284830   8.624   3.227   7.845  1.4420  0.5897  0.6377
27544SOL     OW84831   0.612   8.610   5.932  0.2118 -0.3257 -0.0564
27544SOL    HW184832   0.605   8.696   5.973  1.5990  0.2114 -0.8471
27544SOL    HW284833   0.687   8.570   5.975 -0.0626 -0.8928 -0.1091
27545SOL     OW84834   3.665   5.078   6.004 -0.4645 -0.3882 -0.0467
27545SOL    HW184835   3.725   5.096   6.077 -1.1374  0.6734  0.2590
27545SOL    HW284836   3.597   5.023   6.043 -0.4194 -0.4664 -0.0759
27546SOL     OW84837   7.877   2.516   3.760 -0.3985 -0.2107  0.9009
27546SOL    HW184838   7.881   2.497   3.666  0.3052  0.4604  0.7768
27546SOL    HW284839   7.956   2.567   3.777 -1.4920  1.4031  1.4456
27547SOL     OW84840   5.907   4.320   1.820 -0.0664 -0.2041  0.2140
27547SOL    HW184841   5.928   4.371   1.742  1.8709 -1.1328  0.0897
27547SOL    HW284842   5.849   4.251   1.788 -0.5099  0.2959 -0.0981
27548SOL     OW84843   6.862   3.153   3.859 -0.6407 -0.1585  0.4017
27548SOL    HW184844   6.842   3.075   3.912 -1.9158 -0.5212 -0.5519
27548SOL    HW284845   6.871   3.120   3.770 -2.4332  0.8767 -0.2370
27549SOL     OW84846   8.802   0.078   6.141  0.0886 -0.8061 -0.7557
27549SOL    HW184847   8.897   0.077   6.157 -0.0476 -0.2840  0.1298
27549SOL    HW284848   8.770  -0.001   6.183 -0.0241 -0.3670 -0.0011
27550SOL     OW84849   8.193   7.130   4.615 -0.1181  0.0731 -0.3851
27550SOL    HW184850   8.279   7.149   4.654 -0.2799 -0.3554  0.1915
27550SOL    HW284851   8.147   7.214   4.618  0.4115  0.4061 -1.0629
27551SOL     OW84852   7.499   7.518   1.236 -0.1592  0.0583 -0.0699
27551SOL    HW184853   7.414   7.478   1.217  0.0245 -0.4257  0.1271
27551SOL    HW284854   7.558   7.444   1.250  0.4914  0.3733 -1.0499
27552SOL     OW84855   4.457   0.338   8.977  0.2134  0.0287  0.0953
27552SOL    HW184856   4.533   0.393   8.956  0.3611 -0.3285 -0.3280
27552SOL    HW284857   4.456   0.335   9.073  1.2811 -0.6861  0.1108
27553SOL     OW84858   2.244   9.563   7.720  0.0004 -0.3291  0.3061
27553SOL    HW184859   2.226   9.626   7.650  1.2265 -0.2217  0.0727
27553SOL    HW284860   2.240   9.615   7.800  0.0641 -0.1449  0.1919
27554SOL     OW84861   0.429   3.432   8.579 -0.0406 -0.6000  0.2061
27554SOL    HW184862   0.387   3.514   8.554  0.4644 -0.8006 -1.4196
27554SOL    HW284863   0.392   3.367   8.520 -1.2673 -1.8126  2.1961
27555SOL     OW84864   2.987   5.338   2.203 -0.2121  0.0031  0.2050
27555SOL    HW184865   3.041   5.416   2.189 -0.6732  0.1324 -1.0123
27555SOL    HW284866   3.022   5.273   2.141  0.0928 -0.7342  1.1252
27556SOL     OW84867   0.985   9.386   7.376 -0.0399 -0.1601  0.1265
27556SOL    HW184868   0.909   9.444   7.382 -1.6695 -2.2754  1.3821
27556SOL    HW284869   1.056   9.443   7.347 -1.5583  2.4062  1.0678
27557SOL     OW84870   5.832   6.851   8.374  0.4889 -0.0356 -0.9387
27557SOL    HW184871   5.886   6.929   8.366  1.4249 -0.7934 -2.4472
27557SOL    HW284872   5.894   6.781   8.393 -0.3257 -0.4428  0.2805
27558SOL     OW84873   5.110   5.677   0.136 -0.3614  0.0301 -0.2772
27558SOL    HW184874   5.188   5.629   0.165  0.0681 -0.0421 -1.4730
27558SOL    HW284875   5.050   5.609   0.106 -0.5363  0.1347 -0.1632
27559SOL     OW84876   4.929   1.832   8.858  0.5704  0.1793 -0.2269
27559SOL    HW184877   4.949   1.741   8.833 -0.6039 -0.2061  0.1895
27559SOL    HW284878   4.965   1.841   8.946  0.3841  0.0057 -0.1320
27560SOL     OW84879   6.944   6.229   2.929  0.2729 -0.2880 -0.6865
27560SOL    HW184880   6.851   6.237   2.952  0.6993  0.5133  0.8477
27560SOL    HW284881   6.987   6.203   3.010  1.4778 -0.0515 -1.2271
27561SOL     OW84882   6.198   6.255   2.613 -0.0005  0.6641 -0.3353
27561SOL    HW184883   6.142   6.179   2.597  1.3452 -1.3161  3.2361
27561SOL    HW284884   6.280   6.234   2.568  0.4771 -0.2685  0.8933
27562SOL     OW84885   4.627   3.459   1.554  0.2474 -0.0241 -0.0669
27562SOL    HW184886   4.628   3.386   1.617  0.0885 -0.4106 -0.5041
27562SOL    HW284887   4.666   3.532   1.602 -1.0343  0.0517  0.9155
27563SOL     OW84888   2.624   3.428   4.370 -0.1474  0.0530 -0.5077
27563SOL    HW184889   2.599   3.473   4.451 -1.9346 -0.9876 -0.4294
27563SOL    HW284890   2.619   3.494   4.302 -2.1582  0.1636 -0.3061
27564SOL     OW84891   4.500   5.871   0.865  0.1139 -0.1849 -0.0094
27564SOL    HW184892   4.575   5.818   0.840  0.2017  0.1376 -0.4529
27564SOL    HW284893   4.479   5.920   0.785 -1.2249 -1.0523 -0.2267
27565SOL     OW84894   7.294   0.939   8.184  0.1094  0.8040 -0.6772
27565SOL    HW184895   7.227   0.874   8.205 -1.4071  1.5732 -2.7534
27565SOL    HW284896   7.375   0.888   8.177 -0.7163 -0.5837 -0.6171
27566SOL     OW84897   7.016   1.024   2.749 -0.6986 -0.6271 -0.0304
27566SOL    HW184898   6.994   0.956   2.685 -1.8045 -0.2562 -0.0620
27566SOL    HW284899   7.074   1.084   2.701 -0.8035 -0.8241 -0.4111
27567SOL     OW84900   0.670   3.429   0.885 -0.0239 -0.1579  0.4904
27567SOL    HW184901   0.625   3.511   0.866 -0.4433 -0.6803 -0.9028
27567SOL    HW284902   0.728   3.450   0.958 -0.0594  1.4086  0.1072
27568SOL     OW84903   8.223   0.077   8.350 -0.3598 -0.0047 -0.1192
27568SOL    HW184904   8.215   0.133   8.273 -0.6871  0.9829  0.6153
27568SOL    HW284905   8.149   0.102   8.405 -0.0217 -0.5737  0.6030
27569SOL     OW84906   5.422   0.982   9.482 -0.1789  0.3570  0.8975
27569SOL    HW184907   5.389   1.004   9.395 -0.1706 -0.8512  0.5738
27569SOL    HW284908   5.343   0.963   9.533 -0.2439  1.8451  1.4102
27570SOL     OW84909   0.115   3.897   0.819  0.3364 -0.5155 -0.2430
27570SOL    HW184910   0.182   3.874   0.884  0.0339 -1.1509 -0.1426
27570SOL    HW284911   0.128   3.990   0.803 -0.3450 -0.0626  1.6214
27571SOL     OW84912   1.209   5.257   5.693 -0.2208  0.0422 -0.2352
27571SOL    HW184913   1.194   5.193   5.623 -3.0039  1.9186 -1.5922
27571SOL    HW284914   1.139   5.240   5.756  0.5864  0.1322  0.7003
27572SOL     OW84915   7.347   0.834   0.047  0.2435 -1.0882 -0.1650
27572SOL    HW184916   7.392   0.889   0.111  0.2096 -1.4655  0.1832
27572SOL    HW284917   7.394   0.849  -0.035  0.4282 -0.7809 -0.0046
27573SOL     OW84918   9.157   8.434   1.879 -0.3668 -0.5129  0.0337
27573SOL    HW184919   9.155   8.390   1.794 -1.0420 -2.0228  0.8006
27573SOL    HW284920   9.075   8.483   1.882  0.4415  0.9548 -0.8741
27574SOL     OW84921   8.510   0.128   4.421 -0.2654  0.2405 -0.0882
27574SOL    HW184922   8.427   0.091   4.391 -1.4847  0.8986  2.1930
27574SOL    HW284923   8.542   0.180   4.347 -1.5568 -0.5339 -1.2308
27575SOL     OW84924   5.822   6.782   2.152 -0.0461  0.3913  0.3055
27575SOL    HW184925   5.859   6.840   2.086  2.6144  0.3542  1.6321
27575SOL    HW284926   5.895   6.762   2.211 -1.4239 -2.3913  1.2717
27576SOL     OW84927   3.505   0.469   7.191  0.4029  0.0258 -0.2975
27576SOL    HW184928   3.492   0.426   7.275 -2.0777  0.2438 -0.4930
27576SOL    HW284929   3.506   0.563   7.212  2.9303  0.0617 -0.2151
27577SOL     OW84930   6.395   7.883   1.097 -0.2755  0.5074  0.2864
27577SOL    HW184931   6.418   7.836   1.017  0.3134  0.9468  0.1945
27577SOL    HW284932   6.319   7.836   1.131 -0.0990 -0.1109 -0.1548
27578SOL     OW84933   0.499   8.199   1.937  0.4182  0.0303  0.0257
27578SOL    HW184934   0.496   8.241   1.851 -0.6279 -0.8966 -0.4185
27578SOL    HW284935   0.582   8.152   1.938 -1.1184 -3.0345 -2.0524
27579SOL     OW84936   2.191   8.985   8.951  0.3185 -0.1841 -1.2262
27579SOL    HW184937   2.207   9.069   8.908  4.4700 -1.3048 -2.4422
27579SOL    HW284938   2.141   8.935   8.887 -0.4267  0.6726 -1.3408
27580SOL     OW84939   4.953   4.952   5.902  0.1070  0.1573 -0.5317
27580SOL    HW184940   4.979   4.961   5.811  1.2609  0.9534 -0.1454
27580SOL    HW284941   4.926   4.861   5.911  0.6736 -0.1106 -1.4982
27581SOL     OW84942   2.976   7.069   8.093 -0.3146 -0.1900  0.2228
27581SOL    HW184943   3.056   7.122   8.101 -0.1772 -0.5772  1.5884
27581SOL    HW284944   2.931   7.081   8.176 -1.0186 -1.0465 -0.0236
27582SOL     OW84945   6.791   3.948   7.181 -0.2798 -0.3861 -0.5528
27582SOL    HW184946   6.708   3.986   7.153 -0.4416 -1.2680 -1.2954
27582SOL    HW284947   6.841   3.936   7.101 -0.0489 -1.3028 -0.2770
27583SOL     OW84948   5.033   7.440   5.501 -0.0923 -0.2290  0.1660
27583SOL    HW184949   4.964   7.377   5.518  0.2823 -0.7596 -0.2635
27583SOL    HW284950   5.030   7.500   5.576 -0.4019 -0.7977  0.6123
27584SOL     OW84951   2.893   7.188   6.718  0.7994  0.2798 -0.1552
27584SOL    HW184952   2.930   7.100   6.726  1.5144  0.5505 -0.3618
27584SOL    HW284953   2.925   7.235   6.794 -0.3694  0.1026  0.4654
27585SOL     OW84954   4.617   7.909   7.148  0.8332  0.2655  0.1759
27585SOL    HW184955   4.684   7.946   7.205  1.2335  0.6321 -0.5188
27585SOL    HW284956   4.592   7.981   7.090 -1.6249  0.7440  1.6960
27586SOL     OW84957   1.324   1.210   7.368  0.0270 -0.4146  0.5903
27586SOL    HW184958   1.243   1.179   7.409 -0.4829  0.2462  0.1181
27586SOL    HW284959   1.313   1.305   7.365  0.5446 -0.3758 -0.0589
27587SOL     OW84960   7.468   6.566   0.440  0.3791  0.3395  0.7538
27587SOL    HW184961   7.548   6.616   0.424 -1.4297  2.9228 -0.9645
27587SOL    HW284962   7.403   6.631   0.465 -1.5207 -1.5071  0.9550
27588SOL     OW84963   6.836   1.393   6.509 -0.0061 -0.5320  0.1449
27588SOL    HW184964   6.923   1.418   6.476 -0.8083  0.4364 -1.3231
27588SOL    HW284965   6.801   1.472   6.548  0.0893 -1.1523  1.5548
27589SOL     OW84966   7.472   6.238   1.908  0.4699  0.3743 -0.1845
27589SOL    HW184967   7.421   6.312   1.876 -1.8237 -0.0144  2.2185
27589SOL    HW284968   7.434   6.162   1.864 -0.4062  0.1848  0.8670
27590SOL     OW84969   6.340   6.272   6.651  0.4340  0.4902  0.4116
27590SOL    HW184970   6.255   6.267   6.695  1.0931 -0.3087  1.6652
27590SOL    HW284971   6.394   6.206   6.696  1.4123  0.2609 -1.0393
27591SOL     OW84972   1.071   2.178   3.072  0.0528  0.4550 -0.1787
27591SOL    HW184973   1.074   2.174   2.976 -0.0130  1.0474 -0.2064
27591SOL    HW284974   0.984   2.144   3.095  0.4055 -0.5484 -0.2753
27592SOL     OW84975   3.897   4.394   3.156  0.0730  0.5061 -0.0230
27592SOL    HW184976   3.847   4.425   3.231 -0.0844 -1.1978  0.6382
27592SOL    HW284977   3.863   4.444   3.082 -1.3066  0.7174  0.7095
27593SOL     OW84978   5.690   0.631   8.541 -0.0584 -0.3929  0.4030
27593SOL    HW184979   5.612   0.598   8.585 -0.9615  0.2862 -0.6170
27593SOL    HW284980   5.661   0.712   8.499  1.0896 -0.3403 -0.3379
27594SOL     OW84981   1.785   7.198   8.189 -0.4244  0.3362  0.0786
27594SOL    HW184982   1.713   7.260   8.199 -1.0400 -0.6745  2.8514
27594SOL    HW284983   1.751   7.131   8.129 -1.2767  0.5717  0.2798
27595SOL     OW84984   7.995   4.150   6.321  1.0254  0.1209 -0.1722
27595SOL    HW184985   8.075   4.182   6.362  0.3757  0.2468  1.0162
27595SOL    HW284986   7.930   4.218   6.339  0.8042  0.3922 -1.7870
27596SOL     OW84987   7.850   0.277   2.018  0.4359 -0.2982 -0.4122
27596SOL    HW184988   7.914   0.325   2.070 -0.6467 -0.4059  1.0986
27596SOL    HW284989   7.877   0.185   2.024 -0.5774 -0.5238  1.4011
27597SOL     OW84990   3.540   7.961   1.113  0.0982  0.4538  0.6857
27597SOL    HW184991   3.570   7.951   1.022 -0.9099  1.9193  0.1376
27597SOL    HW284992   3.446   7.980   1.105 -0.2277 -0.4237  2.1123
27598SOL     OW84993   0.766   3.377   1.973  0.3483  0.2246  0.7779
27598SOL    HW184994   0.711   3.451   1.945 -0.2911 -1.0311 -1.5049
27598SOL    HW284995   0.853   3.397   1.939  0.6939  0.8933  1.9995
27599SOL     OW84996   6.702   6.403   8.966 -0.2245 -0.6243  0.1811
27599SOL    HW184997   6.783   6.406   8.915 -1.6399 -0.1848 -2.1699
27599SOL    HW284998   6.665   6.491   8.958 -1.4284 -1.0860  0.3691
27600SOL     OW84999   8.461   0.505   8.353 -0.2651 -0.2899  0.3106
27600SOL    HW185000   8.423   0.435   8.405  0.5213  0.2126  1.6061
27600SOL    HW285001   8.511   0.460   8.285 -0.4809 -0.9695  0.5965
27601SOL     OW85002   5.226   6.789   6.211 -0.1248 -0.1625 -0.2382
27601SOL    HW185003   5.241   6.879   6.182  0.6082 -0.5099 -0.9813
27601SOL    HW285004   5.138   6.789   6.247  0.5065  1.2751  1.4324
27602SOL     OW85005   7.773   7.094   9.020  0.5562 -0.3616 -0.2375
27602SOL    HW185006   7.846   7.155   9.025 -0.3351  0.6246  1.7831
27602SOL    HW285007   7.701   7.139   9.064 -0.9594 -1.7537 -1.1920
27603SOL     OW85008   3.048   5.068   5.654  0.4062 -1.0488  0.1167
27603SOL    HW185009   2.955   5.047   5.658  0.0576  0.5143  1.2423
27603SOL    HW285010   3.091   4.995   5.699 -0.0748 -2.5997 -1.8218
27604SOL     OW85011   5.267   0.468   0.908 -0.1495  0.6818  0.1462
27604SOL    HW185012   5.330   0.440   0.841  0.7292 -0.8052  1.5279
27604SOL    HW285013   5.183   0.472   0.863  0.3857 -0.4955 -0.9996
27605SOL     OW85014   3.386   6.776   9.246 -0.0557  0.4170 -0.2573
27605SOL    HW185015   3.346   6.753   9.330 -1.0282  0.3473 -0.7237
27605SOL    HW285016   3.311   6.795   9.189  0.5685 -0.0296 -1.2472
27606SOL     OW85017   8.231   7.981   8.445 -0.1359  0.3852  0.3715
27606SOL    HW185018   8.231   8.021   8.532  1.0877  1.0819  0.0715
27606SOL    HW285019   8.301   8.026   8.397 -1.0550  0.3217 -1.1195
27607SOL     OW85020   9.478   2.880   8.678 -0.0776 -0.0404  0.4805
27607SOL    HW185021   9.548   2.827   8.640  0.8286  0.2453  1.6839
27607SOL    HW285022   9.476   2.959   8.625  0.2310 -0.2359  0.1730
27608SOL     OW85023   7.230   7.422   6.041 -0.0343  0.4486  0.4580
27608SOL    HW185024   7.179   7.497   6.012  1.4002  1.1919 -0.2659
27608SOL    HW285025   7.244   7.370   5.961 -1.1012 -0.6728  0.9679
27609SOL     OW85026   1.799   3.378   3.812  0.3066 -0.1014  0.6561
27609SOL    HW185027   1.735   3.322   3.768 -0.0008  2.1689 -2.0504
27609SOL    HW285028   1.748   3.447   3.852  0.9026  0.5609  0.2989
27610SOL     OW85029   5.851   3.956   2.610  0.4331 -0.3482  1.0189
27610SOL    HW185030   5.889   4.041   2.633  1.0245 -0.6151  1.0678
27610SOL    HW285031   5.758   3.973   2.599  0.0865 -0.2034  3.6293
27611SOL     OW85032   9.030   6.873   3.378 -0.3915  0.2014  0.6170
27611SOL    HW185033   8.974   6.888   3.454 -1.0885  2.5853 -0.2670
27611SOL    HW285034   9.095   6.943   3.382  0.1041 -0.1694 -0.4678
27612SOL     OW85035   0.116   2.320   8.043 -0.1350  0.1866  0.1695
27612SOL    HW185036   0.132   2.234   8.004  1.1355  0.9747 -1.1507
27612SOL    HW285037   0.094   2.376   7.968 -1.2754  0.9466  1.0518
27613SOL     OW85038   9.455   4.662   6.178 -0.0849 -0.1883  0.1922
27613SOL    HW185039   9.500   4.638   6.097 -0.3812 -2.1817  0.5736
27613SOL    HW285040   9.519   4.645   6.247  0.3510  1.9977  0.3962
27614SOL     OW85041   3.815   5.509   9.210  0.1956  0.0716  0.0472
27614SOL    HW185042   3.890   5.519   9.151 -0.4243 -3.3679 -1.5824
27614SOL    HW285043   3.755   5.451   9.163 -1.2606 -1.3022  3.2989
27615SOL     OW85044   7.826   1.185   5.186 -0.1715  0.4051  0.0985
27615SOL    HW185045   7.794   1.207   5.099 -0.3764 -0.0271  0.0635
27615SOL    HW285046   7.748   1.162   5.236  0.0089  0.0808  0.2316
27616SOL     OW85047   7.038   7.750   6.445  0.1810 -0.3171 -0.4339
27616SOL    HW185048   7.120   7.716   6.481 -0.3932 -0.6351  0.6243
27616SOL    HW285049   7.061   7.838   6.413  0.7343 -0.0247  0.7094
27617SOL     OW85050   6.607   3.330   4.846  0.1481 -0.1524  0.6054
27617SOL    HW185051   6.630   3.305   4.935 -1.2336 -0.4771  0.9029
27617SOL    HW285052   6.557   3.256   4.812  0.1284  0.2253 -0.2144
27618SOL     OW85053   8.818   7.278   9.293  0.1818  0.9818 -0.2623
27618SOL    HW185054   8.797   7.283   9.386 -0.2064  1.1562 -0.3594
27618SOL    HW285055   8.869   7.358   9.276  1.0534  0.4968  0.0005
27619SOL     OW85056   4.971   4.703   9.042 -0.2084  0.3769  0.6578
27619SOL    HW185057   4.991   4.795   9.026  1.4291 -0.0387  0.1021
27619SOL    HW285058   4.982   4.692   9.137  0.8715  0.4987  0.5618
27620SOL     OW85059   8.794   8.022   2.430 -0.2909 -0.0648 -0.0647
27620SOL    HW185060   8.833   7.935   2.425  0.7286  0.1738  2.3896
27620SOL    HW285061   8.826   8.067   2.352  2.3245 -0.7288  0.5345
27621SOL     OW85062   5.251   0.394   6.160  0.6529  0.2101  0.3061
27621SOL    HW185063   5.231   0.328   6.093  1.4813 -1.7314  1.8705
27621SOL    HW285064   5.186   0.380   6.228  1.2714  0.5260  0.9751
27622SOL     OW85065   5.142   5.380   8.535  0.3780  0.4210  0.3449
27622SOL    HW185066   5.184   5.465   8.517 -0.7811  0.5783 -2.0056
27622SOL    HW285067   5.100   5.392   8.620  0.7106  2.0211  0.3237
27623SOL     OW85068   5.282   8.449   2.729 -0.3324  0.1698 -0.1230
27623SOL    HW185069   5.310   8.537   2.706  0.4699 -0.4295 -1.5608
27623SOL    HW285070   5.221   8.461   2.802 -1.3726  2.0056 -1.2400
27624SOL     OW85071   9.380   9.328   6.702 -0.2005 -0.1314 -0.2314
27624SOL    HW185072   9.474   9.321   6.717 -0.6988 -2.3071  2.8894
27624SOL    HW285073   9.355   9.411   6.741  0.2549 -0.2268  0.2756
27625SOL     OW85074   2.158   7.970   2.194  0.5224 -0.2474 -0.0633
27625SOL    HW185075   2.157   8.037   2.125  0.1472  1.2981  1.3745
27625SOL    HW285076   2.163   7.887   2.147  1.5747  0.7935 -1.9179
27626SOL     OW85077   8.068   5.806   9.401  0.0620 -0.0631 -0.0047
27626SOL    HW185078   8.014   5.845   9.333  1.9276 -0.1331 -1.6188
27626SOL    HW285079   8.154   5.795   9.360  0.7536 -1.8833  1.7740
27627SOL     OW85080   7.337   7.151   4.945  0.1637  0.5322  0.0497
27627SOL    HW185081   7.348   7.118   5.034 -0.7947  1.7688  0.6620
27627SOL    HW285082   7.243   7.143   4.928  0.1921  1.1977 -0.4730
27628SOL     OW85083   5.785   7.836   3.520 -0.8408 -0.3209  0.0899
27628SOL    HW185084   5.767   7.745   3.544 -0.6638 -1.3162 -3.1150
27628SOL    HW285085   5.701   7.881   3.533 -0.3904 -0.2300  3.9452
27629SOL     OW85086   4.893   6.371   7.235  0.1390 -0.3775  0.2434
27629SOL    HW185087   4.887   6.438   7.302  3.1947 -0.7045  0.9873
27629SOL    HW285088   4.823   6.309   7.256 -0.9346  1.1167  1.2096
27630SOL     OW85089   0.754   1.305   8.400  0.5286 -0.2503 -0.4457
27630SOL    HW185090   0.849   1.316   8.387  0.5596  0.7953  0.5017
27630SOL    HW285091   0.746   1.278   8.491 -0.0807 -0.3227 -0.5229
27631SOL     OW85092   7.761   2.800   0.613  0.3551 -0.5162  0.3637
27631SOL    HW185093   7.777   2.895   0.609 -0.9700 -0.2276  1.2055
27631SOL    HW285094   7.756   2.781   0.706 -0.8492 -1.1395  0.1868
27632SOL     OW85095   3.998   0.327   6.585  0.1772 -0.2268  0.1628
27632SOL    HW185096   3.989   0.258   6.651  1.3901 -0.4619  0.1120
27632SOL    HW285097   3.924   0.385   6.600  1.5874  0.9974  3.2520
27633SOL     OW85098   1.824   4.646   0.766  0.3024  0.4057 -0.6806
27633SOL    HW185099   1.776   4.591   0.703  0.9946 -0.5016 -0.4304
27633SOL    HW285100   1.910   4.659   0.726  0.5735  0.2556 -0.1490
27634SOL     OW85101   6.626   2.097   4.480  0.0699  0.2888  0.0805
27634SOL    HW185102   6.618   2.192   4.474  1.4701  0.3599 -1.6513
27634SOL    HW285103   6.719   2.081   4.495 -0.2511 -0.8167  1.1028
27635SOL     OW85104   2.294   8.803   5.385  0.1724 -0.6301  0.0826
27635SOL    HW185105   2.275   8.723   5.335 -0.3721 -0.3044 -0.2411
27635SOL    HW285106   2.389   8.805   5.391  0.1746 -1.7508  0.8263
27636SOL     OW85107   2.462   1.003   3.580  0.2618 -0.3857  0.5064
27636SOL    HW185108   2.497   0.967   3.499  0.1965  0.7160 -0.0311
27636SOL    HW285109   2.521   1.075   3.603 -0.9399  0.7237  0.2336
27637SOL     OW85110   0.151   7.717   7.968 -0.7365  0.4095  0.0946
27637SOL    HW185111   0.231   7.737   8.017  1.0710 -0.7499 -2.1753
27637SOL    HW285112   0.112   7.803   7.950 -0.7434  0.9273  2.2851
27638SOL     OW85113   3.586   1.581   9.463 -0.6035 -0.0962  0.3522
27638SOL    HW185114   3.588   1.656   9.402  1.3692 -0.7021 -0.4273
27638SOL    HW285115   3.559   1.619   9.546  0.0272  1.4527 -0.1006
27639SOL     OW85116   0.665   4.867   8.496 -0.0552 -0.5999 -0.0529
27639SOL    HW185117   0.656   4.946   8.444  0.1813 -0.4124  0.1863
27639SOL    HW285118   0.683   4.899   8.585 -0.6014 -0.9076  0.1758
27640SOL     OW85119   4.112   1.860   6.399 -0.7433 -0.2543 -0.5630
27640SOL    HW185120   4.139   1.923   6.332 -1.7954  0.7989 -0.0356
27640SOL    HW285121   4.193   1.840   6.446 -0.5675  1.7467  0.0936
27641SOL     OW85122   7.709   9.197   5.815 -0.1059 -0.0618  0.0506
27641SOL    HW185123   7.787   9.230   5.861 -0.4322  0.1908  0.4340
27641SOL    HW285124   7.702   9.252   5.737 -0.0212  0.0515  0.1220
27642SOL     OW85125   6.162   9.196   3.554  0.1239 -0.0527  0.4614
27642SOL    HW185126   6.122   9.110   3.572 -1.5670  0.8692  1.3398
27642SOL    HW285127   6.115   9.257   3.611  0.2216  1.7124 -1.2451
27643SOL     OW85128   1.207   3.987   1.123 -0.0155  0.2509 -0.5946
27643SOL    HW185129   1.299   3.973   1.100  0.2735 -0.9190  1.1218
27643SOL    HW285130   1.205   4.075   1.161  0.7745 -0.4037  1.0405
27644SOL     OW85131   8.428   5.677   0.170  0.0173 -0.3217  0.2718
27644SOL    HW185132   8.482   5.664   0.091  0.8525 -1.5623  1.0119
27644SOL    HW285133   8.340   5.690   0.136  0.6634  1.2706 -0.9575
27645SOL     OW85134   7.919   3.528   2.502  0.5682 -0.3818 -0.5125
27645SOL    HW185135   7.953   3.449   2.461  0.2876 -2.1193  2.2995
27645SOL    HW285136   7.832   3.539   2.465  0.3046 -1.8700 -0.3828
27646SOL     OW85137   1.182   6.825   4.371 -0.8893  0.2891  0.4315
27646SOL    HW185138   1.273   6.795   4.369  0.0790  2.8466  1.5696
27646SOL    HW285139   1.148   6.793   4.454 -0.7528  0.0419  0.3920
27647SOL     OW85140   9.039   0.859   4.076 -0.4504  0.4662 -0.2418
27647SOL    HW185141   9.111   0.854   4.013  0.1392 -0.5846  0.4874
27647SOL    HW285142   9.079   0.892   4.156 -1.1459  1.5410 -0.3146
27648SOL     OW85143   4.563   5.538   8.967  0.5567  0.2283  0.5522
27648SOL    HW185144   4.506   5.573   9.036  0.9962 -0.5882  1.3495
27648SOL    HW285145   4.584   5.614   8.913  1.0104  1.0901  1.8890
27649SOL     OW85146   8.363   7.886   9.273  0.1575  0.2999 -0.1370
27649SOL    HW185147   8.387   7.954   9.211  0.5873  2.7776  2.5115
27649SOL    HW285148   8.435   7.885   9.336 -1.7232  0.3628  2.1541
27650SOL     OW85149   6.373   6.443   4.542  0.2853 -0.0547 -0.4465
27650SOL    HW185150   6.452   6.494   4.521 -0.0440 -0.0907 -1.8499
27650SOL    HW285151   6.302   6.490   4.499 -0.0742 -1.5062 -1.4758
27651SOL     OW85152   7.403   9.181   2.561  0.6308 -0.5249 -0.1007
27651SOL    HW185153   7.345   9.220   2.496  0.1884 -0.5300  0.2818
27651SOL    HW285154   7.351   9.180   2.642  0.6595 -1.8403 -0.0762
27652SOL     OW85155   5.791   2.176   5.283  0.1001  0.5157  0.0529
27652SOL    HW185156   5.819   2.262   5.254 -1.6175  0.1542 -3.0207
27652SOL    HW285157   5.701   2.167   5.250  0.1456 -2.3623  0.4765
27653SOL     OW85158   3.803   9.356   8.586 -0.1927  0.4818 -0.4449
27653SOL    HW185159   3.841   9.337   8.501  1.0531 -0.5755  0.3161
27653SOL    HW285160   3.766   9.273   8.616 -0.4863  0.8015  0.1080
27654SOL     OW85161   7.312   0.188   5.350 -0.5104  0.0819  0.4250
27654SOL    HW185162   7.392   0.141   5.326  0.4736  1.4347  0.9111
27654SOL    HW285163   7.338   0.281   5.350 -2.2919  0.6225 -0.1856
27655SOL     OW85164   6.541   3.875   4.136  0.3281  0.4089  0.0351
27655SOL    HW185165   6.450   3.846   4.131  0.7690 -0.9505 -0.7221
27655SOL    HW285166   6.541   3.940   4.206 -0.9985 -0.4871  0.9344
27656SOL     OW85167   9.452   4.547   7.682 -0.3777 -0.2108  0.1443
27656SOL    HW185168   9.442   4.639   7.659  2.9433  0.0798 -0.6048
27656SOL    HW285169   9.492   4.507   7.606  1.9581 -1.3487  1.8470
27657SOL     OW85170   5.421   2.717   3.894 -0.0823  0.1409 -0.5358
27657SOL    HW185171   5.329   2.734   3.912 -0.4418 -1.0192 -1.2190
27657SOL    HW285172   5.425   2.700   3.800  1.0321  1.4158 -0.7649
27658SOL     OW85173   0.113   7.962   7.127 -0.5034  0.6691 -0.8749
27658SOL    HW185174   0.103   8.049   7.166 -0.8514  0.1231  0.3254
27658SOL    HW285175   0.138   7.979   7.036 -0.0838  2.0158 -0.5420
27659SOL     OW85176   8.909   0.688   9.231  0.0784 -0.1648  0.1511
27659SOL    HW185177   8.901   0.780   9.256 -3.1503  0.0367 -1.1269
27659SOL    HW285178   8.928   0.642   9.313  1.0936  1.5478  0.9193
27660SOL     OW85179   2.717   8.242   2.584  0.2135  0.0176 -1.0903
27660SOL    HW185180   2.688   8.179   2.519 -1.5854  0.6679 -0.9714
27660SOL    HW285181   2.732   8.323   2.535  0.3439  0.0982 -0.9208
27661SOL     OW85182   4.902   6.551   6.625  0.4227  0.0022 -0.4134
27661SOL    HW185183   4.970   6.568   6.560  1.1597 -1.8172 -0.1749
27661SOL    HW285184   4.824   6.532   6.573  0.0678  1.9118 -0.6875
27662SOL     OW85185   3.174   4.830   4.768  0.2471  0.0869 -0.0598
27662SOL    HW185186   3.165   4.884   4.846 -0.0327 -1.8613  1.3150
27662SOL    HW285187   3.093   4.780   4.764  1.0055 -1.1470 -0.5513
27663SOL     OW85188   8.562   5.280   1.465  0.1334  0.4993 -0.3457
27663SOL    HW185189   8.606   5.237   1.538  0.4454  0.9866 -0.2434
27663SOL    HW285190   8.484   5.320   1.504  1.4687  2.7246  0.2062
27664SOL     OW85191   2.311   0.574   0.189  0.2302  0.0671  0.1746
27664SOL    HW185192   2.238   0.635   0.195  0.5475  0.5322 -0.6392
27664SOL    HW285193   2.379   0.621   0.141  0.1990 -1.1797 -1.1550
27665SOL     OW85194   0.525   0.930   9.127  0.4556 -0.0338  0.0015
27665SOL    HW185195   0.498   0.879   9.050 -2.7980 -0.0743  1.0232
27665SOL    HW285196   0.516   1.021   9.100 -1.9783 -0.0371  0.6509
27666SOL     OW85197   2.047   1.772   6.150 -0.3946  0.0715  0.0696
27666SOL    HW185198   2.051   1.867   6.157  0.8081  0.0743 -0.3567
27666SOL    HW285199   1.954   1.752   6.138 -0.4897  1.3621 -1.8060
27667SOL     OW85200   7.353   6.963   1.409 -0.0474  0.1194  0.3452
27667SOL    HW185201   7.392   6.946   1.495 -0.7194 -0.5085  0.5346
27667SOL    HW285202   7.289   6.893   1.397 -0.1895  0.3853 -0.5310
27668SOL     OW85203   4.827   7.637   5.556  0.4073 -0.3679 -0.4691
27668SOL    HW185204   4.743   7.681   5.553  0.7056  0.2456 -3.6849
27668SOL    HW285205   4.826   7.578   5.480  2.5245 -0.9904 -0.0789
27669SOL     OW85206   0.771   4.543   0.000 -0.4420  0.4581 -0.1506
27669SOL    HW185207   0.861   4.510   0.004 -0.9547 -1.3746 -1.9797
27669SOL    HW285208   0.725   4.496   0.070 -0.6796 -1.1875 -1.3616
27670SOL     OW85209   5.403   1.094   1.347 -0.5189 -0.1970  0.3618
27670SOL    HW185210   5.483   1.117   1.300 -0.0822 -0.9378  0.7286
27670SOL    HW285211   5.360   1.178   1.363 -1.1174  0.0599 -2.0916
27671SOL     OW85212   2.121   1.481   5.705  0.2376  0.0496 -0.2749
27671SOL    HW185213   2.122   1.566   5.661 -0.6826  0.0691 -0.2716
27671SOL    HW285214   2.039   1.440   5.678  0.6395 -0.8232 -0.2321
27672SOL     OW85215   8.258   5.531   4.769 -0.0393  0.1121  0.1882
27672SOL    HW185216   8.204   5.527   4.848  0.5786 -2.3507  0.5720
27672SOL    HW285217   8.198   5.563   4.701 -1.8693 -1.8874  0.7279
27673SOL     OW85218   0.339   3.814   4.834  0.0938  0.3190  0.5245
27673SOL    HW185219   0.385   3.844   4.912 -0.4840  0.5026  0.8027
27673SOL    HW285220   0.314   3.895   4.789 -0.7696  0.2446  0.8587
27674SOL     OW85221   7.098   7.078   9.099  0.0339  0.4337  0.3126
27674SOL    HW185222   7.163   7.138   9.061  0.4351 -0.6430 -0.7549
27674SOL    HW285223   7.015   7.124   9.088  0.5872  1.8891  1.8096
27675SOL     OW85224   7.095   7.967   0.093 -0.3450 -0.0436 -0.6275
27675SOL    HW185225   7.090   7.905   0.021  0.4129  0.7681 -1.4124
27675SOL    HW285226   7.170   7.938   0.145 -0.8612 -0.6008 -0.1892
27676SOL     OW85227   6.186   5.392   2.230 -0.0349 -0.3896  0.3164
27676SOL    HW185228   6.252   5.416   2.295 -0.3899 -1.6917  1.1947
27676SOL    HW285229   6.233   5.337   2.167 -0.1913 -1.1047  0.8031
27677SOL     OW85230   9.464   2.508   5.791 -0.6005  0.0993  0.5569
27677SOL    HW185231   9.529   2.445   5.820  0.7882  1.3654  0.3325
27677SOL    HW285232   9.394   2.455   5.752 -0.4167 -1.3751  2.1153
27678SOL     OW85233   1.749   6.264   2.715  0.2675  0.0788  0.2925
27678SOL    HW185234   1.809   6.330   2.682  0.5666  0.2391  1.1286
27678SOL    HW285235   1.778   6.247   2.805 -0.9625  0.1892  0.7380
27679SOL     OW85236   5.008   9.090   8.288 -0.2097  0.1653  0.2842
27679SOL    HW185237   5.064   9.013   8.296 -2.3948 -1.5179  0.3760
27679SOL    HW285238   4.922   9.060   8.319 -1.7710  1.8972 -2.0008
27680SOL     OW85239   8.629   3.543   6.577  0.5836 -0.3166 -0.0576
27680SOL    HW185240   8.622   3.451   6.554 -0.4884 -0.1740 -0.3608
27680SOL    HW285241   8.719   3.554   6.608  1.7847 -0.7669 -3.0964
27681SOL     OW85242   6.478   0.214   3.138  0.0964 -0.1988 -0.0575
27681SOL    HW185243   6.401   0.219   3.195  0.3741 -0.2345  0.3231
27681SOL    HW285244   6.442   0.210   3.049 -0.3424 -0.3161  0.1243
27682SOL     OW85245   1.293   7.633   4.181 -0.0633  0.5674  0.4614
27682SOL    HW185246   1.332   7.705   4.132  1.7690  0.3235  1.4660
27682SOL    HW285247   1.230   7.675   4.240 -0.6940  1.0716 -0.5474
27683SOL     OW85248   2.507   7.662   4.794 -0.3516 -0.0119 -0.2223
27683SOL    HW185249   2.438   7.626   4.739 -0.4919 -2.5117  1.4275
27683SOL    HW285250   2.464   7.680   4.878  0.1942  2.2379 -0.3445
27684SOL     OW85251   7.419   5.342   8.486  0.2563 -0.4451  0.0260
27684SOL    HW185252   7.491   5.281   8.501  0.2351 -1.2737 -2.7219
27684SOL    HW285253   7.369   5.304   8.413 -0.2796  2.3460 -1.2198
27685SOL     OW85254   7.395   7.997   4.133  0.0241  0.1801  0.3740
27685SOL    HW185255   7.305   7.983   4.164  0.4655  0.2620  1.7837
27685SOL    HW285256   7.427   7.909   4.112 -0.3303  0.1312  0.0352
27686SOL     OW85257   8.053   1.655   7.612  0.1036 -0.1216 -0.5188
27686SOL    HW185258   8.052   1.646   7.517 -1.4824  0.7588 -0.6263
27686SOL    HW285259   7.991   1.726   7.630 -1.6097 -1.9083  1.2877
27687SOL     OW85260   7.133   5.578   5.444 -0.1895 -0.3283 -0.0816
27687SOL    HW185261   7.200   5.630   5.400  1.1544 -1.0808  1.0066
27687SOL    HW285262   7.050   5.612   5.410  0.6815  1.5260 -0.4772
27688SOL     OW85263   5.082   4.060   3.261 -0.3158 -0.3215 -0.6591
27688SOL    HW185264   5.106   3.970   3.239 -0.3966 -0.4475 -0.2402
27688SOL    HW285265   5.075   4.105   3.177  0.0095 -0.6358 -0.8528
27689SOL     OW85266   9.436   8.800   3.170 -0.2863 -0.0465 -0.1930
27689SOL    HW185267   9.444   8.715   3.126 -2.2848 -0.9033  0.9780
27689SOL    HW285268   9.463   8.783   3.260 -0.0683  0.7334 -0.1051
27690SOL     OW85269   3.835   3.262   4.816  0.7571  0.7523 -0.0879
27690SOL    HW185270   3.841   3.322   4.741 -0.1237  1.6521  0.5213
27690SOL    HW285271   3.748   3.223   4.808  1.2160 -0.2574 -0.3186
27691SOL     OW85272   2.247   5.241   0.058  0.4599  0.2875  0.4773
27691SOL    HW185273   2.215   5.238  -0.032  1.2263  1.0188  0.1688
27691SOL    HW285274   2.329   5.191   0.056  1.3747  1.7499  0.3753
27692SOL     OW85275   6.284   0.648   1.430 -0.1658 -0.0573 -0.4163
27692SOL    HW185276   6.279   0.730   1.380  0.6896 -2.1694 -4.4070
27692SOL    HW285277   6.375   0.619   1.420 -0.2582 -1.2197  1.5288
27693SOL     OW85278   6.859   3.042   1.720  1.3990 -0.7795 -0.9413
27693SOL    HW185279   6.821   3.069   1.637  2.0434  0.3021 -0.9153
27693SOL    HW285280   6.905   2.961   1.701  1.6184 -0.4898 -1.6731
27694SOL     OW85281   6.591   1.628   4.797 -0.5209  0.0873 -0.0965
27694SOL    HW185282   6.670   1.646   4.746 -0.2892  1.2803  0.6532
27694SOL    HW285283   6.612   1.549   4.848  0.7223  1.1687  1.1330
27695SOL     OW85284   8.576   2.677   3.337  0.2560  0.4295 -0.2624
27695SOL    HW185285   8.550   2.764   3.369  2.7817  1.4529 -0.7783
27695SOL    HW285286   8.643   2.647   3.399  0.4047 -0.5376 -0.8618
27696SOL     OW85287   6.365   6.977   2.797  0.1432 -0.0817  0.6439
27696SOL    HW185288   6.330   6.889   2.807  1.6424 -1.0247 -1.5250
27696SOL    HW285289   6.303   7.021   2.738  0.1680 -0.2037  0.5254
27697SOL     OW85290   1.916   0.358   8.367  0.1317  0.3815  0.2032
27697SOL    HW185291   1.938   0.441   8.324  0.1977  0.0944 -0.3158
27697SOL    HW285292   1.973   0.355   8.444 -1.0733  1.6471  1.2202
27698SOL     OW85293   3.195   5.999   7.704  0.2298 -0.4231  0.0998
27698SOL    HW185294   3.201   5.914   7.747  0.2399 -0.4074  0.1302
27698SOL    HW285295   3.199   5.979   7.611 -0.5129 -0.5130  0.0857
27699SOL     OW85296   6.428   8.262   8.716  0.4965  0.3557  0.3464
27699SOL    HW185297   6.411   8.177   8.676 -1.6977 -0.1132  2.0976
27699SOL    HW285298   6.480   8.241   8.794  0.9321  0.7856  0.1821
27700SOL     OW85299   1.460   6.022   2.973  0.5871 -0.3085 -0.0350
27700SOL    HW185300   1.439   5.988   3.059 -0.5142  0.0788 -0.1325
27700SOL    HW285301   1.546   6.063   2.983  0.4757 -0.2820  0.8718
27701SOL     OW85302   7.890   3.539   6.717 -0.3976  0.2839 -0.5443
27701SOL    HW185303   7.845   3.594   6.781  1.2566  0.6429  0.3470
27701SOL    HW285304   7.952   3.597   6.673  0.2783 -0.5171 -0.6757
27702SOL     OW85305   2.364   0.479   6.369  0.0295  0.1525  0.0785
27702SOL    HW185306   2.336   0.567   6.345  2.6631  0.8235 -0.8949
27702SOL    HW285307   2.423   0.453   6.298  1.0269 -1.4996  1.4572
27703SOL     OW85308   0.315   7.872   2.245 -0.1434  0.2411 -0.4473
27703SOL    HW185309   0.355   7.881   2.159  0.7515  0.3122 -0.0404
27703SOL    HW285310   0.222   7.887   2.230  0.1107  1.0926 -1.2594
27704SOL     OW85311   8.026   8.007   5.119 -0.0217  0.2843  0.1762
27704SOL    HW185312   7.964   7.959   5.174  0.7350 -0.4312  0.4209
27704SOL    HW285313   8.010   7.975   5.030  0.0412  0.0616  0.2469
27705SOL     OW85314   8.832   5.361   0.790 -0.4077  0.5076  0.1258
27705SOL    HW185315   8.741   5.379   0.815  0.0174  1.4174  1.1042
27705SOL    HW285316   8.872   5.328   0.870  1.0991  3.8633  0.9644
27706SOL     OW85317   7.250   8.280   0.545 -0.2679  0.1600 -0.1203
27706SOL    HW185318   7.187   8.208   0.546  0.8190 -0.8300  0.6560
27706SOL    HW285319   7.287   8.278   0.457 -0.4834 -0.0298 -0.2071
27707SOL     OW85320   1.431   4.453   7.187  0.3691  0.1430 -0.7485
27707SOL    HW185321   1.400   4.542   7.205 -0.0329 -0.3494  1.3419
27707SOL    HW285322   1.370   4.420   7.121 -1.1277  0.5788  0.3330
27708SOL     OW85323   1.231   2.867   2.460 -0.5690  0.0474 -0.5884
27708SOL    HW185324   1.306   2.870   2.400 -0.1931 -0.3986 -0.1474
27708SOL    HW285325   1.269   2.882   2.547 -0.8665 -1.0570 -0.2593
27709SOL     OW85326   6.296   2.326   6.053  0.1628  0.2117 -0.0605
27709SOL    HW185327   6.290   2.327   6.148  2.0366  0.4401  0.0919
27709SOL    HW285328   6.377   2.277   6.035 -0.5899 -0.5477 -1.5720
27710SOL     OW85329   9.234   0.852   3.875 -0.8080  0.9875 -0.1008
27710SOL    HW185330   9.230   0.948   3.871 -0.6140  0.9831 -0.4292
27710SOL    HW285331   9.203   0.823   3.789 -0.2806  0.7733 -0.2215
27711SOL     OW85332   4.756   1.716   4.549 -0.4270 -0.5296 -0.7448
27711SOL    HW185333   4.800   1.666   4.481 -2.0113 -2.3551 -0.4957
27711SOL    HW285334   4.663   1.699   4.536 -0.8732  0.3988  0.8815
27712SOL     OW85335   0.547   7.490   4.730 -0.0450  0.5256 -0.2831
27712SOL    HW185336   0.501   7.505   4.648  1.1195  1.0289 -0.8676
27712SOL    HW285337   0.544   7.575   4.775  0.5986  0.6638 -0.4875
27713SOL     OW85338   4.551   6.291   3.226 -0.0847  0.2213  0.3117
27713SOL    HW185339   4.597   6.367   3.264  1.0956 -0.5044  0.3900
27713SOL    HW285340   4.621   6.239   3.185 -0.8038 -1.1018  0.7155
27714SOL     OW85341   3.497   0.671   9.371  0.1043 -0.1757  0.0514
27714SOL    HW185342   3.478   0.590   9.418  0.2982 -0.5345 -0.4803
27714SOL    HW285343   3.482   0.649   9.279  0.8263  0.1900 -0.1619
27715SOL     OW85344   0.581   6.968   4.771 -0.0175  0.8113 -0.1860
27715SOL    HW185345   0.603   6.990   4.862  1.2993 -0.7364 -0.0840
27715SOL    HW285346   0.488   6.988   4.764 -0.6162 -0.7044  2.0938
27716SOL     OW85347   6.388   5.317   6.269  0.4109 -0.2321  0.3744
27716SOL    HW185348   6.436   5.327   6.351 -1.1543  0.4049  1.2511
27716SOL    HW285349   6.371   5.223   6.263  0.5900 -0.2919  0.7525
27717SOL     OW85350   2.265   5.135   5.194  0.1093 -0.3056  0.5455
27717SOL    HW185351   2.345   5.160   5.147 -0.0533 -0.8116 -0.0061
27717SOL    HW285352   2.194   5.171   5.142 -0.0456 -0.2582  0.7871
27718SOL     OW85353   2.026   5.326   2.620 -0.3215 -0.3289 -0.0568
27718SOL    HW185354   2.066   5.240   2.631  0.0987 -0.5636 -2.7127
27718SOL    HW285355   1.937   5.306   2.589  0.1490  0.1186 -1.8167
27719SOL     OW85356   1.015   6.761   7.316 -0.1223  0.7636 -0.4265
27719SOL    HW185357   1.082   6.698   7.290 -0.5470  0.5796 -1.0972
27719SOL    HW285358   0.963   6.775   7.236 -2.6465 -1.2676  0.7076
27720SOL     OW85359   1.670   7.048   5.869  0.3078 -0.6015 -0.7828
27720SOL    HW185360   1.646   6.962   5.902  0.4899 -0.0343  0.9453
27720SOL    HW285361   1.760   7.037   5.836 -0.1906 -1.3829 -1.9589
27721SOL     OW85362   0.185   4.026   2.961 -0.0601 -0.0789 -0.1487
27721SOL    HW185363   0.092   4.030   2.984  0.1713  1.2109  0.6316
27721SOL    HW285364   0.198   4.100   2.902  0.3317 -0.6813 -0.8243
27722SOL     OW85365   0.290   5.186   3.166  0.3023  0.0142 -0.2608
27722SOL    HW185366   0.220   5.181   3.100 -0.1405 -2.2361  0.2872
27722SOL    HW285367   0.356   5.243   3.127 -1.5253  1.6940 -1.0730
27723SOL     OW85368   3.525   5.112   5.405 -0.0912  0.0178 -0.3908
27723SOL    HW185369   3.600   5.052   5.409  1.0582  1.2680 -1.9379
27723SOL    HW285370   3.541   5.175   5.476 -1.2624 -1.3763  1.1889
27724SOL     OW85371   2.784   3.517   6.951  0.0787  0.0358  0.5012
27724SOL    HW185372   2.789   3.506   6.856 -0.9944 -0.9515  0.5393
27724SOL    HW285373   2.729   3.445   6.981  0.1284  0.5214  1.8443
27725SOL     OW85374   5.486   3.807   6.018 -0.4183 -0.4141  0.1783
27725SOL    HW185375   5.554   3.745   6.042 -1.6069 -1.5922  0.6099
27725SOL    HW285376   5.534   3.881   5.978  1.0668 -1.2976  0.2503
27726SOL     OW85377   4.668   5.899   3.294 -0.4966 -0.3462 -0.4082
27726SOL    HW185378   4.585   5.883   3.248 -1.5693  2.2218  0.4022
27726SOL    HW285379   4.711   5.968   3.242 -0.1930  0.2702  0.6351
27727SOL     OW85380   1.180   6.538   6.725  0.3786 -0.3715 -0.1924
27727SOL    HW185381   1.164   6.629   6.700 -0.5108  0.9033  4.1270
27727SOL    HW285382   1.275   6.532   6.733  0.4332  0.2760 -0.2501
27728SOL     OW85383   2.616   2.468   7.468  0.7284 -0.2397 -0.1634
27728SOL    HW185384   2.585   2.392   7.517  0.8476 -1.0319 -1.2730
27728SOL    HW285385   2.710   2.453   7.456  1.0830  0.8881  0.9815
27729SOL     OW85386   6.445   3.451   5.173  0.2890 -0.2001  0.4271
27729SOL    HW185387   6.397   3.412   5.100  2.2221 -2.6195  0.3351
27729SOL    HW285388   6.525   3.398   5.181  0.8684  0.9211  3.3463
27730SOL     OW85389   1.679   1.478   0.682  0.0579 -0.2835  0.0963
27730SOL    HW185390   1.717   1.391   0.696 -0.5270 -0.6739 -0.7076
27730SOL    HW285391   1.664   1.483   0.588 -0.1222  0.6065  0.1680
27731SOL     OW85392   0.808   8.875   3.558 -0.0398  0.5747  0.0045
27731SOL    HW185393   0.780   8.860   3.648  2.0766 -0.5652  0.5606
27731SOL    HW285394   0.780   8.797   3.511 -0.2773  0.7198 -0.0945
27732SOL     OW85395   4.239   3.944   7.296 -0.3260  0.9490 -0.1664
27732SOL    HW185396   4.145   3.929   7.308 -0.4604  1.5138 -0.4779
27732SOL    HW285397   4.276   3.856   7.286 -0.4534  0.5323  2.3855
27733SOL     OW85398   6.473   2.805   5.041  0.1779 -0.6454  0.0896
27733SOL    HW185399   6.455   2.897   5.057  1.0590 -0.7413  1.8666
27733SOL    HW285400   6.406   2.758   5.091 -1.2363 -1.0360 -2.0265
27734SOL     OW85401   4.248   6.837   0.066  0.3911  0.3823 -0.4427
27734SOL    HW185402   4.213   6.859   0.152  0.6025 -0.6819 -0.0642
27734SOL    HW285403   4.173   6.841   0.007  0.0561  0.1957 -0.0315
27735SOL     OW85404   8.698   0.513   9.199 -0.1419 -0.1488 -0.0758
27735SOL    HW185405   8.632   0.525   9.267 -1.1624 -0.1039 -1.0517
27735SOL    HW285406   8.755   0.590   9.207 -1.1047  0.5949 -0.1988
27736SOL     OW85407   1.266   4.785   5.931  0.5021  0.0554 -0.0381
27736SOL    HW185408   1.277   4.695   5.960  0.4507  0.0662  0.0130
27736SOL    HW285409   1.305   4.787   5.843  1.5307  0.2534  0.4074
27737SOL     OW85410   0.655   0.169   6.231  0.3862  0.0058 -0.1479
27737SOL    HW185411   0.560   0.171   6.218  0.3177 -0.3493  0.2585
27737SOL    HW285412   0.688   0.245   6.184 -0.0724 -0.0199 -0.5157
27738SOL     OW85413   3.460   1.187   5.613 -0.1024  0.6931  0.0007
27738SOL    HW185414   3.555   1.187   5.618  0.0371 -0.5961 -1.6979
27738SOL    HW285415   3.431   1.210   5.701  1.7700 -0.5841  1.0179
27739SOL     OW85416   9.526   0.837   4.522 -0.7104 -0.2196  0.2212
27739SOL    HW185417   9.524   0.742   4.513 -2.7390 -0.1125 -1.1846
27739SOL    HW285418   9.604   0.865   4.475 -0.3794 -1.1467  0.2104
27740SOL     OW85419   2.040   3.659   5.437  0.1911 -0.4034  0.6439
27740SOL    HW185420   2.079   3.673   5.350  2.4508 -1.3831  1.4065
27740SOL    HW285421   1.955   3.702   5.433  0.2834 -0.3101 -2.0090
27741SOL     OW85422   2.566   7.446   0.028  0.2207  0.6509 -0.1414
27741SOL    HW185423   2.508   7.370   0.032  0.9181  0.1478  1.3239
27741SOL    HW285424   2.513   7.518   0.061  0.4404  0.1480  1.4147
27742SOL     OW85425   1.985   2.012   3.875 -0.2708 -0.2221 -0.0541
27742SOL    HW185426   1.959   1.930   3.917 -0.8325  0.3010  0.6524
27742SOL    HW285427   1.944   2.080   3.929  2.0825  0.6443  0.7786
27743SOL     OW85428   1.436   2.420   0.013  0.3951  0.1065  0.4531
27743SOL    HW185429   1.495   2.354   0.050 -0.6612 -0.0982  1.8416
27743SOL    HW285430   1.355   2.372  -0.003  1.1581 -0.2048 -3.5953
27744SOL     OW85431   2.248   7.070   4.371  0.0761  0.2081  0.3925
27744SOL    HW185432   2.234   7.029   4.457  0.6595 -0.8123  0.0210
27744SOL    HW285433   2.209   7.009   4.309  1.0289  0.1679 -0.1880
27745SOL     OW85434   2.358   2.638   5.531 -0.3362  0.1847  0.8568
27745SOL    HW185435   2.438   2.596   5.562 -0.0673 -0.0894 -0.1601
27745SOL    HW285436   2.321   2.681   5.608  0.4301 -0.2620  1.4805
27746SOL     OW85437   9.431   0.813   8.052 -0.4768  0.0580  0.3137
27746SOL    HW185438   9.489   0.841   8.122 -1.7169 -0.7985  1.7271
27746SOL    HW285439   9.384   0.737   8.087 -2.6005  0.8192 -0.6742
27747SOL     OW85440   0.857   6.677   2.500  0.0732 -0.2805 -0.0373
27747SOL    HW185441   0.787   6.731   2.536  0.6616  0.1974  0.4102
27747SOL    HW285442   0.870   6.607   2.564 -0.2905 -0.6291 -0.3358
27748SOL     OW85443   0.138   9.272   7.212  0.7060 -0.2195 -0.0733
27748SOL    HW185444   0.110   9.353   7.254  0.6053 -0.7077  0.8263
27748SOL    HW285445   0.186   9.225   7.280 -1.7787 -2.2727  0.4396
27749SOL     OW85446   7.632   8.732   1.942 -0.2537 -0.6172 -0.0621
27749SOL    HW185447   7.605   8.644   1.917  0.0022 -0.4743 -0.8648
27749SOL    HW285448   7.688   8.719   2.018  0.8605 -1.2776 -0.9618
27750SOL     OW85449   0.949   2.062   0.286  0.0229 -0.3677 -0.4518
27750SOL    HW185450   0.929   1.979   0.329 -0.1868 -0.3664 -0.5438
27750SOL    HW285451   0.998   2.038   0.208  2.0203 -0.2681  0.7038
27751SOL     OW85452   4.794   9.561   3.670  0.2386 -0.7016  0.1288
27751SOL    HW185453   4.711   9.597   3.638 -0.2685 -2.2001 -0.3830
27751SOL    HW285454   4.848   9.637   3.691 -0.8909  0.3122 -0.5234
27752SOL     OW85455   5.676   2.447   2.829 -0.6951 -0.0295 -0.0002
27752SOL    HW185456   5.698   2.540   2.829 -3.1566  0.6371 -0.5439
27752SOL    HW285457   5.602   2.440   2.768 -0.4553 -2.3843 -0.1272
27753SOL     OW85458   3.199   7.624   5.571  0.2944  0.2207 -0.1524
27753SOL    HW185459   3.175   7.531   5.577  0.9648 -0.1192 -1.9947
27753SOL    HW285460   3.126   7.665   5.525  1.1280  0.0573 -1.6941
27754SOL     OW85461   9.401   6.352   1.679 -0.3446  0.0975  0.2149
27754SOL    HW185462   9.496   6.361   1.679 -0.1362 -1.4946 -1.4932
27754SOL    HW285463   9.368   6.435   1.644  0.4024  0.5946  0.6667
27755SOL     OW85464   6.926   6.298   0.392  0.1523 -0.5447  0.3924
27755SOL    HW185465   6.945   6.351   0.469  0.2008 -2.0265  1.4447
27755SOL    HW285466   6.888   6.218   0.427 -0.4749 -0.9711 -1.1809
27756SOL     OW85467   1.091   2.213   2.790  1.3994  0.7540 -0.1680
27756SOL    HW185468   1.072   2.159   2.714  1.5988 -1.9603  1.5708
27756SOL    HW285469   1.184   2.200   2.806  1.0848  0.1106  1.3219
27757SOL     OW85470   1.991   1.999   2.652  0.4480 -0.3791 -0.0442
27757SOL    HW185471   2.031   1.935   2.711  1.7832  0.2129 -0.2739
27757SOL    HW285472   1.915   1.953   2.615  0.0657 -1.0282  1.4878
27758SOL     OW85473   8.837   9.266   9.125  0.0262 -0.0876 -0.3027
27758SOL    HW185474   8.845   9.337   9.061  0.1899  0.2492  0.0867
27758SOL    HW285475   8.845   9.309   9.210  0.9487 -0.6755 -0.0785
27759SOL     OW85476   2.675   7.450   5.320  0.0134 -0.2994 -0.2671
27759SOL    HW185477   2.735   7.515   5.285  0.0217  0.5870  1.3146
27759SOL    HW285478   2.639   7.406   5.242  2.1198 -0.3539 -1.2692
27760SOL     OW85479   3.939   6.974   2.824 -0.6207  0.2060 -0.4248
27760SOL    HW185480   4.034   6.960   2.826 -0.4028  1.6038 -0.2560
27760SOL    HW285481   3.923   7.015   2.739 -0.8908  1.1133  0.0488
27761SOL     OW85482   7.133   7.239   2.845  0.0943  0.7276 -0.3668
27761SOL    HW185483   7.146   7.276   2.932  2.3173  2.1208 -1.1884
27761SOL    HW285484   7.154   7.146   2.855  0.2440  0.8547  0.5929
27762SOL     OW85485   8.548   2.920   0.051  0.0558 -0.0141  0.0830
27762SOL    HW185486   8.506   2.902   0.135  0.7574  0.1470  0.4829
27762SOL    HW285487   8.589   2.837   0.026 -0.9278 -0.3185 -0.5698
27763SOL     OW85488   0.077   6.277   5.682 -0.0779  0.4551 -0.1112
27763SOL    HW185489   0.168   6.251   5.672 -0.1690 -0.1214  0.4881
27763SOL    HW285490   0.079   6.373   5.682  0.5976  0.4500  0.4731
27764SOL     OW85491   4.102   7.446   8.019  0.7692  0.0591 -0.0016
27764SOL    HW185492   4.094   7.352   8.031 -0.5677  0.2050  0.4108
27764SOL    HW285493   4.119   7.457   7.925 -0.0208 -0.5531 -0.2273
27765SOL     OW85494   1.497   4.088   0.997 -0.1634  0.0123 -0.3830
27765SOL    HW185495   1.545   4.030   0.938 -0.2089  1.2603 -1.7059
27765SOL    HW285496   1.560   4.108   1.067  0.7349  0.3975 -1.2746
27766SOL     OW85497   6.945   8.191   3.520  0.2445  0.3494  0.2677
27766SOL    HW185498   7.033   8.192   3.482 -1.2281  0.3293 -3.5326
27766SOL    HW285499   6.901   8.265   3.479 -2.1134 -0.8927  0.4249
27767SOL     OW85500   5.577   8.448   5.964 -0.1078 -0.0956 -0.7490
27767SOL    HW185501   5.594   8.478   5.874  1.6858  1.2488 -0.0325
27767SOL    HW285502   5.631   8.370   5.974  1.9765  1.3267 -0.0545
27768SOL     OW85503   3.543   8.277   7.393 -0.2257  0.0018  0.0595
27768SOL    HW185504   3.506   8.341   7.333  0.8261  0.3195 -0.2717
27768SOL    HW285505   3.471   8.217   7.412 -1.1786  1.1609  0.2320
27769SOL     OW85506   8.344   3.943   9.532 -0.2252 -0.1671 -0.8618
27769SOL    HW185507   8.270   3.882   9.541 -0.5449  0.5055  3.8155
27769SOL    HW285508   8.421   3.887   9.533 -0.5981 -0.6870 -0.3519
27770SOL     OW85509   1.895   2.530   8.267 -0.0194  0.0612 -0.2297
27770SOL    HW185510   1.835   2.477   8.214  0.8248  0.5362 -1.7002
27770SOL    HW285511   1.924   2.600   8.209  1.7596  0.0100  0.5192
27771SOL     OW85512   6.305   7.935   4.712  0.4371  0.2997 -0.3500
27771SOL    HW185513   6.215   7.905   4.727  1.3071 -1.8950  0.9691
27771SOL    HW285514   6.319   8.003   4.777  0.8292 -1.9802  2.1627
27772SOL     OW85515   4.940   6.083   6.043 -0.2319  0.2837  0.3454
27772SOL    HW185516   4.882   6.008   6.026 -0.8594  1.1521 -1.6050
27772SOL    HW285517   4.982   6.062   6.126 -1.0682 -1.8096  0.3034
27773SOL     OW85518   5.528   0.920   9.135  0.6288  0.0452  0.3350
27773SOL    HW185519   5.507   0.845   9.192  0.4437 -1.2345 -1.3420
27773SOL    HW285520   5.495   0.996   9.182 -0.6078 -1.0943  1.3802
27774SOL     OW85521   6.166   4.509   6.683  0.1989  0.2091 -0.4178
27774SOL    HW185522   6.112   4.586   6.663 -1.2727 -0.7390 -0.2117
27774SOL    HW285523   6.126   4.438   6.633  0.0458 -0.9454  1.2690
27775SOL     OW85524   5.035   9.160   3.400  0.4512  0.3137  0.0089
27775SOL    HW185525   4.983   9.085   3.371  0.0135  0.4039  0.5272
27775SOL    HW285526   4.986   9.195   3.475  0.2037  1.6033 -0.7104
27776SOL     OW85527   2.407   3.555   2.824 -0.3362  0.2482 -0.2805
27776SOL    HW185528   2.469   3.585   2.891  0.8800  0.7430 -1.5748
27776SOL    HW285529   2.396   3.462   2.841  0.0141  0.3468  0.5485
27777SOL     OW85530   8.396   2.647   1.022 -0.7769  0.3802 -0.0087
27777SOL    HW185531   8.352   2.595   0.955  1.2463 -0.8127 -0.4826
27777SOL    HW285532   8.476   2.679   0.980 -1.0707  2.4238  0.8363
27778SOL     OW85533   4.582   4.361   9.448 -0.1801 -0.0798  0.1710
27778SOL    HW185534   4.512   4.356   9.382  0.0576  1.9088 -0.2945
27778SOL    HW285535   4.565   4.442   9.495  1.0477 -0.2493  0.9515
27779SOL     OW85536   0.997   9.094   7.399  0.6868 -0.3865 -0.0423
27779SOL    HW185537   0.980   9.058   7.312  0.8831 -1.2771  0.2792
27779SOL    HW285538   1.003   9.189   7.385  2.8245 -0.6409 -1.3719
27780SOL     OW85539   0.197   7.858   6.516  0.2810  0.5695  0.6248
27780SOL    HW185540   0.179   7.768   6.490  0.3613  0.3146  1.4248
27780SOL    HW285541   0.197   7.907   6.434  0.7046 -0.2331  0.1337
27781SOL     OW85542   5.246   4.081   7.922 -0.2138 -0.0546  0.4425
27781SOL    HW185543   5.198   4.072   8.005 -0.2160 -0.7421  0.3745
27781SOL    HW285544   5.310   4.150   7.939 -0.8127  0.4382  0.7321
27782SOL     OW85545   9.378   2.931   7.876  0.0269  0.0829 -0.3633
27782SOL    HW185546   9.432   2.891   7.945 -2.5974  0.4718  2.1017
27782SOL    HW285547   9.290   2.895   7.890 -1.1308  2.0456 -1.9805
27783SOL     OW85548   4.406   8.183   2.720 -0.0856 -0.1459 -0.1872
27783SOL    HW185549   4.414   8.237   2.641  0.5385  1.1884  0.7581
27783SOL    HW285550   4.470   8.113   2.707  1.3261  1.0836 -0.0920
27784SOL     OW85551   8.952   0.929   2.127  0.5922  0.0061  0.0342
27784SOL    HW185552   9.030   0.982   2.137  0.6250  0.3954 -1.8950
27784SOL    HW285553   8.883   0.991   2.105  0.5289 -0.6612 -1.7866
27785SOL     OW85554   0.536   2.181   7.589 -0.1763  0.1849 -0.0783
27785SOL    HW185555   0.564   2.094   7.559  3.5094  1.5321 -1.0485
27785SOL    HW285556   0.441   2.176   7.590 -0.1626 -3.6151 -0.7915
27786SOL     OW85557   6.635   1.364   1.521 -0.1212  0.2490 -0.7756
27786SOL    HW185558   6.591   1.417   1.454 -0.0493 -1.1826 -2.0046
27786SOL    HW285559   6.564   1.316   1.563  0.0670 -0.7500 -1.5712
27787SOL     OW85560   2.453   6.479   5.701 -0.0172 -1.2565 -0.1726
27787SOL    HW185561   2.410   6.459   5.784 -1.2999 -1.6303 -0.8968
27787SOL    HW285562   2.450   6.397   5.652 -2.4034 -0.2540 -1.9037
27788SOL     OW85563   0.203   1.306   1.325 -0.1436  0.1114 -0.4333
27788SOL    HW185564   0.151   1.322   1.403  0.8912  2.1054 -0.0714
27788SOL    HW285565   0.160   1.233   1.281 -0.9254 -0.8629  1.8236
27789SOL     OW85566   0.168   2.160   5.899 -0.0484  0.0424 -0.3919
27789SOL    HW185567   0.242   2.215   5.923 -0.6781  1.0253 -0.6336
27789SOL    HW285568   0.142   2.117   5.980  1.5067 -1.2424 -0.5339
27790SOL     OW85569   7.343   8.800   3.857  1.0161 -0.3140  0.1834
27790SOL    HW185570   7.326   8.832   3.946 -1.9391  1.4947 -0.8824
27790SOL    HW285571   7.276   8.734   3.842  0.8008  0.1440 -1.0260
27791SOL     OW85572   8.843   2.553   8.470 -0.1089 -0.5323 -0.2315
27791SOL    HW185573   8.773   2.497   8.505  0.2746  0.1078  1.7086
27791SOL    HW285574   8.923   2.519   8.511  0.4111  0.1579 -0.6477
27792SOL     OW85575   2.050   4.678   3.392  0.0082 -0.5038  0.1185
27792SOL    HW185576   2.056   4.772   3.408  0.2741 -0.4035 -0.5335
27792SOL    HW285577   2.140   4.647   3.395 -0.0042 -0.6061 -0.3884
27793SOL     OW85578   4.236   7.100   8.660  0.4271  0.3928  0.1678
27793SOL    HW185579   4.284   7.168   8.613 -0.9989  0.7005 -0.9103
27793SOL    HW285580   4.184   7.056   8.593 -0.2582 -0.3918  1.1777
27794SOL     OW85581   8.072   3.354   3.291  0.0249 -0.0080 -0.5226
27794SOL    HW185582   8.049   3.261   3.286  0.3767 -0.6890  4.8002
27794SOL    HW285583   8.121   3.370   3.211 -0.4517 -4.2541 -1.9464
27795SOL     OW85584   1.256   4.467   1.378 -0.1728 -0.2731  0.1681
27795SOL    HW185585   1.215   4.424   1.303 -0.6821  0.0461  0.2621
27795SOL    HW285586   1.207   4.548   1.390  0.1635 -0.1252  0.5949
27796SOL     OW85587   9.451   5.441   6.829 -0.2961  0.5191  0.1421
27796SOL    HW185588   9.396   5.362   6.831 -0.0666  0.3593  0.3471
27796SOL    HW285589   9.432   5.485   6.912  0.6814 -0.1021  0.7190
27797SOL     OW85590   6.203   9.550   4.300 -0.3383  0.4245  0.3166
27797SOL    HW185591   6.154   9.512   4.226 -1.2568  0.4356  0.8971
27797SOL    HW285592   6.226   9.638   4.271 -1.0105  0.5604  0.1760
27798SOL     OW85593   3.275   4.065   1.418 -0.2964 -0.2645 -0.4144
27798SOL    HW185594   3.294   3.973   1.434 -1.2549 -0.3842  0.1055
27798SOL    HW285595   3.221   4.065   1.339  0.8235 -0.0201 -1.2108
27799SOL     OW85596   0.317   6.603   1.688 -0.0581 -0.0479 -0.1357
27799SOL    HW185597   0.363   6.675   1.732 -0.0002 -1.1629  1.7327
27799SOL    HW285598   0.235   6.642   1.658 -1.3227  0.2904  3.2837
27800SOL     OW85599   4.035   0.510   4.059  0.1236 -0.7522 -0.1808
27800SOL    HW185600   4.125   0.523   4.030  0.2558 -0.1906  0.4671
27800SOL    HW285601   3.990   0.591   4.034  0.3482 -0.0468  1.5596
27801SOL     OW85602   6.047   2.432   4.038  0.5454 -1.0403 -0.6293
27801SOL    HW185603   6.045   2.346   4.080 -1.5451 -0.2536  1.0779
27801SOL    HW285604   5.976   2.481   4.080 -0.7961  0.3258 -4.0974
27802SOL     OW85605   2.609   7.161   7.584 -0.0416 -0.1350 -0.1630
27802SOL    HW185606   2.609   7.072   7.549  1.3285  0.3506 -1.5045
27802SOL    HW285607   2.587   7.216   7.509  3.9074  1.0252 -0.7032
27803SOL     OW85608   2.215   1.167   5.019 -0.6334 -0.9310 -0.1593
27803SOL    HW185609   2.145   1.135   5.076 -1.0416  2.6486  1.6804
27803SOL    HW285610   2.292   1.170   5.076 -0.5484  0.8350 -0.2992
27804SOL     OW85611   5.552   7.120   2.356  0.3584 -0.1265 -0.0567
27804SOL    HW185612   5.457   7.112   2.345  0.2488 -1.0361  1.3655
27804SOL    HW285613   5.563   7.162   2.441  1.2349 -1.2334  0.3988
27805SOL     OW85614   1.814   3.063   0.646 -0.0216  0.1154  0.1131
27805SOL    HW185615   1.896   3.068   0.598 -0.0169 -1.2791 -0.0516
27805SOL    HW285616   1.756   3.012   0.589 -0.6510  0.1450  0.7163
27806SOL     OW85617   4.123   9.076   6.876  0.2871  0.0813  0.4937
27806SOL    HW185618   4.196   9.105   6.930 -0.2897  0.0096  1.3339
27806SOL    HW285619   4.045   9.108   6.921 -0.2403 -0.5323  0.0439
27807SOL     OW85620   2.909   6.566   1.638  0.6849  0.2559 -0.6329
27807SOL    HW185621   2.826   6.555   1.591 -0.2575 -3.0789  1.4455
27807SOL    HW285622   2.884   6.603   1.722  0.9556 -2.1942  0.6142
27808SOL     OW85623   7.342   0.681   4.798 -0.4628 -0.0245 -0.0563
27808SOL    HW185624   7.260   0.724   4.823  1.1589  3.1100  0.4612
27808SOL    HW285625   7.371   0.729   4.721  1.4068 -0.2945  0.4347
27809SOL     OW85626   7.712   8.679   5.013 -0.5312 -0.1780  0.7987
27809SOL    HW185627   7.715   8.749   4.948 -2.0292 -0.5998  0.2427
27809SOL    HW285628   7.652   8.710   5.080 -1.0094 -0.8084  0.6746
27810SOL     OW85629   0.616   1.369   3.530  0.0218  0.3330  0.3529
27810SOL    HW185630   0.618   1.292   3.473  0.8347 -0.8841  1.9595
27810SOL    HW285631   0.708   1.393   3.541 -0.2512  2.1593 -0.8700
27811SOL     OW85632   9.043   2.422   0.523 -0.2176  0.2989  0.9200
27811SOL    HW185633   9.130   2.454   0.545 -0.5396  1.5293  0.4976
27811SOL    HW285634   9.004   2.493   0.472 -1.0909 -0.6563  0.2267
27812SOL     OW85635   6.315   1.911   4.109  0.3868 -0.0980  0.0179
27812SOL    HW185636   6.314   2.004   4.086  0.2399 -0.0022  0.3987
27812SOL    HW285637   6.359   1.908   4.194 -0.6943 -0.2341  0.5896
27813SOL     OW85638   7.451   7.754   2.038 -0.5011  0.2291 -0.4324
27813SOL    HW185639   7.418   7.706   2.113  2.3394  1.2136  1.6447
27813SOL    HW285640   7.393   7.830   2.031 -1.6789 -0.6252 -0.1938
27814SOL     OW85641   0.398   3.234   3.988 -0.1037  0.2435 -0.2396
27814SOL    HW185642   0.382   3.229   4.083  0.2702  0.6745 -0.1495
27814SOL    HW285643   0.467   3.170   3.972  0.9785  1.2916  0.0553
27815SOL     OW85644   8.412   0.312   1.536  0.0748 -0.5550 -0.6771
27815SOL    HW185645   8.362   0.232   1.518  1.0536 -1.6327  1.0853
27815SOL    HW285646   8.419   0.315   1.632  0.7785  1.2076 -0.7438
27816SOL     OW85647   5.767   0.453   0.497 -0.2147  0.1699 -0.2355
27816SOL    HW185648   5.731   0.409   0.420 -0.2943 -1.8034  0.8654
27816SOL    HW285649   5.853   0.483   0.469  0.2790 -1.6189 -0.7745
27817SOL     OW85650   9.190   5.846   8.318 -0.1450  0.0537  0.5058
27817SOL    HW185651   9.214   5.815   8.231  0.2993  0.0258  0.6394
27817SOL    HW285652   9.135   5.923   8.301 -2.9712 -1.8728  0.1055
27818SOL     OW85653   0.063   6.554   6.853 -0.1977 -0.4660  0.2738
27818SOL    HW185654   0.056   6.609   6.775  0.4891 -2.0196 -0.9441
27818SOL    HW285655   0.096   6.612   6.921 -0.2005  0.7773 -0.7516
27819SOL     OW85656   7.867   2.652   3.075 -0.2195 -0.7021  0.0707
27819SOL    HW185657   7.834   2.586   3.137 -0.9476 -1.6286 -1.2644
27819SOL    HW285658   7.954   2.675   3.108  0.8600 -3.7027 -0.4172
27820SOL     OW85659   6.844   5.166   7.819  0.7044  0.5007  0.3781
27820SOL    HW185660   6.816   5.075   7.809 -1.2076  1.1307 -0.7379
27820SOL    HW285661   6.815   5.191   7.906  2.0667 -0.1939  1.0512
27821SOL     OW85662   4.842   6.753   1.670 -0.0385  0.1989 -0.6523
27821SOL    HW185663   4.849   6.697   1.593 -0.4765 -1.9751  0.7921
27821SOL    HW285664   4.782   6.823   1.643  0.7244  0.1590 -2.6016
27822SOL     OW85665   8.479   4.532   3.544 -0.2555 -0.5385 -0.1032
27822SOL    HW185666   8.447   4.448   3.511 -0.6433 -0.4399  0.0284
27822SOL    HW285667   8.482   4.588   3.466  0.3393 -0.7682 -0.2605
27823SOL     OW85668   7.704   2.564   4.361 -0.3419 -0.4589 -0.2370
27823SOL    HW185669   7.766   2.626   4.322 -0.1195 -0.4805  0.0768
27823SOL    HW285670   7.756   2.484   4.374 -0.4792 -0.5295 -0.1186
27824SOL     OW85671   4.338   1.342   6.170  0.4901  0.0531 -0.7100
27824SOL    HW185672   4.372   1.293   6.245 -0.4759  1.2685  0.5987
27824SOL    HW285673   4.372   1.431   6.182  0.7549  0.1495 -2.0361
27825SOL     OW85674   8.673   3.132   9.515  0.1892 -0.3851 -0.5898
27825SOL    HW185675   8.615   3.066   9.553  0.3134 -1.3803 -2.0664
27825SOL    HW285676   8.715   3.088   9.441 -0.6929  1.6947 -2.4421
27826SOL     OW85677   8.542   9.472   4.971 -0.3565 -0.0913 -0.0763
27826SOL    HW185678   8.525   9.545   4.912 -1.0530  0.3347  0.6254
27826SOL    HW285679   8.471   9.477   5.035  0.8697 -0.0054  1.3166
27827SOL     OW85680   0.391   9.330   2.452  0.6377 -0.2370 -0.4225
27827SOL    HW185681   0.401   9.421   2.424  2.0265 -0.5870 -1.1129
27827SOL    HW285682   0.476   9.306   2.489 -0.5365 -0.4016  2.4240
27828SOL     OW85683   4.123   6.170   9.307  0.0276 -0.0148  0.1653
27828SOL    HW185684   4.154   6.184   9.217 -1.4219 -3.5471 -1.0738
27828SOL    HW285685   4.028   6.171   9.299 -0.1182 -0.8796  1.5245
27829SOL     OW85686   8.603   6.155   8.022  0.5495 -0.1519 -0.1794
27829SOL    HW185687   8.629   6.108   7.942 -0.1269 -0.2042 -0.3747
27829SOL    HW285688   8.609   6.248   7.998 -1.8712 -0.1362 -1.0780
27830SOL     OW85689   0.061   0.950   6.021  0.1266 -0.1590 -0.5905
27830SOL    HW185690  -0.013   0.943   5.960  0.0788  0.8303 -0.6670
27830SOL    HW285691   0.115   1.021   5.985  0.3295  0.1379  0.2667
27831SOL     OW85692   3.756   4.544   2.964  0.1121 -0.5536 -0.0883
27831SOL    HW185693   3.745   4.639   2.972  0.7074 -0.3116 -1.6410
27831SOL    HW285694   3.667   4.509   2.959 -0.1049  0.0176 -0.2756
27832SOL     OW85695   1.723   5.562   2.668 -0.7115  0.3855 -0.5063
27832SOL    HW185696   1.794   5.513   2.711 -0.3790 -0.1876 -1.6653
27832SOL    HW285697   1.651   5.559   2.731  0.0620  0.4052  0.4187
27833SOL     OW85698   1.825   8.001   6.758 -0.3117  0.0649 -0.4685
27833SOL    HW185699   1.755   8.065   6.768  0.5401  1.5435 -3.0266
27833SOL    HW285700   1.837   7.993   6.664  1.9360 -1.2736 -0.1479
27834SOL     OW85701   4.408   9.484   9.496 -0.1678  0.1143 -0.0872
27834SOL    HW185702   4.456   9.402   9.514 -0.1539  0.3354  0.9402
27834SOL    HW285703   4.318   9.456   9.479 -0.6474 -0.0054  2.2991
27835SOL     OW85704   2.859   0.112   4.379 -0.0506  0.3018  0.0955
27835SOL    HW185705   2.871   0.140   4.470  2.4844  0.7933 -0.3485
27835SOL    HW285706   2.786   0.165   4.347  0.4661  1.7195  1.1898
27836SOL     OW85707   2.689   8.940   9.376  0.3271  0.0623  0.0422
27836SOL    HW185708   2.649   9.001   9.314 -1.2638 -0.3024  0.6654
27836SOL    HW285709   2.773   8.916   9.335  0.3189  1.5192 -0.8991
27837SOL     OW85710   2.983   0.818   7.565  0.0994  0.0082  0.0183
27837SOL    HW185711   2.946   0.905   7.582 -1.7681 -0.8867  0.8425
27837SOL    HW285712   3.033   0.828   7.484  0.8786  2.0982  0.7010
27838SOL     OW85713   1.714   3.566   3.328 -0.6355 -0.2806  0.8829
27838SOL    HW185714   1.708   3.505   3.401 -1.3980 -0.7427  0.4593
27838SOL    HW285715   1.740   3.649   3.367 -0.1834 -0.7339  1.5554
27839SOL     OW85716   2.031   9.514   0.575  0.6462  0.3712  0.0164
27839SOL    HW185717   2.010   9.441   0.634 -0.9457  1.1428  0.4489
27839SOL    HW285718   2.092   9.476   0.511 -0.8837 -1.6112 -0.3467
27840SOL     OW85719   5.619   3.725   9.457 -0.0753 -0.2897  0.2453
27840SOL    HW185720   5.563   3.649   9.448  0.6424 -0.7127 -0.8775
27840SOL    HW285721   5.676   3.705   9.531 -1.0787 -0.0459  1.1042
27841SOL     OW85722   8.739   2.983   8.987 -0.7266 -0.5576  0.1716
27841SOL    HW185723   8.744   3.075   8.962 -0.3175 -0.1494  1.6566
27841SOL    HW285724   8.815   2.942   8.945 -0.7188 -0.1495 -0.2144
27842SOL     OW85725   5.825   9.168   5.064 -0.3591 -0.1495 -0.4829
27842SOL    HW185726   5.784   9.162   4.978  0.4858 -0.1920 -0.8913
27842SOL    HW285727   5.916   9.192   5.046 -0.4519  1.0486  0.4453
27843SOL     OW85728   8.790   4.248   5.684  0.3460 -0.9816 -0.4703
27843SOL    HW185729   8.872   4.214   5.721  0.8369  0.4504 -0.1506
27843SOL    HW285730   8.732   4.257   5.759  0.4143 -0.5880 -0.4645
27844SOL     OW85731   5.741   0.113   8.861 -0.6800  0.4037  0.8452
27844SOL    HW185732   5.724   0.023   8.890 -1.9462  0.8186  1.5081
27844SOL    HW285733   5.751   0.162   8.943  0.5593  0.7816  0.4796
27845SOL     OW85734   1.361   6.723   1.355 -0.5582  0.0301  0.1294
27845SOL    HW185735   1.363   6.669   1.276 -0.9008 -0.9720  0.7798
27845SOL    HW285736   1.276   6.704   1.394  0.5849 -1.5217  2.0805
27846SOL     OW85737   8.976   2.468   4.707 -0.2877 -0.0016 -0.1762
27846SOL    HW185738   9.052   2.516   4.674  0.0106  0.6450  1.3722
27846SOL    HW285739   8.977   2.386   4.658 -0.9232  1.5424 -3.0635
27847SOL     OW85740   1.417   1.070   3.447  0.7290 -0.3480  0.1693
27847SOL    HW185741   1.438   0.978   3.434  1.6181 -0.1360 -0.0004
27847SOL    HW285742   1.336   1.070   3.498  0.6329 -1.2170  0.0249
27848SOL     OW85743   3.700   6.204   5.008 -0.1233 -0.6409  0.4041
27848SOL    HW185744   3.655   6.178   4.928 -0.9895 -0.7925  0.9321
27848SOL    HW285745   3.707   6.299   5.002  1.1936 -0.7616 -0.5535
27849SOL     OW85746   8.502   5.281   8.970 -0.2346  0.1550 -0.3524
27849SOL    HW185747   8.497   5.308   8.878  1.2518  2.1233  0.0796
27849SOL    HW285748   8.428   5.324   9.012 -0.4257 -0.0560 -0.4718
27850SOL     OW85749   6.360   1.314   4.324  0.1661  0.0878 -0.1175
27850SOL    HW185750   6.279   1.273   4.355  0.6132 -1.6276 -1.1195
27850SOL    HW285751   6.335   1.359   4.243  0.3197 -0.9859 -0.7771
27851SOL     OW85752   4.135   7.813   7.324  0.2705 -0.5485  0.2972
27851SOL    HW185753   4.042   7.815   7.301  0.3344 -1.4198 -0.0584
27851SOL    HW285754   4.149   7.895   7.372 -0.5235 -0.0916 -0.2214
27852SOL     OW85755   9.276   4.231   0.854  0.0830  0.6396 -0.2530
27852SOL    HW185756   9.293   4.143   0.821 -1.7871  0.1511 -0.0616
27852SOL    HW285757   9.311   4.289   0.787 -0.4192 -0.2988 -1.3650
27853SOL     OW85758   3.324   9.170   1.326 -0.2848  0.3170  0.0645
27853SOL    HW185759   3.304   9.247   1.379  0.8528  0.2618  0.6028
27853SOL    HW285760   3.331   9.203   1.237  1.0622  1.0189  0.3977
27854SOL     OW85761   1.061   6.857   2.858  0.3302  0.4067 -0.3509
27854SOL    HW185762   0.997   6.835   2.789 -0.6155  0.1737  0.5784
27854SOL    HW285763   1.113   6.928   2.820  1.3401 -1.1962 -2.1859
27855SOL     OW85764   7.005   3.614   7.925  0.2132  0.0107  0.0571
27855SOL    HW185765   7.034   3.653   8.008 -1.6722  0.6576  0.4699
27855SOL    HW285766   7.053   3.663   7.858  0.7046  0.4687  0.7284
27856SOL     OW85767   0.036   0.098   2.851 -0.2252  0.0934  0.4635
27856SOL    HW185768   0.127   0.100   2.820 -0.2153  0.8372  0.5176
27856SOL    HW285769  -0.014   0.140   2.782 -0.4189  0.3642  0.7644
27857SOL     OW85770   4.123   8.926   8.289  0.2777 -0.3695 -0.3854
27857SOL    HW185771   4.159   8.936   8.377 -1.1953  1.4041  0.0743
27857SOL    HW285772   4.180   8.861   8.247  1.4082 -0.7669  1.6367
27858SOL     OW85773   9.484   5.875   5.050  0.0044 -0.1318  0.0986
27858SOL    HW185774   9.534   5.883   4.969 -1.1122  0.8857 -0.5148
27858SOL    HW285775   9.431   5.796   5.037 -0.5011  0.2766 -0.3557
27859SOL     OW85776   2.723   5.478   6.013  0.5364 -0.6376  0.2325
27859SOL    HW185777   2.694   5.400   6.061 -1.0650 -0.6724 -0.6965
27859SOL    HW285778   2.789   5.518   6.069 -0.2416 -1.4442  1.7872
27860SOL     OW85779   5.063   1.526   9.179 -0.1585  0.6163 -0.1081
27860SOL    HW185780   5.134   1.583   9.151 -0.0728  0.3336 -0.4674
27860SOL    HW285781   5.043   1.556   9.268 -1.1253  2.1953 -0.8092
27861SOL     OW85782   1.127   1.507   2.692 -0.0434 -0.3853 -0.2273
27861SOL    HW185783   1.192   1.548   2.749  0.1722  0.2301 -0.9019
27861SOL    HW285784   1.151   1.414   2.691 -0.2003 -0.4512  0.8692
27862SOL     OW85785   8.137   1.789   5.157 -0.4559 -0.3050  0.5231
27862SOL    HW185786   8.222   1.807   5.198 -1.7186 -0.3200  3.3817
27862SOL    HW285787   8.083   1.756   5.229 -2.6295 -1.1788 -1.4143
27863SOL     OW85788   7.741   5.522   5.821 -0.3580  0.0852 -0.2963
27863SOL    HW185789   7.662   5.537   5.769 -1.0342 -1.7666  0.1223
27863SOL    HW285790   7.711   5.526   5.912  0.2088  0.2138 -0.1092
27864SOL     OW85791   2.103   4.504   1.818  0.1644 -0.4516 -0.5714
27864SOL    HW185792   2.156   4.494   1.898  0.4660 -1.0863 -0.8417
27864SOL    HW285793   2.014   4.514   1.850  0.2970 -0.5773 -0.1471
27865SOL     OW85794   7.199   8.740   7.532  0.0462  0.0444  0.4165
27865SOL    HW185795   7.291   8.737   7.556  0.1648  3.1925  0.7935
27865SOL    HW285796   7.199   8.732   7.437  0.3788 -2.8852  0.5798
27866SOL     OW85797   7.965   2.710   1.915  0.0035 -0.3343 -0.6042
27866SOL    HW185798   7.879   2.688   1.879 -0.3562  0.5670 -0.3032
27866SOL    HW285799   7.969   2.660   1.997  0.2044 -1.1937 -1.1230
27867SOL     OW85800   8.553   8.574   7.524 -0.3431 -0.3736 -0.0157
27867SOL    HW185801   8.555   8.651   7.467 -0.7924 -0.0442  0.3956
27867SOL    HW285802   8.471   8.529   7.500 -0.3505 -0.4303  0.1171
27868SOL     OW85803   3.521   4.752   1.948 -0.3956  0.2258 -0.0801
27868SOL    HW185804   3.431   4.763   1.979  0.4688  0.3768  2.5760
27868SOL    HW285805   3.562   4.837   1.963  0.8306 -0.5373  1.1316
27869SOL     OW85806   1.021   8.187   7.419  0.4016  0.0722  0.1176
27869SOL    HW185807   0.980   8.106   7.449 -0.5300  0.8392  0.9942
27869SOL    HW285808   0.965   8.257   7.453  1.9655  1.1411  0.6418
27870SOL     OW85809   1.422   8.475   1.437  0.5367  0.2335  0.3518
27870SOL    HW185810   1.402   8.508   1.350 -1.8535 -0.0530  0.7305
27870SOL    HW285811   1.420   8.380   1.428  0.8305  0.2011  0.6034
27871SOL     OW85812   4.828   2.493   6.681 -0.2719 -0.0523 -0.2111
27871SOL    HW185813   4.883   2.423   6.717  0.1051  0.9511  1.2490
27871SOL    HW285814   4.761   2.508   6.748  0.8950  2.3985  0.5431
27872SOL     OW85815   7.564   1.305   0.867 -0.2314 -0.3216 -0.8232
27872SOL    HW185816   7.545   1.328   0.776  0.7160 -0.9749 -1.1939
27872SOL    HW285817   7.602   1.217   0.863 -0.4453 -0.4774  0.2319
27873SOL     OW85818   8.864   3.729   4.024 -0.2388 -0.2845 -0.1640
27873SOL    HW185819   8.909   3.669   3.964  0.8113  0.4438 -0.1382
27873SOL    HW285820   8.897   3.707   4.110 -1.4137 -1.0292  0.1152
27874SOL     OW85821   2.216   2.086   1.968 -0.0135 -0.1323  0.1749
27874SOL    HW185822   2.125   2.066   1.946 -0.6483  1.7642  0.9140
27874SOL    HW285823   2.262   2.080   1.884 -1.4468  2.0720 -0.8597
27875SOL     OW85824   9.181   0.676   7.124 -0.5035 -0.3438 -0.4476
27875SOL    HW185825   9.275   0.664   7.110 -0.1501  0.2262  1.2198
27875SOL    HW285826   9.162   0.761   7.087 -0.3437 -0.4194 -0.7073
27876SOL     OW85827   7.699   6.856   8.916 -0.2278 -0.2301  0.3752
27876SOL    HW185828   7.662   6.795   8.980  0.6790 -1.0919  0.1003
27876SOL    HW285829   7.741   6.924   8.969  0.2284 -0.7582  0.6947
27877SOL     OW85830   5.820   1.682   4.343  0.2774 -0.3975 -0.1235
27877SOL    HW185831   5.821   1.600   4.292 -0.6044  0.8223 -2.2258
27877SOL    HW285832   5.877   1.741   4.294 -0.4655  0.7768  0.3898
27878SOL     OW85833   6.887   1.579   1.082 -0.5681 -0.1295  0.4049
27878SOL    HW185834   6.938   1.627   1.148 -0.5364 -1.0097  1.0410
27878SOL    HW285835   6.911   1.488   1.095 -2.0011 -0.5240  0.4359
27879SOL     OW85836   2.523   3.277   0.753 -0.4091 -0.0342 -0.0095
27879SOL    HW185837   2.574   3.197   0.739  0.5681  0.4732  0.5627
27879SOL    HW285838   2.479   3.292   0.669  0.0303 -0.7352 -0.3736
27880SOL     OW85839   4.858   6.423   9.193 -0.2425  0.5320  0.6692
27880SOL    HW185840   4.900   6.482   9.256 -0.5392  1.6103 -0.1037
27880SOL    HW285841   4.766   6.426   9.215 -0.4696  1.5697 -0.2812
27881SOL     OW85842   1.819   3.545   1.738 -0.0379  0.1209 -0.2707
27881SOL    HW185843   1.733   3.584   1.752 -0.1974  0.7579 -2.6448
27881SOL    HW285844   1.822   3.473   1.801 -0.5867  2.5284  2.7595
27882SOL     OW85845   6.021   0.212   4.931 -0.1148 -0.9313 -0.0404
27882SOL    HW185846   6.024   0.238   5.022  2.1355  1.6329 -0.7305
27882SOL    HW285847   6.035   0.293   4.882  0.3182 -2.4468 -2.6095
27883SOL     OW85848   8.786   0.487   1.426  1.1452 -0.0798 -0.3609
27883SOL    HW185849   8.808   0.556   1.488  0.5403 -0.7674  0.6386
27883SOL    HW285850   8.748   0.417   1.479 -2.8418  0.7390 -1.8038
27884SOL     OW85851   3.115   8.463   8.341  0.0645 -0.0134  0.3408
27884SOL    HW185852   3.092   8.549   8.376  0.4439 -0.4040  1.6297
27884SOL    HW285853   3.039   8.436   8.289 -0.0612  1.0827 -0.0558
27885SOL     OW85854   6.078   9.456   6.568 -0.0416 -0.0534  0.3041
27885SOL    HW185855   6.127   9.419   6.495 -0.2261 -1.8849  1.0437
27885SOL    HW285856   6.054   9.543   6.539 -0.0410 -0.6881 -1.7813
27886SOL     OW85857   5.624   3.692   3.549 -0.0581 -0.0021 -0.2000
27886SOL    HW185858   5.531   3.706   3.567  0.2627  1.8372  0.1784
27886SOL    HW285859   5.666   3.694   3.635  0.4589  0.3006 -0.4520
27887SOL     OW85860   8.388   9.460   3.519  0.0936 -0.5347  0.5368
27887SOL    HW185861   8.378   9.546   3.479 -0.0360 -0.8975 -0.2175
27887SOL    HW285862   8.300   9.423   3.517  0.6022 -1.7531 -1.5938
27888SOL     OW85863   5.874   5.296   3.636 -0.6520  0.0912 -0.1886
27888SOL    HW185864   5.787   5.335   3.626 -1.2953 -0.5599  2.2810
27888SOL    HW285865   5.898   5.267   3.547 -1.7654  2.6067 -1.4108
27889SOL     OW85866   5.660   2.796   3.568  0.0638 -0.2336  0.3117
27889SOL    HW185867   5.737   2.749   3.601 -0.0890  0.8723  2.4513
27889SOL    HW285868   5.682   2.889   3.580 -1.4973  0.1076  0.8019
27890SOL     OW85869   3.893   9.131   0.097  0.3407  0.3085 -0.3410
27890SOL    HW185870   3.810   9.178   0.110  0.0691  0.2881 -1.8412
27890SOL    HW285871   3.877   9.045   0.136  0.3831  0.9847  1.2271
27891SOL     OW85872   3.979   6.052   6.983 -0.7400  0.1325  0.3341
27891SOL    HW185873   3.960   5.960   6.965  0.1157 -0.3078  1.5653
27891SOL    HW285874   4.026   6.083   6.906  2.9427 -1.7268  1.6472
27892SOL     OW85875   6.715   4.576   2.991 -0.1049  0.0511  0.1546
27892SOL    HW185876   6.717   4.528   2.908  0.5377 -0.1218  0.2612
27892SOL    HW285877   6.754   4.661   2.970  0.5334 -0.1755  0.3805
27893SOL     OW85878   3.101   0.994   2.641  0.0533  0.4450 -0.1122
27893SOL    HW185879   3.029   1.037   2.688 -0.3139 -0.2504 -0.0120
27893SOL    HW285880   3.062   0.966   2.558  0.1619 -0.0553 -0.0004
27894SOL     OW85881   4.120   2.180   5.592  0.0093  0.9589  0.6406
27894SOL    HW185882   4.094   2.108   5.534  1.2827  0.4264  0.7061
27894SOL    HW285883   4.058   2.176   5.664  0.6699 -0.7379  1.1581
27895SOL     OW85884   0.562   9.557   6.019 -0.0195  0.3713 -0.2264
27895SOL    HW185885   0.529   9.490   5.959  0.3017 -1.2499  1.3139
27895SOL    HW285886   0.642   9.519   6.056  0.9403  2.2023 -0.3077
27896SOL     OW85887   3.907   6.076   4.549  0.8558  0.1368 -0.7253
27896SOL    HW185888   3.826   6.092   4.597 -0.7822 -1.6732 -2.6782
27896SOL    HW285889   3.912   5.981   4.541  3.9518  0.0856  0.4561
27897SOL     OW85890   5.921   5.254   6.506 -0.2676 -0.1078 -0.1572
27897SOL    HW185891   5.870   5.273   6.585 -1.6698  0.0936 -1.0782
27897SOL    HW285892   5.984   5.187   6.534 -0.8839 -0.2057  1.0735
27898SOL     OW85893   8.675   8.210   3.198  0.7711 -0.6327 -0.2717
27898SOL    HW185894   8.661   8.217   3.292  2.4965 -1.1781  0.0598
27898SOL    HW285895   8.728   8.286   3.175  0.7700 -0.7593 -0.7140
27899SOL     OW85896   1.797   0.125   9.297  0.1329  0.4071 -0.4713
27899SOL    HW185897   1.739   0.107   9.223  1.0717  0.5290 -1.2608
27899SOL    HW285898   1.827   0.214   9.283 -0.0713  0.6076  0.3403
27900SOL     OW85899   0.988   7.479   2.708 -0.6300 -0.3268 -0.1599
27900SOL    HW185900   1.003   7.548   2.643  0.5425  0.0978  0.5220
27900SOL    HW285901   0.912   7.432   2.675 -0.9628  0.7794 -1.0774
27901SOL     OW85902   4.661   1.656   8.465  0.0283 -0.4652 -0.0312
27901SOL    HW185903   4.574   1.645   8.426 -0.2960 -2.2451  1.0383
27901SOL    HW285904   4.643   1.692   8.552  0.0716 -2.8958  1.0834
27902SOL     OW85905   8.586   7.100   6.565  0.2591  0.3597 -0.1219
27902SOL    HW185906   8.654   7.166   6.549  0.8235 -0.1511  0.1388
27902SOL    HW285907   8.634   7.022   6.591 -0.4202 -0.0940 -0.2073
27903SOL     OW85908   1.512   8.772   5.532 -0.0219  0.2901  0.9972
27903SOL    HW185909   1.540   8.726   5.611  1.0640 -0.3524  0.2630
27903SOL    HW285910   1.559   8.728   5.461 -1.5832  0.3417 -0.0999
27904SOL     OW85911   3.397   8.404   2.898 -0.1183  0.6665  0.3896
27904SOL    HW185912   3.355   8.364   2.975  1.4511 -1.1478  0.3838
27904SOL    HW285913   3.478   8.441   2.932  0.1988  0.5625 -0.2386
27905SOL     OW85914   8.236   5.177   6.044 -0.1521  0.3625  0.3856
27905SOL    HW185915   8.144   5.182   6.017 -0.6993  1.5527  2.2867
27905SOL    HW285916   8.268   5.267   6.038  0.6024  0.1200  0.6572
27906SOL     OW85917   5.346   1.757   5.848 -0.1045 -0.1615  0.2520
27906SOL    HW185918   5.328   1.846   5.876 -0.2086 -0.0613 -0.1198
27906SOL    HW285919   5.260   1.719   5.831 -0.0122  0.2853 -1.4338
27907SOL     OW85920   2.388   3.126   8.209  0.2126  0.0041 -0.2726
27907SOL    HW185921   2.373   3.175   8.129  2.6815  0.7533 -0.3824
27907SOL    HW285922   2.381   3.191   8.279 -0.0625 -0.2512 -0.0588
27908SOL     OW85923   3.977   4.665   0.403  0.4312  0.4367 -0.2818
27908SOL    HW185924   3.949   4.578   0.431  1.2254  0.0448 -0.6926
27908SOL    HW285925   3.959   4.666   0.309  0.5739  0.6620 -0.3068
27909SOL     OW85926   8.083   5.809   1.149  0.4363  0.3835 -0.1362
27909SOL    HW185927   8.053   5.782   1.235 -1.2071 -1.3878 -1.1756
27909SOL    HW285928   8.148   5.744   1.124 -0.8886 -0.5897 -1.1882
27910SOL     OW85929   5.219   1.176   8.391  0.2467  0.3733 -0.1500
27910SOL    HW185930   5.174   1.092   8.382 -1.1861  1.2026 -1.0685
27910SOL    HW285931   5.301   1.155   8.437 -0.6350 -1.3246  0.7298
27911SOL     OW85932   6.774   5.159   5.267  0.1211 -0.7514  0.8088
27911SOL    HW185933   6.708   5.104   5.225  0.2878 -1.6911  1.7316
27911SOL    HW285934   6.852   5.149   5.213  0.4945 -2.3775  1.5937
27912SOL     OW85935   3.472   3.434   7.078 -0.2572  0.0441 -0.0619
27912SOL    HW185936   3.549   3.424   7.135  0.1556 -1.0688 -0.7735
27912SOL    HW285937   3.508   3.461   6.994 -0.6489 -0.4212 -0.3843
27913SOL     OW85938   6.160   2.002   7.667 -0.5008  0.7190 -0.4507
27913SOL    HW185939   6.254   2.007   7.680 -0.6959  1.6183  0.7285
27913SOL    HW285940   6.130   2.093   7.664 -1.4269  0.4481 -0.0177
27914SOL     OW85941   9.225   4.763   4.710  0.2451  0.8410  0.0716
27914SOL    HW185942   9.302   4.786   4.761  0.8354  1.1011 -0.9146
27914SOL    HW285943   9.259   4.742   4.623 -0.4982 -1.5557  0.2765
27915SOL     OW85944   2.976   2.113   7.647  0.3729 -0.0526  0.7672
27915SOL    HW185945   3.038   2.088   7.715  0.0510  0.3653  1.2242
27915SOL    HW285946   2.892   2.080   7.679  0.3384 -0.5020  0.2168
27916SOL     OW85947   1.803   1.813   0.419  0.1087 -0.0952 -0.4656
27916SOL    HW185948   1.745   1.791   0.492  0.6916 -1.0438 -0.2827
27916SOL    HW285949   1.869   1.870   0.458 -0.3686  0.5318 -0.5565
27917SOL     OW85950   5.671   5.505   4.730  0.1287  0.2827  0.0440
27917SOL    HW185951   5.663   5.558   4.810 -1.4335 -1.0716  0.8545
27917SOL    HW285952   5.732   5.435   4.754 -0.8978 -0.5381  0.3171
27918SOL     OW85953   0.380   2.625   5.091  0.1350  0.1047 -0.3671
27918SOL    HW185954   0.378   2.711   5.134 -0.5317  0.0348 -0.2444
27918SOL    HW285955   0.400   2.644   4.999  0.0001  0.3880 -0.3379
27919SOL     OW85956   3.255   7.399   5.262 -0.6510  0.0749  0.0030
27919SOL    HW185957   3.340   7.421   5.301 -1.0218  1.1212  0.2431
27919SOL    HW285958   3.267   7.416   5.168 -0.6894  0.5347  0.0799
27920SOL     OW85959   4.558   9.429   4.663  0.4149  0.1589 -0.3158
27920SOL    HW185960   4.514   9.510   4.636  0.7374  0.9470  1.3999
27920SOL    HW285961   4.649   9.442   4.637  0.1254 -0.5212 -1.8097
27921SOL     OW85962   7.298   1.530   7.395  0.1109 -0.7498  0.0946
27921SOL    HW185963   7.357   1.543   7.320 -0.1512  0.5702  0.0897
27921SOL    HW285964   7.349   1.476   7.456  1.6219  0.9112  0.3911
27922SOL     OW85965   8.410   0.859   2.931  0.3698 -0.3805  0.8478
27922SOL    HW185966   8.321   0.832   2.908  0.8144  0.4286 -2.1290
27922SOL    HW285967   8.405   0.955   2.935  1.3659 -0.2411 -0.7402
27923SOL     OW85968   7.628   8.508   6.810 -0.2371 -0.3254  0.6462
27923SOL    HW185969   7.681   8.588   6.811 -2.2319  1.0760  1.8801
27923SOL    HW285970   7.552   8.530   6.755 -0.2716 -1.7877  0.0646
27924SOL     OW85971   6.237   3.167   4.050  0.0469  0.4714  0.7227
27924SOL    HW185972   6.193   3.113   4.116 -1.5440 -1.5239 -1.7746
27924SOL    HW285973   6.302   3.110   4.011 -0.8099  0.6836 -1.1328
27925SOL     OW85974   8.415   1.589   5.205 -0.1863 -0.0625  0.0738
27925SOL    HW185975   8.422   1.641   5.285  0.1710 -0.0055  0.0094
27925SOL    HW285976   8.422   1.653   5.135 -0.6134 -0.1001 -0.0030
27926SOL     OW85977   4.683   3.542   8.263  0.5407 -0.5852  0.4026
27926SOL    HW185978   4.643   3.564   8.347  1.0738  0.3416  0.4274
27926SOL    HW285979   4.693   3.627   8.219  0.8418 -1.0001 -0.3363
27927SOL     OW85980   2.535   1.957   0.994 -0.3954 -0.3637  0.7150
27927SOL    HW185981   2.513   2.011   1.070 -0.9589  0.7447 -0.2040
27927SOL    HW285982   2.451   1.933   0.956 -0.1131 -0.4375  0.1205
27928SOL     OW85983   0.437   9.280   2.108 -0.0658  0.0184 -0.1132
27928SOL    HW185984   0.384   9.235   2.174  0.9833  0.7356  1.2768
27928SOL    HW285985   0.389   9.361   2.090 -0.2682 -0.0950 -0.0836
27929SOL     OW85986   4.434   6.978   8.407  0.2041 -0.1337  0.1788
27929SOL    HW185987   4.497   6.935   8.348 -0.0259 -1.0835  0.5998
27929SOL    HW285988   4.486   6.998   8.485  0.0789 -0.6160  0.3942
27930SOL     OW85989   6.820   7.792   5.284 -0.2240  0.0876  0.7499
27930SOL    HW185990   6.858   7.865   5.334 -2.2952  1.2395  0.7452
27930SOL    HW285991   6.852   7.805   5.195  2.7047 -1.4201  1.4507
27931SOL     OW85992   8.737   3.481   3.702  0.2933 -0.3644  0.8598
27931SOL    HW185993   8.729   3.417   3.632 -0.3391  0.0951  0.5047
27931SOL    HW285994   8.752   3.564   3.658  0.0375 -0.0935  1.2699
27932SOL     OW85995   6.624   9.244   6.664 -0.0538  0.2457  0.6064
27932SOL    HW185996   6.613   9.191   6.584 -0.0893  0.9698  0.1229
27932SOL    HW285997   6.538   9.281   6.680  0.8005  3.7634 -1.6607
27933SOL     OW85998   0.447   0.197   9.500  0.2866 -0.3104  0.0482
27933SOL    HW185999   0.363   0.200   9.547 -1.0250  2.6667 -2.1065
27933SOL    HW286000   0.481   0.286   9.509  2.4507 -1.0374 -0.5299
27934SOL     OW86001   0.473   8.793   7.322  0.2459 -0.3300 -0.4555
27934SOL    HW186002   0.493   8.707   7.360  1.3163 -0.0234 -0.3027
27934SOL    HW286003   0.382   8.785   7.293 -0.0687 -1.1070  0.6721
27935SOL     OW86004   2.726   6.049   4.766 -0.3828 -0.3880  0.0998
27935SOL    HW186005   2.783   6.124   4.781 -0.4268 -0.2592 -0.3885
27935SOL    HW286006   2.639   6.086   4.757 -0.3442 -0.4604 -0.5719
27936SOL     OW86007   8.906   7.998   7.943  0.2737  0.1795  0.0602
27936SOL    HW186008   8.952   7.979   8.025  1.6773 -0.9392 -0.9452
27936SOL    HW286009   8.900   7.914   7.899  0.5178  0.9454 -1.4825
27937SOL     OW86010   6.811   0.217   4.534  0.2202 -0.1435  0.1935
27937SOL    HW186011   6.754   0.196   4.460  0.0738 -1.0748  0.5639
27937SOL    HW286012   6.899   0.202   4.501  0.1064 -1.9740  0.6108
27938SOL     OW86013   7.338   8.323   3.180  0.2413  0.1817 -0.0713
27938SOL    HW186014   7.430   8.302   3.164  0.5787  0.6092  1.2100
27938SOL    HW286015   7.294   8.305   3.096  1.6074  0.6837 -0.9223
27939SOL     OW86016   0.785   6.089   3.827  0.3410 -0.2496  0.3148
27939SOL    HW186017   0.740   6.138   3.758 -0.8076 -0.0245  1.2028
27939SOL    HW286018   0.830   6.018   3.780  0.0840  0.2587 -0.7236
27940SOL     OW86019   1.592   5.765   7.239  0.5373  0.3393  0.2961
27940SOL    HW186020   1.606   5.728   7.152 -0.2010  0.2845  0.1964
27940SOL    HW286021   1.571   5.857   7.222 -0.6928  0.0798  0.3324
27941SOL     OW86022   1.287   6.821   9.065  0.1790  0.6014  0.0485
27941SOL    HW186023   1.374   6.853   9.089  0.9342  0.5788 -2.3417
27941SOL    HW286024   1.274   6.853   8.976 -1.7910 -0.3641 -0.0616
27942SOL     OW86025   7.966   6.012   2.106 -0.0350 -0.0757  0.3195
27942SOL    HW186026   7.949   5.979   2.194 -1.4865  1.0545  0.4933
27942SOL    HW286027   7.981   6.106   2.119  1.3068 -0.1631 -0.4703
27943SOL     OW86028   0.917   6.091   9.000 -0.0135 -0.1785 -0.1356
27943SOL    HW186029   0.823   6.089   9.014 -0.5013  0.1108 -2.8911
27943SOL    HW286030   0.941   6.000   8.982  0.5165 -0.4607  1.7074
27944SOL     OW86031   6.530   4.931   0.689  0.4094 -0.4666  0.0336
27944SOL    HW186032   6.467   4.976   0.633 -0.8280 -1.6970  0.3711
27944SOL    HW286033   6.579   4.874   0.630  1.3782  0.6437 -0.2617
27945SOL     OW86034   1.099   1.001   6.657  0.6564 -0.0779  0.1005
27945SOL    HW186035   1.190   1.011   6.631  0.5265  0.8936 -0.0390
27945SOL    HW286036   1.064   0.933   6.599  1.7378 -1.8080  1.3793
27946SOL     OW86037   0.402   4.157   4.952  0.6087  0.6508  0.0655
27946SOL    HW186038   0.484   4.165   4.904 -0.1888 -0.5195 -1.5874
27946SOL    HW286039   0.347   4.100   4.897  0.2184 -2.2758  3.1143
27947SOL     OW86040   4.275   4.786   8.870 -0.2069 -0.0660 -0.0096
27947SOL    HW186041   4.359   4.826   8.846  0.0497  0.0767  1.0675
27947SOL    HW286042   4.293   4.740   8.951 -0.8146 -1.3328 -0.5736
27948SOL     OW86043   9.424   5.387   9.492  0.0076 -0.6004 -0.0446
27948SOL    HW186044   9.386   5.403   9.578 -0.4494  2.0523 -0.6426
27948SOL    HW286045   9.414   5.293   9.478 -0.9184 -0.9204  2.3083
27949SOL     OW86046   3.704   3.402   6.569 -0.0804 -1.0264  0.0691
27949SOL    HW186047   3.779   3.424   6.623  1.1291 -1.9357 -1.1616
27949SOL    HW286048   3.731   3.424   6.480 -1.0857 -1.8193 -0.4594
27950SOL     OW86049   3.881   5.539   5.847  0.2720 -0.3545 -0.2496
27950SOL    HW186050   3.873   5.531   5.752  0.2848 -0.7766 -0.2192
27950SOL    HW286051   3.790   5.532   5.879 -0.1072  2.6284 -0.3989
27951SOL     OW86052   0.471   1.797   8.974  0.4881 -0.4490 -0.0626
27951SOL    HW186053   0.414   1.838   9.039 -0.9862 -2.7179  0.1904
27951SOL    HW286054   0.558   1.833   8.992 -0.4266  1.3802  1.0542
27952SOL     OW86055   1.034   1.167   9.383 -0.5749  0.0773 -0.4264
27952SOL    HW186056   0.942   1.145   9.367 -1.1144  0.4592  1.8446
27952SOL    HW286057   1.037   1.190   9.476  1.1754  3.4069 -1.1680
27953SOL     OW86058   0.598   6.980   6.318 -0.2939 -0.0152  0.8616
27953SOL    HW186059   0.557   6.899   6.349 -0.2772  0.3073  1.7570
27953SOL    HW286060   0.538   7.013   6.251 -0.8260 -0.2279  1.2266
27954SOL     OW86061   0.067   5.796   9.024 -0.0342  0.2025 -0.2348
27954SOL    HW186062   0.002   5.845   8.974  0.0661 -0.2426 -0.8089
27954SOL    HW286063   0.142   5.856   9.032  0.5625 -0.2546 -1.9718
27955SOL     OW86064   7.369   0.921   2.148 -0.3291 -0.2399 -0.2599
27955SOL    HW186065   7.383   0.843   2.202 -3.2580 -0.0925  0.8590
27955SOL    HW286066   7.338   0.887   2.065  0.3409 -0.3095 -0.4899
27956SOL     OW86067   7.139   3.460   1.050  0.2608  0.1786 -0.4505
27956SOL    HW186068   7.201   3.388   1.040 -0.3559 -0.4780  0.2972
27956SOL    HW286069   7.053   3.417   1.056 -0.2247  1.0402 -1.0151
27957SOL     OW86070   1.697   5.695   3.040 -0.8438 -0.3867  0.5580
27957SOL    HW186071   1.704   5.611   2.994 -0.8052 -0.7853  1.2891
27957SOL    HW286072   1.724   5.760   2.974  1.9569 -1.1808  0.8079
27958SOL     OW86073   4.673   6.070   7.891  0.3570 -0.4603 -0.6985
27958SOL    HW186074   4.581   6.059   7.867 -0.0458  2.2478 -0.7006
27958SOL    HW286075   4.715   6.098   7.810  0.3456  2.1228  0.1193
27959SOL     OW86076   0.451   9.097   6.785  0.0283 -0.1969  0.0667
27959SOL    HW186077   0.430   9.095   6.692 -0.3860  0.6064  0.1329
27959SOL    HW286078   0.490   9.183   6.800 -0.4930 -0.0634  0.7452
27960SOL     OW86079   1.904   5.791   8.633 -0.2295 -0.0715 -0.1971
27960SOL    HW186080   1.842   5.864   8.632  0.8647  0.9000  0.0326
27960SOL    HW286081   1.985   5.828   8.598  0.4124 -1.1185  0.1250
27961SOL     OW86082   5.503   2.864   3.012  0.0100  0.0524  0.5209
27961SOL    HW186083   5.437   2.913   2.963  0.2473 -0.3533 -0.2313
27961SOL    HW286084   5.510   2.780   2.965  0.4231 -0.2518  1.1126
27962SOL     OW86085   5.600   8.800   7.239  0.0091 -0.1101 -0.6949
27962SOL    HW186086   5.564   8.761   7.160  1.3647 -0.6092 -1.1031
27962SOL    HW286087   5.687   8.760   7.248 -0.0861 -0.0120  1.0049
27963SOL     OW86088   3.458   0.333   4.794 -0.2617 -0.2340  0.3310
27963SOL    HW186089   3.548   0.342   4.823 -0.7188 -0.8343  2.0179
27963SOL    HW286090   3.424   0.423   4.793  0.4232  0.0358 -0.6646
27964SOL     OW86091   3.866   4.859   1.996 -0.1094  0.2625 -0.0669
27964SOL    HW186092   3.933   4.791   2.002 -0.6166 -0.2897 -0.4869
27964SOL    HW286093   3.876   4.894   1.907 -0.6169 -0.0880 -0.2673
27965SOL     OW86094   7.696   4.928   0.151 -0.7629  0.6233 -0.5750
27965SOL    HW186095   7.755   4.942   0.225 -0.4941  0.5540 -0.7738
27965SOL    HW286096   7.638   4.858   0.179  1.3880 -1.7089 -1.6068
27966SOL     OW86097   2.162   5.892   5.125  0.0140  0.0583  0.0134
27966SOL    HW186098   2.093   5.828   5.144 -1.4577  1.3916 -0.5615
27966SOL    HW286099   2.131   5.973   5.164  1.9962  0.3961  1.0014
27967SOL     OW86100   2.591   5.630   4.964  0.5317  0.7396  0.2967
27967SOL    HW186101   2.628   5.715   4.943  0.0522  0.8031 -0.2821
27967SOL    HW286102   2.620   5.613   5.054  2.3967  0.5656 -0.2929
27968SOL     OW86103   1.605   8.133   7.870  0.3468 -0.1330  0.0935
27968SOL    HW186104   1.521   8.168   7.842 -0.1074  0.4379  2.0246
27968SOL    HW286105   1.619   8.171   7.957  2.7019 -0.0567 -0.2609
27969SOL     OW86106   8.777   4.469   7.359  0.2522  1.4785 -0.1191
27969SOL    HW186107   8.843   4.428   7.303 -0.7553 -0.5728  0.0902
27969SOL    HW286108   8.799   4.440   7.447 -1.4085 -0.0550 -0.1469
27970SOL     OW86109   3.431   8.086   5.895  0.1343  0.3403  0.2797
27970SOL    HW186110   3.416   8.147   5.967  0.7172  0.9204 -0.0778
27970SOL    HW286111   3.512   8.040   5.918 -0.5930 -0.7119  0.8149
27971SOL     OW86112   5.270   9.197   7.877 -0.4054 -0.4888  0.0134
27971SOL    HW186113   5.276   9.117   7.825 -0.4784  0.1721 -1.0454
27971SOL    HW286114   5.355   9.238   7.868 -0.5311 -0.1987  0.1446
27972SOL     OW86115   1.639   5.621   8.363  0.2846  0.1495 -0.2005
27972SOL    HW186116   1.686   5.542   8.337 -0.5857 -0.7721  0.9018
27972SOL    HW286117   1.563   5.625   8.305  0.3974  0.2600 -0.3430
27973SOL     OW86118   4.016   4.702   7.628  0.1784 -0.1693  0.0679
27973SOL    HW186119   4.093   4.658   7.592  0.7787  0.2744  0.8018
27973SOL    HW286120   3.955   4.708   7.554  0.6555 -0.9402 -0.3978
27974SOL     OW86121   8.855   5.814   0.538  0.6850  0.1925  0.5747
27974SOL    HW186122   8.768   5.795   0.503  0.5743  0.5348  0.6544
27974SOL    HW286123   8.897   5.729   0.545  0.7356  0.1237 -0.4393
27975SOL     OW86124   5.878   6.334   7.403 -0.6846  0.3729 -0.0323
27975SOL    HW186125   5.923   6.336   7.488 -1.4178  2.1548  0.3701
27975SOL    HW286126   5.785   6.333   7.426 -0.8768 -0.4755 -0.8323
27976SOL     OW86127   7.927   7.032   4.299  0.0903  0.2460 -0.4611
27976SOL    HW186128   7.916   7.117   4.342 -0.4651  1.0170 -2.0470
27976SOL    HW286129   7.992   6.987   4.352 -2.7851 -0.1825  3.0923
27977SOL     OW86130   9.546   3.620   8.289 -0.1938  0.3465 -0.1230
27977SOL    HW186131   9.574   3.634   8.198  1.0221  0.4514  0.2563
27977SOL    HW286132   9.564   3.527   8.305 -1.1325  0.1347 -0.2157
27978SOL     OW86133   2.285   8.604   8.864  0.2951 -0.1206  0.7549
27978SOL    HW186134   2.313   8.667   8.797 -1.4200  0.2072  0.2680
27978SOL    HW286135   2.356   8.541   8.870  1.0279  0.5451 -0.4827
27979SOL     OW86136   6.571   3.256   9.342  0.1689 -0.2073 -0.5629
27979SOL    HW186137   6.528   3.312   9.277 -0.3440 -1.0195 -0.9282
27979SOL    HW286138   6.531   3.170   9.331 -0.5010 -0.1932  1.3608
27980SOL     OW86139   4.775   1.913   1.204 -0.0426  0.0198  0.5417
27980SOL    HW186140   4.772   1.879   1.294  0.2155  1.4117  1.1113
27980SOL    HW286141   4.684   1.918   1.177 -0.0827 -1.1707  0.4047
27981SOL     OW86142   1.362   4.442   8.800 -0.2120  0.6001 -0.1851
27981SOL    HW186143   1.308   4.364   8.794 -1.2933  0.7594  4.2331
27981SOL    HW286144   1.307   4.512   8.765  0.0679 -0.2426 -2.4627
27982SOL     OW86145   6.265   4.723   2.748  0.3133  0.4752  0.3119
27982SOL    HW186146   6.318   4.661   2.698  0.2153  0.6283  0.0079
27982SOL    HW286147   6.274   4.696   2.839 -0.0730 -0.2422  0.1439
27983SOL     OW86148   5.722   8.292   8.403  0.1726  0.0418 -0.4880
27983SOL    HW186149   5.634   8.266   8.430  0.9735 -0.9556  1.3398
27983SOL    HW286150   5.762   8.326   8.483  2.0668 -1.2969 -0.8151
27984SOL     OW86151   8.596   3.910   2.034 -0.4765 -0.2942  0.2490
27984SOL    HW186152   8.622   3.946   2.119  0.9458 -1.1981  0.2363
27984SOL    HW286153   8.639   3.966   1.969  2.1703 -2.1429  0.2338
27985SOL     OW86154   5.454   5.229   9.260  0.0367  0.5561  0.6921
27985SOL    HW186155   5.506   5.211   9.182 -0.3605 -2.2539  1.0003
27985SOL    HW286156   5.517   5.223   9.332 -0.5959 -2.9981  1.0800
27986SOL     OW86157   9.422   1.358   7.835 -0.6764 -0.1174 -0.1097
27986SOL    HW186158   9.405   1.435   7.781 -0.7595  0.4079  0.6513
27986SOL    HW286159   9.337   1.315   7.845 -0.7892  0.1731  0.1842
27987SOL     OW86160   8.113   3.154   5.912 -0.4581  0.1834 -0.0480
27987SOL    HW186161   8.184   3.149   5.848 -0.9740 -0.3579 -0.5794
27987SOL    HW286162   8.033   3.160   5.860 -0.7361  2.1012  0.5491
27988SOL     OW86163   5.774   7.170   8.690 -0.6760  0.1249  0.2290
27988SOL    HW186164   5.826   7.090   8.689 -0.6131  0.1162 -2.0239
27988SOL    HW286165   5.798   7.215   8.609 -1.1517  2.1513  1.1495
27989SOL     OW86166   1.777   7.847   4.888  0.0277 -0.2181  0.1137
27989SOL    HW186167   1.784   7.855   4.983 -1.0723  1.3772  0.0902
27989SOL    HW286168   1.685   7.862   4.869 -0.1430 -2.3195 -1.0881
27990SOL     OW86169   5.722   5.036   4.250  0.0530 -0.5310 -0.2707
27990SOL    HW186170   5.674   5.118   4.245 -0.5437 -0.9186 -1.2532
27990SOL    HW286171   5.808   5.056   4.212  1.4883  0.6564  3.2004
27991SOL     OW86172   9.217   2.915   9.484 -0.1696  0.0847 -0.3358
27991SOL    HW186173   9.224   2.841   9.545 -1.1948  0.8606  0.7700
27991SOL    HW286174   9.197   2.990   9.540  1.5196  1.3745 -1.3400
27992SOL     OW86175   0.776   0.164   4.912 -0.7242  0.3710 -0.2872
27992SOL    HW186176   0.860   0.129   4.882 -1.7994 -1.7824 -1.0071
27992SOL    HW286177   0.788   0.179   5.005  0.7476  1.0804 -0.5629
27993SOL     OW86178   3.290   7.992   5.056  0.0127 -0.1761 -0.2703
27993SOL    HW186179   3.352   7.968   4.988  0.2642  2.7660 -1.2404
27993SOL    HW286180   3.315   7.939   5.132  4.2769  1.3336 -0.3393
27994SOL     OW86181   5.112   8.549   9.097 -0.1859  0.2287  0.1064
27994SOL    HW186182   5.199   8.519   9.123 -0.5700  0.2400  1.4501
27994SOL    HW286183   5.125   8.582   9.007  1.3946  1.0978  0.5978
27995SOL     OW86184   8.734   7.830   3.696 -0.2623  0.4531 -0.2009
27995SOL    HW186185   8.796   7.772   3.742  0.1954  1.4246  0.4389
27995SOL    HW286186   8.650   7.813   3.739 -0.2116 -0.0008 -0.2710
27996SOL     OW86187   5.843   6.238   3.542  0.4804 -0.0350 -0.1171
27996SOL    HW186188   5.825   6.221   3.449 -3.0932  0.5965  0.2930
27996SOL    HW286189   5.901   6.314   3.541  0.8781 -0.3128 -1.8191
27997SOL     OW86190   5.401   3.524   0.228 -0.2880 -0.4820  0.1655
27997SOL    HW186191   5.407   3.535   0.133 -3.0489  0.5248  0.0025
27997SOL    HW286192   5.441   3.603   0.265  0.8421 -0.9034 -0.1257
27998SOL     OW86193   1.013   8.972   1.476 -0.3409 -0.4110 -0.4310
27998SOL    HW186194   0.934   8.969   1.529 -0.1303  0.6689 -0.0450
27998SOL    HW286195   1.004   9.050   1.422  0.6893  0.0117 -0.0146
27999SOL     OW86196   7.925   9.573   7.671  0.7043 -0.5307  0.4833
27999SOL    HW186197   7.896   9.623   7.748  2.9218 -0.2549  1.2078
27999SOL    HW286198   7.978   9.503   7.707 -2.0695 -3.4094 -0.5379
28000SOL     OW86199   6.704   2.497   3.817 -0.0184  0.7089  0.2816
28000SOL    HW186200   6.617   2.482   3.855  0.3135  0.5893  1.0064
28000SOL    HW286201   6.688   2.505   3.723 -0.5837 -1.1994  0.1783
28001SOL     OW86202   6.035   8.638   5.879 -0.2387  0.2973 -0.6081
28001SOL    HW186203   6.003   8.616   5.967 -0.3537  0.8566 -0.5017
28001SOL    HW286204   6.100   8.708   5.895 -0.9158  1.0384 -1.0351
28002SOL     OW86205   0.012   5.452   6.559 -0.1634  0.0899 -0.1410
28002SOL    HW186206   0.024   5.379   6.498 -0.3039  1.1525 -1.5009
28002SOL    HW286207   0.012   5.530   6.503  0.2960  1.1693  1.3008
28003SOL     OW86208   1.107   1.606   7.612 -0.5117  0.0922 -0.5854
28003SOL    HW186209   1.198   1.582   7.599  0.0613  2.2086 -0.7994
28003SOL    HW286210   1.085   1.573   7.699  1.0183  1.0705  0.2083
28004SOL     OW86211   1.374   7.290   6.871  0.0334  0.5752  0.0755
28004SOL    HW186212   1.333   7.346   6.937 -0.6230 -0.4784  0.5938
28004SOL    HW286213   1.323   7.305   6.792 -0.4095  0.3953  0.3232
28005SOL     OW86214   5.138   0.613   1.173  1.4669  0.0889  0.0516
28005SOL    HW186215   5.132   0.709   1.170  0.3460  0.0206 -1.6638
28005SOL    HW286216   5.220   0.593   1.126  1.2747  0.1943 -0.3363
28006SOL     OW86217   6.501   6.599   8.643  0.6295  0.5608  0.0345
28006SOL    HW186218   6.533   6.579   8.555 -2.1597  0.7084 -1.1317
28006SOL    HW286219   6.531   6.527   8.697 -0.1718 -1.2091 -1.7632
28007SOL     OW86220   1.793   9.418   9.059  0.5888  0.5863  0.2161
28007SOL    HW186221   1.736   9.494   9.044  0.0017  0.1700  0.3100
28007SOL    HW286222   1.834   9.436   9.144  0.2742  0.6886  0.3485
28008SOL     OW86223   2.832   2.844   7.712  0.4600 -0.1048  0.5086
28008SOL    HW186224   2.757   2.785   7.725  0.3986  0.3773  2.8337
28008SOL    HW286225   2.906   2.796   7.750  0.9763  0.1659 -0.1502
28009SOL     OW86226   0.590   9.488   8.546 -0.1503  0.4383  0.1973
28009SOL    HW186227   0.672   9.447   8.522 -1.1319 -0.4808 -1.7880
28009SOL    HW286228   0.595   9.576   8.511  0.4148  0.7809  1.0976
28010SOL     OW86229   1.037   0.458   5.214  0.5879  0.6785  0.4834
28010SOL    HW186230   1.061   0.369   5.188 -0.2967  0.4935  0.2950
28010SOL    HW286231   1.051   0.459   5.309  3.6201  1.2926  0.1380
28011SOL     OW86232   4.908   9.502   6.274  0.7771 -0.8618 -0.4278
28011SOL    HW186233   4.924   9.568   6.208 -0.6960 -0.9042 -0.8619
28011SOL    HW286234   4.975   9.436   6.259  0.9753 -0.4637 -1.3293
28012SOL     OW86235   5.032   8.949   2.145 -0.6918 -0.4013  0.2971
28012SOL    HW186236   4.951   8.918   2.103 -1.6491  0.6161  1.3137
28012SOL    HW286237   5.046   9.036   2.107  0.9903 -1.2589 -1.2268
28013SOL     OW86238   1.185   7.192   4.397  0.1934  0.0080  0.4252
28013SOL    HW186239   1.109   7.140   4.369  0.4690 -1.5612  2.2959
28013SOL    HW286240   1.170   7.206   4.491  2.3575 -0.6791  0.9293
28014SOL     OW86241   3.162   2.994   2.427  0.0726  0.1150 -0.4188
28014SOL    HW186242   3.145   3.061   2.493  1.9679  3.2783 -2.7780
28014SOL    HW286243   3.116   3.026   2.349  0.8775 -1.4619 -1.5954
28015SOL     OW86244   7.091   3.741   6.818 -0.8645  0.1209  0.1195
28015SOL    HW186245   7.171   3.764   6.770 -0.0150 -0.9229  0.9702
28015SOL    HW286246   7.050   3.673   6.765 -0.3111 -0.5114  0.4886
28016SOL     OW86247   1.496   7.496   1.112 -0.2640  0.4002  0.0600
28016SOL    HW186248   1.562   7.547   1.158  0.4730 -0.4694 -0.0188
28016SOL    HW286249   1.414   7.542   1.130  0.4513  2.0080 -0.5728
28017SOL     OW86250   3.859   8.727   6.267 -0.5029 -0.6942  0.2425
28017SOL    HW186251   3.777   8.716   6.316 -2.3138  0.7882 -2.2344
28017SOL    HW286252   3.906   8.794   6.316 -2.0389  0.4202  0.2684
28018SOL     OW86253   1.396   0.675   7.730  0.1037 -0.1471  0.8909
28018SOL    HW186254   1.409   0.769   7.738 -0.3667 -0.0014  0.1243
28018SOL    HW286255   1.476   0.643   7.689  0.8746 -0.3141  2.4787
28019SOL     OW86256   7.459   6.651   5.100 -0.2742 -0.2621  0.6689
28019SOL    HW186257   7.486   6.742   5.087 -1.4449 -0.0201 -0.2224
28019SOL    HW286258   7.437   6.646   5.193 -3.0757  1.2268  0.1884
28020SOL     OW86259   6.104   3.227   2.220  0.2223  0.2082 -0.8213
28020SOL    HW186260   6.145   3.303   2.261  0.4491 -1.2331  1.8382
28020SOL    HW286261   6.175   3.182   2.175  0.5306  0.4089 -0.5353
28021SOL     OW86262   4.358   1.670   2.795 -0.4538  0.3572 -0.3305
28021SOL    HW186263   4.337   1.599   2.735 -1.8207 -0.5375  1.1275
28021SOL    HW286264   4.448   1.653   2.822 -0.1177  0.2913 -1.4323
28022SOL     OW86265   7.962   0.337   9.041 -0.0574  0.6058  0.6574
28022SOL    HW186266   7.937   0.405   8.979 -0.4346  1.7503  2.0083
28022SOL    HW286267   8.020   0.382   9.103  0.5920 -0.5811  0.9396
28023SOL     OW86268   7.833   3.576   2.753  0.1141  0.1195  0.4440
28023SOL    HW186269   7.860   3.563   2.662  1.7254 -0.5150  0.9737
28023SOL    HW286270   7.761   3.514   2.766  0.9274 -0.9374  0.0409
28024SOL     OW86271   3.711   4.109   6.018 -0.1802  0.2846  0.1656
28024SOL    HW186272   3.757   4.055   6.082  0.8658 -0.0058 -0.8087
28024SOL    HW286273   3.648   4.049   5.978  1.3002 -0.4150 -1.2508
28025SOL     OW86274   6.490   4.002   2.098 -0.0394 -0.0973 -0.4557
28025SOL    HW186275   6.451   4.037   2.017 -0.7690  0.7506  0.2430
28025SOL    HW286276   6.572   3.962   2.069 -0.0881  0.5477 -1.5610
28026SOL     OW86277   4.252   1.599   2.352 -0.2121 -0.2969 -0.3374
28026SOL    HW186278   4.228   1.543   2.425  1.5253 -0.2471  0.3226
28026SOL    HW286279   4.281   1.681   2.393  1.3416 -0.4776 -0.9994
28027SOL     OW86280   1.746   3.816   9.542 -0.3813  0.5694  0.1231
28027SOL    HW186281   1.778   3.780   9.625 -0.4143 -0.1502 -0.1652
28027SOL    HW286282   1.814   3.792   9.479 -1.4562 -0.9942 -0.5071
28028SOL     OW86283   8.541   0.261   3.872 -0.1665  0.2645 -0.3463
28028SOL    HW186284   8.572   0.218   3.793  0.8244  1.5174 -0.6817
28028SOL    HW286285   8.449   0.239   3.878  0.1209 -1.1646 -0.9590
28029SOL     OW86286   8.179   3.438   2.295 -0.0191 -0.1534 -0.3108
28029SOL    HW186287   8.159   3.360   2.347 -0.7058 -0.6764 -1.3120
28029SOL    HW286288   8.246   3.484   2.345  2.2609 -2.6352 -0.7870
28030SOL     OW86289   6.634   5.977   7.716 -0.1013  0.0796  0.2730
28030SOL    HW186290   6.575   6.046   7.685  0.1278  0.1007 -0.1377
28030SOL    HW286291   6.702   5.974   7.649  0.1945 -0.1567  0.5837
28031SOL     OW86292   2.417   6.362   8.019 -0.0021 -0.5959 -0.0548
28031SOL    HW186293   2.378   6.371   8.106 -0.3970 -1.4405 -0.1343
28031SOL    HW286294   2.354   6.401   7.959  0.5116  0.4715  0.0792
28032SOL     OW86295   8.421   3.076   9.298 -0.1742  0.4720 -0.0643
28032SOL    HW186296   8.404   3.124   9.217  0.4155 -0.1853 -0.5907
28032SOL    HW286297   8.509   3.042   9.287  0.1451  0.8764  1.1193
28033SOL     OW86298   6.649   3.931   2.679  0.3230 -0.0936  0.4169
28033SOL    HW186299   6.673   3.993   2.748  1.4099 -0.2224  0.1802
28033SOL    HW286300   6.707   3.954   2.606 -0.7051 -0.0494 -0.4176
28034SOL     OW86301   7.605   5.101   2.678 -0.7445  0.2167  0.4704
28034SOL    HW186302   7.623   5.129   2.767 -0.3303  0.6185  0.2593
28034SOL    HW286303   7.682   5.050   2.652 -1.1786 -0.5170  0.5968
28035SOL     OW86304   6.920   2.730   2.966 -0.6076 -0.1195 -0.9076
28035SOL    HW186305   6.880   2.817   2.963 -1.3923 -0.4074  0.3632
28035SOL    HW286306   6.873   2.679   2.900 -0.0482  0.4501 -1.7546
28036SOL     OW86307   7.837   4.596   4.336 -0.0654 -0.3358 -0.2864
28036SOL    HW186308   7.917   4.641   4.362 -0.9659  0.9871  0.3452
28036SOL    HW286309   7.862   4.542   4.262  1.4392 -0.0777  0.0078
28037SOL     OW86310   3.617   0.846   8.669 -0.1305 -0.1016 -0.3071
28037SOL    HW186311   3.543   0.792   8.642 -0.2703  0.5509 -1.2863
28037SOL    HW286312   3.677   0.844   8.594 -0.8113  2.2560 -1.0148
28038SOL     OW86313   0.045   4.360   8.606 -0.1766  0.4793 -0.3687
28038SOL    HW186314   0.107   4.410   8.660 -0.8515  2.4104 -1.2815
28038SOL    HW286315  -0.034   4.415   8.604 -1.5692 -1.4266 -0.0997
28039SOL     OW86316   2.825   8.689   3.872 -0.5909  0.0260 -0.3670
28039SOL    HW186317   2.893   8.665   3.809  1.3643  0.4213  1.4889
28039SOL    HW286318   2.869   8.744   3.936 -2.5829 -0.0125  1.1487
28040SOL     OW86319   4.663   1.674   9.561 -0.1061 -0.4141 -0.4495
28040SOL    HW186320   4.704   1.666   9.475  0.7720  1.6602 -0.2932
28040SOL    HW286321   4.736   1.679   9.623 -0.6496  0.5474  0.1436
28041SOL     OW86322   3.005   5.062   6.354  0.2012 -0.0036  0.6927
28041SOL    HW186323   3.015   5.003   6.280  0.8014  0.5929  0.2827
28041SOL    HW286324   3.051   5.019   6.426 -0.0139 -0.3885  0.5981
28042SOL     OW86325   6.784   2.733   1.914 -0.2828  0.0909  0.0731
28042SOL    HW186326   6.769   2.827   1.925 -0.9749 -0.0367  0.2766
28042SOL    HW286327   6.876   2.726   1.890 -0.2340  0.8248  0.0236
28043SOL     OW86328   0.596   0.205   3.562  0.1391 -0.1809 -0.0409
28043SOL    HW186329   0.610   0.181   3.653 -0.0323 -0.6202 -0.1248
28043SOL    HW286330   0.504   0.231   3.557 -0.5868 -2.6188 -0.5814
28044SOL     OW86331   4.199   0.842   9.088 -0.7698 -0.1305  0.0728
28044SOL    HW186332   4.226   0.896   9.162 -1.3544  0.4105 -0.1038
28044SOL    HW286333   4.188   0.755   9.125  1.5529 -0.4926  0.0982
28045SOL     OW86334   2.471   3.301   9.241  0.5545 -0.0260 -0.2358
28045SOL    HW186335   2.377   3.287   9.229  0.3702  0.4979  0.5187
28045SOL    HW286336   2.500   3.224   9.290  0.0754  0.8142  1.4587
28046SOL     OW86337   4.879   8.888   3.257  0.3872  0.3144  0.0060
28046SOL    HW186338   4.918   8.947   3.192 -0.3229  1.3282  0.4552
28046SOL    HW286339   4.869   8.805   3.211 -0.1142  1.0054 -1.2150
28047SOL     OW86340   5.345   0.786   4.364 -0.2282 -0.4885 -0.2576
28047SOL    HW186341   5.253   0.787   4.336 -0.2360 -0.1617 -0.2233
28047SOL    HW286342   5.341   0.763   4.457 -0.1656 -2.1479 -0.6452
28048SOL     OW86343   7.002   1.945   5.564 -0.1080 -0.6467 -0.5099
28048SOL    HW186344   7.095   1.944   5.587 -0.3844 -0.9471  0.6419
28048SOL    HW286345   6.957   1.926   5.646 -1.2661  1.0720 -0.7020
28049SOL     OW86346   5.517   1.872   7.508 -0.4007 -0.0388 -0.4027
28049SOL    HW186347   5.492   1.800   7.565 -1.1435  0.7873  0.3505
28049SOL    HW286348   5.608   1.854   7.484 -0.4966 -1.0741 -0.0246
28050SOL     OW86349   4.984   1.789   4.797  0.1196  0.4378  0.3583
28050SOL    HW186350   4.992   1.753   4.709  2.6867  2.5755 -0.4347
28050SOL    HW286351   5.032   1.728   4.853 -1.3315 -0.8105  0.3134
28051SOL     OW86352   9.347   9.223   0.416  0.1195  0.1174  0.1145
28051SOL    HW186353   9.294   9.143   0.413 -3.1296  2.0461  0.2308
28051SOL    HW286354   9.398   9.221   0.335 -0.5585 -1.6526 -0.3115
28052SOL     OW86355   1.407   3.036   9.198  0.0621 -0.2796  0.3272
28052SOL    HW186356   1.378   2.950   9.229 -0.4523  0.3074  1.5839
28052SOL    HW286357   1.444   3.078   9.276 -1.8227  1.5011  0.3699
28053SOL     OW86358   1.469   6.599   8.841 -0.4809 -0.3302  0.1285
28053SOL    HW186359   1.442   6.577   8.752 -2.2708 -2.2401  1.0837
28053SOL    HW286360   1.448   6.692   8.849 -1.0613 -0.3211 -1.1642
28054SOL     OW86361   0.179   0.752   9.086 -0.0948 -0.1195  0.1597
28054SOL    HW186362   0.115   0.747   9.156 -1.1170  0.6961 -0.6681
28054SOL    HW286363   0.234   0.827   9.109 -1.8381  1.5995 -0.9693
28055SOL     OW86364   8.367   8.590   5.714  0.2080 -0.3707  0.1487
28055SOL    HW186365   8.333   8.673   5.679 -0.9342 -0.7271  0.3651
28055SOL    HW286366   8.460   8.608   5.731  0.8684 -0.1515 -2.9587
28056SOL     OW86367   5.890   4.308   7.408  0.1343  0.0932 -0.3948
28056SOL    HW186368   5.962   4.261   7.448  0.2221 -0.5508 -1.2631
28056SOL    HW286369   5.868   4.378   7.470 -0.0136 -1.1019  0.9489
28057SOL     OW86370   8.906   4.102   3.479  0.3750 -0.4479 -0.1434
28057SOL    HW186371   8.922   4.181   3.426 -1.7482  2.0334  2.5919
28057SOL    HW286372   8.814   4.107   3.502  0.2803 -3.5720  0.5757
28058SOL     OW86373   9.037   7.836   1.405  0.0483  0.6247 -0.0147
28058SOL    HW186374   9.049   7.814   1.497  0.4600 -0.8045 -0.3830
28058SOL    HW286375   8.943   7.830   1.391  0.0869 -0.2798  0.0622
28059SOL     OW86376   2.681   6.218   0.673 -0.5077  0.0385  0.2504
28059SOL    HW186377   2.716   6.235   0.760  2.5206 -1.1543 -0.6058
28059SOL    HW286378   2.669   6.123   0.670  0.2792 -0.0467 -0.8743
28060SOL     OW86379   7.826   3.929   8.639 -0.2114 -0.2196  0.0002
28060SOL    HW186380   7.739   3.896   8.664 -0.5601 -0.7416 -1.7751
28060SOL    HW286381   7.876   3.851   8.618  0.0639  0.1948 -0.9061
28061SOL     OW86382   3.372   2.327   8.280 -0.1107 -0.6699 -0.2323
28061SOL    HW186383   3.418   2.254   8.239  1.3212  0.7583 -1.2512
28061SOL    HW286384   3.404   2.405   8.235 -1.2193  0.6608  1.1628
28062SOL     OW86385   0.783   0.537   5.686 -0.1580 -0.0378 -0.4806
28062SOL    HW186386   0.776   0.604   5.617 -0.3878 -0.8979 -1.3247
28062SOL    HW286387   0.697   0.537   5.728 -0.1592  0.2052 -0.4834
28063SOL     OW86388   4.391   1.184   8.941 -0.5641 -0.4145  0.0402
28063SOL    HW186389   4.334   1.230   9.002 -0.4422  0.0265 -0.1773
28063SOL    HW286390   4.375   1.225   8.856  1.0605  0.6539  0.1986
28064SOL     OW86391   9.533   5.630   1.409 -0.2211 -0.3281  0.0455
28064SOL    HW186392   9.497   5.541   1.407  1.3918 -1.0221  0.3869
28064SOL    HW286393   9.562   5.647   1.320  0.3331 -0.5351  0.1794
28065SOL     OW86394   5.165   8.806   3.329  0.3586  0.3019 -0.0313
28065SOL    HW186395   5.146   8.725   3.282 -0.1212 -0.0900  0.8193
28065SOL    HW286396   5.260   8.815   3.324  0.4964 -0.7253  0.5067
28066SOL     OW86397   4.184   8.216   9.307  0.3828  0.1342  0.1054
28066SOL    HW186398   4.227   8.235   9.390 -0.3165  0.5211  0.3841
28066SOL    HW286399   4.097   8.256   9.314 -0.1789 -0.9540 -0.2917
28067SOL     OW86400   0.262   7.805   8.476  0.4306 -0.4277 -0.2283
28067SOL    HW186401   0.203   7.815   8.550 -0.0187 -0.1578 -0.6141
28067SOL    HW286402   0.268   7.710   8.463 -1.4436 -0.4572 -1.3522
28068SOL     OW86403   4.894   9.089   7.660  0.5496 -0.1989 -0.4625
28068SOL    HW186404   4.807   9.055   7.681  0.2175  1.5118  1.2210
28068SOL    HW286405   4.926   9.126   7.743  2.3220  0.4189 -1.3638
28069SOL     OW86406   5.400   1.940   4.430 -0.1400 -0.0747 -0.2096
28069SOL    HW186407   5.320   1.976   4.391  0.0493  0.3238 -0.2328
28069SOL    HW286408   5.369   1.889   4.505 -0.4162  0.0747 -0.2189
28070SOL     OW86409   3.325   8.503   2.359  0.5345  0.3803  0.3911
28070SOL    HW186410   3.278   8.565   2.304  0.1816 -0.3610 -0.1591
28070SOL    HW286411   3.291   8.519   2.447 -1.0814 -0.4115 -0.0429
28071SOL     OW86412   0.537   1.611   6.665  0.0411  0.1521 -0.3848
28071SOL    HW186413   0.478   1.537   6.681 -0.1235  0.0336 -1.4755
28071SOL    HW286414   0.625   1.572   6.666  0.1866  0.3905  1.6339
28072SOL     OW86415   3.972   4.884   3.757 -0.4000 -0.4581  0.2456
28072SOL    HW186416   3.884   4.922   3.760  0.1158  1.3148 -2.7538
28072SOL    HW286417   4.006   4.894   3.846 -2.9010 -0.4125  1.2692
28073SOL     OW86418   6.178   0.532   8.793 -0.3933  0.2761  0.4097
28073SOL    HW186419   6.235   0.575   8.729  0.7077 -0.7963  0.6400
28073SOL    HW286420   6.238   0.489   8.854 -1.4449  0.1434  1.3897
28074SOL     OW86421   4.371   7.176   5.735 -0.5530 -0.1021 -0.2446
28074SOL    HW186422   4.378   7.150   5.827  0.9960  1.1188  0.0270
28074SOL    HW286423   4.313   7.252   5.737 -1.1926 -0.5799 -0.4000
28075SOL     OW86424   1.853   8.888   1.840 -0.1254 -0.0690 -0.0274
28075SOL    HW186425   1.773   8.868   1.792 -0.3391  0.3734  0.1420
28075SOL    HW286426   1.898   8.804   1.848 -0.8806 -0.4312  0.4358
28076SOL     OW86427   3.330   1.733   8.706  0.7608 -0.0731  0.4690
28076SOL    HW186428   3.357   1.693   8.623  0.4578  1.9112 -0.6501
28076SOL    HW286429   3.235   1.741   8.699  0.9687  3.0207 -0.5139
28077SOL     OW86430   3.494   5.754   0.135 -0.6397  0.0591 -0.0079
28077SOL    HW186431   3.486   5.803   0.217  0.8013  0.8588 -0.3201
28077SOL    HW286432   3.523   5.818   0.071  1.8217 -1.2315 -0.3160
28078SOL     OW86433   9.466   8.225   2.830 -0.0337 -0.3570 -0.5204
28078SOL    HW186434   9.415   8.239   2.910 -1.2137  1.2056 -1.4835
28078SOL    HW286435   9.480   8.313   2.794 -0.6102 -1.0612 -2.6576
28079SOL     OW86436   7.843   5.587   7.793 -0.0185 -0.3398  0.5126
28079SOL    HW186437   7.808   5.653   7.732  0.3565 -1.6079 -1.1595
28079SOL    HW286438   7.914   5.632   7.839 -0.0989  0.5742 -0.2206
28080SOL     OW86439   4.275   8.751   7.706  0.3779  0.0739 -0.1036
28080SOL    HW186440   4.220   8.777   7.632  0.7819 -2.7288 -1.4899
28080SOL    HW286441   4.356   8.801   7.694  0.1164  0.2835 -1.0747
28081SOL     OW86442   2.825   0.280   5.434 -0.0721 -0.6106 -0.3840
28081SOL    HW186443   2.909   0.240   5.412  0.7340  1.5420 -1.6126
28081SOL    HW286444   2.849   0.364   5.474 -1.5541  0.7330 -2.0979
28082SOL     OW86445   8.944   0.185   3.546  0.0344  0.5800  0.2500
28082SOL    HW186446   8.959   0.276   3.522  2.4255  0.2365  0.2135
28082SOL    HW286447   8.951   0.136   3.464 -1.1128  0.3283  0.2866
28083SOL     OW86448   8.442   2.890   2.244 -0.2680  0.0918 -0.2076
28083SOL    HW186449   8.487   2.815   2.284 -0.1497  0.7673  0.9752
28083SOL    HW286450   8.382   2.921   2.313 -2.0692 -0.3580 -1.4822
28084SOL     OW86451   8.769   6.586   4.612  0.5241 -0.0182  0.3205
28084SOL    HW186452   8.791   6.514   4.553 -0.6830 -0.0992 -0.0638
28084SOL    HW286453   8.704   6.548   4.672 -0.7521  0.9523 -0.3990
28085SOL     OW86454   8.395   0.817   3.230  0.0769  0.5819  0.7151
28085SOL    HW186455   8.394   0.816   3.134  0.1324 -0.3449  0.7185
28085SOL    HW286456   8.442   0.898   3.252  1.3994  0.0658 -0.0601
28086SOL     OW86457   0.236   9.279   1.675 -0.5220  0.1601 -0.4362
28086SOL    HW186458   0.305   9.218   1.649  1.1271  1.5310  0.5867
28086SOL    HW286459   0.189   9.234   1.745  0.1100 -0.2940 -0.3024
28087SOL     OW86460   9.400   3.665   8.007  0.5920  0.5997 -0.1407
28087SOL    HW186461   9.315   3.668   8.053  0.8490 -0.4554  0.4357
28087SOL    HW286462   9.413   3.572   7.987  1.4959  0.7868 -0.4435
28088SOL     OW86463   8.721   6.702   2.757 -0.1552  0.4264  0.6276
28088SOL    HW186464   8.794   6.732   2.811  1.1171 -0.7300 -0.3522
28088SOL    HW286465   8.677   6.782   2.729  1.3992  1.2338  0.3667
28089SOL     OW86466   7.003   1.348   1.084  0.4150  0.0012  0.2375
28089SOL    HW186467   7.058   1.274   1.110 -0.5589 -1.7129 -2.1848
28089SOL    HW286468   7.052   1.390   1.013 -0.1147  0.1743 -0.0304
28090SOL     OW86469   4.592   1.635   6.886 -0.4750 -0.1714  0.5972
28090SOL    HW186470   4.603   1.679   6.802 -1.0677 -1.5683 -0.2399
28090SOL    HW286471   4.624   1.698   6.951  0.9885  0.5197 -0.7534
28091SOL     OW86472   2.457   3.547   8.430 -0.4012 -0.3209  0.4188
28091SOL    HW186473   2.422   3.634   8.415  0.1924 -0.1166  0.1972
28091SOL    HW286474   2.392   3.488   8.391 -1.6163 -0.0885  2.0020
28092SOL     OW86475   6.714   6.445   7.828 -0.0555 -0.1482  0.0697
28092SOL    HW186476   6.661   6.509   7.781  1.7267  0.7730 -0.7900
28092SOL    HW286477   6.671   6.361   7.812 -1.1327  0.5400 -0.7418
28093SOL     OW86478   9.520   2.782   4.074  0.1612 -0.0683 -0.2527
28093SOL    HW186479   9.571   2.796   4.153  0.3604 -0.6239 -0.2761
28093SOL    HW286480   9.557   2.703   4.035  1.6427  1.4761 -2.1758
28094SOL     OW86481   4.058   8.419   0.300  0.3611  0.2530 -0.3052
28094SOL    HW186482   4.042   8.391   0.210 -0.1724 -1.5161  0.3013
28094SOL    HW286483   4.149   8.392   0.317  0.1537 -0.2915 -0.0264
28095SOL     OW86484   2.394   6.526   4.561 -0.7042  0.1894 -0.0349
28095SOL    HW186485   2.431   6.581   4.631 -0.0081  0.0849 -0.3178
28095SOL    HW286486   2.462   6.522   4.495 -1.4477  0.4777 -0.8367
28096SOL     OW86487   3.362   1.437   9.539  0.6316  0.0809  0.3722
28096SOL    HW186488   3.305   1.418   9.464  0.9567 -3.4957  0.8633
28096SOL    HW286489   3.445   1.463   9.499 -0.3393  2.2855 -0.3694
28097SOL     OW86490   5.118   9.450   4.514 -0.0575 -0.1268 -0.0171
28097SOL    HW186491   5.180   9.523   4.514  0.0355 -0.1959 -1.1742
28097SOL    HW286492   5.094   9.438   4.422 -0.0278 -1.6014  0.1483
28098SOL     OW86493   0.130   4.899   7.273  0.1921  0.4734 -0.4805
28098SOL    HW186494   0.046   4.919   7.231  1.1227 -1.3811 -3.5745
28098SOL    HW286495   0.185   4.974   7.250 -0.4602  1.5707  1.3377
28099SOL     OW86496   5.185   6.142   2.290 -0.4074 -0.5272  0.2916
28099SOL    HW186497   5.189   6.237   2.294  2.2434 -0.6153  2.2278
28099SOL    HW286498   5.133   6.124   2.212  0.8610  2.5204 -1.4383
28100SOL     OW86499   0.047   3.961   0.537  0.1829 -0.6257  0.4180
28100SOL    HW186500   0.007   3.904   0.603 -0.1673 -2.3540 -1.1776
28100SOL    HW286501  -0.010   4.038   0.534 -1.0989 -1.5361  0.5515
28101SOL     OW86502   5.831   7.891   5.201 -0.2606 -0.0360  0.2215
28101SOL    HW186503   5.780   7.963   5.239 -0.6787 -0.4328  0.4173
28101SOL    HW286504   5.782   7.812   5.222 -0.6960 -0.2545 -1.4315
28102SOL     OW86505   5.874   2.312   6.208 -0.1279  0.8636 -0.1172
28102SOL    HW186506   5.894   2.327   6.116 -0.2950  1.4150 -0.0680
28102SOL    HW286507   5.910   2.225   6.227 -1.9362 -0.2039 -1.2415
28103SOL     OW86508   9.352   3.260   0.754  0.1013  0.1985 -0.3035
28103SOL    HW186509   9.393   3.346   0.742 -0.1232  0.3549  0.0441
28103SOL    HW286510   9.355   3.220   0.667  0.6214  0.3720 -0.3709
28104SOL     OW86511   2.725   4.254   4.616 -0.2041  0.2521  0.3687
28104SOL    HW186512   2.659   4.214   4.559 -0.2841  0.1880  0.5080
28104SOL    HW286513   2.676   4.287   4.691 -0.3372  1.8021 -0.3564
28105SOL     OW86514   7.475   3.302   6.878 -0.7785  0.5101  0.3923
28105SOL    HW186515   7.447   3.211   6.870  2.9947 -0.8683  0.5184
28105SOL    HW286516   7.470   3.336   6.788 -0.5026 -0.4668 -0.0163
28106SOL     OW86517   0.290   4.789   1.559 -0.0730  0.2570  0.0388
28106SOL    HW186518   0.267   4.858   1.496  0.5277  0.3483 -0.0839
28106SOL    HW286519   0.365   4.824   1.607 -1.0309  0.5342  1.3886
28107SOL     OW86520   5.206   4.783   5.739  0.1149  0.2090  0.0772
28107SOL    HW186521   5.130   4.840   5.735  0.1900  0.2987 -0.0851
28107SOL    HW286522   5.215   4.760   5.831  0.2722  0.7141  0.1884
28108SOL     OW86523   2.711   6.775   1.565  0.6925 -0.0379  0.2599
28108SOL    HW186524   2.644   6.821   1.616  1.0797  0.9845 -0.1259
28108SOL    HW286525   2.794   6.805   1.603  0.9555 -0.9921  0.4760
28109SOL     OW86526   6.027   5.496   6.478  0.0536  0.0166  0.4244
28109SOL    HW186527   5.985   5.411   6.492 -1.8668  0.9356  0.6923
28109SOL    HW286528   5.974   5.538   6.410  2.2717  0.1952 -1.2927
28110SOL     OW86529   3.347   0.369   1.699  0.1427 -0.7729 -0.2135
28110SOL    HW186530   3.416   0.392   1.637  0.3895 -0.2152  0.2550
28110SOL    HW286531   3.266   0.399   1.657  0.5850  2.5124  1.0353
28111SOL     OW86532   0.903   3.167   9.438  0.3791 -0.5033  0.1584
28111SOL    HW186533   0.978   3.183   9.495 -0.7390  1.4028  1.1912
28111SOL    HW286534   0.850   3.102   9.486 -0.6528  1.2254  1.5326
28112SOL     OW86535   8.146   7.045   7.317  0.1924 -0.1246 -0.4079
28112SOL    HW186536   8.218   7.042   7.254  0.2557 -0.2488 -0.3290
28112SOL    HW286537   8.069   7.068   7.265  0.0801 -1.0832 -0.6694
28113SOL     OW86538   7.489   1.126   2.016 -0.0626 -0.2809  0.2123
28113SOL    HW186539   7.576   1.110   2.052 -0.3975 -1.5070  0.5519
28113SOL    HW286540   7.441   1.045   2.035 -1.9401  1.1381  1.9513
28114SOL     OW86541   3.210   8.069   1.384  0.1424  0.1922  0.3200
28114SOL    HW186542   3.283   8.109   1.336  1.0859  0.3905  1.8479
28114SOL    HW286543   3.174   8.005   1.323  1.4716  0.2467 -0.5670
28115SOL     OW86544   0.146   8.491   0.754 -0.1359  0.7498  0.3534
28115SOL    HW186545   0.209   8.535   0.696  0.9095  0.4153  1.2079
28115SOL    HW286546   0.090   8.561   0.787  1.1860  1.4037  1.2983
28116SOL     OW86547   2.192   6.057   7.273  0.5261 -0.2728 -0.3501
28116SOL    HW186548   2.107   6.096   7.250  0.4773  0.3743  0.8090
28116SOL    HW286549   2.209   5.993   7.204 -1.0278 -0.5974 -0.4705
28117SOL     OW86550   5.480   9.322   1.293  0.3231 -0.1085 -0.0938
28117SOL    HW186551   5.573   9.306   1.280  0.3264  0.1285 -0.3609
28117SOL    HW286552   5.448   9.242   1.337  0.5440 -0.4213 -0.4941
28118SOL     OW86553   3.796   5.867   6.134  0.0994  0.3615  0.2473
28118SOL    HW186554   3.881   5.887   6.174  0.1805  0.5457 -0.0186
28118SOL    HW286555   3.805   5.775   6.106  0.4375  0.5744 -0.3549
28119SOL     OW86556   3.227   1.412   2.160 -0.0708 -0.3214  0.1147
28119SOL    HW186557   3.137   1.436   2.139  0.1324 -1.2381 -2.0783
28119SOL    HW286558   3.243   1.332   2.109  1.5564 -0.9389  1.5035
28120SOL     OW86559   6.713   1.650   7.237 -0.0370 -0.2943  0.2935
28120SOL    HW186560   6.775   1.605   7.179  0.1088 -2.7649  2.2130
28120SOL    HW286561   6.692   1.586   7.305 -0.5221  2.2909  2.7770
28121SOL     OW86562   4.584   0.853   4.424 -0.5990  0.4225  0.1127
28121SOL    HW186563   4.608   0.939   4.391  1.7923 -0.6515 -1.2069
28121SOL    HW286564   4.505   0.829   4.375 -0.7568  1.4710 -0.1574
28122SOL     OW86565   8.112   0.545   6.486  0.3799  0.1036 -0.4560
28122SOL    HW186566   8.145   0.479   6.426  1.0072  0.3249 -0.3632
28122SOL    HW286567   8.152   0.523   6.570  1.2687  1.0884 -0.6072
28123SOL     OW86568   9.484   9.136   7.985  0.2806  0.1642 -0.0885
28123SOL    HW186569   9.420   9.157   7.917 -0.5145  0.2193  0.6489
28123SOL    HW286570   9.545   9.210   7.985  1.8228 -0.9836 -2.4363
28124SOL     OW86571   1.197   2.336   8.966  0.0841  0.3513  0.0956
28124SOL    HW186572   1.178   2.242   8.964 -0.0005  0.3778 -1.6657
28124SOL    HW286573   1.198   2.358   9.059 -1.1079 -1.1507  0.5055
28125SOL     OW86574   8.729   2.566   8.779  0.5195  0.5213 -0.4097
28125SOL    HW186575   8.779   2.594   8.856  0.8880  0.4077 -0.6050
28125SOL    HW286576   8.761   2.621   8.708 -0.5463  1.3293 -0.2790
28126SOL     OW86577   2.264   2.271   6.551  0.2988 -0.4704 -0.4222
28126SOL    HW186578   2.182   2.292   6.507  0.1253 -0.7083 -0.2180
28126SOL    HW286579   2.245   2.189   6.597  0.6332 -0.4938 -0.3283
28127SOL     OW86580   9.214   8.720   1.850  0.5785  0.2087 -0.1069
28127SOL    HW186581   9.286   8.659   1.834  0.0288 -0.4050 -0.2659
28127SOL    HW286582   9.253   8.789   1.904  0.9410 -0.8430  1.0130
28128SOL     OW86583   3.177   8.714   8.569 -0.0127 -0.3728  0.4670
28128SOL    HW186584   3.162   8.691   8.477  1.5153  0.0748  0.0660
28128SOL    HW286585   3.132   8.646   8.619  0.1792 -1.3482 -0.6387
28129SOL     OW86586   8.540   6.866   7.585  0.2264 -0.4966  0.1234
28129SOL    HW186587   8.476   6.800   7.558 -0.5556  0.1912  0.2478
28129SOL    HW286588   8.513   6.945   7.539  1.5351 -0.4087 -0.5183
28130SOL     OW86589   0.907   6.915   3.609  0.1105 -0.1609  0.3919
28130SOL    HW186590   0.918   6.907   3.515 -1.5034  0.0004  0.1663
28130SOL    HW286591   0.945   7.000   3.631  0.0946 -0.0072 -0.1683
28131SOL     OW86592   5.955   3.614   5.427 -0.4063 -0.1668 -0.5372
28131SOL    HW186593   5.945   3.700   5.385  0.6114  0.7978  1.0972
28131SOL    HW286594   6.049   3.595   5.418 -0.5356 -0.8626 -0.4241
28132SOL     OW86595   6.596   7.298   1.706 -0.2246  0.4800 -0.3171
28132SOL    HW186596   6.611   7.313   1.800 -1.6598  1.5784 -0.2295
28132SOL    HW286597   6.684   7.290   1.669  0.4177  1.5650  0.8909
28133SOL     OW86598   5.761   0.274   9.075  0.5270 -0.2014  0.3572
28133SOL    HW186599   5.738   0.229   9.156  0.4326 -0.4990  0.1674
28133SOL    HW286600   5.782   0.364   9.102 -0.2365 -0.0897  0.6204
28134SOL     OW86601   3.484   5.140   7.455  0.1183 -0.4168  0.2797
28134SOL    HW186602   3.461   5.067   7.397  1.1991  0.8586 -1.8963
28134SOL    HW286603   3.576   5.156   7.437 -0.2442  1.8715  0.1984
28135SOL     OW86604   7.917   9.569   2.645  0.1891  0.0973 -0.4391
28135SOL    HW186605   7.833   9.615   2.651  0.0822 -0.0674 -0.6574
28135SOL    HW286606   7.926   9.547   2.552  0.9148  0.9233 -0.5811
28136SOL     OW86607   3.848   9.170   4.990 -0.0637 -0.5472 -0.4277
28136SOL    HW186608   3.826   9.168   5.082  2.9977  2.2050  0.5783
28136SOL    HW286609   3.894   9.088   4.974  1.5437 -0.0282  1.2443
28137SOL     OW86610   3.234   3.938   9.135  0.6959 -0.2733 -0.0645
28137SOL    HW186611   3.229   3.847   9.163 -0.4930  0.4421  2.2668
28137SOL    HW286612   3.227   3.934   9.040 -3.2926 -2.4289  0.1234
28138SOL     OW86613   4.208   1.803   4.895 -0.2452 -0.5075  0.2256
28138SOL    HW186614   4.242   1.835   4.978 -2.0070 -1.3847  1.3468
28138SOL    HW286615   4.261   1.726   4.874  0.0473 -0.4221  0.6535
28139SOL     OW86616   0.649   7.479   0.166 -0.2036  0.0537  0.3415
28139SOL    HW186617   0.684   7.550   0.113 -2.3532  1.1501  0.2702
28139SOL    HW286618   0.659   7.401   0.112  0.5334  0.6061 -0.3436
28140SOL     OW86619   3.984   0.661   8.749  0.2416 -0.5277  0.0559
28140SOL    HW186620   4.004   0.624   8.663  0.3603  0.0639 -0.1763
28140SOL    HW286621   4.050   0.622   8.807  2.3176  1.5486 -0.7376
28141SOL     OW86622   7.328   0.687   6.316  0.3696  0.3246 -0.0356
28141SOL    HW186623   7.334   0.592   6.325  0.0353  0.1726 -1.2334
28141SOL    HW286624   7.294   0.717   6.400  0.5563 -0.5996  0.3895
28142SOL     OW86625   3.396   0.450   0.952  0.0623  0.6332 -0.3467
28142SOL    HW186626   3.383   0.543   0.972  1.5202  0.8280 -0.2350
28142SOL    HW286627   3.401   0.446   0.857 -0.7493  0.5456 -0.3972
28143SOL     OW86628   2.379   8.740   3.386 -0.1593  0.0103  0.8846
28143SOL    HW186629   2.365   8.795   3.310 -2.0944  1.7302  2.3580
28143SOL    HW286630   2.460   8.772   3.425  0.7940 -0.8283 -0.3537
28144SOL     OW86631   6.664   0.674   2.173 -0.4044  0.1650 -0.2338
28144SOL    HW186632   6.596   0.740   2.182 -1.4796 -0.6210 -1.9978
28144SOL    HW286633   6.709   0.697   2.091 -1.4790 -1.8065 -1.4553
28145SOL     OW86634   6.017   5.356   7.289  0.0725 -0.8752 -0.0772
28145SOL    HW186635   6.004   5.450   7.275 -1.2149 -1.0621 -0.2970
28145SOL    HW286636   5.945   5.331   7.348  1.0271 -1.5265  0.8464
28146SOL     OW86637   0.827   2.390   8.782 -0.0195 -0.4549  0.1009
28146SOL    HW186638   0.909   2.436   8.765 -1.2779  1.0280 -2.7940
28146SOL    HW286639   0.847   2.298   8.764  1.3201 -0.3454  0.8908
28147SOL     OW86640   5.378   5.889   3.431  0.6385 -0.0329  0.0381
28147SOL    HW186641   5.296   5.840   3.422  1.0879 -0.8759  0.4795
28147SOL    HW286642   5.401   5.912   3.341  0.5561 -0.8637 -0.2067
28148SOL     OW86643   6.743   4.541   0.207 -0.0029 -0.2020  0.6411
28148SOL    HW186644   6.694   4.509   0.283 -0.7930  0.4717  0.4333
28148SOL    HW286645   6.829   4.501   0.215 -0.3598 -0.8480  1.4104
28149SOL     OW86646   2.346   3.186   8.882  0.2715 -0.0312 -0.4399
28149SOL    HW186647   2.345   3.118   8.814  0.6481 -1.5513  0.9887
28149SOL    HW286648   2.434   3.223   8.879  0.0085  0.5345 -1.3482
28150SOL     OW86649   8.126   3.335   8.704 -0.2506 -0.0380  0.2126
28150SOL    HW186650   8.221   3.335   8.704 -0.2426 -0.8188 -0.1629
28150SOL    HW286651   8.101   3.306   8.616 -0.8381  0.4097  0.2210
28151SOL     OW86652   0.078   6.921   7.779  0.7166 -0.4109 -0.2785
28151SOL    HW186653   0.119   7.007   7.773  1.6864 -0.8570 -0.1846
28151SOL    HW286654   0.065   6.894   7.687 -1.7425  0.8064 -0.3592
28152SOL     OW86655   4.147   0.787   2.721 -0.0922  0.0063 -0.7929
28152SOL    HW186656   4.108   0.861   2.675 -1.8350 -1.2744 -1.4988
28152SOL    HW286657   4.072   0.742   2.760  0.9102 -1.4700 -0.5165
28153SOL     OW86658   3.944   1.335   5.059  0.3482 -0.5501 -0.0682
28153SOL    HW186659   4.027   1.380   5.076  1.9149 -3.3053  0.2776
28153SOL    HW286660   3.946   1.317   4.965  0.5760 -1.3257  0.0754
28154SOL     OW86661   4.791   7.797   7.980  0.8666  0.5273 -0.1662
28154SOL    HW186662   4.882   7.812   8.003  0.2726  1.8174  1.5371
28154SOL    HW286663   4.762   7.729   8.040  0.2280  1.4507  0.5981
28155SOL     OW86664   4.051   3.244   7.381 -0.1943 -0.0610  0.2394
28155SOL    HW186665   4.018   3.213   7.297 -0.4793 -0.6462  0.5654
28155SOL    HW286666   4.055   3.339   7.371 -0.8293 -0.0747 -0.2207
28156SOL     OW86667   3.311   4.499   6.376  0.0543  0.5663 -0.2487
28156SOL    HW186668   3.358   4.436   6.431  1.0878  3.3106  2.3628
28156SOL    HW286669   3.235   4.452   6.344 -0.2590 -1.5192  3.0684
28157SOL     OW86670   8.010   5.993   7.607  0.5090  0.0280 -0.2885
28157SOL    HW186671   7.987   6.064   7.546 -2.3456 -0.0495  0.5625
28157SOL    HW286672   8.012   6.035   7.693  1.0314 -0.5289 -0.0203
28158SOL     OW86673   3.591   5.407   7.996  0.4061  0.1527  0.3650
28158SOL    HW186674   3.589   5.331   7.938 -1.2659 -0.4128  1.1117
28158SOL    HW286675   3.643   5.379   8.071  0.3727 -0.0216  0.3237
28159SOL     OW86676   7.331   3.922   3.080 -0.0279  0.6665 -0.0254
28159SOL    HW186677   7.387   3.959   3.011 -0.0844  0.4482 -0.1910
28159SOL    HW286678   7.355   3.970   3.159  0.1064  0.8535 -0.1793
28160SOL     OW86679   0.902   1.755   4.269  0.4771  0.3969 -0.3931
28160SOL    HW186680   0.993   1.759   4.300  0.1550  0.5546  0.5605
28160SOL    HW286681   0.857   1.822   4.320 -0.2471  0.0896 -0.6244
28161SOL     OW86682   3.747   8.087   5.158 -0.4484  0.3555 -0.3306
28161SOL    HW186683   3.691   8.044   5.094 -0.8161 -0.7289  0.6783
28161SOL    HW286684   3.718   8.052   5.243  0.7420  0.9327  0.3405
28162SOL     OW86685   7.179   6.614   1.888  0.6078  0.0854  0.0192
28162SOL    HW186686   7.128   6.562   1.950  0.5504  0.0263 -0.0758
28162SOL    HW286687   7.188   6.700   1.929 -0.5463  0.4542 -0.4559
28163SOL     OW86688   3.381   6.941   6.586 -0.0951  0.5339  0.6565
28163SOL    HW186689   3.463   6.894   6.572 -0.0750  0.4091  1.1728
28163SOL    HW286690   3.407   7.022   6.629 -0.3178  0.0812  1.6746
28164SOL     OW86691   7.532   4.387   1.765  0.3271 -0.0338 -0.0308
28164SOL    HW186692   7.459   4.328   1.746  0.1706  0.8210 -2.3798
28164SOL    HW286693   7.523   4.406   1.859 -0.9778 -1.8662  0.2779
28165SOL     OW86694   5.845   6.384   0.909 -0.2383  0.4329 -0.2397
28165SOL    HW186695   5.785   6.389   0.983  0.3916 -0.3395  0.3502
28165SOL    HW286696   5.928   6.357   0.947  0.1584  0.2271 -1.2049
28166SOL     OW86697   4.290   8.957   9.245  0.0275 -0.3726  0.3014
28166SOL    HW186698   4.214   8.932   9.296 -0.5725  0.3057 -0.2363
28166SOL    HW286699   4.262   9.034   9.195  0.7262 -0.7479 -0.7122
28167SOL     OW86700   3.572   0.449   7.798  0.1815 -0.0364  0.7843
28167SOL    HW186701   3.580   0.533   7.844 -0.6545  0.2144  0.4917
28167SOL    HW286702   3.498   0.461   7.739 -0.7313 -1.3739  1.5983
28168SOL     OW86703   8.528   8.874   6.318 -0.3373  0.0399 -0.4960
28168SOL    HW186704   8.494   8.883   6.407 -1.0752 -1.9081 -0.5277
28168SOL    HW286705   8.450   8.869   6.263  0.1064  2.2875 -1.4347
28169SOL     OW86706   9.206   1.839   4.553 -0.5292  0.2392 -0.5906
28169SOL    HW186707   9.263   1.826   4.477  0.2287 -0.8788  0.1352
28169SOL    HW286708   9.145   1.908   4.526  1.7494  2.1917 -1.0731
28170SOL     OW86709   8.851   2.477   1.637 -0.2584  0.0386  0.2428
28170SOL    HW186710   8.775   2.529   1.611 -0.0746 -0.3960 -1.2173
28170SOL    HW286711   8.894   2.455   1.555  0.5630 -1.0741  0.9565
28171SOL     OW86712   8.808   7.642   3.881 -0.5421 -0.4351 -0.0275
28171SOL    HW186713   8.757   7.680   3.953  1.9749  0.0464  1.6295
28171SOL    HW286714   8.890   7.614   3.922  0.9694 -0.2536 -2.6871
28172SOL     OW86715   5.010   3.709   8.752 -0.1777 -0.6186 -0.0592
28172SOL    HW186716   5.048   3.769   8.688  1.2687 -1.1110  0.3022
28172SOL    HW286717   5.018   3.623   8.711  1.0187 -0.9716  0.8580
28173SOL     OW86718   0.593   1.880   7.518  0.5188 -0.5732  0.2424
28173SOL    HW186719   0.574   1.820   7.591  0.5201  0.3920  1.0593
28173SOL    HW286720   0.681   1.856   7.490  0.1467 -1.5981 -0.0955
28174SOL     OW86721   7.414   3.042   0.550 -0.4385  0.2409  0.0106
28174SOL    HW186722   7.443   3.032   0.460 -0.5606  0.7431 -0.0899
28174SOL    HW286723   7.324   3.010   0.550 -0.3286 -0.0664  0.0258
28175SOL     OW86724   0.062   9.282   5.658 -0.2166  0.1561  0.5129
28175SOL    HW186725   0.028   9.212   5.714 -0.8401  0.1335  0.1162
28175SOL    HW286726   0.025   9.263   5.572  0.5708  0.3017  0.1288
28176SOL     OW86727   4.318   5.679   3.772  0.0036  0.2489  0.5211
28176SOL    HW186728   4.265   5.723   3.838 -2.0049 -1.1970 -0.0211
28176SOL    HW286729   4.264   5.604   3.745  2.2529 -1.1903 -0.2351
28177SOL     OW86730   3.238   5.904   0.672 -0.4682  0.8485  0.1240
28177SOL    HW186731   3.223   5.987   0.627  0.8970  1.3448  0.5540
28177SOL    HW286732   3.198   5.915   0.758 -1.7262  0.4484 -0.3859
28178SOL     OW86733   8.035   2.030   5.993 -0.1559 -0.0066 -0.5253
28178SOL    HW186734   8.052   2.017   5.900 -0.8416 -0.8461 -0.5470
28178SOL    HW286735   7.973   2.103   5.995  0.5220  0.5897 -0.6598
28179SOL     OW86736   2.381   1.770   4.232 -0.2266 -0.3310  0.1710
28179SOL    HW186737   2.360   1.838   4.168  1.9364  1.1031  0.8642
28179SOL    HW286738   2.448   1.717   4.188 -0.3450 -0.6921  0.4240
28180SOL     OW86739   7.154   2.698   3.976 -0.5986  0.3263 -0.1242
28180SOL    HW186740   7.099   2.705   4.054 -1.8324  1.5671 -1.0537
28180SOL    HW286741   7.136   2.778   3.926  0.6083 -0.1514 -1.3989
28181SOL     OW86742   7.527   9.522   2.770 -0.5259  0.2370  0.2814
28181SOL    HW186743   7.453   9.475   2.809  0.7066 -2.0350  0.0955
28181SOL    HW286744   7.498   9.544   2.682 -1.2710  0.0907  0.4817
28182SOL     OW86745   6.086   6.627   4.559 -0.2668  0.4082 -0.4186
28182SOL    HW186746   6.071   6.718   4.536 -3.3546  0.8041  2.4251
28182SOL    HW286747   6.110   6.629   4.652 -2.3050 -1.7161  0.2381
28183SOL     OW86748   7.658   0.350   7.960  0.8906 -0.0324  0.0379
28183SOL    HW186749   7.694   0.349   8.049 -0.3306 -0.0733  0.5555
28183SOL    HW286750   7.728   0.315   7.905  1.1687 -1.3623  1.1909
28184SOL     OW86751   8.322   6.365   1.366 -0.6362 -0.7092 -0.0298
28184SOL    HW186752   8.376   6.307   1.312  1.0290  0.6080  0.1136
28184SOL    HW286753   8.239   6.320   1.375 -0.1027 -2.1105 -1.6221
28185SOL     OW86754   7.293   6.392   1.129  0.7498  0.1403 -0.0069
28185SOL    HW186755   7.349   6.447   1.074 -0.5913  0.8390 -0.7448
28185SOL    HW286756   7.211   6.441   1.135  0.2449 -0.8123  1.0959
28186SOL     OW86757   5.942   7.782   6.947 -0.6894  0.1172  0.4177
28186SOL    HW186758   6.025   7.735   6.948 -0.7474 -0.0010  1.3503
28186SOL    HW286759   5.958   7.860   7.001 -0.6166  1.1499 -1.0239
28187SOL     OW86760   0.657   2.796   0.616 -0.2654  0.5887 -0.5591
28187SOL    HW186761   0.610   2.715   0.632  0.0762  0.3375 -0.8310
28187SOL    HW286762   0.649   2.811   0.522 -0.9717  1.2694 -0.4054
28188SOL     OW86763   6.226   7.439   1.043  0.5416  0.2421  0.1584
28188SOL    HW186764   6.139   7.468   1.072 -0.3771 -1.2968 -0.9385
28188SOL    HW286765   6.242   7.488   0.963  1.2084  1.3309  0.9222
28189SOL     OW86766   8.052   0.493   1.355 -0.4305 -0.5163 -0.1811
28189SOL    HW186767   8.015   0.425   1.299 -0.2622 -1.5299  0.8812
28189SOL    HW286768   8.046   0.456   1.444  1.2796  0.1195  0.2396
28190SOL     OW86769   0.749   6.140   3.340 -0.0282 -0.1905  0.3361
28190SOL    HW186770   0.697   6.136   3.260 -0.0226  1.8792  0.1741
28190SOL    HW286771   0.827   6.188   3.315 -1.3660  3.2471  2.1721
28191SOL     OW86772   3.932   0.924   8.717 -0.1828 -0.7508  0.0950
28191SOL    HW186773   3.960   0.833   8.706  2.0274 -0.0921 -0.1484
28191SOL    HW286774   3.964   0.948   8.804 -0.5553 -0.1266  0.0610
28192SOL     OW86775   2.186   2.316   6.051 -0.2553  0.6005  0.6648
28192SOL    HW186776   2.258   2.365   6.011  0.9076  0.0675  2.0160
28192SOL    HW286777   2.111   2.334   5.995  0.8864  1.2942 -0.7141
28193SOL     OW86778   7.642   8.681   8.585  0.1665 -0.1337  0.3341
28193SOL    HW186779   7.692   8.761   8.571 -0.5328  0.2505  0.0016
28193SOL    HW286780   7.553   8.710   8.602 -0.1061 -0.8410  0.1808
28194SOL     OW86781   4.717   4.248   3.756 -0.2597 -0.1988 -0.6945
28194SOL    HW186782   4.705   4.336   3.719 -0.1421  0.6912  1.3011
28194SOL    HW286783   4.688   4.189   3.686 -0.3379  1.4087 -2.0801
28195SOL     OW86784   5.887   0.165   1.026  0.0469  0.2629  0.4092
28195SOL    HW186785   5.813   0.107   1.044  0.6055 -0.9998 -1.1564
28195SOL    HW286786   5.856   0.251   1.054 -2.1517 -0.1726 -0.4328
28196SOL     OW86787   1.848   9.501   8.241 -0.0817 -0.2603  0.0326
28196SOL    HW186788   1.890   9.506   8.327 -0.2981 -1.7113  0.2512
28196SOL    HW286789   1.854   9.409   8.217  1.5742  0.3874 -2.3362
28197SOL     OW86790   2.444   9.446   0.532  0.3461  0.0369  0.2016
28197SOL    HW186791   2.405   9.456   0.619 -0.5577 -2.4180  0.1496
28197SOL    HW286792   2.488   9.361   0.535  1.4926  0.5316 -1.3354
28198SOL     OW86793   2.049   4.869   2.048 -0.4385 -0.3931 -0.0070
28198SOL    HW186794   2.079   4.951   2.011  1.8742 -1.2730 -0.2467
28198SOL    HW286795   1.976   4.893   2.105  0.3909  1.8571  0.1938
28199SOL     OW86796   3.964   5.836   1.184  0.0143 -0.0132  0.0277
28199SOL    HW186797   3.990   5.817   1.095 -0.4299  0.2856 -0.1702
28199SOL    HW286798   4.040   5.877   1.224  0.0418  0.3146 -0.3645
28200SOL     OW86799   6.673   0.752   0.691  0.4448 -0.0103 -0.6390
28200SOL    HW186800   6.589   0.709   0.676  0.3054 -0.3218  0.8708
28200SOL    HW286801   6.711   0.762   0.603 -1.1960  0.2363 -1.3577
28201SOL     OW86802   1.716   7.756   3.380  0.3796 -0.5249  0.3581
28201SOL    HW186803   1.748   7.787   3.295 -0.1520 -0.7475  0.0724
28201SOL    HW286804   1.732   7.829   3.440 -1.1348  0.4456 -0.3612
28202SOL     OW86805   8.979   6.801   8.460 -0.3551 -0.0353  0.9741
28202SOL    HW186806   8.973   6.719   8.410 -0.3871  1.2514 -1.2884
28202SOL    HW286807   9.008   6.866   8.396 -2.5358  2.2191  2.0992
28203SOL     OW86808   8.796   6.048   9.038 -0.2848  0.0598  0.0961
28203SOL    HW186809   8.729   5.982   9.058 -1.1418 -0.0998 -2.8389
28203SOL    HW286810   8.751   6.132   9.049 -1.7073 -0.0485 -3.4596
28204SOL     OW86811   2.689   3.915   6.472  0.7576  0.5190  1.1568
28204SOL    HW186812   2.710   4.007   6.459  0.8519  0.2854 -0.5948
28204SOL    HW286813   2.768   3.877   6.511  1.9305  0.5963 -0.9908
28205SOL     OW86814   2.062   0.596   5.770 -0.4659  0.2250  0.0379
28205SOL    HW186815   2.155   0.572   5.769 -0.5714 -0.2216  0.7799
28205SOL    HW286816   2.059   0.675   5.823 -0.2832  1.2669 -1.4338
28206SOL     OW86817   8.135   4.486   7.371 -0.2798  0.0056 -1.0246
28206SOL    HW186818   8.207   4.460   7.314  1.4432  0.4120  0.8292
28206SOL    HW286819   8.132   4.418   7.439  0.2151  1.3914  0.4472
28207SOL     OW86820   0.077   4.145   1.693  0.0451  0.4325 -0.1645
28207SOL    HW186821   0.027   4.110   1.619  0.1022 -1.1639  0.4956
28207SOL    HW286822   0.029   4.223   1.720 -2.3631 -1.2053  0.6484
28208SOL     OW86823   9.506   3.723   0.729  0.2324  0.0132 -0.1902
28208SOL    HW186824   9.600   3.721   0.749 -0.0390 -0.7789  1.1945
28208SOL    HW286825   9.470   3.788   0.789 -0.0709  0.5430 -0.9345
28209SOL     OW86826   3.672   6.094   2.984 -0.4629 -0.9320 -0.2672
28209SOL    HW186827   3.708   6.130   3.066 -0.9536  0.4055 -0.6108
28209SOL    HW286828   3.747   6.089   2.925 -0.5953  0.9205 -0.6621
28210SOL     OW86829   4.380   5.552   2.243 -0.2190 -0.0261 -0.5483
28210SOL    HW186830   4.328   5.631   2.254  0.5350  0.6687 -1.7343
28210SOL    HW286831   4.319   5.480   2.257 -1.1980  0.7670 -0.6788
28211SOL     OW86832   9.128   1.316   6.792  0.3278  1.1446  0.3621
28211SOL    HW186833   9.096   1.374   6.723  1.5184  0.2786 -0.9821
28211SOL    HW286834   9.092   1.230   6.769 -0.1876  1.0413  1.4822
28212SOL     OW86835   5.783   4.618   9.157 -0.5050 -0.4640 -0.1555
28212SOL    HW186836   5.794   4.555   9.228 -1.1020 -1.6022 -1.0352
28212SOL    HW286837   5.801   4.703   9.197  0.7031 -1.2166  0.9722
28213SOL     OW86838   9.565   9.297   3.934  0.2467  0.8206 -0.3033
28213SOL    HW186839   9.613   9.377   3.917 -1.3660  1.5523 -1.7354
28213SOL    HW286840   9.560   9.291   4.029  1.3344  1.8210 -0.1700
28214SOL     OW86841   4.425   2.068   5.940  0.1211  0.1602 -0.5762
28214SOL    HW186842   4.471   2.110   6.012 -0.9587 -1.9471  1.4665
28214SOL    HW286843   4.386   2.140   5.891  2.7431  1.7928 -0.4549
28215SOL     OW86844   5.764   2.400   7.490  0.7323  0.0889 -0.8001
28215SOL    HW186845   5.697   2.377   7.427  0.9695 -2.3950 -0.2652
28215SOL    HW286846   5.814   2.471   7.449 -0.0610 -0.4135 -2.7036
28216SOL     OW86847   3.016   5.024   0.332  0.1240  0.0189 -0.3642
28216SOL    HW186848   3.030   5.117   0.350  2.1479 -0.3197  0.0451
28216SOL    HW286849   3.096   4.996   0.288 -0.6715 -1.4333 -0.9383
28217SOL     OW86850   7.477   6.532   6.618  0.0558  0.5349 -0.5199
28217SOL    HW186851   7.408   6.580   6.665  0.7792 -2.0331  3.7196
28217SOL    HW286852   7.429   6.469   6.564 -1.1144 -1.0130  2.1175
28218SOL     OW86853   0.487   8.820   0.410 -0.2719  0.1535 -0.1835
28218SOL    HW186854   0.541   8.798   0.486 -1.7910 -1.6230  0.4503
28218SOL    HW286855   0.406   8.853   0.448 -0.4727  0.7288 -1.0913
28219SOL     OW86856   3.603   2.638   3.454  0.0234 -0.3140 -0.2445
28219SOL    HW186857   3.520   2.682   3.434 -0.1204 -0.6299 -0.3599
28219SOL    HW286858   3.663   2.669   3.386 -0.4408 -1.3127 -1.1495
28220SOL     OW86859   2.034   2.055   5.877  0.2870  0.0437 -0.4141
28220SOL    HW186860   2.092   1.985   5.847 -0.6269 -0.6789 -0.5431
28220SOL    HW286861   2.045   2.124   5.811 -0.7154 -1.0067 -1.7479
28221SOL     OW86862   1.986   8.076   0.704 -0.4890 -0.2490 -0.7677
28221SOL    HW186863   2.017   8.152   0.753 -1.1568 -2.4426  3.4796
28221SOL    HW286864   2.064   8.019   0.697 -0.6377 -0.3792 -1.3932
28222SOL     OW86865   9.347   7.698   5.761  0.4084 -0.4690 -0.3707
28222SOL    HW186866   9.360   7.778   5.711  2.8540 -0.7676 -0.3184
28222SOL    HW286867   9.289   7.724   5.833 -0.3688  0.7654 -1.3981
28223SOL     OW86868   4.956   4.307   3.284 -0.1860 -0.4268  0.6287
28223SOL    HW186869   4.881   4.326   3.228 -1.1935  2.0365  2.6456
28223SOL    HW286870   4.947   4.214   3.306 -1.3299 -0.7297 -0.9264
28224SOL     OW86871   1.603   3.291   1.132  0.0506  0.1323 -0.3956
28224SOL    HW186872   1.520   3.286   1.178 -0.0071  0.7445 -0.4176
28224SOL    HW286873   1.643   3.373   1.163  0.8078 -0.3262 -0.1142
28225SOL     OW86874   5.278   2.535   8.668  0.3911  0.0436  0.1898
28225SOL    HW186875   5.277   2.483   8.588  0.2733  1.2768 -0.6460
28225SOL    HW286876   5.352   2.502   8.718 -1.4019 -2.9681  1.1383
28226SOL     OW86877   6.625   4.224   0.736  0.2802  0.2101  0.0899
28226SOL    HW186878   6.696   4.208   0.674 -0.0492 -1.4988  0.1010
28226SOL    HW286879   6.620   4.144   0.788 -0.5253  0.9824  1.2501
28227SOL     OW86880   5.489   7.330   7.748  0.2176 -1.0976  0.3100
28227SOL    HW186881   5.507   7.393   7.678 -1.0229  0.9208  1.6906
28227SOL    HW286882   5.484   7.245   7.704  0.8019 -0.0859 -1.8133
28228SOL     OW86883   4.038   1.194   3.487  0.4066  0.4527  0.5738
28228SOL    HW186884   4.020   1.211   3.395 -0.8997  0.4642  0.7980
28228SOL    HW286885   3.964   1.139   3.516  0.8807  0.3108  1.5615
28229SOL     OW86886   3.364   7.114   7.467 -0.3525 -0.2995 -0.2762
28229SOL    HW186887   3.426   7.128   7.538 -0.7590  0.2791 -0.0327
28229SOL    HW286888   3.399   7.167   7.395 -0.3729 -0.2582 -0.2554
28230SOL     OW86889   5.060   2.372   8.819 -0.6004 -0.0676  0.5875
28230SOL    HW186890   5.069   2.349   8.912 -1.8527 -0.1518  0.6997
28230SOL    HW286891   5.137   2.425   8.800  0.5978 -1.5187  1.2073
28231SOL     OW86892   9.002   0.763   8.992  0.4330  0.2143  0.4528
28231SOL    HW186893   8.971   0.853   8.997  0.9557  0.6980 -2.6337
28231SOL    HW286894   8.956   0.717   9.062 -0.5319  2.6799  1.5331
28232SOL     OW86895   3.724   0.782   9.530  0.4234 -0.4118 -0.0700
28232SOL    HW186896   3.655   0.759   9.468  0.1223  3.6228 -1.5901
28232SOL    HW286897   3.684   0.773   9.616 -2.4599  2.4915 -0.8998
28233SOL     OW86898   8.206   1.937   8.010  0.4346  0.1826 -0.3034
28233SOL    HW186899   8.237   1.900   7.928  0.2995  0.4325 -0.4692
28233SOL    HW286900   8.211   2.032   7.997  0.9761  0.2308  0.1884
28234SOL     OW86901   6.191   1.999   6.022 -0.2323 -0.1984  0.0963
28234SOL    HW186902   6.116   1.955   6.064  0.7523 -3.1225 -0.9615
28234SOL    HW286903   6.154   2.038   5.943 -1.0540  0.5634  0.8263
28235SOL     OW86904   1.428   5.362   7.483 -0.0934  0.0283 -0.3655
28235SOL    HW186905   1.498   5.330   7.426 -0.4468  1.1247 -1.4733
28235SOL    HW286906   1.475   5.405   7.556  0.5670  3.1242 -2.4067
28236SOL     OW86907   8.897   3.966   0.659 -0.1045 -0.0912 -0.6426
28236SOL    HW186908   8.907   3.923   0.575  2.2548  0.6623 -0.8291
28236SOL    HW286909   8.953   4.044   0.653 -1.3573  1.0010  0.9563
28237SOL     OW86910   3.728   6.600   6.262  0.7618 -0.2239  0.1431
28237SOL    HW186911   3.657   6.537   6.279  0.9420  0.0591  2.1885
28237SOL    HW286912   3.685   6.672   6.216  0.0260 -0.6917  0.0747
28238SOL     OW86913   6.688   2.538   3.557 -0.3516  0.2358 -0.4117
28238SOL    HW186914   6.762   2.537   3.497  1.3392 -1.3489  1.5353
28238SOL    HW286915   6.647   2.452   3.547 -1.9139  1.0395 -1.3655
28239SOL     OW86916   8.975   6.919   7.757 -0.1534 -0.5323 -0.0263
28239SOL    HW186917   8.976   7.012   7.733 -0.8569 -0.7090 -0.7864
28239SOL    HW286918   8.882   6.896   7.760 -0.0012 -1.0789  0.7130
28240SOL     OW86919   5.803   4.033   3.834  0.8921 -0.4149  0.3170
28240SOL    HW186920   5.825   4.003   3.922 -2.8629 -0.2790  1.4837
28240SOL    HW286921   5.790   4.127   3.843  1.4346 -0.2439 -0.6209
28241SOL     OW86922   0.036   4.704   2.520 -0.1912 -0.0663  0.2064
28241SOL    HW186923   0.052   4.765   2.592 -1.3205  0.3154  0.1518
28241SOL    HW286924   0.022   4.759   2.444 -2.4260 -0.2833  0.3858
28242SOL     OW86925   0.482   6.363   1.046 -0.1232 -0.3761 -0.3003
28242SOL    HW186926   0.508   6.426   1.113  0.2892 -0.5381 -0.3071
28242SOL    HW286927   0.483   6.278   1.090 -0.7875 -0.3744 -0.2607
28243SOL     OW86928   8.590   7.214   3.840 -0.2462 -0.4572  0.2584
28243SOL    HW186929   8.652   7.278   3.806 -2.3457  1.6258  0.1007
28243SOL    HW286930   8.593   7.227   3.935 -2.3542  1.7154  0.1324
28244SOL     OW86931   3.844   8.276   0.462 -0.2932  0.1763 -0.0485
28244SOL    HW186932   3.856   8.323   0.379  0.0806 -1.7016 -1.1379
28244SOL    HW286933   3.932   8.270   0.499 -0.3944  0.6405  0.2678
28245SOL     OW86934   3.965   4.261   6.839  0.4191 -0.3474 -0.2725
28245SOL    HW186935   3.962   4.357   6.838  1.3292 -0.2538  1.3235
28245SOL    HW286936   3.907   4.237   6.912  0.1724 -1.0246 -0.6847
28246SOL     OW86937   4.681   1.402   6.723 -0.9198 -0.3974  0.1456
28246SOL    HW186938   4.668   1.312   6.752 -3.6544 -0.3015 -0.5514
28246SOL    HW286939   4.652   1.456   6.797  2.1992  0.0597  1.2095
28247SOL     OW86940   5.370   4.592   7.682 -0.2431 -0.0627 -0.6024
28247SOL    HW186941   5.307   4.663   7.695 -0.6607 -0.5589  0.1831
28247SOL    HW286942   5.403   4.573   7.770  2.1009  1.1390 -1.1551
28248SOL     OW86943   0.419   8.648   6.450  0.0325 -0.0202 -0.0717
28248SOL    HW186944   0.358   8.721   6.464  0.9246  0.6421  0.4448
28248SOL    HW286945   0.383   8.577   6.504  1.1807  1.2305  2.5204
28249SOL     OW86946   4.005   1.883   1.277  0.3481  0.0357  0.5462
28249SOL    HW186947   3.918   1.857   1.306  0.2140 -0.8812 -0.6223
28249SOL    HW286948   4.062   1.811   1.304  0.3239 -0.5318 -0.8168
28250SOL     OW86949   4.578   4.771   7.432  0.2118 -0.2729  0.2631
28250SOL    HW186950   4.513   4.840   7.419  0.4242 -0.0836  0.1949
28250SOL    HW286951   4.654   4.800   7.381  0.2035 -0.6938  0.0127
28251SOL     OW86952   5.361   6.577   3.994 -0.2567  0.8177 -0.1276
28251SOL    HW186953   5.440   6.526   3.978 -0.3225  0.6940 -0.0676
28251SOL    HW286954   5.374   6.615   4.081 -1.0798 -0.7774  0.7355
28252SOL     OW86955   5.418   6.190   5.017  0.0209 -0.5160  0.0085
28252SOL    HW186956   5.406   6.099   4.989  2.6496 -0.8567 -0.2258
28252SOL    HW286957   5.468   6.230   4.946  0.1782  0.7031  0.7858
28253SOL     OW86958   6.813   9.088   9.502  0.4401  0.2717  0.5673
28253SOL    HW186959   6.822   9.000   9.465 -1.5764 -0.1361  0.9893
28253SOL    HW286960   6.827   9.077   9.596  0.1856  0.3957  0.6209
28254SOL     OW86961   4.447   7.942   3.853  0.2467 -0.0309 -0.0875
28254SOL    HW186962   4.363   7.978   3.826 -0.4293 -2.1272 -0.9815
28254SOL    HW286963   4.427   7.886   3.928  0.7277 -0.9069 -0.5880
28255SOL     OW86964   3.668   2.765   6.602  0.4902  0.2913 -0.1709
28255SOL    HW186965   3.585   2.810   6.587 -0.5437 -1.6416 -0.6161
28255SOL    HW286966   3.657   2.723   6.688  1.8572  1.7200  0.7505
28256SOL     OW86967   7.062   3.492   6.666  0.6576 -0.1257  0.6175
28256SOL    HW186968   7.115   3.554   6.615  0.0562 -0.4446 -0.4305
28256SOL    HW286969   7.120   3.416   6.678 -0.4174 -1.7769 -3.1763
28257SOL     OW86970   0.995   3.067   5.898 -0.4821  0.1971  0.1578
28257SOL    HW186971   1.084   3.054   5.931 -0.8396  1.5889  1.7944
28257SOL    HW286972   0.957   2.980   5.897  0.8676 -0.4137 -0.5141
28258SOL     OW86973   8.104   0.302   1.859  0.2238 -0.2345  0.0464
28258SOL    HW186974   8.149   0.261   1.933  1.1514  1.9949  0.7969
28258SOL    HW286975   8.030   0.245   1.842  1.6602 -2.4339  0.7128
28259SOL     OW86976   0.230   5.471   5.538 -0.0077 -0.2601 -0.5862
28259SOL    HW186977   0.296   5.413   5.574 -1.2819 -0.6153  1.3088
28259SOL    HW286978   0.270   5.558   5.541  0.0909 -0.3356  1.3899
28260SOL     OW86979   3.438   8.904   9.399 -0.2281 -0.0180  0.1688
28260SOL    HW186980   3.394   8.854   9.330  0.3988 -2.2019  1.2582
28260SOL    HW286981   3.473   8.838   9.458 -0.5704  1.7489  2.4981
28261SOL     OW86982   7.823   2.447   6.186 -0.2534  0.1838 -0.1628
28261SOL    HW186983   7.753   2.451   6.251 -0.3793  1.1512 -0.3390
28261SOL    HW286984   7.813   2.528   6.135 -1.0511 -1.1891 -2.3239
28262SOL     OW86985   6.816   9.191   2.384  0.0323 -0.1751 -0.9175
28262SOL    HW186986   6.820   9.104   2.343  1.0368 -0.2682 -0.6560
28262SOL    HW286987   6.775   9.175   2.469  0.5100 -0.4572 -0.7351
28263SOL     OW86988   4.277   1.911   3.088 -0.4429  0.2171  0.0183
28263SOL    HW186989   4.371   1.896   3.089 -0.6349 -1.1222 -0.1050
28263SOL    HW286990   4.267   1.995   3.043  0.6432 -0.1144 -0.9131
28264SOL     OW86991   7.977   6.937   1.310 -0.6240  0.1405 -0.8801
28264SOL    HW186992   7.990   6.842   1.309 -3.3500 -0.4074  1.7074
28264SOL    HW286993   7.955   6.960   1.220 -0.8939 -1.8585 -1.3570
28265SOL     OW86994   4.273   4.423   7.962  0.2972  0.2958  0.2276
28265SOL    HW186995   4.257   4.507   8.006  3.1905  0.5050  1.1121
28265SOL    HW286996   4.211   4.422   7.889 -0.5242  2.7327  0.7961
28266SOL     OW86997   7.350   2.080   7.041 -0.5449 -0.1654 -0.0036
28266SOL    HW186998   7.289   2.010   7.064 -1.1588 -0.0477 -1.1728
28266SOL    HW286999   7.346   2.085   6.945 -0.3514  1.3206  0.0340
28267SOL     OW87000   1.605   6.571   9.302 -0.2910 -0.5634  0.4283
28267SOL    HW187001   1.564   6.582   9.217  0.0191  0.0171  0.3520
28267SOL    HW287002   1.603   6.476   9.318  1.4504 -0.9243 -1.1226
28268SOL     OW87003   6.518   5.020   7.909  0.0351 -0.2469 -0.1440
28268SOL    HW187004   6.573   4.951   7.946  1.6933  0.2530 -1.5394
28268SOL    HW287005   6.485   5.068   7.985  1.9173 -0.2858  0.7535
28269SOL     OW87006   5.418   6.538   2.889 -0.0431 -0.1887  0.1360
28269SOL    HW187007   5.441   6.601   2.822  0.2372  0.4737  0.8410
28269SOL    HW287008   5.340   6.574   2.931  0.2730 -0.1650  0.7199
28270SOL     OW87009   9.193   4.705   7.756 -0.2594 -0.0718  0.4910
28270SOL    HW187010   9.123   4.769   7.752 -0.1679 -0.0007 -0.0424
28270SOL    HW287011   9.272   4.754   7.736 -0.2367 -0.4184 -0.2988
28271SOL     OW87012   2.039   5.029   4.737  0.1938  0.0432 -0.2131
28271SOL    HW187013   2.073   5.115   4.714 -0.4024 -0.2773 -2.5689
28271SOL    HW287014   1.946   5.043   4.752  0.1359 -0.1392 -0.3942
28272SOL     OW87015   6.180   9.270   2.955  0.8478  0.7423  0.7426
28272SOL    HW187016   6.184   9.329   2.880 -0.3960  0.1435  0.1816
28272SOL    HW287017   6.178   9.328   3.031  1.4210  1.3725  0.2831
28273SOL     OW87018   3.331   5.151   1.930 -0.1350  0.2861 -0.1168
28273SOL    HW187019   3.382   5.225   1.966 -0.6773  0.0909  1.1098
28273SOL    HW287020   3.396   5.096   1.887  0.5014  0.7269  0.2567
28274SOL     OW87021   3.386   2.660   5.566 -0.2644  0.1945  0.1642
28274SOL    HW187022   3.480   2.674   5.572 -0.0274  2.0094 -3.9554
28274SOL    HW287023   3.351   2.746   5.541 -2.6873 -0.8923 -0.5109
28275SOL     OW87024   6.435   3.233   3.172  0.1487 -0.1554  0.3820
28275SOL    HW187025   6.418   3.144   3.143 -2.2712 -0.4091  2.2207
28275SOL    HW287026   6.392   3.288   3.106 -0.5630 -0.4721  0.5766
28276SOL     OW87027   7.533   7.191   6.979  0.0141 -0.0848 -0.3898
28276SOL    HW187028   7.464   7.208   7.043 -1.3529  0.5432 -1.9415
28276SOL    HW287029   7.601   7.256   6.998 -1.2770  1.4377 -0.7842
28277SOL     OW87030   1.249   3.516   6.313  0.0239 -0.1641 -0.7472
28277SOL    HW187031   1.222   3.427   6.332  1.1329 -0.2009  0.7771
28277SOL    HW287032   1.309   3.508   6.238 -0.4376 -0.5991 -1.0719
28278SOL     OW87033   4.239   1.052   4.592  0.0526 -0.1699  0.1760
28278SOL    HW187034   4.164   0.993   4.605 -0.0273  0.1512  1.3706
28278SOL    HW287035   4.242   1.104   4.673  1.0600  0.3999 -0.2092
28279SOL     OW87036   8.276   4.005   6.765  0.1475 -0.3612  0.5390
28279SOL    HW187037   8.299   4.089   6.804 -0.5783  0.3943 -0.5968
28279SOL    HW287038   8.210   3.968   6.823  0.0945  0.0950  0.7669
28280SOL     OW87039   3.911   1.189   0.110 -0.2037  0.3984 -0.0242
28280SOL    HW187040   3.911   1.096   0.087  0.0739  0.7762 -1.6393
28280SOL    HW287041   3.966   1.194   0.188 -0.6326 -0.8534  0.3820
28281SOL     OW87042   0.027   6.326   1.967  0.2781 -0.2222  0.3422
28281SOL    HW187043   0.093   6.267   2.005 -0.4220 -2.3379 -1.5145
28281SOL    HW287044  -0.056   6.280   1.977 -0.5969  1.2739  0.3630
28282SOL     OW87045   6.494   4.679   0.875 -0.0919 -0.0831 -0.9465
28282SOL    HW187046   6.483   4.608   0.811 -0.6563 -1.1009  0.2500
28282SOL    HW287047   6.421   4.738   0.857  0.4102  0.2538 -1.9836
28283SOL     OW87048   1.031   3.474   8.949  0.3179  0.1942  0.0470
28283SOL    HW187049   1.082   3.446   9.025 -0.3895 -0.4812  0.2983
28283SOL    HW287050   0.940   3.456   8.974 -0.0531  1.4412 -0.3558
28284SOL     OW87051   0.710   7.019   4.502  0.2126  0.1371 -0.0113
28284SOL    HW187052   0.733   7.018   4.595 -0.6433 -1.3056  0.2265
28284SOL    HW287053   0.659   7.099   4.491  1.7386  1.1988  0.3550
28285SOL     OW87054   6.400   9.051   5.846 -0.1258 -0.0910  0.3610
28285SOL    HW187055   6.369   9.084   5.761  0.4134 -0.8058 -0.1324
28285SOL    HW287056   6.455   9.121   5.881  1.0061 -0.4353 -0.6672
28286SOL     OW87057   5.041   3.769   4.763  0.3094 -0.6661  0.0583
28286SOL    HW187058   5.017   3.850   4.719  1.3022 -0.4184 -0.0536
28286SOL    HW287059   4.957   3.726   4.783 -0.1709 -0.5091 -1.5291
28287SOL     OW87060   6.570   1.065   8.245  0.5858  0.2639 -0.3267
28287SOL    HW187061   6.608   1.127   8.307  0.3480 -0.5699  0.6722
28287SOL    HW287062   6.545   1.119   8.169 -0.2349  1.4957  0.7780
28288SOL     OW87063   5.865   6.855   0.290  0.2257  0.5342  0.1186
28288SOL    HW187064   5.888   6.899   0.208 -2.5019 -1.1375 -1.7263
28288SOL    HW287065   5.913   6.772   0.287  0.8580  0.8765  0.6950
28289SOL     OW87066   2.012   3.985   7.343 -0.0066 -0.0565  0.0056
28289SOL    HW187067   2.085   3.926   7.363  0.0276 -0.0678 -0.1541
28289SOL    HW287068   2.016   4.051   7.413  0.0845 -0.1225  0.0638
28290SOL     OW87069   7.920   8.199   4.515 -0.3339  0.1180  0.3086
28290SOL    HW187070   7.968   8.261   4.460  0.2911  0.2542  1.0062
28290SOL    HW287071   7.951   8.113   4.487 -0.7742  0.1382 -0.2577
28291SOL     OW87072   5.908   8.649   6.665  0.1481 -0.7356 -0.3366
28291SOL    HW187073   5.978   8.595   6.628  0.5827  0.9854 -2.2232
28291SOL    HW287074   5.948   8.692   6.740  1.6802  1.2274 -2.1318
28292SOL     OW87075   2.363   2.082   9.447 -0.4016 -0.1198  0.3005
28292SOL    HW187076   2.315   2.067   9.365 -0.5244  0.3743  0.2821
28292SOL    HW287077   2.453   2.097   9.420 -0.1691 -1.3409  0.3532
28293SOL     OW87078   1.128   8.508   4.390 -0.7287 -0.0395  0.1748
28293SOL    HW187079   1.075   8.524   4.312 -1.7538  0.3451  0.9282
28293SOL    HW287080   1.097   8.423   4.422  0.2471 -0.5723 -0.2716
28294SOL     OW87081   4.918   7.660   2.374  0.1665 -0.3632  0.1399
28294SOL    HW187082   4.985   7.700   2.318  0.0802 -0.9319 -0.3783
28294SOL    HW287083   4.950   7.674   2.463  0.5019  0.2030 -0.0645
28295SOL     OW87084   5.913   6.690   3.959  0.0513 -0.0004 -0.2606
28295SOL    HW187085   6.002   6.655   3.951  0.2581  0.6409 -0.8250
28295SOL    HW287086   5.924   6.785   3.952 -0.4512  0.2353  1.6577
28296SOL     OW87087   8.085   4.188   6.032 -0.5702 -0.9844  0.1741
28296SOL    HW187088   8.029   4.175   6.109 -0.1792  2.5043  1.2114
28296SOL    HW287089   8.037   4.251   5.978  1.7177  1.2042  0.5348
28297SOL     OW87090   7.730   2.283   1.475  0.4605  0.1728  0.3772
28297SOL    HW187091   7.670   2.210   1.489  0.9949 -0.6484 -1.3905
28297SOL    HW287092   7.799   2.248   1.418  1.0442  1.8937 -0.0567
28298SOL     OW87093   7.406   8.114   2.581  0.4290  0.1956 -0.0002
28298SOL    HW187094   7.311   8.102   2.583  0.1655  0.5864 -3.5590
28298SOL    HW287095   7.438   8.065   2.657 -2.5820  0.2755  1.4710
28299SOL     OW87096   8.689   0.991   0.246 -0.2496 -0.4256  0.0526
28299SOL    HW187097   8.739   0.963   0.323  0.5520 -0.1438 -0.3525
28299SOL    HW287098   8.750   0.980   0.173 -0.8601 -0.2789 -0.4783
28300SOL     OW87099   2.323   7.640   0.595 -0.7031  0.0662 -0.2546
28300SOL    HW187100   2.331   7.663   0.688 -1.0096  2.2541 -0.7163
28300SOL    HW287101   2.238   7.674   0.569  0.8892  3.0301 -2.1770
28301SOL     OW87102   5.410   5.766   1.088  0.1896 -0.1159  0.1632
28301SOL    HW187103   5.358   5.701   1.040 -0.3865  0.8150 -0.5021
28301SOL    HW287104   5.455   5.816   1.020  0.0826  0.6335  0.6311
28302SOL     OW87105   2.509   7.236   1.157  0.6073 -1.0501 -0.1198
28302SOL    HW187106   2.463   7.301   1.105 -0.5857 -0.5057  1.5483
28302SOL    HW287107   2.449   7.161   1.161  0.6117 -1.0247  0.5757
28303SOL     OW87108   8.497   2.003   9.179 -0.4579  0.2317 -0.4067
28303SOL    HW187109   8.421   2.021   9.235 -0.8603 -0.9756 -0.5124
28303SOL    HW287110   8.489   1.909   9.159  1.2655  0.0095 -0.1433
28304SOL     OW87111   7.071   8.172   5.932  0.2450  0.5844 -0.2839
28304SOL    HW187112   7.012   8.162   5.857  0.0604  0.4901 -0.1277
28304SOL    HW287113   7.047   8.256   5.970  0.5674  0.7886 -0.5282
28305SOL     OW87114   3.938   3.076   2.775  0.2372  0.1607  0.3900
28305SOL    HW187115   3.958   3.164   2.742  0.9877  0.3527  1.3088
28305SOL    HW287116   3.998   3.019   2.728 -0.8749 -0.0022 -0.8796
28306SOL     OW87117   1.635   9.230   4.745 -0.1951  0.5029  0.2094
28306SOL    HW187118   1.595   9.243   4.659 -0.1124  2.2908  0.3956
28306SOL    HW287119   1.707   9.168   4.729 -0.7000  0.1622 -0.8402
28307SOL     OW87120   2.357   3.749   3.310  0.0570  0.5604 -0.4029
28307SOL    HW187121   2.392   3.674   3.261 -1.2991  0.5569 -1.4342
28307SOL    HW287122   2.425   3.816   3.302 -0.5902  0.9942 -3.4318
28308SOL     OW87123   7.560   7.053   8.520  0.3934 -0.7821  0.4272
28308SOL    HW187124   7.653   7.050   8.496  0.3698 -0.0239  0.2339
28308SOL    HW287125   7.560   7.031   8.613  0.6345 -2.0720  0.1568
28309SOL     OW87126   6.888   0.033   6.957 -0.5856 -0.1774 -0.2216
28309SOL    HW187127   6.877   0.091   6.882  1.0054  1.0552  0.4471
28309SOL    HW287128   6.853  -0.052   6.927 -3.1321  1.0953 -1.1547
28310SOL     OW87129   0.063   7.488   8.249 -0.6890 -0.1927  0.1626
28310SOL    HW187130   0.073   7.576   8.286 -1.7491  0.1178 -0.2244
28310SOL    HW287131   0.142   7.474   8.198 -0.1719  0.2325  0.8284
28311SOL     OW87132   5.916   7.457   6.400  0.4516  0.8223 -0.2851
28311SOL    HW187133   6.005   7.461   6.366  0.8330  2.0066  0.7809
28311SOL    HW287134   5.865   7.418   6.329  1.7158  0.6493 -1.1231
28312SOL     OW87135   7.445   0.520   3.026  0.2616 -0.0628 -0.2120
28312SOL    HW187136   7.357   0.483   3.022 -0.2019  0.6636  1.8804
28312SOL    HW287137   7.431   0.615   3.026  0.8584  0.0719  1.9356
28313SOL     OW87138   7.290   6.967   1.051 -0.7378 -0.0045 -0.0289
28313SOL    HW187139   7.237   6.887   1.053 -2.2951  0.9790  0.1641
28313SOL    HW287140   7.272   7.004   0.964  0.0547  0.0920 -0.1565
28314SOL     OW87141   7.936   4.792   9.408 -0.3042  0.2763 -0.2277
28314SOL    HW187142   7.968   4.882   9.402  1.2927 -0.0340  2.0935
28314SOL    HW287143   7.995   4.742   9.353 -0.9762  0.5586 -1.2384
28315SOL     OW87144   2.679   2.944   9.552 -0.4499 -0.0963  0.2209
28315SOL    HW187145   2.603   3.002   9.561 -0.0842  0.3745  0.3177
28315SOL    HW287146   2.652   2.878   9.488 -0.4307  0.9152 -0.8631
28316SOL     OW87147   7.457   7.077   5.738  0.3700  0.3697  0.3214
28316SOL    HW187148   7.541   7.123   5.742  2.4530 -3.1133  0.8569
28316SOL    HW287149   7.455   7.025   5.818 -1.0652 -1.5763 -0.9172
28317SOL     OW87150   8.432   6.037   9.166 -0.3557 -0.2658  0.8115
28317SOL    HW187151   8.431   6.038   9.262 -0.0432  0.9683  0.8109
28317SOL    HW287152   8.349   5.994   9.142  0.2799 -2.0388  1.6266
28318SOL     OW87153   1.288   2.831   4.943 -0.2366 -0.0836 -0.3137
28318SOL    HW187154   1.255   2.754   4.990  1.3089 -0.7111 -0.2104
28318SOL    HW287155   1.273   2.810   4.850 -2.1524  0.6281 -0.2180
28319SOL     OW87156   6.197   8.098   5.445  0.7767 -0.0128  0.5883
28319SOL    HW187157   6.266   8.129   5.505  0.6849 -1.5860  1.5728
28319SOL    HW287158   6.218   8.005   5.431  0.1131  0.0357 -0.8989
28320NA      NA87159   5.619   4.849   4.288  0.2228 -0.3371  0.4887
28321NA      NA87160   7.140   6.122   4.920 -0.1248 -0.2369 -0.2090
28322NA      NA87161   7.290   7.752   8.337 -0.3412  0.1629  0.3439
28323NA      NA87162   7.408   8.714   3.246  0.0158  0.1157 -0.5107
28324NA      NA87163   1.252   1.983   7.333  0.2765  0.4636 -0.1111
28325NA      NA87164   3.571   7.770   2.849  0.5810  0.9330 -0.3266
28326NA      NA87165   7.382   8.351   2.011  0.1709 -0.3059  0.1426
28327NA      NA87166   1.606   9.471   3.193 -0.3000 -0.1393  0.3328
28328NA      NA87167   1.519   2.255   3.404 -0.5406  0.2907  0.1604
28329NA      NA87168   2.117   4.885   1.652 -0.0423 -0.7834 -0.5500
28330NA      NA87169   1.373   0.649   4.903 -0.1175  0.1533  0.0792
28331NA      NA87170   0.129   9.322   8.412 -0.1522 -0.2524 -0.1250
28332NA      NA87171   6.461   4.810   7.402  0.1944  0.4023  0.1869
28333NA      NA87172   2.216   6.416   6.604  0.2879  0.0729 -0.0645
28334NA      NA87173   2.495   9.439   8.694 -0.3436 -0.0204 -0.4903
28335NA      NA87174   5.907   4.813   3.443  0.3350 -0.1665 -0.2403
28336NA      NA87175   0.077   5.432   6.764  0.5175 -0.3193  0.1766
28337NA      NA87176   6.073   4.111   2.249  0.0342 -0.2011  0.4615
28338NA      NA87177   0.440   1.182   3.940  0.6498  0.3450  0.4421
28339NA      NA87178   1.695   4.358   1.503 -0.2769  0.0987 -0.1723
28340NA      NA87179   2.628   9.182   5.543  0.4369  0.1504  0.0343
28341NA      NA87180   7.978   4.201   8.479 -0.0417  0.4274 -0.4926
28342NA      NA87181   8.371   6.487   4.405  0.0629  0.3275 -0.3325
28343NA      NA87182   7.429   5.829   6.966  0.1032 -0.1170 -0.2149
28344NA      NA87183   2.394   6.466   0.405 -0.3259  0.1191  0.0759
28345NA      NA87184   5.856   3.330   3.831  0.0088 -0.0746  0.2642
28346NA      NA87185   7.786   8.463   8.186  0.0536 -0.8349 -0.2524
28347NA      NA87186   1.551   0.624   0.835  0.5570 -0.1152 -0.5585
28348NA      NA87187   1.290   0.963   0.864  0.1321  0.2388 -0.1031
28349NA      NA87188   1.154   7.911   2.704 -0.0616 -0.0585 -0.1922
28350NA      NA87189   6.750   7.045   4.380 -0.2299  0.0406  0.3796
28351NA      NA87190   3.056   0.398   6.721 -0.3470 -0.1675 -0.2421
28352NA      NA87191   2.189   6.916   8.547  0.1441 -0.3098 -0.2780
28353NA      NA87192   8.659   1.693   6.748 -0.2148  0.2940 -0.1577
28354NA      NA87193   0.018   4.482   2.533 -0.2095 -0.3627 -0.0991
28355NA      NA87194   6.180   4.911   2.720 -0.0868 -0.1432  0.7015
28356NA      NA87195   1.837   4.361   7.191 -0.6316  0.4059  0.0754
28357NA      NA87196   3.932   8.239   5.181  0.0770  0.6646 -0.4784
28358NA      NA87197   3.633   2.250   5.468  0.1859  0.2686 -0.4710
28359NA      NA87198   3.560   6.342   6.847  0.0878  0.6731 -0.1577
28360NA      NA87199   6.372   6.119   4.885  0.1440  0.1866 -0.2436
28361NA      NA87200   3.320   4.215   2.120  0.1874 -0.0612 -0.6480
28362NA      NA87201   6.700   5.639   3.301 -0.3068 -0.4370 -0.0372
28363NA      NA87202   5.348   7.443   9.243  0.0973  0.4033 -0.0459
28364NA      NA87203   7.280   3.236   6.097 -0.3959  0.1758 -0.1293
28365NA      NA87204   4.637   5.407   0.522  0.3961 -0.2462 -0.0527
28366NA      NA87205   9.441   6.271   0.589  0.1997 -0.3077  0.4968
28367NA      NA87206   6.428   0.908   3.168 -0.3440  0.1299 -0.1531
28368NA      NA87207   9.248   6.298   3.191  0.1558  0.1764 -0.4587
28369NA      NA87208   2.596   1.290   6.195 -0.0902 -0.3808 -0.4536
28370NA      NA87209   9.298   9.485   3.465  0.1239  0.4665 -0.5420
28371NA      NA87210   2.469   1.511   2.795 -0.0201  0.1622 -0.5513
28372NA      NA87211   2.218   4.297   0.426  0.3970 -0.3221 -0.6496
28373NA      NA87212   8.761   3.535   5.765 -0.3781  0.5644  0.4346
28374NA      NA87213   0.958   0.966   1.730 -0.1749 -0.2004  0.1323
28375NA      NA87214   8.382   7.824   2.015 -0.3230 -0.1501  0.1440
28376NA      NA87215   5.329   4.355   7.196  0.2878 -0.2821 -0.1197
28377NA      NA87216   0.750   9.052   0.008 -0.0273 -0.0977  0.0101
28378NA      NA87217   5.423   9.477   5.474  0.5893  0.0362  0.1032
28379NA      NA87218   3.067   3.432   0.515 -0.0664 -0.2531 -0.2934
28380NA      NA87219   8.392   9.537   8.425 -0.5064 -0.2535  0.0175
28381NA      NA87220   2.546   3.476   9.125  0.1892 -0.0596  0.2481
28382NA      NA87221   9.324   9.292   0.623 -0.1462 -0.5542 -0.1889
28383NA      NA87222   5.945   6.594   7.123 -0.5591  0.1129 -0.2687
28384NA      NA87223   1.737   9.359   6.044  0.8819  0.5592  0.0571
28385NA      NA87224   5.803   1.126   3.913  0.3042  0.8858  0.0250
28386NA      NA87225   4.812   2.664   4.097  0.4431 -0.3656 -0.1353
28387NA      NA87226   2.259   1.016   3.633 -0.1327  0.0946 -0.2677
28388NA      NA87227   1.310   9.222   7.608 -0.2893 -0.1882 -0.3081
28389NA      NA87228   6.044   9.402   2.307 -0.3815  0.2534 -0.1158
28390NA      NA87229   5.637   6.366   5.726  0.2143  0.0604  0.4166
28391NA      NA87230   3.369   5.552   3.716  0.0641  0.4341  0.2408
28392NA      NA87231   2.340   1.819   4.429 -0.3975  0.2639  0.2610
28393NA      NA87232   8.288   3.077   7.826 -0.4359 -0.3702 -0.2287
28394NA      NA87233   1.492   5.477   9.113  0.8349  0.1873 -0.1371
28395NA      NA87234   2.444   5.410   7.697 -0.5235 -0.0822 -0.1160
28396NA      NA87235   8.641   5.602   2.638  0.7662  0.3600 -0.7893
28397NA      NA87236   6.464   3.049   6.187 -0.2164  0.1490 -0.5644
28398NA      NA87237   2.476   4.478   8.238 -0.2799 -0.0224  0.1158
28399NA      NA87238   3.873   9.128   6.017 -0.5211  0.0182 -0.3760
28400CL      CL87239   2.495   2.897   1.139  0.1345  0.2038  0.1138
28401CL      CL87240   1.868   3.917   9.132 -0.1243 -0.3352  0.3381
28402CL      CL87241   2.255   1.268   6.451  0.3590 -0.0022 -0.0374
28403CL      CL87242   5.761   6.221   7.853  0.5042  0.0081 -0.0838
28404CL      CL87243   3.581   8.728   6.497  0.2262  0.1959 -0.1510
28405CL      CL87244   4.403   2.548   5.999  0.2892 -0.0988 -0.1323
28406CL      CL87245   9.469   4.052   3.042  0.0235 -0.5966  0.0038
28407CL      CL87246   6.785   7.502   0.095  0.8567  0.0745 -0.1116
28408CL      CL87247   3.758   5.974   1.579  0.3604 -0.6057 -0.2184
28409CL      CL87248   5.996   0.808   3.584 -0.2465  0.1423  0.1931
28410CL      CL87249   8.046   5.726   8.748  0.1237 -0.3711 -0.0648
28411CL      CL87250   6.242   6.569   5.023 -0.2618 -0.2109 -0.3421
28412CL      CL87251   0.518   0.553   0.270  0.1295 -0.2917 -0.3531
28413CL      CL87252   6.430   0.962   2.914  0.0580  0.2230 -0.0342
28414CL      CL87253   4.377   9.138   7.067 -0.1240 -0.1277 -0.2508
28415CL      CL87254   7.304   0.903   4.590  0.0915  0.2675  0.2098
28416CL      CL87255   8.033   3.351   8.383 -0.3681  0.1071 -0.2303
28417CL      CL87256   5.164   4.775   3.859  0.1667 -0.1163 -0.4836
28418CL      CL87257   5.945   9.296   1.695  0.0058  0.4163 -0.1452
28419CL      CL87258   6.619   9.086   2.869  0.2072  0.0155  0.2201
28420CL      CL87259   8.283   2.954   3.120  0.0748 -0.0882 -0.0999
28421CL      CL87260   5.114   8.416   2.265  0.0183 -0.3121  0.6227
28422CL      CL87261   7.020   9.180   6.920 -0.1118  0.1715  0.2116
28423CL      CL87262   7.664   3.100   5.874 -0.0883 -0.1053  0.1338
28424CL      CL87263   6.576   0.669   3.169 -0.2455  0.2289  0.2105
28425CL      CL87264   6.780   4.910   6.712  0.0913 -0.2487  0.0685
28426CL      CL87265   7.504   4.386   2.094  0.2494 -0.0004 -0.0149
28427CL      CL87266   6.034   8.276   9.403 -0.1170 -0.4511 -0.0972
28428CL      CL87267   9.210   3.589   7.601  0.3059 -0.4915  0.5229
28429CL      CL87268   7.883   9.574   5.878  0.1283 -0.0081 -0.2478
28430CL      CL87269   7.658   5.888   4.627 -0.4514  0.0298 -0.1125
28431CL      CL87270   6.440   3.018   7.436  0.1301  0.2726 -0.3172
28432CL      CL87271   2.850   1.615   5.666  0.0543 -0.2715 -0.0125
28433CL      CL87272   6.050   4.670   3.951 -0.0565  0.1201  0.3142
28434CL      CL87273   2.527   8.872   6.288 -0.1202 -0.0219 -0.0869
28435CL      CL87274   7.010   3.906   1.074 -0.1856  0.4714 -0.0165
28436CL      CL87275   6.793   1.777   8.340  0.5399  0.3158  0.1551
28437CL      CL87276   6.427   4.155   8.743  0.0616 -0.2343 -0.0370
28438CL      CL87277   7.708   8.831   0.052 -0.4133  0.0653 -0.0489
28439CL      CL87278   7.458   9.006   8.587  0.5884  0.2634 -0.3749
28440CL      CL87279   2.853   3.690   3.976  0.2235  0.0308  0.4243
28441CL      CL87280   4.318   5.574   7.995  0.2270 -0.2862 -0.5064
28442CL      CL87281   0.537   2.262   3.002 -0.6626 -0.1970 -0.1426
28443CL      CL87282   7.042   2.706   7.592  0.4136  0.3801  0.0161
28444CL      CL87283   8.978   3.493   8.872  0.1141  0.2112  0.1951
28445CL      CL87284   6.927   1.055   8.902 -0.2314 -0.3228  0.2224
28446CL      CL87285   1.506   4.718   2.565 -0.2673 -0.1312  0.2302
28447CL      CL87286   7.488   7.475   2.998 -0.2663  0.1016 -0.1828
28448CL      CL87287   6.660   6.506   4.399  0.2919  0.1296  0.1280
28449CL      CL87288   3.649   0.674   2.937  0.5433 -0.0197  0.5006
28450CL      CL87289   1.679   7.642   8.060  0.3193  0.0936  0.1525
28451CL      CL87290   5.149   2.379   9.108  0.2374  0.3001  0.2333
28452CL      CL87291   2.462   3.578   7.284 -0.0810  0.1602 -0.1584
28453CL      CL87292   9.237   0.108   7.957 -0.1876  0.4182  0.0232
28454CL      CL87293   3.152   0.292   2.835  0.0996 -0.1985 -0.7941
28455CL      CL87294   8.851   8.930   1.678  0.0528  0.0187  0.1398
28456CL      CL87295   4.805   2.280   3.088  0.2503 -0.5796 -0.0593
28457CL      CL87296   1.228   1.194   2.612 -0.0319 -0.0437  0.1259
28458CL      CL87297   1.407   6.538   5.713  0.2801 -0.1273 -0.0382
28459CL      CL87298   8.073   2.365   1.143 -0.1169  0.1254  0.2106
28460CL      CL87299   3.185   6.781   8.999 -0.2289 -0.2078  0.0143
28461CL      CL87300   3.019   5.983   0.895 -0.2477  0.0374  0.1008
28462CL      CL87301   6.271   0.938   0.498  0.0854  0.1940  0.0587
28463CL      CL87302   5.795   4.532   6.472  0.1924  0.2913 -0.0080
28464CL      CL87303   6.910   8.119   5.684  0.3972  0.6543  0.1190
28465CL      CL87304   2.233   3.375   8.310 -0.3086  0.0465  0.0251
28466CL      CL87305   6.328   1.963   0.737  0.3567  0.2336 -0.3067
28467CL      CL87306   0.681   4.536   0.903  0.2399  0.1704 -0.3299
28468CL      CL87307   6.426   0.973   8.874  0.1543  0.3207  0.1398
28469CL      CL87308   8.916   9.048   7.593  0.0294  0.2283 -0.4390
28470CL      CL87309   2.762   2.816   5.668 -0.1718  0.5284  0.1135
28471CL      CL87310   4.012   7.865   4.084  0.0960 -0.0423 -0.2683
28472CL      CL87311   4.831   5.403   0.697 -0.4526  0.0359 -0.1488
28473CL      CL87312   1.372   1.177   7.995 -0.2523 -0.0359  0.0147
28474CL      CL87313   8.027   6.658   1.217  0.1223  0.1283 -0.0194
28475CL      CL87314   7.175   2.047   2.814  0.0581  0.3199  0.1904
28476CL      CL87315   6.376   1.245   1.634 -0.0211  0.2582 -0.1445
28477CL      CL87316   8.034   5.684   3.560 -0.1358  0.5074  0.3314
28478CL      CL87317   8.954   1.069   9.006  0.0805 -0.0970  0.1672
28479CL      CL87318   2.618   5.266   6.220  0.4877  0.0414 -0.0794
28480CL      CL87319   3.073   8.191   7.028  0.1509 -0.3501 -0.0633
28481CL      CL87320   5.986   0.626   7.361 -0.1948 -0.6438 -0.1504
28482CL      CL87321   8.729   9.204   2.066  0.0935 -0.0200 -0.4956
28483CL      CL87322   3.346   7.309   2.610  0.1286  0.0815 -0.0141
28484CL      CL87323   5.023   3.927   2.116  0.4062  0.0450  0.5372
28485CL      CL87324   5.392   7.781   3.478 -0.0344  0.1532 -0.5415
28486CL      CL87325   5.523   1.083   8.477 -0.2030 -0.4519 -0.3845
28487CL      CL87326   2.398   3.057   9.548  0.0669 -0.0557  0.2211
28488CL      CL87327   6.893   7.557   2.489  0.1148 -0.1652  0.0276
28489CL      CL87328   5.444   0.494   0.084  0.4481  0.3418 -0.3763
28490CL      CL87329   5.440   3.788   2.399  0.3227 -0.4228 -0.3496
28491CL      CL87330   5.387   8.100   8.987  0.3050 -0.2853 -0.5433
28492CL      CL87331   5.270   1.331   1.569  0.0229 -0.0393  0.2073
28493CL      CL87332   2.644   4.732   6.692 -0.1291 -0.1715  0.1624
28494CL      CL87333   3.453   0.866   7.020 -0.1160 -0.3528  0.2330
28495CL      CL87334   4.800   1.687   2.614 -0.3197  0.0261 -0.5218
28496CL      CL87335   1.174   1.761   5.355 -0.0185 -0.1584 -0.0861
28497CL      CL87336   1.350   1.151   1.011 -0.1561 -0.2988  0.0577
28498CL      CL87337   2.524   0.134   9.282 -0.2698 -0.3540 -0.0877
28499CL      CL87338   1.450   0.840   0.755 -0.1102  0.0193  0.0713
28500CL      CL87339   5.955   9.554   8.233  0.2347  0.0640  0.0234
28501CL      CL87340   0.699   0.510   1.239  0.4580 -0.1967  0.2491
28502CL      CL87341   4.826   4.287   5.631 -0.1319  0.2163 -0.3160
28503CL      CL87342   4.999   2.276   7.211  0.1810  0.2672 -0.0929
28504CL      CL87343   6.093   3.085   4.911  0.1457  0.4691  0.5699
28505CL      CL87344   8.414   2.611   6.060  0.1191 -0.3167  0.2668
28506CL      CL87345   3.370   4.168   4.525  0.2995  0.2295  0.5457
28507CL      CL87346   0.827   6.682   5.088 -0.0819  0.1727 -0.0133
28508CL      CL87347   4.925   3.569   4.403 -0.3216 -0.0702  0.4709
28509CL      CL87348   7.747   0.921   9.239  0.0210 -0.0873 -0.0359
28510CL      CL87349   1.057   8.524   0.771  0.2418  0.1402 -0.0688
28511CL      CL87350   4.439   7.990   0.214 -0.1717  0.2832  0.1276
28512CL      CL87351   5.894   0.049   6.191  0.1870  0.0533 -0.5462
28513CL      CL87352   2.961   1.374   3.623  0.1160 -0.1306  0.0320
28514CL      CL87353   8.659   0.402   8.094  0.2738  0.1717  0.0513
28515CL      CL87354   5.919   7.994   0.366 -0.4463  0.2420  0.3899
28516CL      CL87355   0.400   0.380   3.728  0.1845 -0.0316  0.1275
28517CL      CL87356   5.750   8.686   1.607 -0.2513 -0.5237 -0.0782
28518CL      CL87357   3.760   4.204   7.070 -0.2680  0.1644  0.1942
28519CL      CL87358   5.805   9.336   1.246  0.3252 -0.2517 -0.4463
28520CL      CL87359   0.120   4.345   2.334  0.7045  0.1286  0.0823
28521CL      CL87360   5.247   1.462   7.848  0.0516 -0.0981 -0.2355
28522CL      CL87361   1.938   2.418   1.833  0.1055  0.3477  0.0579
28523CL      CL87362   3.870   1.273   1.959  0.2751 -0.2966 -0.0499
28524CL      CL87363   8.590   8.368   8.344  0.0599  0.0632  0.2019
28525CL      CL87364   5.594   1.184   5.881 -0.2097 -0.1860  0.1213
   9.57948   9.57948   9.57948
