;
;   File g5.5_cooh_pamam.itp  was generated
;   By user: sairam (1000)
;   On host: sairam
;   At date: Mon. July  1 22:42:02 2024
;
;   This is a standalone topology file
;
;   Created by:
;   ParmEd:       amb2gro_top_gro.py, VERSION 3.4.1
;   Executable:   amb2gro_top_gro.py
;   Library dir:  /usr/local/gromacs/share/gromacs/top
;   Command line:
;     ./amb2gro_top_gro.py -p g5.5_cooh_pamam.prmtop -c g5.5_cooh_pamam.inpcrd -t g5.5_cooh_pamam.itp -g g5.5_cooh_pamam.gro -b g5.5_cooh_pamam.pdb
;

;[ defaults ]
;; nbfunc        comb-rule       gen-pairs       fudgeLJ fudgeQQ
;1               2               yes             0.5          0.83333333  
;
;[ atomtypes ]
;; name    at.num    mass    charge ptype  sigma      epsilon
;c3             6  12.010000  0.00000000  A     0.33996695      0.4577296
;h1             1   1.008000  0.00000000  A      0.2471353      0.0656888
;n3             7  14.010000  0.00000000  A     0.32499985        0.71128
;hc             1   1.008000  0.00000000  A     0.26495328      0.0656888
;c              6  12.010000  0.00000000  A     0.33996695       0.359824
;o              8  16.000000  0.00000000  A     0.29599219        0.87864
;n              7  14.010000  0.00000000  A     0.32499985        0.71128
;hn             1   1.008000  0.00000000  A     0.10690785      0.0656888
;oh             8  16.000000  0.00000000  A     0.30664734      0.8803136
;ho             1   1.008000  0.00000000  A              0              0


[ moleculetype ]
; Name            nrexcl
g5.5_cooh_pamam          3

[ atoms ]
;   nr       type  resnr residue  atom   cgnr    charge       mass  typeB    chargeB      massB
; residue    1 aaa rtp aaa q -0.0
    1         c3      1    aaa     C1      1 0.02890000  12.010000   ; qtot 0.028900
    2         h1      1    aaa     H1      2 0.08460000   1.008000   ; qtot 0.113500
    3         h1      1    aaa     H2      3 0.08460000   1.008000   ; qtot 0.198100
    4         c3      1    aaa     C2      4 0.02890000  12.010000   ; qtot 0.227000
    5         h1      1    aaa     H3      5 0.08460000   1.008000   ; qtot 0.311600
    6         h1      1    aaa     H4      6 0.08460000   1.008000   ; qtot 0.396200
    7         n3      1    aaa     N1      7 -0.65770000  14.010000   ; qtot -0.261500
    8         n3      1    aaa     N2      8 -0.65770000  14.010000   ; qtot -0.919200
    9         c3      1    aaa     C3      9 0.36940000  12.010000   ; qtot -0.549800
   10         h1      1    aaa     H5     10 0.00650000   1.008000   ; qtot -0.543300
   11         h1      1    aaa     H6     11 0.00650000   1.008000   ; qtot -0.536800
   12         c3      1    aaa     C4     12 0.36940000  12.010000   ; qtot -0.167400
   13         h1      1    aaa     H7     13 0.00650000   1.008000   ; qtot -0.160900
   14         h1      1    aaa     H8     14 0.00650000   1.008000   ; qtot -0.154400
   15         c3      1    aaa     C5     15 0.36940000  12.010000   ; qtot 0.215000
   16         h1      1    aaa     H9     16 0.00650000   1.008000   ; qtot 0.221500
   17         h1      1    aaa    H10     17 0.00650000   1.008000   ; qtot 0.228000
   18         c3      1    aaa     C6     18 0.36940000  12.010000   ; qtot 0.597400
   19         h1      1    aaa    H11     19 0.00650000   1.008000   ; qtot 0.603900
   20         h1      1    aaa    H12     20 0.00650000   1.008000   ; qtot 0.610400
   21         c3      1    aaa     C7     21 -0.54350000  12.010000   ; qtot 0.066900
   22         hc      1    aaa    H13     22 0.15890000   1.008000   ; qtot 0.225800
   23         hc      1    aaa    H14     23 0.15890000   1.008000   ; qtot 0.384700
   24         c3      1    aaa     C8     24 -0.54350000  12.010000   ; qtot -0.158800
   25         hc      1    aaa    H15     25 0.15890000   1.008000   ; qtot 0.000100
   26         hc      1    aaa    H16     26 0.15890000   1.008000   ; qtot 0.159000
   27         c3      1    aaa     C9     27 -0.54350000  12.010000   ; qtot -0.384500
   28         hc      1    aaa    H17     28 0.15890000   1.008000   ; qtot -0.225600
   29         hc      1    aaa    H18     29 0.15890000   1.008000   ; qtot -0.066700
   30         c3      1    aaa    C10     30 -0.54350000  12.010000   ; qtot -0.610200
   31         hc      1    aaa    H19     31 0.15890000   1.008000   ; qtot -0.451300
   32         hc      1    aaa    H20     32 0.15890000   1.008000   ; qtot -0.292400
   33          c      1    aaa    C11     33 0.67800000  12.010000   ; qtot 0.385600
   34          c      1    aaa    C12     34 0.67800000  12.010000   ; qtot 1.063600
   35          c      1    aaa    C13     35 0.67800000  12.010000   ; qtot 1.741600
   36          c      1    aaa    C14     36 0.67800000  12.010000   ; qtot 2.419600
   37          o      1    aaa     O1     37 -0.60490000  16.000000   ; qtot 1.814700
   38          o      1    aaa     O2     38 -0.60490000  16.000000   ; qtot 1.209800
   39          o      1    aaa     O3     39 -0.60490000  16.000000   ; qtot 0.604900
   40          o      1    aaa     O4     40 -0.60490000  16.000000   ; qtot -0.000000
; residue    2 bbb rtp bbb q -0.0
   41         c3      2    bbb     C1     41 0.44180000  12.010000   ; qtot 0.441800
   42         h1      2    bbb     H1     42 -0.03530000   1.008000   ; qtot 0.406500
   43         h1      2    bbb     H2     43 -0.03530000   1.008000   ; qtot 0.371200
   44         c3      2    bbb     C2     44 -0.28250000  12.010000   ; qtot 0.088700
   45         h1      2    bbb     H3     45 0.15710000   1.008000   ; qtot 0.245800
   46         h1      2    bbb     H4     46 0.15710000   1.008000   ; qtot 0.402900
   47         n3      2    bbb     N1     47 -0.74090000  14.010000   ; qtot -0.338000
   48         c3      2    bbb     C3     48 0.51680000  12.010000   ; qtot 0.178800
   49         h1      2    bbb     H5     49 -0.05230000   1.008000   ; qtot 0.126500
   50         h1      2    bbb     H6     50 -0.05230000   1.008000   ; qtot 0.074200
   51         c3      2    bbb     C4     51 0.51680000  12.010000   ; qtot 0.591000
   52         h1      2    bbb     H7     52 -0.05230000   1.008000   ; qtot 0.538700
   53         h1      2    bbb     H8     53 -0.05230000   1.008000   ; qtot 0.486400
   54         c3      2    bbb     C5     54 -0.60390000  12.010000   ; qtot -0.117500
   55         hc      2    bbb     H9     55 0.16730000   1.008000   ; qtot 0.049800
   56         hc      2    bbb    H10     56 0.16730000   1.008000   ; qtot 0.217100
   57         c3      2    bbb     C6     57 -0.60390000  12.010000   ; qtot -0.386800
   58         hc      2    bbb    H11     58 0.16730000   1.008000   ; qtot -0.219500
   59         hc      2    bbb    H12     59 0.16730000   1.008000   ; qtot -0.052200
   60          c      2    bbb     C7     60 0.72110000  12.010000   ; qtot 0.668900
   61          c      2    bbb     C8     61 0.72110000  12.010000   ; qtot 1.390000
   62          o      2    bbb     O1     62 -0.61950000  16.000000   ; qtot 0.770500
   63          o      2    bbb     O2     63 -0.61950000  16.000000   ; qtot 0.151000
   64          n      2    bbb     N4     64 -0.46580000  14.010000   ; qtot -0.314800
   65         hn      2    bbb    H21     65 0.31480000   1.008000   ; qtot -0.000000
; residue    3 bbb rtp bbb q -0.0
   66         c3      3    bbb     C1     66 0.44180000  12.010000   ; qtot 0.441800
   67         h1      3    bbb     H1     67 -0.03530000   1.008000   ; qtot 0.406500
   68         h1      3    bbb     H2     68 -0.03530000   1.008000   ; qtot 0.371200
   69         c3      3    bbb     C2     69 -0.28250000  12.010000   ; qtot 0.088700
   70         h1      3    bbb     H3     70 0.15710000   1.008000   ; qtot 0.245800
   71         h1      3    bbb     H4     71 0.15710000   1.008000   ; qtot 0.402900
   72         n3      3    bbb     N1     72 -0.74090000  14.010000   ; qtot -0.338000
   73         c3      3    bbb     C3     73 0.51680000  12.010000   ; qtot 0.178800
   74         h1      3    bbb     H5     74 -0.05230000   1.008000   ; qtot 0.126500
   75         h1      3    bbb     H6     75 -0.05230000   1.008000   ; qtot 0.074200
   76         c3      3    bbb     C4     76 0.51680000  12.010000   ; qtot 0.591000
   77         h1      3    bbb     H7     77 -0.05230000   1.008000   ; qtot 0.538700
   78         h1      3    bbb     H8     78 -0.05230000   1.008000   ; qtot 0.486400
   79         c3      3    bbb     C5     79 -0.60390000  12.010000   ; qtot -0.117500
   80         hc      3    bbb     H9     80 0.16730000   1.008000   ; qtot 0.049800
   81         hc      3    bbb    H10     81 0.16730000   1.008000   ; qtot 0.217100
   82         c3      3    bbb     C6     82 -0.60390000  12.010000   ; qtot -0.386800
   83         hc      3    bbb    H11     83 0.16730000   1.008000   ; qtot -0.219500
   84         hc      3    bbb    H12     84 0.16730000   1.008000   ; qtot -0.052200
   85          c      3    bbb     C7     85 0.72110000  12.010000   ; qtot 0.668900
   86          c      3    bbb     C8     86 0.72110000  12.010000   ; qtot 1.390000
   87          o      3    bbb     O1     87 -0.61950000  16.000000   ; qtot 0.770500
   88          o      3    bbb     O2     88 -0.61950000  16.000000   ; qtot 0.151000
   89          n      3    bbb     N4     89 -0.46580000  14.010000   ; qtot -0.314800
   90         hn      3    bbb    H21     90 0.31480000   1.008000   ; qtot -0.000000
; residue    4 bbb rtp bbb q -0.0
   91         c3      4    bbb     C1     91 0.44180000  12.010000   ; qtot 0.441800
   92         h1      4    bbb     H1     92 -0.03530000   1.008000   ; qtot 0.406500
   93         h1      4    bbb     H2     93 -0.03530000   1.008000   ; qtot 0.371200
   94         c3      4    bbb     C2     94 -0.28250000  12.010000   ; qtot 0.088700
   95         h1      4    bbb     H3     95 0.15710000   1.008000   ; qtot 0.245800
   96         h1      4    bbb     H4     96 0.15710000   1.008000   ; qtot 0.402900
   97         n3      4    bbb     N1     97 -0.74090000  14.010000   ; qtot -0.338000
   98         c3      4    bbb     C3     98 0.51680000  12.010000   ; qtot 0.178800
   99         h1      4    bbb     H5     99 -0.05230000   1.008000   ; qtot 0.126500
  100         h1      4    bbb     H6    100 -0.05230000   1.008000   ; qtot 0.074200
  101         c3      4    bbb     C4    101 0.51680000  12.010000   ; qtot 0.591000
  102         h1      4    bbb     H7    102 -0.05230000   1.008000   ; qtot 0.538700
  103         h1      4    bbb     H8    103 -0.05230000   1.008000   ; qtot 0.486400
  104         c3      4    bbb     C5    104 -0.60390000  12.010000   ; qtot -0.117500
  105         hc      4    bbb     H9    105 0.16730000   1.008000   ; qtot 0.049800
  106         hc      4    bbb    H10    106 0.16730000   1.008000   ; qtot 0.217100
  107         c3      4    bbb     C6    107 -0.60390000  12.010000   ; qtot -0.386800
  108         hc      4    bbb    H11    108 0.16730000   1.008000   ; qtot -0.219500
  109         hc      4    bbb    H12    109 0.16730000   1.008000   ; qtot -0.052200
  110          c      4    bbb     C7    110 0.72110000  12.010000   ; qtot 0.668900
  111          c      4    bbb     C8    111 0.72110000  12.010000   ; qtot 1.390000
  112          o      4    bbb     O1    112 -0.61950000  16.000000   ; qtot 0.770500
  113          o      4    bbb     O2    113 -0.61950000  16.000000   ; qtot 0.151000
  114          n      4    bbb     N4    114 -0.46580000  14.010000   ; qtot -0.314800
  115         hn      4    bbb    H21    115 0.31480000   1.008000   ; qtot -0.000000
; residue    5 bbb rtp bbb q -0.0
  116         c3      5    bbb     C1    116 0.44180000  12.010000   ; qtot 0.441800
  117         h1      5    bbb     H1    117 -0.03530000   1.008000   ; qtot 0.406500
  118         h1      5    bbb     H2    118 -0.03530000   1.008000   ; qtot 0.371200
  119         c3      5    bbb     C2    119 -0.28250000  12.010000   ; qtot 0.088700
  120         h1      5    bbb     H3    120 0.15710000   1.008000   ; qtot 0.245800
  121         h1      5    bbb     H4    121 0.15710000   1.008000   ; qtot 0.402900
  122         n3      5    bbb     N1    122 -0.74090000  14.010000   ; qtot -0.338000
  123         c3      5    bbb     C3    123 0.51680000  12.010000   ; qtot 0.178800
  124         h1      5    bbb     H5    124 -0.05230000   1.008000   ; qtot 0.126500
  125         h1      5    bbb     H6    125 -0.05230000   1.008000   ; qtot 0.074200
  126         c3      5    bbb     C4    126 0.51680000  12.010000   ; qtot 0.591000
  127         h1      5    bbb     H7    127 -0.05230000   1.008000   ; qtot 0.538700
  128         h1      5    bbb     H8    128 -0.05230000   1.008000   ; qtot 0.486400
  129         c3      5    bbb     C5    129 -0.60390000  12.010000   ; qtot -0.117500
  130         hc      5    bbb     H9    130 0.16730000   1.008000   ; qtot 0.049800
  131         hc      5    bbb    H10    131 0.16730000   1.008000   ; qtot 0.217100
  132         c3      5    bbb     C6    132 -0.60390000  12.010000   ; qtot -0.386800
  133         hc      5    bbb    H11    133 0.16730000   1.008000   ; qtot -0.219500
  134         hc      5    bbb    H12    134 0.16730000   1.008000   ; qtot -0.052200
  135          c      5    bbb     C7    135 0.72110000  12.010000   ; qtot 0.668900
  136          c      5    bbb     C8    136 0.72110000  12.010000   ; qtot 1.390000
  137          o      5    bbb     O1    137 -0.61950000  16.000000   ; qtot 0.770500
  138          o      5    bbb     O2    138 -0.61950000  16.000000   ; qtot 0.151000
  139          n      5    bbb     N4    139 -0.46580000  14.010000   ; qtot -0.314800
  140         hn      5    bbb    H21    140 0.31480000   1.008000   ; qtot -0.000000
; residue    6 bbb rtp bbb q -0.0
  141         c3      6    bbb     C1    141 0.44180000  12.010000   ; qtot 0.441800
  142         h1      6    bbb     H1    142 -0.03530000   1.008000   ; qtot 0.406500
  143         h1      6    bbb     H2    143 -0.03530000   1.008000   ; qtot 0.371200
  144         c3      6    bbb     C2    144 -0.28250000  12.010000   ; qtot 0.088700
  145         h1      6    bbb     H3    145 0.15710000   1.008000   ; qtot 0.245800
  146         h1      6    bbb     H4    146 0.15710000   1.008000   ; qtot 0.402900
  147         n3      6    bbb     N1    147 -0.74090000  14.010000   ; qtot -0.338000
  148         c3      6    bbb     C3    148 0.51680000  12.010000   ; qtot 0.178800
  149         h1      6    bbb     H5    149 -0.05230000   1.008000   ; qtot 0.126500
  150         h1      6    bbb     H6    150 -0.05230000   1.008000   ; qtot 0.074200
  151         c3      6    bbb     C4    151 0.51680000  12.010000   ; qtot 0.591000
  152         h1      6    bbb     H7    152 -0.05230000   1.008000   ; qtot 0.538700
  153         h1      6    bbb     H8    153 -0.05230000   1.008000   ; qtot 0.486400
  154         c3      6    bbb     C5    154 -0.60390000  12.010000   ; qtot -0.117500
  155         hc      6    bbb     H9    155 0.16730000   1.008000   ; qtot 0.049800
  156         hc      6    bbb    H10    156 0.16730000   1.008000   ; qtot 0.217100
  157         c3      6    bbb     C6    157 -0.60390000  12.010000   ; qtot -0.386800
  158         hc      6    bbb    H11    158 0.16730000   1.008000   ; qtot -0.219500
  159         hc      6    bbb    H12    159 0.16730000   1.008000   ; qtot -0.052200
  160          c      6    bbb     C7    160 0.72110000  12.010000   ; qtot 0.668900
  161          c      6    bbb     C8    161 0.72110000  12.010000   ; qtot 1.390000
  162          o      6    bbb     O1    162 -0.61950000  16.000000   ; qtot 0.770500
  163          o      6    bbb     O2    163 -0.61950000  16.000000   ; qtot 0.151000
  164          n      6    bbb     N4    164 -0.46580000  14.010000   ; qtot -0.314800
  165         hn      6    bbb    H21    165 0.31480000   1.008000   ; qtot -0.000000
; residue    7 bbb rtp bbb q -0.0
  166         c3      7    bbb     C1    166 0.44180000  12.010000   ; qtot 0.441800
  167         h1      7    bbb     H1    167 -0.03530000   1.008000   ; qtot 0.406500
  168         h1      7    bbb     H2    168 -0.03530000   1.008000   ; qtot 0.371200
  169         c3      7    bbb     C2    169 -0.28250000  12.010000   ; qtot 0.088700
  170         h1      7    bbb     H3    170 0.15710000   1.008000   ; qtot 0.245800
  171         h1      7    bbb     H4    171 0.15710000   1.008000   ; qtot 0.402900
  172         n3      7    bbb     N1    172 -0.74090000  14.010000   ; qtot -0.338000
  173         c3      7    bbb     C3    173 0.51680000  12.010000   ; qtot 0.178800
  174         h1      7    bbb     H5    174 -0.05230000   1.008000   ; qtot 0.126500
  175         h1      7    bbb     H6    175 -0.05230000   1.008000   ; qtot 0.074200
  176         c3      7    bbb     C4    176 0.51680000  12.010000   ; qtot 0.591000
  177         h1      7    bbb     H7    177 -0.05230000   1.008000   ; qtot 0.538700
  178         h1      7    bbb     H8    178 -0.05230000   1.008000   ; qtot 0.486400
  179         c3      7    bbb     C5    179 -0.60390000  12.010000   ; qtot -0.117500
  180         hc      7    bbb     H9    180 0.16730000   1.008000   ; qtot 0.049800
  181         hc      7    bbb    H10    181 0.16730000   1.008000   ; qtot 0.217100
  182         c3      7    bbb     C6    182 -0.60390000  12.010000   ; qtot -0.386800
  183         hc      7    bbb    H11    183 0.16730000   1.008000   ; qtot -0.219500
  184         hc      7    bbb    H12    184 0.16730000   1.008000   ; qtot -0.052200
  185          c      7    bbb     C7    185 0.72110000  12.010000   ; qtot 0.668900
  186          c      7    bbb     C8    186 0.72110000  12.010000   ; qtot 1.390000
  187          o      7    bbb     O1    187 -0.61950000  16.000000   ; qtot 0.770500
  188          o      7    bbb     O2    188 -0.61950000  16.000000   ; qtot 0.151000
  189          n      7    bbb     N4    189 -0.46580000  14.010000   ; qtot -0.314800
  190         hn      7    bbb    H21    190 0.31480000   1.008000   ; qtot -0.000000
; residue    8 bbb rtp bbb q -0.0
  191         c3      8    bbb     C1    191 0.44180000  12.010000   ; qtot 0.441800
  192         h1      8    bbb     H1    192 -0.03530000   1.008000   ; qtot 0.406500
  193         h1      8    bbb     H2    193 -0.03530000   1.008000   ; qtot 0.371200
  194         c3      8    bbb     C2    194 -0.28250000  12.010000   ; qtot 0.088700
  195         h1      8    bbb     H3    195 0.15710000   1.008000   ; qtot 0.245800
  196         h1      8    bbb     H4    196 0.15710000   1.008000   ; qtot 0.402900
  197         n3      8    bbb     N1    197 -0.74090000  14.010000   ; qtot -0.338000
  198         c3      8    bbb     C3    198 0.51680000  12.010000   ; qtot 0.178800
  199         h1      8    bbb     H5    199 -0.05230000   1.008000   ; qtot 0.126500
  200         h1      8    bbb     H6    200 -0.05230000   1.008000   ; qtot 0.074200
  201         c3      8    bbb     C4    201 0.51680000  12.010000   ; qtot 0.591000
  202         h1      8    bbb     H7    202 -0.05230000   1.008000   ; qtot 0.538700
  203         h1      8    bbb     H8    203 -0.05230000   1.008000   ; qtot 0.486400
  204         c3      8    bbb     C5    204 -0.60390000  12.010000   ; qtot -0.117500
  205         hc      8    bbb     H9    205 0.16730000   1.008000   ; qtot 0.049800
  206         hc      8    bbb    H10    206 0.16730000   1.008000   ; qtot 0.217100
  207         c3      8    bbb     C6    207 -0.60390000  12.010000   ; qtot -0.386800
  208         hc      8    bbb    H11    208 0.16730000   1.008000   ; qtot -0.219500
  209         hc      8    bbb    H12    209 0.16730000   1.008000   ; qtot -0.052200
  210          c      8    bbb     C7    210 0.72110000  12.010000   ; qtot 0.668900
  211          c      8    bbb     C8    211 0.72110000  12.010000   ; qtot 1.390000
  212          o      8    bbb     O1    212 -0.61950000  16.000000   ; qtot 0.770500
  213          o      8    bbb     O2    213 -0.61950000  16.000000   ; qtot 0.151000
  214          n      8    bbb     N4    214 -0.46580000  14.010000   ; qtot -0.314800
  215         hn      8    bbb    H21    215 0.31480000   1.008000   ; qtot -0.000000
; residue    9 bbb rtp bbb q -0.0
  216         c3      9    bbb     C1    216 0.44180000  12.010000   ; qtot 0.441800
  217         h1      9    bbb     H1    217 -0.03530000   1.008000   ; qtot 0.406500
  218         h1      9    bbb     H2    218 -0.03530000   1.008000   ; qtot 0.371200
  219         c3      9    bbb     C2    219 -0.28250000  12.010000   ; qtot 0.088700
  220         h1      9    bbb     H3    220 0.15710000   1.008000   ; qtot 0.245800
  221         h1      9    bbb     H4    221 0.15710000   1.008000   ; qtot 0.402900
  222         n3      9    bbb     N1    222 -0.74090000  14.010000   ; qtot -0.338000
  223         c3      9    bbb     C3    223 0.51680000  12.010000   ; qtot 0.178800
  224         h1      9    bbb     H5    224 -0.05230000   1.008000   ; qtot 0.126500
  225         h1      9    bbb     H6    225 -0.05230000   1.008000   ; qtot 0.074200
  226         c3      9    bbb     C4    226 0.51680000  12.010000   ; qtot 0.591000
  227         h1      9    bbb     H7    227 -0.05230000   1.008000   ; qtot 0.538700
  228         h1      9    bbb     H8    228 -0.05230000   1.008000   ; qtot 0.486400
  229         c3      9    bbb     C5    229 -0.60390000  12.010000   ; qtot -0.117500
  230         hc      9    bbb     H9    230 0.16730000   1.008000   ; qtot 0.049800
  231         hc      9    bbb    H10    231 0.16730000   1.008000   ; qtot 0.217100
  232         c3      9    bbb     C6    232 -0.60390000  12.010000   ; qtot -0.386800
  233         hc      9    bbb    H11    233 0.16730000   1.008000   ; qtot -0.219500
  234         hc      9    bbb    H12    234 0.16730000   1.008000   ; qtot -0.052200
  235          c      9    bbb     C7    235 0.72110000  12.010000   ; qtot 0.668900
  236          c      9    bbb     C8    236 0.72110000  12.010000   ; qtot 1.390000
  237          o      9    bbb     O1    237 -0.61950000  16.000000   ; qtot 0.770500
  238          o      9    bbb     O2    238 -0.61950000  16.000000   ; qtot 0.151000
  239          n      9    bbb     N4    239 -0.46580000  14.010000   ; qtot -0.314800
  240         hn      9    bbb    H21    240 0.31480000   1.008000   ; qtot -0.000000
; residue   10 bbb rtp bbb q -0.0
  241         c3     10    bbb     C1    241 0.44180000  12.010000   ; qtot 0.441800
  242         h1     10    bbb     H1    242 -0.03530000   1.008000   ; qtot 0.406500
  243         h1     10    bbb     H2    243 -0.03530000   1.008000   ; qtot 0.371200
  244         c3     10    bbb     C2    244 -0.28250000  12.010000   ; qtot 0.088700
  245         h1     10    bbb     H3    245 0.15710000   1.008000   ; qtot 0.245800
  246         h1     10    bbb     H4    246 0.15710000   1.008000   ; qtot 0.402900
  247         n3     10    bbb     N1    247 -0.74090000  14.010000   ; qtot -0.338000
  248         c3     10    bbb     C3    248 0.51680000  12.010000   ; qtot 0.178800
  249         h1     10    bbb     H5    249 -0.05230000   1.008000   ; qtot 0.126500
  250         h1     10    bbb     H6    250 -0.05230000   1.008000   ; qtot 0.074200
  251         c3     10    bbb     C4    251 0.51680000  12.010000   ; qtot 0.591000
  252         h1     10    bbb     H7    252 -0.05230000   1.008000   ; qtot 0.538700
  253         h1     10    bbb     H8    253 -0.05230000   1.008000   ; qtot 0.486400
  254         c3     10    bbb     C5    254 -0.60390000  12.010000   ; qtot -0.117500
  255         hc     10    bbb     H9    255 0.16730000   1.008000   ; qtot 0.049800
  256         hc     10    bbb    H10    256 0.16730000   1.008000   ; qtot 0.217100
  257         c3     10    bbb     C6    257 -0.60390000  12.010000   ; qtot -0.386800
  258         hc     10    bbb    H11    258 0.16730000   1.008000   ; qtot -0.219500
  259         hc     10    bbb    H12    259 0.16730000   1.008000   ; qtot -0.052200
  260          c     10    bbb     C7    260 0.72110000  12.010000   ; qtot 0.668900
  261          c     10    bbb     C8    261 0.72110000  12.010000   ; qtot 1.390000
  262          o     10    bbb     O1    262 -0.61950000  16.000000   ; qtot 0.770500
  263          o     10    bbb     O2    263 -0.61950000  16.000000   ; qtot 0.151000
  264          n     10    bbb     N4    264 -0.46580000  14.010000   ; qtot -0.314800
  265         hn     10    bbb    H21    265 0.31480000   1.008000   ; qtot -0.000000
; residue   11 bbb rtp bbb q -0.0
  266         c3     11    bbb     C1    266 0.44180000  12.010000   ; qtot 0.441800
  267         h1     11    bbb     H1    267 -0.03530000   1.008000   ; qtot 0.406500
  268         h1     11    bbb     H2    268 -0.03530000   1.008000   ; qtot 0.371200
  269         c3     11    bbb     C2    269 -0.28250000  12.010000   ; qtot 0.088700
  270         h1     11    bbb     H3    270 0.15710000   1.008000   ; qtot 0.245800
  271         h1     11    bbb     H4    271 0.15710000   1.008000   ; qtot 0.402900
  272         n3     11    bbb     N1    272 -0.74090000  14.010000   ; qtot -0.338000
  273         c3     11    bbb     C3    273 0.51680000  12.010000   ; qtot 0.178800
  274         h1     11    bbb     H5    274 -0.05230000   1.008000   ; qtot 0.126500
  275         h1     11    bbb     H6    275 -0.05230000   1.008000   ; qtot 0.074200
  276         c3     11    bbb     C4    276 0.51680000  12.010000   ; qtot 0.591000
  277         h1     11    bbb     H7    277 -0.05230000   1.008000   ; qtot 0.538700
  278         h1     11    bbb     H8    278 -0.05230000   1.008000   ; qtot 0.486400
  279         c3     11    bbb     C5    279 -0.60390000  12.010000   ; qtot -0.117500
  280         hc     11    bbb     H9    280 0.16730000   1.008000   ; qtot 0.049800
  281         hc     11    bbb    H10    281 0.16730000   1.008000   ; qtot 0.217100
  282         c3     11    bbb     C6    282 -0.60390000  12.010000   ; qtot -0.386800
  283         hc     11    bbb    H11    283 0.16730000   1.008000   ; qtot -0.219500
  284         hc     11    bbb    H12    284 0.16730000   1.008000   ; qtot -0.052200
  285          c     11    bbb     C7    285 0.72110000  12.010000   ; qtot 0.668900
  286          c     11    bbb     C8    286 0.72110000  12.010000   ; qtot 1.390000
  287          o     11    bbb     O1    287 -0.61950000  16.000000   ; qtot 0.770500
  288          o     11    bbb     O2    288 -0.61950000  16.000000   ; qtot 0.151000
  289          n     11    bbb     N4    289 -0.46580000  14.010000   ; qtot -0.314800
  290         hn     11    bbb    H21    290 0.31480000   1.008000   ; qtot -0.000000
; residue   12 bbb rtp bbb q -0.0
  291         c3     12    bbb     C1    291 0.44180000  12.010000   ; qtot 0.441800
  292         h1     12    bbb     H1    292 -0.03530000   1.008000   ; qtot 0.406500
  293         h1     12    bbb     H2    293 -0.03530000   1.008000   ; qtot 0.371200
  294         c3     12    bbb     C2    294 -0.28250000  12.010000   ; qtot 0.088700
  295         h1     12    bbb     H3    295 0.15710000   1.008000   ; qtot 0.245800
  296         h1     12    bbb     H4    296 0.15710000   1.008000   ; qtot 0.402900
  297         n3     12    bbb     N1    297 -0.74090000  14.010000   ; qtot -0.338000
  298         c3     12    bbb     C3    298 0.51680000  12.010000   ; qtot 0.178800
  299         h1     12    bbb     H5    299 -0.05230000   1.008000   ; qtot 0.126500
  300         h1     12    bbb     H6    300 -0.05230000   1.008000   ; qtot 0.074200
  301         c3     12    bbb     C4    301 0.51680000  12.010000   ; qtot 0.591000
  302         h1     12    bbb     H7    302 -0.05230000   1.008000   ; qtot 0.538700
  303         h1     12    bbb     H8    303 -0.05230000   1.008000   ; qtot 0.486400
  304         c3     12    bbb     C5    304 -0.60390000  12.010000   ; qtot -0.117500
  305         hc     12    bbb     H9    305 0.16730000   1.008000   ; qtot 0.049800
  306         hc     12    bbb    H10    306 0.16730000   1.008000   ; qtot 0.217100
  307         c3     12    bbb     C6    307 -0.60390000  12.010000   ; qtot -0.386800
  308         hc     12    bbb    H11    308 0.16730000   1.008000   ; qtot -0.219500
  309         hc     12    bbb    H12    309 0.16730000   1.008000   ; qtot -0.052200
  310          c     12    bbb     C7    310 0.72110000  12.010000   ; qtot 0.668900
  311          c     12    bbb     C8    311 0.72110000  12.010000   ; qtot 1.390000
  312          o     12    bbb     O1    312 -0.61950000  16.000000   ; qtot 0.770500
  313          o     12    bbb     O2    313 -0.61950000  16.000000   ; qtot 0.151000
  314          n     12    bbb     N4    314 -0.46580000  14.010000   ; qtot -0.314800
  315         hn     12    bbb    H21    315 0.31480000   1.008000   ; qtot -0.000000
; residue   13 bbb rtp bbb q -0.0
  316         c3     13    bbb     C1    316 0.44180000  12.010000   ; qtot 0.441800
  317         h1     13    bbb     H1    317 -0.03530000   1.008000   ; qtot 0.406500
  318         h1     13    bbb     H2    318 -0.03530000   1.008000   ; qtot 0.371200
  319         c3     13    bbb     C2    319 -0.28250000  12.010000   ; qtot 0.088700
  320         h1     13    bbb     H3    320 0.15710000   1.008000   ; qtot 0.245800
  321         h1     13    bbb     H4    321 0.15710000   1.008000   ; qtot 0.402900
  322         n3     13    bbb     N1    322 -0.74090000  14.010000   ; qtot -0.338000
  323         c3     13    bbb     C3    323 0.51680000  12.010000   ; qtot 0.178800
  324         h1     13    bbb     H5    324 -0.05230000   1.008000   ; qtot 0.126500
  325         h1     13    bbb     H6    325 -0.05230000   1.008000   ; qtot 0.074200
  326         c3     13    bbb     C4    326 0.51680000  12.010000   ; qtot 0.591000
  327         h1     13    bbb     H7    327 -0.05230000   1.008000   ; qtot 0.538700
  328         h1     13    bbb     H8    328 -0.05230000   1.008000   ; qtot 0.486400
  329         c3     13    bbb     C5    329 -0.60390000  12.010000   ; qtot -0.117500
  330         hc     13    bbb     H9    330 0.16730000   1.008000   ; qtot 0.049800
  331         hc     13    bbb    H10    331 0.16730000   1.008000   ; qtot 0.217100
  332         c3     13    bbb     C6    332 -0.60390000  12.010000   ; qtot -0.386800
  333         hc     13    bbb    H11    333 0.16730000   1.008000   ; qtot -0.219500
  334         hc     13    bbb    H12    334 0.16730000   1.008000   ; qtot -0.052200
  335          c     13    bbb     C7    335 0.72110000  12.010000   ; qtot 0.668900
  336          c     13    bbb     C8    336 0.72110000  12.010000   ; qtot 1.390000
  337          o     13    bbb     O1    337 -0.61950000  16.000000   ; qtot 0.770500
  338          o     13    bbb     O2    338 -0.61950000  16.000000   ; qtot 0.151000
  339          n     13    bbb     N4    339 -0.46580000  14.010000   ; qtot -0.314800
  340         hn     13    bbb    H21    340 0.31480000   1.008000   ; qtot -0.000000
; residue   14 bbb rtp bbb q -0.0
  341         c3     14    bbb     C1    341 0.44180000  12.010000   ; qtot 0.441800
  342         h1     14    bbb     H1    342 -0.03530000   1.008000   ; qtot 0.406500
  343         h1     14    bbb     H2    343 -0.03530000   1.008000   ; qtot 0.371200
  344         c3     14    bbb     C2    344 -0.28250000  12.010000   ; qtot 0.088700
  345         h1     14    bbb     H3    345 0.15710000   1.008000   ; qtot 0.245800
  346         h1     14    bbb     H4    346 0.15710000   1.008000   ; qtot 0.402900
  347         n3     14    bbb     N1    347 -0.74090000  14.010000   ; qtot -0.338000
  348         c3     14    bbb     C3    348 0.51680000  12.010000   ; qtot 0.178800
  349         h1     14    bbb     H5    349 -0.05230000   1.008000   ; qtot 0.126500
  350         h1     14    bbb     H6    350 -0.05230000   1.008000   ; qtot 0.074200
  351         c3     14    bbb     C4    351 0.51680000  12.010000   ; qtot 0.591000
  352         h1     14    bbb     H7    352 -0.05230000   1.008000   ; qtot 0.538700
  353         h1     14    bbb     H8    353 -0.05230000   1.008000   ; qtot 0.486400
  354         c3     14    bbb     C5    354 -0.60390000  12.010000   ; qtot -0.117500
  355         hc     14    bbb     H9    355 0.16730000   1.008000   ; qtot 0.049800
  356         hc     14    bbb    H10    356 0.16730000   1.008000   ; qtot 0.217100
  357         c3     14    bbb     C6    357 -0.60390000  12.010000   ; qtot -0.386800
  358         hc     14    bbb    H11    358 0.16730000   1.008000   ; qtot -0.219500
  359         hc     14    bbb    H12    359 0.16730000   1.008000   ; qtot -0.052200
  360          c     14    bbb     C7    360 0.72110000  12.010000   ; qtot 0.668900
  361          c     14    bbb     C8    361 0.72110000  12.010000   ; qtot 1.390000
  362          o     14    bbb     O1    362 -0.61950000  16.000000   ; qtot 0.770500
  363          o     14    bbb     O2    363 -0.61950000  16.000000   ; qtot 0.151000
  364          n     14    bbb     N4    364 -0.46580000  14.010000   ; qtot -0.314800
  365         hn     14    bbb    H21    365 0.31480000   1.008000   ; qtot -0.000000
; residue   15 bbb rtp bbb q -0.0
  366         c3     15    bbb     C1    366 0.44180000  12.010000   ; qtot 0.441800
  367         h1     15    bbb     H1    367 -0.03530000   1.008000   ; qtot 0.406500
  368         h1     15    bbb     H2    368 -0.03530000   1.008000   ; qtot 0.371200
  369         c3     15    bbb     C2    369 -0.28250000  12.010000   ; qtot 0.088700
  370         h1     15    bbb     H3    370 0.15710000   1.008000   ; qtot 0.245800
  371         h1     15    bbb     H4    371 0.15710000   1.008000   ; qtot 0.402900
  372         n3     15    bbb     N1    372 -0.74090000  14.010000   ; qtot -0.338000
  373         c3     15    bbb     C3    373 0.51680000  12.010000   ; qtot 0.178800
  374         h1     15    bbb     H5    374 -0.05230000   1.008000   ; qtot 0.126500
  375         h1     15    bbb     H6    375 -0.05230000   1.008000   ; qtot 0.074200
  376         c3     15    bbb     C4    376 0.51680000  12.010000   ; qtot 0.591000
  377         h1     15    bbb     H7    377 -0.05230000   1.008000   ; qtot 0.538700
  378         h1     15    bbb     H8    378 -0.05230000   1.008000   ; qtot 0.486400
  379         c3     15    bbb     C5    379 -0.60390000  12.010000   ; qtot -0.117500
  380         hc     15    bbb     H9    380 0.16730000   1.008000   ; qtot 0.049800
  381         hc     15    bbb    H10    381 0.16730000   1.008000   ; qtot 0.217100
  382         c3     15    bbb     C6    382 -0.60390000  12.010000   ; qtot -0.386800
  383         hc     15    bbb    H11    383 0.16730000   1.008000   ; qtot -0.219500
  384         hc     15    bbb    H12    384 0.16730000   1.008000   ; qtot -0.052200
  385          c     15    bbb     C7    385 0.72110000  12.010000   ; qtot 0.668900
  386          c     15    bbb     C8    386 0.72110000  12.010000   ; qtot 1.390000
  387          o     15    bbb     O1    387 -0.61950000  16.000000   ; qtot 0.770500
  388          o     15    bbb     O2    388 -0.61950000  16.000000   ; qtot 0.151000
  389          n     15    bbb     N4    389 -0.46580000  14.010000   ; qtot -0.314800
  390         hn     15    bbb    H21    390 0.31480000   1.008000   ; qtot -0.000000
; residue   16 bbb rtp bbb q -0.0
  391         c3     16    bbb     C1    391 0.44180000  12.010000   ; qtot 0.441800
  392         h1     16    bbb     H1    392 -0.03530000   1.008000   ; qtot 0.406500
  393         h1     16    bbb     H2    393 -0.03530000   1.008000   ; qtot 0.371200
  394         c3     16    bbb     C2    394 -0.28250000  12.010000   ; qtot 0.088700
  395         h1     16    bbb     H3    395 0.15710000   1.008000   ; qtot 0.245800
  396         h1     16    bbb     H4    396 0.15710000   1.008000   ; qtot 0.402900
  397         n3     16    bbb     N1    397 -0.74090000  14.010000   ; qtot -0.338000
  398         c3     16    bbb     C3    398 0.51680000  12.010000   ; qtot 0.178800
  399         h1     16    bbb     H5    399 -0.05230000   1.008000   ; qtot 0.126500
  400         h1     16    bbb     H6    400 -0.05230000   1.008000   ; qtot 0.074200
  401         c3     16    bbb     C4    401 0.51680000  12.010000   ; qtot 0.591000
  402         h1     16    bbb     H7    402 -0.05230000   1.008000   ; qtot 0.538700
  403         h1     16    bbb     H8    403 -0.05230000   1.008000   ; qtot 0.486400
  404         c3     16    bbb     C5    404 -0.60390000  12.010000   ; qtot -0.117500
  405         hc     16    bbb     H9    405 0.16730000   1.008000   ; qtot 0.049800
  406         hc     16    bbb    H10    406 0.16730000   1.008000   ; qtot 0.217100
  407         c3     16    bbb     C6    407 -0.60390000  12.010000   ; qtot -0.386800
  408         hc     16    bbb    H11    408 0.16730000   1.008000   ; qtot -0.219500
  409         hc     16    bbb    H12    409 0.16730000   1.008000   ; qtot -0.052200
  410          c     16    bbb     C7    410 0.72110000  12.010000   ; qtot 0.668900
  411          c     16    bbb     C8    411 0.72110000  12.010000   ; qtot 1.390000
  412          o     16    bbb     O1    412 -0.61950000  16.000000   ; qtot 0.770500
  413          o     16    bbb     O2    413 -0.61950000  16.000000   ; qtot 0.151000
  414          n     16    bbb     N4    414 -0.46580000  14.010000   ; qtot -0.314800
  415         hn     16    bbb    H21    415 0.31480000   1.008000   ; qtot -0.000000
; residue   17 bbb rtp bbb q -0.0
  416         c3     17    bbb     C1    416 0.44180000  12.010000   ; qtot 0.441800
  417         h1     17    bbb     H1    417 -0.03530000   1.008000   ; qtot 0.406500
  418         h1     17    bbb     H2    418 -0.03530000   1.008000   ; qtot 0.371200
  419         c3     17    bbb     C2    419 -0.28250000  12.010000   ; qtot 0.088700
  420         h1     17    bbb     H3    420 0.15710000   1.008000   ; qtot 0.245800
  421         h1     17    bbb     H4    421 0.15710000   1.008000   ; qtot 0.402900
  422         n3     17    bbb     N1    422 -0.74090000  14.010000   ; qtot -0.338000
  423         c3     17    bbb     C3    423 0.51680000  12.010000   ; qtot 0.178800
  424         h1     17    bbb     H5    424 -0.05230000   1.008000   ; qtot 0.126500
  425         h1     17    bbb     H6    425 -0.05230000   1.008000   ; qtot 0.074200
  426         c3     17    bbb     C4    426 0.51680000  12.010000   ; qtot 0.591000
  427         h1     17    bbb     H7    427 -0.05230000   1.008000   ; qtot 0.538700
  428         h1     17    bbb     H8    428 -0.05230000   1.008000   ; qtot 0.486400
  429         c3     17    bbb     C5    429 -0.60390000  12.010000   ; qtot -0.117500
  430         hc     17    bbb     H9    430 0.16730000   1.008000   ; qtot 0.049800
  431         hc     17    bbb    H10    431 0.16730000   1.008000   ; qtot 0.217100
  432         c3     17    bbb     C6    432 -0.60390000  12.010000   ; qtot -0.386800
  433         hc     17    bbb    H11    433 0.16730000   1.008000   ; qtot -0.219500
  434         hc     17    bbb    H12    434 0.16730000   1.008000   ; qtot -0.052200
  435          c     17    bbb     C7    435 0.72110000  12.010000   ; qtot 0.668900
  436          c     17    bbb     C8    436 0.72110000  12.010000   ; qtot 1.390000
  437          o     17    bbb     O1    437 -0.61950000  16.000000   ; qtot 0.770500
  438          o     17    bbb     O2    438 -0.61950000  16.000000   ; qtot 0.151000
  439          n     17    bbb     N4    439 -0.46580000  14.010000   ; qtot -0.314800
  440         hn     17    bbb    H21    440 0.31480000   1.008000   ; qtot -0.000000
; residue   18 bbb rtp bbb q -0.0
  441         c3     18    bbb     C1    441 0.44180000  12.010000   ; qtot 0.441800
  442         h1     18    bbb     H1    442 -0.03530000   1.008000   ; qtot 0.406500
  443         h1     18    bbb     H2    443 -0.03530000   1.008000   ; qtot 0.371200
  444         c3     18    bbb     C2    444 -0.28250000  12.010000   ; qtot 0.088700
  445         h1     18    bbb     H3    445 0.15710000   1.008000   ; qtot 0.245800
  446         h1     18    bbb     H4    446 0.15710000   1.008000   ; qtot 0.402900
  447         n3     18    bbb     N1    447 -0.74090000  14.010000   ; qtot -0.338000
  448         c3     18    bbb     C3    448 0.51680000  12.010000   ; qtot 0.178800
  449         h1     18    bbb     H5    449 -0.05230000   1.008000   ; qtot 0.126500
  450         h1     18    bbb     H6    450 -0.05230000   1.008000   ; qtot 0.074200
  451         c3     18    bbb     C4    451 0.51680000  12.010000   ; qtot 0.591000
  452         h1     18    bbb     H7    452 -0.05230000   1.008000   ; qtot 0.538700
  453         h1     18    bbb     H8    453 -0.05230000   1.008000   ; qtot 0.486400
  454         c3     18    bbb     C5    454 -0.60390000  12.010000   ; qtot -0.117500
  455         hc     18    bbb     H9    455 0.16730000   1.008000   ; qtot 0.049800
  456         hc     18    bbb    H10    456 0.16730000   1.008000   ; qtot 0.217100
  457         c3     18    bbb     C6    457 -0.60390000  12.010000   ; qtot -0.386800
  458         hc     18    bbb    H11    458 0.16730000   1.008000   ; qtot -0.219500
  459         hc     18    bbb    H12    459 0.16730000   1.008000   ; qtot -0.052200
  460          c     18    bbb     C7    460 0.72110000  12.010000   ; qtot 0.668900
  461          c     18    bbb     C8    461 0.72110000  12.010000   ; qtot 1.390000
  462          o     18    bbb     O1    462 -0.61950000  16.000000   ; qtot 0.770500
  463          o     18    bbb     O2    463 -0.61950000  16.000000   ; qtot 0.151000
  464          n     18    bbb     N4    464 -0.46580000  14.010000   ; qtot -0.314800
  465         hn     18    bbb    H21    465 0.31480000   1.008000   ; qtot -0.000000
; residue   19 bbb rtp bbb q -0.0
  466         c3     19    bbb     C1    466 0.44180000  12.010000   ; qtot 0.441800
  467         h1     19    bbb     H1    467 -0.03530000   1.008000   ; qtot 0.406500
  468         h1     19    bbb     H2    468 -0.03530000   1.008000   ; qtot 0.371200
  469         c3     19    bbb     C2    469 -0.28250000  12.010000   ; qtot 0.088700
  470         h1     19    bbb     H3    470 0.15710000   1.008000   ; qtot 0.245800
  471         h1     19    bbb     H4    471 0.15710000   1.008000   ; qtot 0.402900
  472         n3     19    bbb     N1    472 -0.74090000  14.010000   ; qtot -0.338000
  473         c3     19    bbb     C3    473 0.51680000  12.010000   ; qtot 0.178800
  474         h1     19    bbb     H5    474 -0.05230000   1.008000   ; qtot 0.126500
  475         h1     19    bbb     H6    475 -0.05230000   1.008000   ; qtot 0.074200
  476         c3     19    bbb     C4    476 0.51680000  12.010000   ; qtot 0.591000
  477         h1     19    bbb     H7    477 -0.05230000   1.008000   ; qtot 0.538700
  478         h1     19    bbb     H8    478 -0.05230000   1.008000   ; qtot 0.486400
  479         c3     19    bbb     C5    479 -0.60390000  12.010000   ; qtot -0.117500
  480         hc     19    bbb     H9    480 0.16730000   1.008000   ; qtot 0.049800
  481         hc     19    bbb    H10    481 0.16730000   1.008000   ; qtot 0.217100
  482         c3     19    bbb     C6    482 -0.60390000  12.010000   ; qtot -0.386800
  483         hc     19    bbb    H11    483 0.16730000   1.008000   ; qtot -0.219500
  484         hc     19    bbb    H12    484 0.16730000   1.008000   ; qtot -0.052200
  485          c     19    bbb     C7    485 0.72110000  12.010000   ; qtot 0.668900
  486          c     19    bbb     C8    486 0.72110000  12.010000   ; qtot 1.390000
  487          o     19    bbb     O1    487 -0.61950000  16.000000   ; qtot 0.770500
  488          o     19    bbb     O2    488 -0.61950000  16.000000   ; qtot 0.151000
  489          n     19    bbb     N4    489 -0.46580000  14.010000   ; qtot -0.314800
  490         hn     19    bbb    H21    490 0.31480000   1.008000   ; qtot -0.000000
; residue   20 bbb rtp bbb q -0.0
  491         c3     20    bbb     C1    491 0.44180000  12.010000   ; qtot 0.441800
  492         h1     20    bbb     H1    492 -0.03530000   1.008000   ; qtot 0.406500
  493         h1     20    bbb     H2    493 -0.03530000   1.008000   ; qtot 0.371200
  494         c3     20    bbb     C2    494 -0.28250000  12.010000   ; qtot 0.088700
  495         h1     20    bbb     H3    495 0.15710000   1.008000   ; qtot 0.245800
  496         h1     20    bbb     H4    496 0.15710000   1.008000   ; qtot 0.402900
  497         n3     20    bbb     N1    497 -0.74090000  14.010000   ; qtot -0.338000
  498         c3     20    bbb     C3    498 0.51680000  12.010000   ; qtot 0.178800
  499         h1     20    bbb     H5    499 -0.05230000   1.008000   ; qtot 0.126500
  500         h1     20    bbb     H6    500 -0.05230000   1.008000   ; qtot 0.074200
  501         c3     20    bbb     C4    501 0.51680000  12.010000   ; qtot 0.591000
  502         h1     20    bbb     H7    502 -0.05230000   1.008000   ; qtot 0.538700
  503         h1     20    bbb     H8    503 -0.05230000   1.008000   ; qtot 0.486400
  504         c3     20    bbb     C5    504 -0.60390000  12.010000   ; qtot -0.117500
  505         hc     20    bbb     H9    505 0.16730000   1.008000   ; qtot 0.049800
  506         hc     20    bbb    H10    506 0.16730000   1.008000   ; qtot 0.217100
  507         c3     20    bbb     C6    507 -0.60390000  12.010000   ; qtot -0.386800
  508         hc     20    bbb    H11    508 0.16730000   1.008000   ; qtot -0.219500
  509         hc     20    bbb    H12    509 0.16730000   1.008000   ; qtot -0.052200
  510          c     20    bbb     C7    510 0.72110000  12.010000   ; qtot 0.668900
  511          c     20    bbb     C8    511 0.72110000  12.010000   ; qtot 1.390000
  512          o     20    bbb     O1    512 -0.61950000  16.000000   ; qtot 0.770500
  513          o     20    bbb     O2    513 -0.61950000  16.000000   ; qtot 0.151000
  514          n     20    bbb     N4    514 -0.46580000  14.010000   ; qtot -0.314800
  515         hn     20    bbb    H21    515 0.31480000   1.008000   ; qtot -0.000000
; residue   21 bbb rtp bbb q -0.0
  516         c3     21    bbb     C1    516 0.44180000  12.010000   ; qtot 0.441800
  517         h1     21    bbb     H1    517 -0.03530000   1.008000   ; qtot 0.406500
  518         h1     21    bbb     H2    518 -0.03530000   1.008000   ; qtot 0.371200
  519         c3     21    bbb     C2    519 -0.28250000  12.010000   ; qtot 0.088700
  520         h1     21    bbb     H3    520 0.15710000   1.008000   ; qtot 0.245800
  521         h1     21    bbb     H4    521 0.15710000   1.008000   ; qtot 0.402900
  522         n3     21    bbb     N1    522 -0.74090000  14.010000   ; qtot -0.338000
  523         c3     21    bbb     C3    523 0.51680000  12.010000   ; qtot 0.178800
  524         h1     21    bbb     H5    524 -0.05230000   1.008000   ; qtot 0.126500
  525         h1     21    bbb     H6    525 -0.05230000   1.008000   ; qtot 0.074200
  526         c3     21    bbb     C4    526 0.51680000  12.010000   ; qtot 0.591000
  527         h1     21    bbb     H7    527 -0.05230000   1.008000   ; qtot 0.538700
  528         h1     21    bbb     H8    528 -0.05230000   1.008000   ; qtot 0.486400
  529         c3     21    bbb     C5    529 -0.60390000  12.010000   ; qtot -0.117500
  530         hc     21    bbb     H9    530 0.16730000   1.008000   ; qtot 0.049800
  531         hc     21    bbb    H10    531 0.16730000   1.008000   ; qtot 0.217100
  532         c3     21    bbb     C6    532 -0.60390000  12.010000   ; qtot -0.386800
  533         hc     21    bbb    H11    533 0.16730000   1.008000   ; qtot -0.219500
  534         hc     21    bbb    H12    534 0.16730000   1.008000   ; qtot -0.052200
  535          c     21    bbb     C7    535 0.72110000  12.010000   ; qtot 0.668900
  536          c     21    bbb     C8    536 0.72110000  12.010000   ; qtot 1.390000
  537          o     21    bbb     O1    537 -0.61950000  16.000000   ; qtot 0.770500
  538          o     21    bbb     O2    538 -0.61950000  16.000000   ; qtot 0.151000
  539          n     21    bbb     N4    539 -0.46580000  14.010000   ; qtot -0.314800
  540         hn     21    bbb    H21    540 0.31480000   1.008000   ; qtot -0.000000
; residue   22 bbb rtp bbb q -0.0
  541         c3     22    bbb     C1    541 0.44180000  12.010000   ; qtot 0.441800
  542         h1     22    bbb     H1    542 -0.03530000   1.008000   ; qtot 0.406500
  543         h1     22    bbb     H2    543 -0.03530000   1.008000   ; qtot 0.371200
  544         c3     22    bbb     C2    544 -0.28250000  12.010000   ; qtot 0.088700
  545         h1     22    bbb     H3    545 0.15710000   1.008000   ; qtot 0.245800
  546         h1     22    bbb     H4    546 0.15710000   1.008000   ; qtot 0.402900
  547         n3     22    bbb     N1    547 -0.74090000  14.010000   ; qtot -0.338000
  548         c3     22    bbb     C3    548 0.51680000  12.010000   ; qtot 0.178800
  549         h1     22    bbb     H5    549 -0.05230000   1.008000   ; qtot 0.126500
  550         h1     22    bbb     H6    550 -0.05230000   1.008000   ; qtot 0.074200
  551         c3     22    bbb     C4    551 0.51680000  12.010000   ; qtot 0.591000
  552         h1     22    bbb     H7    552 -0.05230000   1.008000   ; qtot 0.538700
  553         h1     22    bbb     H8    553 -0.05230000   1.008000   ; qtot 0.486400
  554         c3     22    bbb     C5    554 -0.60390000  12.010000   ; qtot -0.117500
  555         hc     22    bbb     H9    555 0.16730000   1.008000   ; qtot 0.049800
  556         hc     22    bbb    H10    556 0.16730000   1.008000   ; qtot 0.217100
  557         c3     22    bbb     C6    557 -0.60390000  12.010000   ; qtot -0.386800
  558         hc     22    bbb    H11    558 0.16730000   1.008000   ; qtot -0.219500
  559         hc     22    bbb    H12    559 0.16730000   1.008000   ; qtot -0.052200
  560          c     22    bbb     C7    560 0.72110000  12.010000   ; qtot 0.668900
  561          c     22    bbb     C8    561 0.72110000  12.010000   ; qtot 1.390000
  562          o     22    bbb     O1    562 -0.61950000  16.000000   ; qtot 0.770500
  563          o     22    bbb     O2    563 -0.61950000  16.000000   ; qtot 0.151000
  564          n     22    bbb     N4    564 -0.46580000  14.010000   ; qtot -0.314800
  565         hn     22    bbb    H21    565 0.31480000   1.008000   ; qtot -0.000000
; residue   23 bbb rtp bbb q -0.0
  566         c3     23    bbb     C1    566 0.44180000  12.010000   ; qtot 0.441800
  567         h1     23    bbb     H1    567 -0.03530000   1.008000   ; qtot 0.406500
  568         h1     23    bbb     H2    568 -0.03530000   1.008000   ; qtot 0.371200
  569         c3     23    bbb     C2    569 -0.28250000  12.010000   ; qtot 0.088700
  570         h1     23    bbb     H3    570 0.15710000   1.008000   ; qtot 0.245800
  571         h1     23    bbb     H4    571 0.15710000   1.008000   ; qtot 0.402900
  572         n3     23    bbb     N1    572 -0.74090000  14.010000   ; qtot -0.338000
  573         c3     23    bbb     C3    573 0.51680000  12.010000   ; qtot 0.178800
  574         h1     23    bbb     H5    574 -0.05230000   1.008000   ; qtot 0.126500
  575         h1     23    bbb     H6    575 -0.05230000   1.008000   ; qtot 0.074200
  576         c3     23    bbb     C4    576 0.51680000  12.010000   ; qtot 0.591000
  577         h1     23    bbb     H7    577 -0.05230000   1.008000   ; qtot 0.538700
  578         h1     23    bbb     H8    578 -0.05230000   1.008000   ; qtot 0.486400
  579         c3     23    bbb     C5    579 -0.60390000  12.010000   ; qtot -0.117500
  580         hc     23    bbb     H9    580 0.16730000   1.008000   ; qtot 0.049800
  581         hc     23    bbb    H10    581 0.16730000   1.008000   ; qtot 0.217100
  582         c3     23    bbb     C6    582 -0.60390000  12.010000   ; qtot -0.386800
  583         hc     23    bbb    H11    583 0.16730000   1.008000   ; qtot -0.219500
  584         hc     23    bbb    H12    584 0.16730000   1.008000   ; qtot -0.052200
  585          c     23    bbb     C7    585 0.72110000  12.010000   ; qtot 0.668900
  586          c     23    bbb     C8    586 0.72110000  12.010000   ; qtot 1.390000
  587          o     23    bbb     O1    587 -0.61950000  16.000000   ; qtot 0.770500
  588          o     23    bbb     O2    588 -0.61950000  16.000000   ; qtot 0.151000
  589          n     23    bbb     N4    589 -0.46580000  14.010000   ; qtot -0.314800
  590         hn     23    bbb    H21    590 0.31480000   1.008000   ; qtot -0.000000
; residue   24 bbb rtp bbb q -0.0
  591         c3     24    bbb     C1    591 0.44180000  12.010000   ; qtot 0.441800
  592         h1     24    bbb     H1    592 -0.03530000   1.008000   ; qtot 0.406500
  593         h1     24    bbb     H2    593 -0.03530000   1.008000   ; qtot 0.371200
  594         c3     24    bbb     C2    594 -0.28250000  12.010000   ; qtot 0.088700
  595         h1     24    bbb     H3    595 0.15710000   1.008000   ; qtot 0.245800
  596         h1     24    bbb     H4    596 0.15710000   1.008000   ; qtot 0.402900
  597         n3     24    bbb     N1    597 -0.74090000  14.010000   ; qtot -0.338000
  598         c3     24    bbb     C3    598 0.51680000  12.010000   ; qtot 0.178800
  599         h1     24    bbb     H5    599 -0.05230000   1.008000   ; qtot 0.126500
  600         h1     24    bbb     H6    600 -0.05230000   1.008000   ; qtot 0.074200
  601         c3     24    bbb     C4    601 0.51680000  12.010000   ; qtot 0.591000
  602         h1     24    bbb     H7    602 -0.05230000   1.008000   ; qtot 0.538700
  603         h1     24    bbb     H8    603 -0.05230000   1.008000   ; qtot 0.486400
  604         c3     24    bbb     C5    604 -0.60390000  12.010000   ; qtot -0.117500
  605         hc     24    bbb     H9    605 0.16730000   1.008000   ; qtot 0.049800
  606         hc     24    bbb    H10    606 0.16730000   1.008000   ; qtot 0.217100
  607         c3     24    bbb     C6    607 -0.60390000  12.010000   ; qtot -0.386800
  608         hc     24    bbb    H11    608 0.16730000   1.008000   ; qtot -0.219500
  609         hc     24    bbb    H12    609 0.16730000   1.008000   ; qtot -0.052200
  610          c     24    bbb     C7    610 0.72110000  12.010000   ; qtot 0.668900
  611          c     24    bbb     C8    611 0.72110000  12.010000   ; qtot 1.390000
  612          o     24    bbb     O1    612 -0.61950000  16.000000   ; qtot 0.770500
  613          o     24    bbb     O2    613 -0.61950000  16.000000   ; qtot 0.151000
  614          n     24    bbb     N4    614 -0.46580000  14.010000   ; qtot -0.314800
  615         hn     24    bbb    H21    615 0.31480000   1.008000   ; qtot -0.000000
; residue   25 bbb rtp bbb q -0.0
  616         c3     25    bbb     C1    616 0.44180000  12.010000   ; qtot 0.441800
  617         h1     25    bbb     H1    617 -0.03530000   1.008000   ; qtot 0.406500
  618         h1     25    bbb     H2    618 -0.03530000   1.008000   ; qtot 0.371200
  619         c3     25    bbb     C2    619 -0.28250000  12.010000   ; qtot 0.088700
  620         h1     25    bbb     H3    620 0.15710000   1.008000   ; qtot 0.245800
  621         h1     25    bbb     H4    621 0.15710000   1.008000   ; qtot 0.402900
  622         n3     25    bbb     N1    622 -0.74090000  14.010000   ; qtot -0.338000
  623         c3     25    bbb     C3    623 0.51680000  12.010000   ; qtot 0.178800
  624         h1     25    bbb     H5    624 -0.05230000   1.008000   ; qtot 0.126500
  625         h1     25    bbb     H6    625 -0.05230000   1.008000   ; qtot 0.074200
  626         c3     25    bbb     C4    626 0.51680000  12.010000   ; qtot 0.591000
  627         h1     25    bbb     H7    627 -0.05230000   1.008000   ; qtot 0.538700
  628         h1     25    bbb     H8    628 -0.05230000   1.008000   ; qtot 0.486400
  629         c3     25    bbb     C5    629 -0.60390000  12.010000   ; qtot -0.117500
  630         hc     25    bbb     H9    630 0.16730000   1.008000   ; qtot 0.049800
  631         hc     25    bbb    H10    631 0.16730000   1.008000   ; qtot 0.217100
  632         c3     25    bbb     C6    632 -0.60390000  12.010000   ; qtot -0.386800
  633         hc     25    bbb    H11    633 0.16730000   1.008000   ; qtot -0.219500
  634         hc     25    bbb    H12    634 0.16730000   1.008000   ; qtot -0.052200
  635          c     25    bbb     C7    635 0.72110000  12.010000   ; qtot 0.668900
  636          c     25    bbb     C8    636 0.72110000  12.010000   ; qtot 1.390000
  637          o     25    bbb     O1    637 -0.61950000  16.000000   ; qtot 0.770500
  638          o     25    bbb     O2    638 -0.61950000  16.000000   ; qtot 0.151000
  639          n     25    bbb     N4    639 -0.46580000  14.010000   ; qtot -0.314800
  640         hn     25    bbb    H21    640 0.31480000   1.008000   ; qtot -0.000000
; residue   26 bbb rtp bbb q -0.0
  641         c3     26    bbb     C1    641 0.44180000  12.010000   ; qtot 0.441800
  642         h1     26    bbb     H1    642 -0.03530000   1.008000   ; qtot 0.406500
  643         h1     26    bbb     H2    643 -0.03530000   1.008000   ; qtot 0.371200
  644         c3     26    bbb     C2    644 -0.28250000  12.010000   ; qtot 0.088700
  645         h1     26    bbb     H3    645 0.15710000   1.008000   ; qtot 0.245800
  646         h1     26    bbb     H4    646 0.15710000   1.008000   ; qtot 0.402900
  647         n3     26    bbb     N1    647 -0.74090000  14.010000   ; qtot -0.338000
  648         c3     26    bbb     C3    648 0.51680000  12.010000   ; qtot 0.178800
  649         h1     26    bbb     H5    649 -0.05230000   1.008000   ; qtot 0.126500
  650         h1     26    bbb     H6    650 -0.05230000   1.008000   ; qtot 0.074200
  651         c3     26    bbb     C4    651 0.51680000  12.010000   ; qtot 0.591000
  652         h1     26    bbb     H7    652 -0.05230000   1.008000   ; qtot 0.538700
  653         h1     26    bbb     H8    653 -0.05230000   1.008000   ; qtot 0.486400
  654         c3     26    bbb     C5    654 -0.60390000  12.010000   ; qtot -0.117500
  655         hc     26    bbb     H9    655 0.16730000   1.008000   ; qtot 0.049800
  656         hc     26    bbb    H10    656 0.16730000   1.008000   ; qtot 0.217100
  657         c3     26    bbb     C6    657 -0.60390000  12.010000   ; qtot -0.386800
  658         hc     26    bbb    H11    658 0.16730000   1.008000   ; qtot -0.219500
  659         hc     26    bbb    H12    659 0.16730000   1.008000   ; qtot -0.052200
  660          c     26    bbb     C7    660 0.72110000  12.010000   ; qtot 0.668900
  661          c     26    bbb     C8    661 0.72110000  12.010000   ; qtot 1.390000
  662          o     26    bbb     O1    662 -0.61950000  16.000000   ; qtot 0.770500
  663          o     26    bbb     O2    663 -0.61950000  16.000000   ; qtot 0.151000
  664          n     26    bbb     N4    664 -0.46580000  14.010000   ; qtot -0.314800
  665         hn     26    bbb    H21    665 0.31480000   1.008000   ; qtot -0.000000
; residue   27 bbb rtp bbb q -0.0
  666         c3     27    bbb     C1    666 0.44180000  12.010000   ; qtot 0.441800
  667         h1     27    bbb     H1    667 -0.03530000   1.008000   ; qtot 0.406500
  668         h1     27    bbb     H2    668 -0.03530000   1.008000   ; qtot 0.371200
  669         c3     27    bbb     C2    669 -0.28250000  12.010000   ; qtot 0.088700
  670         h1     27    bbb     H3    670 0.15710000   1.008000   ; qtot 0.245800
  671         h1     27    bbb     H4    671 0.15710000   1.008000   ; qtot 0.402900
  672         n3     27    bbb     N1    672 -0.74090000  14.010000   ; qtot -0.338000
  673         c3     27    bbb     C3    673 0.51680000  12.010000   ; qtot 0.178800
  674         h1     27    bbb     H5    674 -0.05230000   1.008000   ; qtot 0.126500
  675         h1     27    bbb     H6    675 -0.05230000   1.008000   ; qtot 0.074200
  676         c3     27    bbb     C4    676 0.51680000  12.010000   ; qtot 0.591000
  677         h1     27    bbb     H7    677 -0.05230000   1.008000   ; qtot 0.538700
  678         h1     27    bbb     H8    678 -0.05230000   1.008000   ; qtot 0.486400
  679         c3     27    bbb     C5    679 -0.60390000  12.010000   ; qtot -0.117500
  680         hc     27    bbb     H9    680 0.16730000   1.008000   ; qtot 0.049800
  681         hc     27    bbb    H10    681 0.16730000   1.008000   ; qtot 0.217100
  682         c3     27    bbb     C6    682 -0.60390000  12.010000   ; qtot -0.386800
  683         hc     27    bbb    H11    683 0.16730000   1.008000   ; qtot -0.219500
  684         hc     27    bbb    H12    684 0.16730000   1.008000   ; qtot -0.052200
  685          c     27    bbb     C7    685 0.72110000  12.010000   ; qtot 0.668900
  686          c     27    bbb     C8    686 0.72110000  12.010000   ; qtot 1.390000
  687          o     27    bbb     O1    687 -0.61950000  16.000000   ; qtot 0.770500
  688          o     27    bbb     O2    688 -0.61950000  16.000000   ; qtot 0.151000
  689          n     27    bbb     N4    689 -0.46580000  14.010000   ; qtot -0.314800
  690         hn     27    bbb    H21    690 0.31480000   1.008000   ; qtot -0.000000
; residue   28 bbb rtp bbb q -0.0
  691         c3     28    bbb     C1    691 0.44180000  12.010000   ; qtot 0.441800
  692         h1     28    bbb     H1    692 -0.03530000   1.008000   ; qtot 0.406500
  693         h1     28    bbb     H2    693 -0.03530000   1.008000   ; qtot 0.371200
  694         c3     28    bbb     C2    694 -0.28250000  12.010000   ; qtot 0.088700
  695         h1     28    bbb     H3    695 0.15710000   1.008000   ; qtot 0.245800
  696         h1     28    bbb     H4    696 0.15710000   1.008000   ; qtot 0.402900
  697         n3     28    bbb     N1    697 -0.74090000  14.010000   ; qtot -0.338000
  698         c3     28    bbb     C3    698 0.51680000  12.010000   ; qtot 0.178800
  699         h1     28    bbb     H5    699 -0.05230000   1.008000   ; qtot 0.126500
  700         h1     28    bbb     H6    700 -0.05230000   1.008000   ; qtot 0.074200
  701         c3     28    bbb     C4    701 0.51680000  12.010000   ; qtot 0.591000
  702         h1     28    bbb     H7    702 -0.05230000   1.008000   ; qtot 0.538700
  703         h1     28    bbb     H8    703 -0.05230000   1.008000   ; qtot 0.486400
  704         c3     28    bbb     C5    704 -0.60390000  12.010000   ; qtot -0.117500
  705         hc     28    bbb     H9    705 0.16730000   1.008000   ; qtot 0.049800
  706         hc     28    bbb    H10    706 0.16730000   1.008000   ; qtot 0.217100
  707         c3     28    bbb     C6    707 -0.60390000  12.010000   ; qtot -0.386800
  708         hc     28    bbb    H11    708 0.16730000   1.008000   ; qtot -0.219500
  709         hc     28    bbb    H12    709 0.16730000   1.008000   ; qtot -0.052200
  710          c     28    bbb     C7    710 0.72110000  12.010000   ; qtot 0.668900
  711          c     28    bbb     C8    711 0.72110000  12.010000   ; qtot 1.390000
  712          o     28    bbb     O1    712 -0.61950000  16.000000   ; qtot 0.770500
  713          o     28    bbb     O2    713 -0.61950000  16.000000   ; qtot 0.151000
  714          n     28    bbb     N4    714 -0.46580000  14.010000   ; qtot -0.314800
  715         hn     28    bbb    H21    715 0.31480000   1.008000   ; qtot -0.000000
; residue   29 bbb rtp bbb q -0.0
  716         c3     29    bbb     C1    716 0.44180000  12.010000   ; qtot 0.441800
  717         h1     29    bbb     H1    717 -0.03530000   1.008000   ; qtot 0.406500
  718         h1     29    bbb     H2    718 -0.03530000   1.008000   ; qtot 0.371200
  719         c3     29    bbb     C2    719 -0.28250000  12.010000   ; qtot 0.088700
  720         h1     29    bbb     H3    720 0.15710000   1.008000   ; qtot 0.245800
  721         h1     29    bbb     H4    721 0.15710000   1.008000   ; qtot 0.402900
  722         n3     29    bbb     N1    722 -0.74090000  14.010000   ; qtot -0.338000
  723         c3     29    bbb     C3    723 0.51680000  12.010000   ; qtot 0.178800
  724         h1     29    bbb     H5    724 -0.05230000   1.008000   ; qtot 0.126500
  725         h1     29    bbb     H6    725 -0.05230000   1.008000   ; qtot 0.074200
  726         c3     29    bbb     C4    726 0.51680000  12.010000   ; qtot 0.591000
  727         h1     29    bbb     H7    727 -0.05230000   1.008000   ; qtot 0.538700
  728         h1     29    bbb     H8    728 -0.05230000   1.008000   ; qtot 0.486400
  729         c3     29    bbb     C5    729 -0.60390000  12.010000   ; qtot -0.117500
  730         hc     29    bbb     H9    730 0.16730000   1.008000   ; qtot 0.049800
  731         hc     29    bbb    H10    731 0.16730000   1.008000   ; qtot 0.217100
  732         c3     29    bbb     C6    732 -0.60390000  12.010000   ; qtot -0.386800
  733         hc     29    bbb    H11    733 0.16730000   1.008000   ; qtot -0.219500
  734         hc     29    bbb    H12    734 0.16730000   1.008000   ; qtot -0.052200
  735          c     29    bbb     C7    735 0.72110000  12.010000   ; qtot 0.668900
  736          c     29    bbb     C8    736 0.72110000  12.010000   ; qtot 1.390000
  737          o     29    bbb     O1    737 -0.61950000  16.000000   ; qtot 0.770500
  738          o     29    bbb     O2    738 -0.61950000  16.000000   ; qtot 0.151000
  739          n     29    bbb     N4    739 -0.46580000  14.010000   ; qtot -0.314800
  740         hn     29    bbb    H21    740 0.31480000   1.008000   ; qtot -0.000000
; residue   30 bbb rtp bbb q -0.0
  741         c3     30    bbb     C1    741 0.44180000  12.010000   ; qtot 0.441800
  742         h1     30    bbb     H1    742 -0.03530000   1.008000   ; qtot 0.406500
  743         h1     30    bbb     H2    743 -0.03530000   1.008000   ; qtot 0.371200
  744         c3     30    bbb     C2    744 -0.28250000  12.010000   ; qtot 0.088700
  745         h1     30    bbb     H3    745 0.15710000   1.008000   ; qtot 0.245800
  746         h1     30    bbb     H4    746 0.15710000   1.008000   ; qtot 0.402900
  747         n3     30    bbb     N1    747 -0.74090000  14.010000   ; qtot -0.338000
  748         c3     30    bbb     C3    748 0.51680000  12.010000   ; qtot 0.178800
  749         h1     30    bbb     H5    749 -0.05230000   1.008000   ; qtot 0.126500
  750         h1     30    bbb     H6    750 -0.05230000   1.008000   ; qtot 0.074200
  751         c3     30    bbb     C4    751 0.51680000  12.010000   ; qtot 0.591000
  752         h1     30    bbb     H7    752 -0.05230000   1.008000   ; qtot 0.538700
  753         h1     30    bbb     H8    753 -0.05230000   1.008000   ; qtot 0.486400
  754         c3     30    bbb     C5    754 -0.60390000  12.010000   ; qtot -0.117500
  755         hc     30    bbb     H9    755 0.16730000   1.008000   ; qtot 0.049800
  756         hc     30    bbb    H10    756 0.16730000   1.008000   ; qtot 0.217100
  757         c3     30    bbb     C6    757 -0.60390000  12.010000   ; qtot -0.386800
  758         hc     30    bbb    H11    758 0.16730000   1.008000   ; qtot -0.219500
  759         hc     30    bbb    H12    759 0.16730000   1.008000   ; qtot -0.052200
  760          c     30    bbb     C7    760 0.72110000  12.010000   ; qtot 0.668900
  761          c     30    bbb     C8    761 0.72110000  12.010000   ; qtot 1.390000
  762          o     30    bbb     O1    762 -0.61950000  16.000000   ; qtot 0.770500
  763          o     30    bbb     O2    763 -0.61950000  16.000000   ; qtot 0.151000
  764          n     30    bbb     N4    764 -0.46580000  14.010000   ; qtot -0.314800
  765         hn     30    bbb    H21    765 0.31480000   1.008000   ; qtot -0.000000
; residue   31 bbb rtp bbb q -0.0
  766         c3     31    bbb     C1    766 0.44180000  12.010000   ; qtot 0.441800
  767         h1     31    bbb     H1    767 -0.03530000   1.008000   ; qtot 0.406500
  768         h1     31    bbb     H2    768 -0.03530000   1.008000   ; qtot 0.371200
  769         c3     31    bbb     C2    769 -0.28250000  12.010000   ; qtot 0.088700
  770         h1     31    bbb     H3    770 0.15710000   1.008000   ; qtot 0.245800
  771         h1     31    bbb     H4    771 0.15710000   1.008000   ; qtot 0.402900
  772         n3     31    bbb     N1    772 -0.74090000  14.010000   ; qtot -0.338000
  773         c3     31    bbb     C3    773 0.51680000  12.010000   ; qtot 0.178800
  774         h1     31    bbb     H5    774 -0.05230000   1.008000   ; qtot 0.126500
  775         h1     31    bbb     H6    775 -0.05230000   1.008000   ; qtot 0.074200
  776         c3     31    bbb     C4    776 0.51680000  12.010000   ; qtot 0.591000
  777         h1     31    bbb     H7    777 -0.05230000   1.008000   ; qtot 0.538700
  778         h1     31    bbb     H8    778 -0.05230000   1.008000   ; qtot 0.486400
  779         c3     31    bbb     C5    779 -0.60390000  12.010000   ; qtot -0.117500
  780         hc     31    bbb     H9    780 0.16730000   1.008000   ; qtot 0.049800
  781         hc     31    bbb    H10    781 0.16730000   1.008000   ; qtot 0.217100
  782         c3     31    bbb     C6    782 -0.60390000  12.010000   ; qtot -0.386800
  783         hc     31    bbb    H11    783 0.16730000   1.008000   ; qtot -0.219500
  784         hc     31    bbb    H12    784 0.16730000   1.008000   ; qtot -0.052200
  785          c     31    bbb     C7    785 0.72110000  12.010000   ; qtot 0.668900
  786          c     31    bbb     C8    786 0.72110000  12.010000   ; qtot 1.390000
  787          o     31    bbb     O1    787 -0.61950000  16.000000   ; qtot 0.770500
  788          o     31    bbb     O2    788 -0.61950000  16.000000   ; qtot 0.151000
  789          n     31    bbb     N4    789 -0.46580000  14.010000   ; qtot -0.314800
  790         hn     31    bbb    H21    790 0.31480000   1.008000   ; qtot -0.000000
; residue   32 bbb rtp bbb q -0.0
  791         c3     32    bbb     C1    791 0.44180000  12.010000   ; qtot 0.441800
  792         h1     32    bbb     H1    792 -0.03530000   1.008000   ; qtot 0.406500
  793         h1     32    bbb     H2    793 -0.03530000   1.008000   ; qtot 0.371200
  794         c3     32    bbb     C2    794 -0.28250000  12.010000   ; qtot 0.088700
  795         h1     32    bbb     H3    795 0.15710000   1.008000   ; qtot 0.245800
  796         h1     32    bbb     H4    796 0.15710000   1.008000   ; qtot 0.402900
  797         n3     32    bbb     N1    797 -0.74090000  14.010000   ; qtot -0.338000
  798         c3     32    bbb     C3    798 0.51680000  12.010000   ; qtot 0.178800
  799         h1     32    bbb     H5    799 -0.05230000   1.008000   ; qtot 0.126500
  800         h1     32    bbb     H6    800 -0.05230000   1.008000   ; qtot 0.074200
  801         c3     32    bbb     C4    801 0.51680000  12.010000   ; qtot 0.591000
  802         h1     32    bbb     H7    802 -0.05230000   1.008000   ; qtot 0.538700
  803         h1     32    bbb     H8    803 -0.05230000   1.008000   ; qtot 0.486400
  804         c3     32    bbb     C5    804 -0.60390000  12.010000   ; qtot -0.117500
  805         hc     32    bbb     H9    805 0.16730000   1.008000   ; qtot 0.049800
  806         hc     32    bbb    H10    806 0.16730000   1.008000   ; qtot 0.217100
  807         c3     32    bbb     C6    807 -0.60390000  12.010000   ; qtot -0.386800
  808         hc     32    bbb    H11    808 0.16730000   1.008000   ; qtot -0.219500
  809         hc     32    bbb    H12    809 0.16730000   1.008000   ; qtot -0.052200
  810          c     32    bbb     C7    810 0.72110000  12.010000   ; qtot 0.668900
  811          c     32    bbb     C8    811 0.72110000  12.010000   ; qtot 1.390000
  812          o     32    bbb     O1    812 -0.61950000  16.000000   ; qtot 0.770500
  813          o     32    bbb     O2    813 -0.61950000  16.000000   ; qtot 0.151000
  814          n     32    bbb     N4    814 -0.46580000  14.010000   ; qtot -0.314800
  815         hn     32    bbb    H21    815 0.31480000   1.008000   ; qtot -0.000000
; residue   33 bbb rtp bbb q -0.0
  816         c3     33    bbb     C1    816 0.44180000  12.010000   ; qtot 0.441800
  817         h1     33    bbb     H1    817 -0.03530000   1.008000   ; qtot 0.406500
  818         h1     33    bbb     H2    818 -0.03530000   1.008000   ; qtot 0.371200
  819         c3     33    bbb     C2    819 -0.28250000  12.010000   ; qtot 0.088700
  820         h1     33    bbb     H3    820 0.15710000   1.008000   ; qtot 0.245800
  821         h1     33    bbb     H4    821 0.15710000   1.008000   ; qtot 0.402900
  822         n3     33    bbb     N1    822 -0.74090000  14.010000   ; qtot -0.338000
  823         c3     33    bbb     C3    823 0.51680000  12.010000   ; qtot 0.178800
  824         h1     33    bbb     H5    824 -0.05230000   1.008000   ; qtot 0.126500
  825         h1     33    bbb     H6    825 -0.05230000   1.008000   ; qtot 0.074200
  826         c3     33    bbb     C4    826 0.51680000  12.010000   ; qtot 0.591000
  827         h1     33    bbb     H7    827 -0.05230000   1.008000   ; qtot 0.538700
  828         h1     33    bbb     H8    828 -0.05230000   1.008000   ; qtot 0.486400
  829         c3     33    bbb     C5    829 -0.60390000  12.010000   ; qtot -0.117500
  830         hc     33    bbb     H9    830 0.16730000   1.008000   ; qtot 0.049800
  831         hc     33    bbb    H10    831 0.16730000   1.008000   ; qtot 0.217100
  832         c3     33    bbb     C6    832 -0.60390000  12.010000   ; qtot -0.386800
  833         hc     33    bbb    H11    833 0.16730000   1.008000   ; qtot -0.219500
  834         hc     33    bbb    H12    834 0.16730000   1.008000   ; qtot -0.052200
  835          c     33    bbb     C7    835 0.72110000  12.010000   ; qtot 0.668900
  836          c     33    bbb     C8    836 0.72110000  12.010000   ; qtot 1.390000
  837          o     33    bbb     O1    837 -0.61950000  16.000000   ; qtot 0.770500
  838          o     33    bbb     O2    838 -0.61950000  16.000000   ; qtot 0.151000
  839          n     33    bbb     N4    839 -0.46580000  14.010000   ; qtot -0.314800
  840         hn     33    bbb    H21    840 0.31480000   1.008000   ; qtot -0.000000
; residue   34 bbb rtp bbb q -0.0
  841         c3     34    bbb     C1    841 0.44180000  12.010000   ; qtot 0.441800
  842         h1     34    bbb     H1    842 -0.03530000   1.008000   ; qtot 0.406500
  843         h1     34    bbb     H2    843 -0.03530000   1.008000   ; qtot 0.371200
  844         c3     34    bbb     C2    844 -0.28250000  12.010000   ; qtot 0.088700
  845         h1     34    bbb     H3    845 0.15710000   1.008000   ; qtot 0.245800
  846         h1     34    bbb     H4    846 0.15710000   1.008000   ; qtot 0.402900
  847         n3     34    bbb     N1    847 -0.74090000  14.010000   ; qtot -0.338000
  848         c3     34    bbb     C3    848 0.51680000  12.010000   ; qtot 0.178800
  849         h1     34    bbb     H5    849 -0.05230000   1.008000   ; qtot 0.126500
  850         h1     34    bbb     H6    850 -0.05230000   1.008000   ; qtot 0.074200
  851         c3     34    bbb     C4    851 0.51680000  12.010000   ; qtot 0.591000
  852         h1     34    bbb     H7    852 -0.05230000   1.008000   ; qtot 0.538700
  853         h1     34    bbb     H8    853 -0.05230000   1.008000   ; qtot 0.486400
  854         c3     34    bbb     C5    854 -0.60390000  12.010000   ; qtot -0.117500
  855         hc     34    bbb     H9    855 0.16730000   1.008000   ; qtot 0.049800
  856         hc     34    bbb    H10    856 0.16730000   1.008000   ; qtot 0.217100
  857         c3     34    bbb     C6    857 -0.60390000  12.010000   ; qtot -0.386800
  858         hc     34    bbb    H11    858 0.16730000   1.008000   ; qtot -0.219500
  859         hc     34    bbb    H12    859 0.16730000   1.008000   ; qtot -0.052200
  860          c     34    bbb     C7    860 0.72110000  12.010000   ; qtot 0.668900
  861          c     34    bbb     C8    861 0.72110000  12.010000   ; qtot 1.390000
  862          o     34    bbb     O1    862 -0.61950000  16.000000   ; qtot 0.770500
  863          o     34    bbb     O2    863 -0.61950000  16.000000   ; qtot 0.151000
  864          n     34    bbb     N4    864 -0.46580000  14.010000   ; qtot -0.314800
  865         hn     34    bbb    H21    865 0.31480000   1.008000   ; qtot -0.000000
; residue   35 bbb rtp bbb q -0.0
  866         c3     35    bbb     C1    866 0.44180000  12.010000   ; qtot 0.441800
  867         h1     35    bbb     H1    867 -0.03530000   1.008000   ; qtot 0.406500
  868         h1     35    bbb     H2    868 -0.03530000   1.008000   ; qtot 0.371200
  869         c3     35    bbb     C2    869 -0.28250000  12.010000   ; qtot 0.088700
  870         h1     35    bbb     H3    870 0.15710000   1.008000   ; qtot 0.245800
  871         h1     35    bbb     H4    871 0.15710000   1.008000   ; qtot 0.402900
  872         n3     35    bbb     N1    872 -0.74090000  14.010000   ; qtot -0.338000
  873         c3     35    bbb     C3    873 0.51680000  12.010000   ; qtot 0.178800
  874         h1     35    bbb     H5    874 -0.05230000   1.008000   ; qtot 0.126500
  875         h1     35    bbb     H6    875 -0.05230000   1.008000   ; qtot 0.074200
  876         c3     35    bbb     C4    876 0.51680000  12.010000   ; qtot 0.591000
  877         h1     35    bbb     H7    877 -0.05230000   1.008000   ; qtot 0.538700
  878         h1     35    bbb     H8    878 -0.05230000   1.008000   ; qtot 0.486400
  879         c3     35    bbb     C5    879 -0.60390000  12.010000   ; qtot -0.117500
  880         hc     35    bbb     H9    880 0.16730000   1.008000   ; qtot 0.049800
  881         hc     35    bbb    H10    881 0.16730000   1.008000   ; qtot 0.217100
  882         c3     35    bbb     C6    882 -0.60390000  12.010000   ; qtot -0.386800
  883         hc     35    bbb    H11    883 0.16730000   1.008000   ; qtot -0.219500
  884         hc     35    bbb    H12    884 0.16730000   1.008000   ; qtot -0.052200
  885          c     35    bbb     C7    885 0.72110000  12.010000   ; qtot 0.668900
  886          c     35    bbb     C8    886 0.72110000  12.010000   ; qtot 1.390000
  887          o     35    bbb     O1    887 -0.61950000  16.000000   ; qtot 0.770500
  888          o     35    bbb     O2    888 -0.61950000  16.000000   ; qtot 0.151000
  889          n     35    bbb     N4    889 -0.46580000  14.010000   ; qtot -0.314800
  890         hn     35    bbb    H21    890 0.31480000   1.008000   ; qtot -0.000000
; residue   36 bbb rtp bbb q -0.0
  891         c3     36    bbb     C1    891 0.44180000  12.010000   ; qtot 0.441800
  892         h1     36    bbb     H1    892 -0.03530000   1.008000   ; qtot 0.406500
  893         h1     36    bbb     H2    893 -0.03530000   1.008000   ; qtot 0.371200
  894         c3     36    bbb     C2    894 -0.28250000  12.010000   ; qtot 0.088700
  895         h1     36    bbb     H3    895 0.15710000   1.008000   ; qtot 0.245800
  896         h1     36    bbb     H4    896 0.15710000   1.008000   ; qtot 0.402900
  897         n3     36    bbb     N1    897 -0.74090000  14.010000   ; qtot -0.338000
  898         c3     36    bbb     C3    898 0.51680000  12.010000   ; qtot 0.178800
  899         h1     36    bbb     H5    899 -0.05230000   1.008000   ; qtot 0.126500
  900         h1     36    bbb     H6    900 -0.05230000   1.008000   ; qtot 0.074200
  901         c3     36    bbb     C4    901 0.51680000  12.010000   ; qtot 0.591000
  902         h1     36    bbb     H7    902 -0.05230000   1.008000   ; qtot 0.538700
  903         h1     36    bbb     H8    903 -0.05230000   1.008000   ; qtot 0.486400
  904         c3     36    bbb     C5    904 -0.60390000  12.010000   ; qtot -0.117500
  905         hc     36    bbb     H9    905 0.16730000   1.008000   ; qtot 0.049800
  906         hc     36    bbb    H10    906 0.16730000   1.008000   ; qtot 0.217100
  907         c3     36    bbb     C6    907 -0.60390000  12.010000   ; qtot -0.386800
  908         hc     36    bbb    H11    908 0.16730000   1.008000   ; qtot -0.219500
  909         hc     36    bbb    H12    909 0.16730000   1.008000   ; qtot -0.052200
  910          c     36    bbb     C7    910 0.72110000  12.010000   ; qtot 0.668900
  911          c     36    bbb     C8    911 0.72110000  12.010000   ; qtot 1.390000
  912          o     36    bbb     O1    912 -0.61950000  16.000000   ; qtot 0.770500
  913          o     36    bbb     O2    913 -0.61950000  16.000000   ; qtot 0.151000
  914          n     36    bbb     N4    914 -0.46580000  14.010000   ; qtot -0.314800
  915         hn     36    bbb    H21    915 0.31480000   1.008000   ; qtot -0.000000
; residue   37 bbb rtp bbb q -0.0
  916         c3     37    bbb     C1    916 0.44180000  12.010000   ; qtot 0.441800
  917         h1     37    bbb     H1    917 -0.03530000   1.008000   ; qtot 0.406500
  918         h1     37    bbb     H2    918 -0.03530000   1.008000   ; qtot 0.371200
  919         c3     37    bbb     C2    919 -0.28250000  12.010000   ; qtot 0.088700
  920         h1     37    bbb     H3    920 0.15710000   1.008000   ; qtot 0.245800
  921         h1     37    bbb     H4    921 0.15710000   1.008000   ; qtot 0.402900
  922         n3     37    bbb     N1    922 -0.74090000  14.010000   ; qtot -0.338000
  923         c3     37    bbb     C3    923 0.51680000  12.010000   ; qtot 0.178800
  924         h1     37    bbb     H5    924 -0.05230000   1.008000   ; qtot 0.126500
  925         h1     37    bbb     H6    925 -0.05230000   1.008000   ; qtot 0.074200
  926         c3     37    bbb     C4    926 0.51680000  12.010000   ; qtot 0.591000
  927         h1     37    bbb     H7    927 -0.05230000   1.008000   ; qtot 0.538700
  928         h1     37    bbb     H8    928 -0.05230000   1.008000   ; qtot 0.486400
  929         c3     37    bbb     C5    929 -0.60390000  12.010000   ; qtot -0.117500
  930         hc     37    bbb     H9    930 0.16730000   1.008000   ; qtot 0.049800
  931         hc     37    bbb    H10    931 0.16730000   1.008000   ; qtot 0.217100
  932         c3     37    bbb     C6    932 -0.60390000  12.010000   ; qtot -0.386800
  933         hc     37    bbb    H11    933 0.16730000   1.008000   ; qtot -0.219500
  934         hc     37    bbb    H12    934 0.16730000   1.008000   ; qtot -0.052200
  935          c     37    bbb     C7    935 0.72110000  12.010000   ; qtot 0.668900
  936          c     37    bbb     C8    936 0.72110000  12.010000   ; qtot 1.390000
  937          o     37    bbb     O1    937 -0.61950000  16.000000   ; qtot 0.770500
  938          o     37    bbb     O2    938 -0.61950000  16.000000   ; qtot 0.151000
  939          n     37    bbb     N4    939 -0.46580000  14.010000   ; qtot -0.314800
  940         hn     37    bbb    H21    940 0.31480000   1.008000   ; qtot -0.000000
; residue   38 bbb rtp bbb q -0.0
  941         c3     38    bbb     C1    941 0.44180000  12.010000   ; qtot 0.441800
  942         h1     38    bbb     H1    942 -0.03530000   1.008000   ; qtot 0.406500
  943         h1     38    bbb     H2    943 -0.03530000   1.008000   ; qtot 0.371200
  944         c3     38    bbb     C2    944 -0.28250000  12.010000   ; qtot 0.088700
  945         h1     38    bbb     H3    945 0.15710000   1.008000   ; qtot 0.245800
  946         h1     38    bbb     H4    946 0.15710000   1.008000   ; qtot 0.402900
  947         n3     38    bbb     N1    947 -0.74090000  14.010000   ; qtot -0.338001
  948         c3     38    bbb     C3    948 0.51680000  12.010000   ; qtot 0.178799
  949         h1     38    bbb     H5    949 -0.05230000   1.008000   ; qtot 0.126499
  950         h1     38    bbb     H6    950 -0.05230000   1.008000   ; qtot 0.074199
  951         c3     38    bbb     C4    951 0.51680000  12.010000   ; qtot 0.590999
  952         h1     38    bbb     H7    952 -0.05230000   1.008000   ; qtot 0.538699
  953         h1     38    bbb     H8    953 -0.05230000   1.008000   ; qtot 0.486399
  954         c3     38    bbb     C5    954 -0.60390000  12.010000   ; qtot -0.117501
  955         hc     38    bbb     H9    955 0.16730000   1.008000   ; qtot 0.049799
  956         hc     38    bbb    H10    956 0.16730000   1.008000   ; qtot 0.217099
  957         c3     38    bbb     C6    957 -0.60390000  12.010000   ; qtot -0.386801
  958         hc     38    bbb    H11    958 0.16730000   1.008000   ; qtot -0.219501
  959         hc     38    bbb    H12    959 0.16730000   1.008000   ; qtot -0.052201
  960          c     38    bbb     C7    960 0.72110000  12.010000   ; qtot 0.668899
  961          c     38    bbb     C8    961 0.72110000  12.010000   ; qtot 1.389999
  962          o     38    bbb     O1    962 -0.61950000  16.000000   ; qtot 0.770499
  963          o     38    bbb     O2    963 -0.61950000  16.000000   ; qtot 0.150999
  964          n     38    bbb     N4    964 -0.46580000  14.010000   ; qtot -0.314801
  965         hn     38    bbb    H21    965 0.31480000   1.008000   ; qtot -0.000001
; residue   39 bbb rtp bbb q -0.0
  966         c3     39    bbb     C1    966 0.44180000  12.010000   ; qtot 0.441799
  967         h1     39    bbb     H1    967 -0.03530000   1.008000   ; qtot 0.406499
  968         h1     39    bbb     H2    968 -0.03530000   1.008000   ; qtot 0.371199
  969         c3     39    bbb     C2    969 -0.28250000  12.010000   ; qtot 0.088699
  970         h1     39    bbb     H3    970 0.15710000   1.008000   ; qtot 0.245799
  971         h1     39    bbb     H4    971 0.15710000   1.008000   ; qtot 0.402899
  972         n3     39    bbb     N1    972 -0.74090000  14.010000   ; qtot -0.338001
  973         c3     39    bbb     C3    973 0.51680000  12.010000   ; qtot 0.178799
  974         h1     39    bbb     H5    974 -0.05230000   1.008000   ; qtot 0.126499
  975         h1     39    bbb     H6    975 -0.05230000   1.008000   ; qtot 0.074199
  976         c3     39    bbb     C4    976 0.51680000  12.010000   ; qtot 0.590999
  977         h1     39    bbb     H7    977 -0.05230000   1.008000   ; qtot 0.538699
  978         h1     39    bbb     H8    978 -0.05230000   1.008000   ; qtot 0.486399
  979         c3     39    bbb     C5    979 -0.60390000  12.010000   ; qtot -0.117501
  980         hc     39    bbb     H9    980 0.16730000   1.008000   ; qtot 0.049799
  981         hc     39    bbb    H10    981 0.16730000   1.008000   ; qtot 0.217099
  982         c3     39    bbb     C6    982 -0.60390000  12.010000   ; qtot -0.386801
  983         hc     39    bbb    H11    983 0.16730000   1.008000   ; qtot -0.219501
  984         hc     39    bbb    H12    984 0.16730000   1.008000   ; qtot -0.052201
  985          c     39    bbb     C7    985 0.72110000  12.010000   ; qtot 0.668899
  986          c     39    bbb     C8    986 0.72110000  12.010000   ; qtot 1.389999
  987          o     39    bbb     O1    987 -0.61950000  16.000000   ; qtot 0.770499
  988          o     39    bbb     O2    988 -0.61950000  16.000000   ; qtot 0.150999
  989          n     39    bbb     N4    989 -0.46580000  14.010000   ; qtot -0.314801
  990         hn     39    bbb    H21    990 0.31480000   1.008000   ; qtot -0.000001
; residue   40 bbb rtp bbb q -0.0
  991         c3     40    bbb     C1    991 0.44180000  12.010000   ; qtot 0.441799
  992         h1     40    bbb     H1    992 -0.03530000   1.008000   ; qtot 0.406499
  993         h1     40    bbb     H2    993 -0.03530000   1.008000   ; qtot 0.371199
  994         c3     40    bbb     C2    994 -0.28250000  12.010000   ; qtot 0.088699
  995         h1     40    bbb     H3    995 0.15710000   1.008000   ; qtot 0.245799
  996         h1     40    bbb     H4    996 0.15710000   1.008000   ; qtot 0.402899
  997         n3     40    bbb     N1    997 -0.74090000  14.010000   ; qtot -0.338001
  998         c3     40    bbb     C3    998 0.51680000  12.010000   ; qtot 0.178799
  999         h1     40    bbb     H5    999 -0.05230000   1.008000   ; qtot 0.126499
 1000         h1     40    bbb     H6   1000 -0.05230000   1.008000   ; qtot 0.074199
 1001         c3     40    bbb     C4   1001 0.51680000  12.010000   ; qtot 0.590999
 1002         h1     40    bbb     H7   1002 -0.05230000   1.008000   ; qtot 0.538699
 1003         h1     40    bbb     H8   1003 -0.05230000   1.008000   ; qtot 0.486399
 1004         c3     40    bbb     C5   1004 -0.60390000  12.010000   ; qtot -0.117501
 1005         hc     40    bbb     H9   1005 0.16730000   1.008000   ; qtot 0.049799
 1006         hc     40    bbb    H10   1006 0.16730000   1.008000   ; qtot 0.217099
 1007         c3     40    bbb     C6   1007 -0.60390000  12.010000   ; qtot -0.386801
 1008         hc     40    bbb    H11   1008 0.16730000   1.008000   ; qtot -0.219501
 1009         hc     40    bbb    H12   1009 0.16730000   1.008000   ; qtot -0.052201
 1010          c     40    bbb     C7   1010 0.72110000  12.010000   ; qtot 0.668899
 1011          c     40    bbb     C8   1011 0.72110000  12.010000   ; qtot 1.389999
 1012          o     40    bbb     O1   1012 -0.61950000  16.000000   ; qtot 0.770499
 1013          o     40    bbb     O2   1013 -0.61950000  16.000000   ; qtot 0.150999
 1014          n     40    bbb     N4   1014 -0.46580000  14.010000   ; qtot -0.314801
 1015         hn     40    bbb    H21   1015 0.31480000   1.008000   ; qtot -0.000001
; residue   41 bbb rtp bbb q -0.0
 1016         c3     41    bbb     C1   1016 0.44180000  12.010000   ; qtot 0.441799
 1017         h1     41    bbb     H1   1017 -0.03530000   1.008000   ; qtot 0.406499
 1018         h1     41    bbb     H2   1018 -0.03530000   1.008000   ; qtot 0.371199
 1019         c3     41    bbb     C2   1019 -0.28250000  12.010000   ; qtot 0.088699
 1020         h1     41    bbb     H3   1020 0.15710000   1.008000   ; qtot 0.245799
 1021         h1     41    bbb     H4   1021 0.15710000   1.008000   ; qtot 0.402899
 1022         n3     41    bbb     N1   1022 -0.74090000  14.010000   ; qtot -0.338001
 1023         c3     41    bbb     C3   1023 0.51680000  12.010000   ; qtot 0.178799
 1024         h1     41    bbb     H5   1024 -0.05230000   1.008000   ; qtot 0.126499
 1025         h1     41    bbb     H6   1025 -0.05230000   1.008000   ; qtot 0.074199
 1026         c3     41    bbb     C4   1026 0.51680000  12.010000   ; qtot 0.590999
 1027         h1     41    bbb     H7   1027 -0.05230000   1.008000   ; qtot 0.538699
 1028         h1     41    bbb     H8   1028 -0.05230000   1.008000   ; qtot 0.486399
 1029         c3     41    bbb     C5   1029 -0.60390000  12.010000   ; qtot -0.117501
 1030         hc     41    bbb     H9   1030 0.16730000   1.008000   ; qtot 0.049799
 1031         hc     41    bbb    H10   1031 0.16730000   1.008000   ; qtot 0.217099
 1032         c3     41    bbb     C6   1032 -0.60390000  12.010000   ; qtot -0.386801
 1033         hc     41    bbb    H11   1033 0.16730000   1.008000   ; qtot -0.219501
 1034         hc     41    bbb    H12   1034 0.16730000   1.008000   ; qtot -0.052201
 1035          c     41    bbb     C7   1035 0.72110000  12.010000   ; qtot 0.668899
 1036          c     41    bbb     C8   1036 0.72110000  12.010000   ; qtot 1.389999
 1037          o     41    bbb     O1   1037 -0.61950000  16.000000   ; qtot 0.770499
 1038          o     41    bbb     O2   1038 -0.61950000  16.000000   ; qtot 0.150999
 1039          n     41    bbb     N4   1039 -0.46580000  14.010000   ; qtot -0.314801
 1040         hn     41    bbb    H21   1040 0.31480000   1.008000   ; qtot -0.000001
; residue   42 bbb rtp bbb q -0.0
 1041         c3     42    bbb     C1   1041 0.44180000  12.010000   ; qtot 0.441799
 1042         h1     42    bbb     H1   1042 -0.03530000   1.008000   ; qtot 0.406499
 1043         h1     42    bbb     H2   1043 -0.03530000   1.008000   ; qtot 0.371199
 1044         c3     42    bbb     C2   1044 -0.28250000  12.010000   ; qtot 0.088699
 1045         h1     42    bbb     H3   1045 0.15710000   1.008000   ; qtot 0.245799
 1046         h1     42    bbb     H4   1046 0.15710000   1.008000   ; qtot 0.402899
 1047         n3     42    bbb     N1   1047 -0.74090000  14.010000   ; qtot -0.338001
 1048         c3     42    bbb     C3   1048 0.51680000  12.010000   ; qtot 0.178799
 1049         h1     42    bbb     H5   1049 -0.05230000   1.008000   ; qtot 0.126499
 1050         h1     42    bbb     H6   1050 -0.05230000   1.008000   ; qtot 0.074199
 1051         c3     42    bbb     C4   1051 0.51680000  12.010000   ; qtot 0.590999
 1052         h1     42    bbb     H7   1052 -0.05230000   1.008000   ; qtot 0.538699
 1053         h1     42    bbb     H8   1053 -0.05230000   1.008000   ; qtot 0.486399
 1054         c3     42    bbb     C5   1054 -0.60390000  12.010000   ; qtot -0.117501
 1055         hc     42    bbb     H9   1055 0.16730000   1.008000   ; qtot 0.049799
 1056         hc     42    bbb    H10   1056 0.16730000   1.008000   ; qtot 0.217099
 1057         c3     42    bbb     C6   1057 -0.60390000  12.010000   ; qtot -0.386801
 1058         hc     42    bbb    H11   1058 0.16730000   1.008000   ; qtot -0.219501
 1059         hc     42    bbb    H12   1059 0.16730000   1.008000   ; qtot -0.052201
 1060          c     42    bbb     C7   1060 0.72110000  12.010000   ; qtot 0.668899
 1061          c     42    bbb     C8   1061 0.72110000  12.010000   ; qtot 1.389999
 1062          o     42    bbb     O1   1062 -0.61950000  16.000000   ; qtot 0.770499
 1063          o     42    bbb     O2   1063 -0.61950000  16.000000   ; qtot 0.150999
 1064          n     42    bbb     N4   1064 -0.46580000  14.010000   ; qtot -0.314801
 1065         hn     42    bbb    H21   1065 0.31480000   1.008000   ; qtot -0.000001
; residue   43 bbb rtp bbb q -0.0
 1066         c3     43    bbb     C1   1066 0.44180000  12.010000   ; qtot 0.441799
 1067         h1     43    bbb     H1   1067 -0.03530000   1.008000   ; qtot 0.406499
 1068         h1     43    bbb     H2   1068 -0.03530000   1.008000   ; qtot 0.371199
 1069         c3     43    bbb     C2   1069 -0.28250000  12.010000   ; qtot 0.088699
 1070         h1     43    bbb     H3   1070 0.15710000   1.008000   ; qtot 0.245799
 1071         h1     43    bbb     H4   1071 0.15710000   1.008000   ; qtot 0.402899
 1072         n3     43    bbb     N1   1072 -0.74090000  14.010000   ; qtot -0.338001
 1073         c3     43    bbb     C3   1073 0.51680000  12.010000   ; qtot 0.178799
 1074         h1     43    bbb     H5   1074 -0.05230000   1.008000   ; qtot 0.126499
 1075         h1     43    bbb     H6   1075 -0.05230000   1.008000   ; qtot 0.074199
 1076         c3     43    bbb     C4   1076 0.51680000  12.010000   ; qtot 0.590999
 1077         h1     43    bbb     H7   1077 -0.05230000   1.008000   ; qtot 0.538699
 1078         h1     43    bbb     H8   1078 -0.05230000   1.008000   ; qtot 0.486399
 1079         c3     43    bbb     C5   1079 -0.60390000  12.010000   ; qtot -0.117501
 1080         hc     43    bbb     H9   1080 0.16730000   1.008000   ; qtot 0.049799
 1081         hc     43    bbb    H10   1081 0.16730000   1.008000   ; qtot 0.217099
 1082         c3     43    bbb     C6   1082 -0.60390000  12.010000   ; qtot -0.386801
 1083         hc     43    bbb    H11   1083 0.16730000   1.008000   ; qtot -0.219501
 1084         hc     43    bbb    H12   1084 0.16730000   1.008000   ; qtot -0.052201
 1085          c     43    bbb     C7   1085 0.72110000  12.010000   ; qtot 0.668899
 1086          c     43    bbb     C8   1086 0.72110000  12.010000   ; qtot 1.389999
 1087          o     43    bbb     O1   1087 -0.61950000  16.000000   ; qtot 0.770499
 1088          o     43    bbb     O2   1088 -0.61950000  16.000000   ; qtot 0.150999
 1089          n     43    bbb     N4   1089 -0.46580000  14.010000   ; qtot -0.314801
 1090         hn     43    bbb    H21   1090 0.31480000   1.008000   ; qtot -0.000001
; residue   44 bbb rtp bbb q -0.0
 1091         c3     44    bbb     C1   1091 0.44180000  12.010000   ; qtot 0.441799
 1092         h1     44    bbb     H1   1092 -0.03530000   1.008000   ; qtot 0.406499
 1093         h1     44    bbb     H2   1093 -0.03530000   1.008000   ; qtot 0.371199
 1094         c3     44    bbb     C2   1094 -0.28250000  12.010000   ; qtot 0.088699
 1095         h1     44    bbb     H3   1095 0.15710000   1.008000   ; qtot 0.245799
 1096         h1     44    bbb     H4   1096 0.15710000   1.008000   ; qtot 0.402899
 1097         n3     44    bbb     N1   1097 -0.74090000  14.010000   ; qtot -0.338001
 1098         c3     44    bbb     C3   1098 0.51680000  12.010000   ; qtot 0.178799
 1099         h1     44    bbb     H5   1099 -0.05230000   1.008000   ; qtot 0.126499
 1100         h1     44    bbb     H6   1100 -0.05230000   1.008000   ; qtot 0.074199
 1101         c3     44    bbb     C4   1101 0.51680000  12.010000   ; qtot 0.590999
 1102         h1     44    bbb     H7   1102 -0.05230000   1.008000   ; qtot 0.538699
 1103         h1     44    bbb     H8   1103 -0.05230000   1.008000   ; qtot 0.486399
 1104         c3     44    bbb     C5   1104 -0.60390000  12.010000   ; qtot -0.117501
 1105         hc     44    bbb     H9   1105 0.16730000   1.008000   ; qtot 0.049799
 1106         hc     44    bbb    H10   1106 0.16730000   1.008000   ; qtot 0.217099
 1107         c3     44    bbb     C6   1107 -0.60390000  12.010000   ; qtot -0.386801
 1108         hc     44    bbb    H11   1108 0.16730000   1.008000   ; qtot -0.219501
 1109         hc     44    bbb    H12   1109 0.16730000   1.008000   ; qtot -0.052201
 1110          c     44    bbb     C7   1110 0.72110000  12.010000   ; qtot 0.668899
 1111          c     44    bbb     C8   1111 0.72110000  12.010000   ; qtot 1.389999
 1112          o     44    bbb     O1   1112 -0.61950000  16.000000   ; qtot 0.770499
 1113          o     44    bbb     O2   1113 -0.61950000  16.000000   ; qtot 0.150999
 1114          n     44    bbb     N4   1114 -0.46580000  14.010000   ; qtot -0.314801
 1115         hn     44    bbb    H21   1115 0.31480000   1.008000   ; qtot -0.000001
; residue   45 bbb rtp bbb q -0.0
 1116         c3     45    bbb     C1   1116 0.44180000  12.010000   ; qtot 0.441799
 1117         h1     45    bbb     H1   1117 -0.03530000   1.008000   ; qtot 0.406499
 1118         h1     45    bbb     H2   1118 -0.03530000   1.008000   ; qtot 0.371199
 1119         c3     45    bbb     C2   1119 -0.28250000  12.010000   ; qtot 0.088699
 1120         h1     45    bbb     H3   1120 0.15710000   1.008000   ; qtot 0.245799
 1121         h1     45    bbb     H4   1121 0.15710000   1.008000   ; qtot 0.402899
 1122         n3     45    bbb     N1   1122 -0.74090000  14.010000   ; qtot -0.338001
 1123         c3     45    bbb     C3   1123 0.51680000  12.010000   ; qtot 0.178799
 1124         h1     45    bbb     H5   1124 -0.05230000   1.008000   ; qtot 0.126499
 1125         h1     45    bbb     H6   1125 -0.05230000   1.008000   ; qtot 0.074199
 1126         c3     45    bbb     C4   1126 0.51680000  12.010000   ; qtot 0.590999
 1127         h1     45    bbb     H7   1127 -0.05230000   1.008000   ; qtot 0.538699
 1128         h1     45    bbb     H8   1128 -0.05230000   1.008000   ; qtot 0.486399
 1129         c3     45    bbb     C5   1129 -0.60390000  12.010000   ; qtot -0.117501
 1130         hc     45    bbb     H9   1130 0.16730000   1.008000   ; qtot 0.049799
 1131         hc     45    bbb    H10   1131 0.16730000   1.008000   ; qtot 0.217099
 1132         c3     45    bbb     C6   1132 -0.60390000  12.010000   ; qtot -0.386801
 1133         hc     45    bbb    H11   1133 0.16730000   1.008000   ; qtot -0.219501
 1134         hc     45    bbb    H12   1134 0.16730000   1.008000   ; qtot -0.052201
 1135          c     45    bbb     C7   1135 0.72110000  12.010000   ; qtot 0.668899
 1136          c     45    bbb     C8   1136 0.72110000  12.010000   ; qtot 1.389999
 1137          o     45    bbb     O1   1137 -0.61950000  16.000000   ; qtot 0.770499
 1138          o     45    bbb     O2   1138 -0.61950000  16.000000   ; qtot 0.150999
 1139          n     45    bbb     N4   1139 -0.46580000  14.010000   ; qtot -0.314801
 1140         hn     45    bbb    H21   1140 0.31480000   1.008000   ; qtot -0.000001
; residue   46 bbb rtp bbb q -0.0
 1141         c3     46    bbb     C1   1141 0.44180000  12.010000   ; qtot 0.441799
 1142         h1     46    bbb     H1   1142 -0.03530000   1.008000   ; qtot 0.406499
 1143         h1     46    bbb     H2   1143 -0.03530000   1.008000   ; qtot 0.371199
 1144         c3     46    bbb     C2   1144 -0.28250000  12.010000   ; qtot 0.088699
 1145         h1     46    bbb     H3   1145 0.15710000   1.008000   ; qtot 0.245799
 1146         h1     46    bbb     H4   1146 0.15710000   1.008000   ; qtot 0.402899
 1147         n3     46    bbb     N1   1147 -0.74090000  14.010000   ; qtot -0.338001
 1148         c3     46    bbb     C3   1148 0.51680000  12.010000   ; qtot 0.178799
 1149         h1     46    bbb     H5   1149 -0.05230000   1.008000   ; qtot 0.126499
 1150         h1     46    bbb     H6   1150 -0.05230000   1.008000   ; qtot 0.074199
 1151         c3     46    bbb     C4   1151 0.51680000  12.010000   ; qtot 0.590999
 1152         h1     46    bbb     H7   1152 -0.05230000   1.008000   ; qtot 0.538699
 1153         h1     46    bbb     H8   1153 -0.05230000   1.008000   ; qtot 0.486399
 1154         c3     46    bbb     C5   1154 -0.60390000  12.010000   ; qtot -0.117501
 1155         hc     46    bbb     H9   1155 0.16730000   1.008000   ; qtot 0.049799
 1156         hc     46    bbb    H10   1156 0.16730000   1.008000   ; qtot 0.217099
 1157         c3     46    bbb     C6   1157 -0.60390000  12.010000   ; qtot -0.386801
 1158         hc     46    bbb    H11   1158 0.16730000   1.008000   ; qtot -0.219501
 1159         hc     46    bbb    H12   1159 0.16730000   1.008000   ; qtot -0.052201
 1160          c     46    bbb     C7   1160 0.72110000  12.010000   ; qtot 0.668899
 1161          c     46    bbb     C8   1161 0.72110000  12.010000   ; qtot 1.389999
 1162          o     46    bbb     O1   1162 -0.61950000  16.000000   ; qtot 0.770499
 1163          o     46    bbb     O2   1163 -0.61950000  16.000000   ; qtot 0.150999
 1164          n     46    bbb     N4   1164 -0.46580000  14.010000   ; qtot -0.314801
 1165         hn     46    bbb    H21   1165 0.31480000   1.008000   ; qtot -0.000001
; residue   47 bbb rtp bbb q -0.0
 1166         c3     47    bbb     C1   1166 0.44180000  12.010000   ; qtot 0.441799
 1167         h1     47    bbb     H1   1167 -0.03530000   1.008000   ; qtot 0.406499
 1168         h1     47    bbb     H2   1168 -0.03530000   1.008000   ; qtot 0.371199
 1169         c3     47    bbb     C2   1169 -0.28250000  12.010000   ; qtot 0.088699
 1170         h1     47    bbb     H3   1170 0.15710000   1.008000   ; qtot 0.245799
 1171         h1     47    bbb     H4   1171 0.15710000   1.008000   ; qtot 0.402899
 1172         n3     47    bbb     N1   1172 -0.74090000  14.010000   ; qtot -0.338001
 1173         c3     47    bbb     C3   1173 0.51680000  12.010000   ; qtot 0.178799
 1174         h1     47    bbb     H5   1174 -0.05230000   1.008000   ; qtot 0.126499
 1175         h1     47    bbb     H6   1175 -0.05230000   1.008000   ; qtot 0.074199
 1176         c3     47    bbb     C4   1176 0.51680000  12.010000   ; qtot 0.590999
 1177         h1     47    bbb     H7   1177 -0.05230000   1.008000   ; qtot 0.538699
 1178         h1     47    bbb     H8   1178 -0.05230000   1.008000   ; qtot 0.486399
 1179         c3     47    bbb     C5   1179 -0.60390000  12.010000   ; qtot -0.117501
 1180         hc     47    bbb     H9   1180 0.16730000   1.008000   ; qtot 0.049799
 1181         hc     47    bbb    H10   1181 0.16730000   1.008000   ; qtot 0.217099
 1182         c3     47    bbb     C6   1182 -0.60390000  12.010000   ; qtot -0.386801
 1183         hc     47    bbb    H11   1183 0.16730000   1.008000   ; qtot -0.219501
 1184         hc     47    bbb    H12   1184 0.16730000   1.008000   ; qtot -0.052201
 1185          c     47    bbb     C7   1185 0.72110000  12.010000   ; qtot 0.668899
 1186          c     47    bbb     C8   1186 0.72110000  12.010000   ; qtot 1.389999
 1187          o     47    bbb     O1   1187 -0.61950000  16.000000   ; qtot 0.770499
 1188          o     47    bbb     O2   1188 -0.61950000  16.000000   ; qtot 0.150999
 1189          n     47    bbb     N4   1189 -0.46580000  14.010000   ; qtot -0.314801
 1190         hn     47    bbb    H21   1190 0.31480000   1.008000   ; qtot -0.000001
; residue   48 bbb rtp bbb q -0.0
 1191         c3     48    bbb     C1   1191 0.44180000  12.010000   ; qtot 0.441799
 1192         h1     48    bbb     H1   1192 -0.03530000   1.008000   ; qtot 0.406499
 1193         h1     48    bbb     H2   1193 -0.03530000   1.008000   ; qtot 0.371199
 1194         c3     48    bbb     C2   1194 -0.28250000  12.010000   ; qtot 0.088699
 1195         h1     48    bbb     H3   1195 0.15710000   1.008000   ; qtot 0.245799
 1196         h1     48    bbb     H4   1196 0.15710000   1.008000   ; qtot 0.402899
 1197         n3     48    bbb     N1   1197 -0.74090000  14.010000   ; qtot -0.338001
 1198         c3     48    bbb     C3   1198 0.51680000  12.010000   ; qtot 0.178799
 1199         h1     48    bbb     H5   1199 -0.05230000   1.008000   ; qtot 0.126499
 1200         h1     48    bbb     H6   1200 -0.05230000   1.008000   ; qtot 0.074199
 1201         c3     48    bbb     C4   1201 0.51680000  12.010000   ; qtot 0.590999
 1202         h1     48    bbb     H7   1202 -0.05230000   1.008000   ; qtot 0.538699
 1203         h1     48    bbb     H8   1203 -0.05230000   1.008000   ; qtot 0.486399
 1204         c3     48    bbb     C5   1204 -0.60390000  12.010000   ; qtot -0.117501
 1205         hc     48    bbb     H9   1205 0.16730000   1.008000   ; qtot 0.049799
 1206         hc     48    bbb    H10   1206 0.16730000   1.008000   ; qtot 0.217099
 1207         c3     48    bbb     C6   1207 -0.60390000  12.010000   ; qtot -0.386801
 1208         hc     48    bbb    H11   1208 0.16730000   1.008000   ; qtot -0.219501
 1209         hc     48    bbb    H12   1209 0.16730000   1.008000   ; qtot -0.052201
 1210          c     48    bbb     C7   1210 0.72110000  12.010000   ; qtot 0.668899
 1211          c     48    bbb     C8   1211 0.72110000  12.010000   ; qtot 1.389999
 1212          o     48    bbb     O1   1212 -0.61950000  16.000000   ; qtot 0.770499
 1213          o     48    bbb     O2   1213 -0.61950000  16.000000   ; qtot 0.150999
 1214          n     48    bbb     N4   1214 -0.46580000  14.010000   ; qtot -0.314801
 1215         hn     48    bbb    H21   1215 0.31480000   1.008000   ; qtot -0.000001
; residue   49 bbb rtp bbb q -0.0
 1216         c3     49    bbb     C1   1216 0.44180000  12.010000   ; qtot 0.441799
 1217         h1     49    bbb     H1   1217 -0.03530000   1.008000   ; qtot 0.406499
 1218         h1     49    bbb     H2   1218 -0.03530000   1.008000   ; qtot 0.371199
 1219         c3     49    bbb     C2   1219 -0.28250000  12.010000   ; qtot 0.088699
 1220         h1     49    bbb     H3   1220 0.15710000   1.008000   ; qtot 0.245799
 1221         h1     49    bbb     H4   1221 0.15710000   1.008000   ; qtot 0.402899
 1222         n3     49    bbb     N1   1222 -0.74090000  14.010000   ; qtot -0.338001
 1223         c3     49    bbb     C3   1223 0.51680000  12.010000   ; qtot 0.178799
 1224         h1     49    bbb     H5   1224 -0.05230000   1.008000   ; qtot 0.126499
 1225         h1     49    bbb     H6   1225 -0.05230000   1.008000   ; qtot 0.074199
 1226         c3     49    bbb     C4   1226 0.51680000  12.010000   ; qtot 0.590999
 1227         h1     49    bbb     H7   1227 -0.05230000   1.008000   ; qtot 0.538699
 1228         h1     49    bbb     H8   1228 -0.05230000   1.008000   ; qtot 0.486399
 1229         c3     49    bbb     C5   1229 -0.60390000  12.010000   ; qtot -0.117501
 1230         hc     49    bbb     H9   1230 0.16730000   1.008000   ; qtot 0.049799
 1231         hc     49    bbb    H10   1231 0.16730000   1.008000   ; qtot 0.217099
 1232         c3     49    bbb     C6   1232 -0.60390000  12.010000   ; qtot -0.386801
 1233         hc     49    bbb    H11   1233 0.16730000   1.008000   ; qtot -0.219501
 1234         hc     49    bbb    H12   1234 0.16730000   1.008000   ; qtot -0.052201
 1235          c     49    bbb     C7   1235 0.72110000  12.010000   ; qtot 0.668899
 1236          c     49    bbb     C8   1236 0.72110000  12.010000   ; qtot 1.389999
 1237          o     49    bbb     O1   1237 -0.61950000  16.000000   ; qtot 0.770499
 1238          o     49    bbb     O2   1238 -0.61950000  16.000000   ; qtot 0.150999
 1239          n     49    bbb     N4   1239 -0.46580000  14.010000   ; qtot -0.314801
 1240         hn     49    bbb    H21   1240 0.31480000   1.008000   ; qtot -0.000001
; residue   50 bbb rtp bbb q -0.0
 1241         c3     50    bbb     C1   1241 0.44180000  12.010000   ; qtot 0.441799
 1242         h1     50    bbb     H1   1242 -0.03530000   1.008000   ; qtot 0.406499
 1243         h1     50    bbb     H2   1243 -0.03530000   1.008000   ; qtot 0.371199
 1244         c3     50    bbb     C2   1244 -0.28250000  12.010000   ; qtot 0.088699
 1245         h1     50    bbb     H3   1245 0.15710000   1.008000   ; qtot 0.245799
 1246         h1     50    bbb     H4   1246 0.15710000   1.008000   ; qtot 0.402899
 1247         n3     50    bbb     N1   1247 -0.74090000  14.010000   ; qtot -0.338001
 1248         c3     50    bbb     C3   1248 0.51680000  12.010000   ; qtot 0.178799
 1249         h1     50    bbb     H5   1249 -0.05230000   1.008000   ; qtot 0.126499
 1250         h1     50    bbb     H6   1250 -0.05230000   1.008000   ; qtot 0.074199
 1251         c3     50    bbb     C4   1251 0.51680000  12.010000   ; qtot 0.590999
 1252         h1     50    bbb     H7   1252 -0.05230000   1.008000   ; qtot 0.538699
 1253         h1     50    bbb     H8   1253 -0.05230000   1.008000   ; qtot 0.486399
 1254         c3     50    bbb     C5   1254 -0.60390000  12.010000   ; qtot -0.117501
 1255         hc     50    bbb     H9   1255 0.16730000   1.008000   ; qtot 0.049799
 1256         hc     50    bbb    H10   1256 0.16730000   1.008000   ; qtot 0.217099
 1257         c3     50    bbb     C6   1257 -0.60390000  12.010000   ; qtot -0.386801
 1258         hc     50    bbb    H11   1258 0.16730000   1.008000   ; qtot -0.219501
 1259         hc     50    bbb    H12   1259 0.16730000   1.008000   ; qtot -0.052201
 1260          c     50    bbb     C7   1260 0.72110000  12.010000   ; qtot 0.668899
 1261          c     50    bbb     C8   1261 0.72110000  12.010000   ; qtot 1.389999
 1262          o     50    bbb     O1   1262 -0.61950000  16.000000   ; qtot 0.770499
 1263          o     50    bbb     O2   1263 -0.61950000  16.000000   ; qtot 0.150999
 1264          n     50    bbb     N4   1264 -0.46580000  14.010000   ; qtot -0.314801
 1265         hn     50    bbb    H21   1265 0.31480000   1.008000   ; qtot -0.000001
; residue   51 bbb rtp bbb q -0.0
 1266         c3     51    bbb     C1   1266 0.44180000  12.010000   ; qtot 0.441799
 1267         h1     51    bbb     H1   1267 -0.03530000   1.008000   ; qtot 0.406499
 1268         h1     51    bbb     H2   1268 -0.03530000   1.008000   ; qtot 0.371199
 1269         c3     51    bbb     C2   1269 -0.28250000  12.010000   ; qtot 0.088699
 1270         h1     51    bbb     H3   1270 0.15710000   1.008000   ; qtot 0.245799
 1271         h1     51    bbb     H4   1271 0.15710000   1.008000   ; qtot 0.402899
 1272         n3     51    bbb     N1   1272 -0.74090000  14.010000   ; qtot -0.338001
 1273         c3     51    bbb     C3   1273 0.51680000  12.010000   ; qtot 0.178799
 1274         h1     51    bbb     H5   1274 -0.05230000   1.008000   ; qtot 0.126499
 1275         h1     51    bbb     H6   1275 -0.05230000   1.008000   ; qtot 0.074199
 1276         c3     51    bbb     C4   1276 0.51680000  12.010000   ; qtot 0.590999
 1277         h1     51    bbb     H7   1277 -0.05230000   1.008000   ; qtot 0.538699
 1278         h1     51    bbb     H8   1278 -0.05230000   1.008000   ; qtot 0.486399
 1279         c3     51    bbb     C5   1279 -0.60390000  12.010000   ; qtot -0.117501
 1280         hc     51    bbb     H9   1280 0.16730000   1.008000   ; qtot 0.049799
 1281         hc     51    bbb    H10   1281 0.16730000   1.008000   ; qtot 0.217099
 1282         c3     51    bbb     C6   1282 -0.60390000  12.010000   ; qtot -0.386801
 1283         hc     51    bbb    H11   1283 0.16730000   1.008000   ; qtot -0.219501
 1284         hc     51    bbb    H12   1284 0.16730000   1.008000   ; qtot -0.052201
 1285          c     51    bbb     C7   1285 0.72110000  12.010000   ; qtot 0.668899
 1286          c     51    bbb     C8   1286 0.72110000  12.010000   ; qtot 1.389999
 1287          o     51    bbb     O1   1287 -0.61950000  16.000000   ; qtot 0.770499
 1288          o     51    bbb     O2   1288 -0.61950000  16.000000   ; qtot 0.150999
 1289          n     51    bbb     N4   1289 -0.46580000  14.010000   ; qtot -0.314801
 1290         hn     51    bbb    H21   1290 0.31480000   1.008000   ; qtot -0.000001
; residue   52 bbb rtp bbb q -0.0
 1291         c3     52    bbb     C1   1291 0.44180000  12.010000   ; qtot 0.441799
 1292         h1     52    bbb     H1   1292 -0.03530000   1.008000   ; qtot 0.406499
 1293         h1     52    bbb     H2   1293 -0.03530000   1.008000   ; qtot 0.371199
 1294         c3     52    bbb     C2   1294 -0.28250000  12.010000   ; qtot 0.088699
 1295         h1     52    bbb     H3   1295 0.15710000   1.008000   ; qtot 0.245799
 1296         h1     52    bbb     H4   1296 0.15710000   1.008000   ; qtot 0.402899
 1297         n3     52    bbb     N1   1297 -0.74090000  14.010000   ; qtot -0.338001
 1298         c3     52    bbb     C3   1298 0.51680000  12.010000   ; qtot 0.178799
 1299         h1     52    bbb     H5   1299 -0.05230000   1.008000   ; qtot 0.126499
 1300         h1     52    bbb     H6   1300 -0.05230000   1.008000   ; qtot 0.074199
 1301         c3     52    bbb     C4   1301 0.51680000  12.010000   ; qtot 0.590999
 1302         h1     52    bbb     H7   1302 -0.05230000   1.008000   ; qtot 0.538699
 1303         h1     52    bbb     H8   1303 -0.05230000   1.008000   ; qtot 0.486399
 1304         c3     52    bbb     C5   1304 -0.60390000  12.010000   ; qtot -0.117501
 1305         hc     52    bbb     H9   1305 0.16730000   1.008000   ; qtot 0.049799
 1306         hc     52    bbb    H10   1306 0.16730000   1.008000   ; qtot 0.217099
 1307         c3     52    bbb     C6   1307 -0.60390000  12.010000   ; qtot -0.386801
 1308         hc     52    bbb    H11   1308 0.16730000   1.008000   ; qtot -0.219501
 1309         hc     52    bbb    H12   1309 0.16730000   1.008000   ; qtot -0.052201
 1310          c     52    bbb     C7   1310 0.72110000  12.010000   ; qtot 0.668899
 1311          c     52    bbb     C8   1311 0.72110000  12.010000   ; qtot 1.389999
 1312          o     52    bbb     O1   1312 -0.61950000  16.000000   ; qtot 0.770499
 1313          o     52    bbb     O2   1313 -0.61950000  16.000000   ; qtot 0.150999
 1314          n     52    bbb     N4   1314 -0.46580000  14.010000   ; qtot -0.314801
 1315         hn     52    bbb    H21   1315 0.31480000   1.008000   ; qtot -0.000001
; residue   53 bbb rtp bbb q -0.0
 1316         c3     53    bbb     C1   1316 0.44180000  12.010000   ; qtot 0.441799
 1317         h1     53    bbb     H1   1317 -0.03530000   1.008000   ; qtot 0.406499
 1318         h1     53    bbb     H2   1318 -0.03530000   1.008000   ; qtot 0.371199
 1319         c3     53    bbb     C2   1319 -0.28250000  12.010000   ; qtot 0.088699
 1320         h1     53    bbb     H3   1320 0.15710000   1.008000   ; qtot 0.245799
 1321         h1     53    bbb     H4   1321 0.15710000   1.008000   ; qtot 0.402899
 1322         n3     53    bbb     N1   1322 -0.74090000  14.010000   ; qtot -0.338001
 1323         c3     53    bbb     C3   1323 0.51680000  12.010000   ; qtot 0.178799
 1324         h1     53    bbb     H5   1324 -0.05230000   1.008000   ; qtot 0.126499
 1325         h1     53    bbb     H6   1325 -0.05230000   1.008000   ; qtot 0.074199
 1326         c3     53    bbb     C4   1326 0.51680000  12.010000   ; qtot 0.590999
 1327         h1     53    bbb     H7   1327 -0.05230000   1.008000   ; qtot 0.538699
 1328         h1     53    bbb     H8   1328 -0.05230000   1.008000   ; qtot 0.486399
 1329         c3     53    bbb     C5   1329 -0.60390000  12.010000   ; qtot -0.117501
 1330         hc     53    bbb     H9   1330 0.16730000   1.008000   ; qtot 0.049799
 1331         hc     53    bbb    H10   1331 0.16730000   1.008000   ; qtot 0.217099
 1332         c3     53    bbb     C6   1332 -0.60390000  12.010000   ; qtot -0.386801
 1333         hc     53    bbb    H11   1333 0.16730000   1.008000   ; qtot -0.219501
 1334         hc     53    bbb    H12   1334 0.16730000   1.008000   ; qtot -0.052201
 1335          c     53    bbb     C7   1335 0.72110000  12.010000   ; qtot 0.668899
 1336          c     53    bbb     C8   1336 0.72110000  12.010000   ; qtot 1.389999
 1337          o     53    bbb     O1   1337 -0.61950000  16.000000   ; qtot 0.770499
 1338          o     53    bbb     O2   1338 -0.61950000  16.000000   ; qtot 0.150999
 1339          n     53    bbb     N4   1339 -0.46580000  14.010000   ; qtot -0.314801
 1340         hn     53    bbb    H21   1340 0.31480000   1.008000   ; qtot -0.000001
; residue   54 bbb rtp bbb q -0.0
 1341         c3     54    bbb     C1   1341 0.44180000  12.010000   ; qtot 0.441799
 1342         h1     54    bbb     H1   1342 -0.03530000   1.008000   ; qtot 0.406499
 1343         h1     54    bbb     H2   1343 -0.03530000   1.008000   ; qtot 0.371199
 1344         c3     54    bbb     C2   1344 -0.28250000  12.010000   ; qtot 0.088699
 1345         h1     54    bbb     H3   1345 0.15710000   1.008000   ; qtot 0.245799
 1346         h1     54    bbb     H4   1346 0.15710000   1.008000   ; qtot 0.402899
 1347         n3     54    bbb     N1   1347 -0.74090000  14.010000   ; qtot -0.338001
 1348         c3     54    bbb     C3   1348 0.51680000  12.010000   ; qtot 0.178799
 1349         h1     54    bbb     H5   1349 -0.05230000   1.008000   ; qtot 0.126499
 1350         h1     54    bbb     H6   1350 -0.05230000   1.008000   ; qtot 0.074199
 1351         c3     54    bbb     C4   1351 0.51680000  12.010000   ; qtot 0.590999
 1352         h1     54    bbb     H7   1352 -0.05230000   1.008000   ; qtot 0.538699
 1353         h1     54    bbb     H8   1353 -0.05230000   1.008000   ; qtot 0.486399
 1354         c3     54    bbb     C5   1354 -0.60390000  12.010000   ; qtot -0.117501
 1355         hc     54    bbb     H9   1355 0.16730000   1.008000   ; qtot 0.049799
 1356         hc     54    bbb    H10   1356 0.16730000   1.008000   ; qtot 0.217099
 1357         c3     54    bbb     C6   1357 -0.60390000  12.010000   ; qtot -0.386801
 1358         hc     54    bbb    H11   1358 0.16730000   1.008000   ; qtot -0.219501
 1359         hc     54    bbb    H12   1359 0.16730000   1.008000   ; qtot -0.052201
 1360          c     54    bbb     C7   1360 0.72110000  12.010000   ; qtot 0.668899
 1361          c     54    bbb     C8   1361 0.72110000  12.010000   ; qtot 1.389999
 1362          o     54    bbb     O1   1362 -0.61950000  16.000000   ; qtot 0.770499
 1363          o     54    bbb     O2   1363 -0.61950000  16.000000   ; qtot 0.150999
 1364          n     54    bbb     N4   1364 -0.46580000  14.010000   ; qtot -0.314801
 1365         hn     54    bbb    H21   1365 0.31480000   1.008000   ; qtot -0.000001
; residue   55 bbb rtp bbb q -0.0
 1366         c3     55    bbb     C1   1366 0.44180000  12.010000   ; qtot 0.441799
 1367         h1     55    bbb     H1   1367 -0.03530000   1.008000   ; qtot 0.406499
 1368         h1     55    bbb     H2   1368 -0.03530000   1.008000   ; qtot 0.371199
 1369         c3     55    bbb     C2   1369 -0.28250000  12.010000   ; qtot 0.088699
 1370         h1     55    bbb     H3   1370 0.15710000   1.008000   ; qtot 0.245799
 1371         h1     55    bbb     H4   1371 0.15710000   1.008000   ; qtot 0.402899
 1372         n3     55    bbb     N1   1372 -0.74090000  14.010000   ; qtot -0.338001
 1373         c3     55    bbb     C3   1373 0.51680000  12.010000   ; qtot 0.178799
 1374         h1     55    bbb     H5   1374 -0.05230000   1.008000   ; qtot 0.126499
 1375         h1     55    bbb     H6   1375 -0.05230000   1.008000   ; qtot 0.074199
 1376         c3     55    bbb     C4   1376 0.51680000  12.010000   ; qtot 0.590999
 1377         h1     55    bbb     H7   1377 -0.05230000   1.008000   ; qtot 0.538699
 1378         h1     55    bbb     H8   1378 -0.05230000   1.008000   ; qtot 0.486399
 1379         c3     55    bbb     C5   1379 -0.60390000  12.010000   ; qtot -0.117501
 1380         hc     55    bbb     H9   1380 0.16730000   1.008000   ; qtot 0.049799
 1381         hc     55    bbb    H10   1381 0.16730000   1.008000   ; qtot 0.217099
 1382         c3     55    bbb     C6   1382 -0.60390000  12.010000   ; qtot -0.386801
 1383         hc     55    bbb    H11   1383 0.16730000   1.008000   ; qtot -0.219501
 1384         hc     55    bbb    H12   1384 0.16730000   1.008000   ; qtot -0.052201
 1385          c     55    bbb     C7   1385 0.72110000  12.010000   ; qtot 0.668899
 1386          c     55    bbb     C8   1386 0.72110000  12.010000   ; qtot 1.389999
 1387          o     55    bbb     O1   1387 -0.61950000  16.000000   ; qtot 0.770499
 1388          o     55    bbb     O2   1388 -0.61950000  16.000000   ; qtot 0.150999
 1389          n     55    bbb     N4   1389 -0.46580000  14.010000   ; qtot -0.314801
 1390         hn     55    bbb    H21   1390 0.31480000   1.008000   ; qtot -0.000001
; residue   56 bbb rtp bbb q -0.0
 1391         c3     56    bbb     C1   1391 0.44180000  12.010000   ; qtot 0.441799
 1392         h1     56    bbb     H1   1392 -0.03530000   1.008000   ; qtot 0.406499
 1393         h1     56    bbb     H2   1393 -0.03530000   1.008000   ; qtot 0.371199
 1394         c3     56    bbb     C2   1394 -0.28250000  12.010000   ; qtot 0.088699
 1395         h1     56    bbb     H3   1395 0.15710000   1.008000   ; qtot 0.245799
 1396         h1     56    bbb     H4   1396 0.15710000   1.008000   ; qtot 0.402899
 1397         n3     56    bbb     N1   1397 -0.74090000  14.010000   ; qtot -0.338001
 1398         c3     56    bbb     C3   1398 0.51680000  12.010000   ; qtot 0.178799
 1399         h1     56    bbb     H5   1399 -0.05230000   1.008000   ; qtot 0.126499
 1400         h1     56    bbb     H6   1400 -0.05230000   1.008000   ; qtot 0.074199
 1401         c3     56    bbb     C4   1401 0.51680000  12.010000   ; qtot 0.590999
 1402         h1     56    bbb     H7   1402 -0.05230000   1.008000   ; qtot 0.538699
 1403         h1     56    bbb     H8   1403 -0.05230000   1.008000   ; qtot 0.486399
 1404         c3     56    bbb     C5   1404 -0.60390000  12.010000   ; qtot -0.117501
 1405         hc     56    bbb     H9   1405 0.16730000   1.008000   ; qtot 0.049799
 1406         hc     56    bbb    H10   1406 0.16730000   1.008000   ; qtot 0.217099
 1407         c3     56    bbb     C6   1407 -0.60390000  12.010000   ; qtot -0.386801
 1408         hc     56    bbb    H11   1408 0.16730000   1.008000   ; qtot -0.219501
 1409         hc     56    bbb    H12   1409 0.16730000   1.008000   ; qtot -0.052201
 1410          c     56    bbb     C7   1410 0.72110000  12.010000   ; qtot 0.668899
 1411          c     56    bbb     C8   1411 0.72110000  12.010000   ; qtot 1.389999
 1412          o     56    bbb     O1   1412 -0.61950000  16.000000   ; qtot 0.770499
 1413          o     56    bbb     O2   1413 -0.61950000  16.000000   ; qtot 0.150999
 1414          n     56    bbb     N4   1414 -0.46580000  14.010000   ; qtot -0.314801
 1415         hn     56    bbb    H21   1415 0.31480000   1.008000   ; qtot -0.000001
; residue   57 bbb rtp bbb q -0.0
 1416         c3     57    bbb     C1   1416 0.44180000  12.010000   ; qtot 0.441799
 1417         h1     57    bbb     H1   1417 -0.03530000   1.008000   ; qtot 0.406499
 1418         h1     57    bbb     H2   1418 -0.03530000   1.008000   ; qtot 0.371199
 1419         c3     57    bbb     C2   1419 -0.28250000  12.010000   ; qtot 0.088699
 1420         h1     57    bbb     H3   1420 0.15710000   1.008000   ; qtot 0.245799
 1421         h1     57    bbb     H4   1421 0.15710000   1.008000   ; qtot 0.402899
 1422         n3     57    bbb     N1   1422 -0.74090000  14.010000   ; qtot -0.338001
 1423         c3     57    bbb     C3   1423 0.51680000  12.010000   ; qtot 0.178799
 1424         h1     57    bbb     H5   1424 -0.05230000   1.008000   ; qtot 0.126499
 1425         h1     57    bbb     H6   1425 -0.05230000   1.008000   ; qtot 0.074199
 1426         c3     57    bbb     C4   1426 0.51680000  12.010000   ; qtot 0.590999
 1427         h1     57    bbb     H7   1427 -0.05230000   1.008000   ; qtot 0.538699
 1428         h1     57    bbb     H8   1428 -0.05230000   1.008000   ; qtot 0.486399
 1429         c3     57    bbb     C5   1429 -0.60390000  12.010000   ; qtot -0.117501
 1430         hc     57    bbb     H9   1430 0.16730000   1.008000   ; qtot 0.049799
 1431         hc     57    bbb    H10   1431 0.16730000   1.008000   ; qtot 0.217099
 1432         c3     57    bbb     C6   1432 -0.60390000  12.010000   ; qtot -0.386801
 1433         hc     57    bbb    H11   1433 0.16730000   1.008000   ; qtot -0.219501
 1434         hc     57    bbb    H12   1434 0.16730000   1.008000   ; qtot -0.052201
 1435          c     57    bbb     C7   1435 0.72110000  12.010000   ; qtot 0.668899
 1436          c     57    bbb     C8   1436 0.72110000  12.010000   ; qtot 1.389999
 1437          o     57    bbb     O1   1437 -0.61950000  16.000000   ; qtot 0.770499
 1438          o     57    bbb     O2   1438 -0.61950000  16.000000   ; qtot 0.150999
 1439          n     57    bbb     N4   1439 -0.46580000  14.010000   ; qtot -0.314801
 1440         hn     57    bbb    H21   1440 0.31480000   1.008000   ; qtot -0.000001
; residue   58 bbb rtp bbb q -0.0
 1441         c3     58    bbb     C1   1441 0.44180000  12.010000   ; qtot 0.441799
 1442         h1     58    bbb     H1   1442 -0.03530000   1.008000   ; qtot 0.406499
 1443         h1     58    bbb     H2   1443 -0.03530000   1.008000   ; qtot 0.371199
 1444         c3     58    bbb     C2   1444 -0.28250000  12.010000   ; qtot 0.088699
 1445         h1     58    bbb     H3   1445 0.15710000   1.008000   ; qtot 0.245799
 1446         h1     58    bbb     H4   1446 0.15710000   1.008000   ; qtot 0.402899
 1447         n3     58    bbb     N1   1447 -0.74090000  14.010000   ; qtot -0.338001
 1448         c3     58    bbb     C3   1448 0.51680000  12.010000   ; qtot 0.178799
 1449         h1     58    bbb     H5   1449 -0.05230000   1.008000   ; qtot 0.126499
 1450         h1     58    bbb     H6   1450 -0.05230000   1.008000   ; qtot 0.074199
 1451         c3     58    bbb     C4   1451 0.51680000  12.010000   ; qtot 0.590999
 1452         h1     58    bbb     H7   1452 -0.05230000   1.008000   ; qtot 0.538699
 1453         h1     58    bbb     H8   1453 -0.05230000   1.008000   ; qtot 0.486399
 1454         c3     58    bbb     C5   1454 -0.60390000  12.010000   ; qtot -0.117501
 1455         hc     58    bbb     H9   1455 0.16730000   1.008000   ; qtot 0.049799
 1456         hc     58    bbb    H10   1456 0.16730000   1.008000   ; qtot 0.217099
 1457         c3     58    bbb     C6   1457 -0.60390000  12.010000   ; qtot -0.386801
 1458         hc     58    bbb    H11   1458 0.16730000   1.008000   ; qtot -0.219501
 1459         hc     58    bbb    H12   1459 0.16730000   1.008000   ; qtot -0.052201
 1460          c     58    bbb     C7   1460 0.72110000  12.010000   ; qtot 0.668899
 1461          c     58    bbb     C8   1461 0.72110000  12.010000   ; qtot 1.389999
 1462          o     58    bbb     O1   1462 -0.61950000  16.000000   ; qtot 0.770499
 1463          o     58    bbb     O2   1463 -0.61950000  16.000000   ; qtot 0.150999
 1464          n     58    bbb     N4   1464 -0.46580000  14.010000   ; qtot -0.314801
 1465         hn     58    bbb    H21   1465 0.31480000   1.008000   ; qtot -0.000001
; residue   59 bbb rtp bbb q -0.0
 1466         c3     59    bbb     C1   1466 0.44180000  12.010000   ; qtot 0.441799
 1467         h1     59    bbb     H1   1467 -0.03530000   1.008000   ; qtot 0.406499
 1468         h1     59    bbb     H2   1468 -0.03530000   1.008000   ; qtot 0.371199
 1469         c3     59    bbb     C2   1469 -0.28250000  12.010000   ; qtot 0.088699
 1470         h1     59    bbb     H3   1470 0.15710000   1.008000   ; qtot 0.245799
 1471         h1     59    bbb     H4   1471 0.15710000   1.008000   ; qtot 0.402899
 1472         n3     59    bbb     N1   1472 -0.74090000  14.010000   ; qtot -0.338001
 1473         c3     59    bbb     C3   1473 0.51680000  12.010000   ; qtot 0.178799
 1474         h1     59    bbb     H5   1474 -0.05230000   1.008000   ; qtot 0.126499
 1475         h1     59    bbb     H6   1475 -0.05230000   1.008000   ; qtot 0.074199
 1476         c3     59    bbb     C4   1476 0.51680000  12.010000   ; qtot 0.590999
 1477         h1     59    bbb     H7   1477 -0.05230000   1.008000   ; qtot 0.538699
 1478         h1     59    bbb     H8   1478 -0.05230000   1.008000   ; qtot 0.486399
 1479         c3     59    bbb     C5   1479 -0.60390000  12.010000   ; qtot -0.117501
 1480         hc     59    bbb     H9   1480 0.16730000   1.008000   ; qtot 0.049799
 1481         hc     59    bbb    H10   1481 0.16730000   1.008000   ; qtot 0.217099
 1482         c3     59    bbb     C6   1482 -0.60390000  12.010000   ; qtot -0.386801
 1483         hc     59    bbb    H11   1483 0.16730000   1.008000   ; qtot -0.219501
 1484         hc     59    bbb    H12   1484 0.16730000   1.008000   ; qtot -0.052201
 1485          c     59    bbb     C7   1485 0.72110000  12.010000   ; qtot 0.668899
 1486          c     59    bbb     C8   1486 0.72110000  12.010000   ; qtot 1.389999
 1487          o     59    bbb     O1   1487 -0.61950000  16.000000   ; qtot 0.770499
 1488          o     59    bbb     O2   1488 -0.61950000  16.000000   ; qtot 0.150999
 1489          n     59    bbb     N4   1489 -0.46580000  14.010000   ; qtot -0.314801
 1490         hn     59    bbb    H21   1490 0.31480000   1.008000   ; qtot -0.000001
; residue   60 bbb rtp bbb q -0.0
 1491         c3     60    bbb     C1   1491 0.44180000  12.010000   ; qtot 0.441799
 1492         h1     60    bbb     H1   1492 -0.03530000   1.008000   ; qtot 0.406499
 1493         h1     60    bbb     H2   1493 -0.03530000   1.008000   ; qtot 0.371199
 1494         c3     60    bbb     C2   1494 -0.28250000  12.010000   ; qtot 0.088699
 1495         h1     60    bbb     H3   1495 0.15710000   1.008000   ; qtot 0.245799
 1496         h1     60    bbb     H4   1496 0.15710000   1.008000   ; qtot 0.402899
 1497         n3     60    bbb     N1   1497 -0.74090000  14.010000   ; qtot -0.338001
 1498         c3     60    bbb     C3   1498 0.51680000  12.010000   ; qtot 0.178799
 1499         h1     60    bbb     H5   1499 -0.05230000   1.008000   ; qtot 0.126499
 1500         h1     60    bbb     H6   1500 -0.05230000   1.008000   ; qtot 0.074199
 1501         c3     60    bbb     C4   1501 0.51680000  12.010000   ; qtot 0.590999
 1502         h1     60    bbb     H7   1502 -0.05230000   1.008000   ; qtot 0.538699
 1503         h1     60    bbb     H8   1503 -0.05230000   1.008000   ; qtot 0.486399
 1504         c3     60    bbb     C5   1504 -0.60390000  12.010000   ; qtot -0.117501
 1505         hc     60    bbb     H9   1505 0.16730000   1.008000   ; qtot 0.049799
 1506         hc     60    bbb    H10   1506 0.16730000   1.008000   ; qtot 0.217099
 1507         c3     60    bbb     C6   1507 -0.60390000  12.010000   ; qtot -0.386801
 1508         hc     60    bbb    H11   1508 0.16730000   1.008000   ; qtot -0.219501
 1509         hc     60    bbb    H12   1509 0.16730000   1.008000   ; qtot -0.052201
 1510          c     60    bbb     C7   1510 0.72110000  12.010000   ; qtot 0.668899
 1511          c     60    bbb     C8   1511 0.72110000  12.010000   ; qtot 1.389999
 1512          o     60    bbb     O1   1512 -0.61950000  16.000000   ; qtot 0.770499
 1513          o     60    bbb     O2   1513 -0.61950000  16.000000   ; qtot 0.150999
 1514          n     60    bbb     N4   1514 -0.46580000  14.010000   ; qtot -0.314801
 1515         hn     60    bbb    H21   1515 0.31480000   1.008000   ; qtot -0.000001
; residue   61 bbb rtp bbb q -0.0
 1516         c3     61    bbb     C1   1516 0.44180000  12.010000   ; qtot 0.441799
 1517         h1     61    bbb     H1   1517 -0.03530000   1.008000   ; qtot 0.406499
 1518         h1     61    bbb     H2   1518 -0.03530000   1.008000   ; qtot 0.371199
 1519         c3     61    bbb     C2   1519 -0.28250000  12.010000   ; qtot 0.088699
 1520         h1     61    bbb     H3   1520 0.15710000   1.008000   ; qtot 0.245799
 1521         h1     61    bbb     H4   1521 0.15710000   1.008000   ; qtot 0.402899
 1522         n3     61    bbb     N1   1522 -0.74090000  14.010000   ; qtot -0.338001
 1523         c3     61    bbb     C3   1523 0.51680000  12.010000   ; qtot 0.178799
 1524         h1     61    bbb     H5   1524 -0.05230000   1.008000   ; qtot 0.126499
 1525         h1     61    bbb     H6   1525 -0.05230000   1.008000   ; qtot 0.074199
 1526         c3     61    bbb     C4   1526 0.51680000  12.010000   ; qtot 0.590999
 1527         h1     61    bbb     H7   1527 -0.05230000   1.008000   ; qtot 0.538699
 1528         h1     61    bbb     H8   1528 -0.05230000   1.008000   ; qtot 0.486399
 1529         c3     61    bbb     C5   1529 -0.60390000  12.010000   ; qtot -0.117501
 1530         hc     61    bbb     H9   1530 0.16730000   1.008000   ; qtot 0.049799
 1531         hc     61    bbb    H10   1531 0.16730000   1.008000   ; qtot 0.217099
 1532         c3     61    bbb     C6   1532 -0.60390000  12.010000   ; qtot -0.386801
 1533         hc     61    bbb    H11   1533 0.16730000   1.008000   ; qtot -0.219501
 1534         hc     61    bbb    H12   1534 0.16730000   1.008000   ; qtot -0.052201
 1535          c     61    bbb     C7   1535 0.72110000  12.010000   ; qtot 0.668899
 1536          c     61    bbb     C8   1536 0.72110000  12.010000   ; qtot 1.389999
 1537          o     61    bbb     O1   1537 -0.61950000  16.000000   ; qtot 0.770499
 1538          o     61    bbb     O2   1538 -0.61950000  16.000000   ; qtot 0.150999
 1539          n     61    bbb     N4   1539 -0.46580000  14.010000   ; qtot -0.314801
 1540         hn     61    bbb    H21   1540 0.31480000   1.008000   ; qtot -0.000001
; residue   62 bbb rtp bbb q -0.0
 1541         c3     62    bbb     C1   1541 0.44180000  12.010000   ; qtot 0.441799
 1542         h1     62    bbb     H1   1542 -0.03530000   1.008000   ; qtot 0.406499
 1543         h1     62    bbb     H2   1543 -0.03530000   1.008000   ; qtot 0.371199
 1544         c3     62    bbb     C2   1544 -0.28250000  12.010000   ; qtot 0.088699
 1545         h1     62    bbb     H3   1545 0.15710000   1.008000   ; qtot 0.245799
 1546         h1     62    bbb     H4   1546 0.15710000   1.008000   ; qtot 0.402899
 1547         n3     62    bbb     N1   1547 -0.74090000  14.010000   ; qtot -0.338001
 1548         c3     62    bbb     C3   1548 0.51680000  12.010000   ; qtot 0.178799
 1549         h1     62    bbb     H5   1549 -0.05230000   1.008000   ; qtot 0.126499
 1550         h1     62    bbb     H6   1550 -0.05230000   1.008000   ; qtot 0.074199
 1551         c3     62    bbb     C4   1551 0.51680000  12.010000   ; qtot 0.590999
 1552         h1     62    bbb     H7   1552 -0.05230000   1.008000   ; qtot 0.538699
 1553         h1     62    bbb     H8   1553 -0.05230000   1.008000   ; qtot 0.486399
 1554         c3     62    bbb     C5   1554 -0.60390000  12.010000   ; qtot -0.117501
 1555         hc     62    bbb     H9   1555 0.16730000   1.008000   ; qtot 0.049799
 1556         hc     62    bbb    H10   1556 0.16730000   1.008000   ; qtot 0.217099
 1557         c3     62    bbb     C6   1557 -0.60390000  12.010000   ; qtot -0.386801
 1558         hc     62    bbb    H11   1558 0.16730000   1.008000   ; qtot -0.219501
 1559         hc     62    bbb    H12   1559 0.16730000   1.008000   ; qtot -0.052201
 1560          c     62    bbb     C7   1560 0.72110000  12.010000   ; qtot 0.668899
 1561          c     62    bbb     C8   1561 0.72110000  12.010000   ; qtot 1.389999
 1562          o     62    bbb     O1   1562 -0.61950000  16.000000   ; qtot 0.770499
 1563          o     62    bbb     O2   1563 -0.61950000  16.000000   ; qtot 0.150999
 1564          n     62    bbb     N4   1564 -0.46580000  14.010000   ; qtot -0.314801
 1565         hn     62    bbb    H21   1565 0.31480000   1.008000   ; qtot -0.000001
; residue   63 bbb rtp bbb q -0.0
 1566         c3     63    bbb     C1   1566 0.44180000  12.010000   ; qtot 0.441799
 1567         h1     63    bbb     H1   1567 -0.03530000   1.008000   ; qtot 0.406499
 1568         h1     63    bbb     H2   1568 -0.03530000   1.008000   ; qtot 0.371199
 1569         c3     63    bbb     C2   1569 -0.28250000  12.010000   ; qtot 0.088699
 1570         h1     63    bbb     H3   1570 0.15710000   1.008000   ; qtot 0.245799
 1571         h1     63    bbb     H4   1571 0.15710000   1.008000   ; qtot 0.402899
 1572         n3     63    bbb     N1   1572 -0.74090000  14.010000   ; qtot -0.338001
 1573         c3     63    bbb     C3   1573 0.51680000  12.010000   ; qtot 0.178799
 1574         h1     63    bbb     H5   1574 -0.05230000   1.008000   ; qtot 0.126499
 1575         h1     63    bbb     H6   1575 -0.05230000   1.008000   ; qtot 0.074199
 1576         c3     63    bbb     C4   1576 0.51680000  12.010000   ; qtot 0.590999
 1577         h1     63    bbb     H7   1577 -0.05230000   1.008000   ; qtot 0.538699
 1578         h1     63    bbb     H8   1578 -0.05230000   1.008000   ; qtot 0.486399
 1579         c3     63    bbb     C5   1579 -0.60390000  12.010000   ; qtot -0.117501
 1580         hc     63    bbb     H9   1580 0.16730000   1.008000   ; qtot 0.049799
 1581         hc     63    bbb    H10   1581 0.16730000   1.008000   ; qtot 0.217099
 1582         c3     63    bbb     C6   1582 -0.60390000  12.010000   ; qtot -0.386801
 1583         hc     63    bbb    H11   1583 0.16730000   1.008000   ; qtot -0.219501
 1584         hc     63    bbb    H12   1584 0.16730000   1.008000   ; qtot -0.052201
 1585          c     63    bbb     C7   1585 0.72110000  12.010000   ; qtot 0.668899
 1586          c     63    bbb     C8   1586 0.72110000  12.010000   ; qtot 1.389999
 1587          o     63    bbb     O1   1587 -0.61950000  16.000000   ; qtot 0.770499
 1588          o     63    bbb     O2   1588 -0.61950000  16.000000   ; qtot 0.150999
 1589          n     63    bbb     N4   1589 -0.46580000  14.010000   ; qtot -0.314801
 1590         hn     63    bbb    H21   1590 0.31480000   1.008000   ; qtot -0.000001
; residue   64 bbb rtp bbb q -0.0
 1591         c3     64    bbb     C1   1591 0.44180000  12.010000   ; qtot 0.441799
 1592         h1     64    bbb     H1   1592 -0.03530000   1.008000   ; qtot 0.406499
 1593         h1     64    bbb     H2   1593 -0.03530000   1.008000   ; qtot 0.371199
 1594         c3     64    bbb     C2   1594 -0.28250000  12.010000   ; qtot 0.088699
 1595         h1     64    bbb     H3   1595 0.15710000   1.008000   ; qtot 0.245799
 1596         h1     64    bbb     H4   1596 0.15710000   1.008000   ; qtot 0.402899
 1597         n3     64    bbb     N1   1597 -0.74090000  14.010000   ; qtot -0.338001
 1598         c3     64    bbb     C3   1598 0.51680000  12.010000   ; qtot 0.178799
 1599         h1     64    bbb     H5   1599 -0.05230000   1.008000   ; qtot 0.126499
 1600         h1     64    bbb     H6   1600 -0.05230000   1.008000   ; qtot 0.074199
 1601         c3     64    bbb     C4   1601 0.51680000  12.010000   ; qtot 0.590999
 1602         h1     64    bbb     H7   1602 -0.05230000   1.008000   ; qtot 0.538699
 1603         h1     64    bbb     H8   1603 -0.05230000   1.008000   ; qtot 0.486399
 1604         c3     64    bbb     C5   1604 -0.60390000  12.010000   ; qtot -0.117501
 1605         hc     64    bbb     H9   1605 0.16730000   1.008000   ; qtot 0.049799
 1606         hc     64    bbb    H10   1606 0.16730000   1.008000   ; qtot 0.217099
 1607         c3     64    bbb     C6   1607 -0.60390000  12.010000   ; qtot -0.386801
 1608         hc     64    bbb    H11   1608 0.16730000   1.008000   ; qtot -0.219501
 1609         hc     64    bbb    H12   1609 0.16730000   1.008000   ; qtot -0.052201
 1610          c     64    bbb     C7   1610 0.72110000  12.010000   ; qtot 0.668899
 1611          c     64    bbb     C8   1611 0.72110000  12.010000   ; qtot 1.389999
 1612          o     64    bbb     O1   1612 -0.61950000  16.000000   ; qtot 0.770499
 1613          o     64    bbb     O2   1613 -0.61950000  16.000000   ; qtot 0.150999
 1614          n     64    bbb     N4   1614 -0.46580000  14.010000   ; qtot -0.314801
 1615         hn     64    bbb    H21   1615 0.31480000   1.008000   ; qtot -0.000001
; residue   65 bbb rtp bbb q -0.0
 1616         c3     65    bbb     C1   1616 0.44180000  12.010000   ; qtot 0.441799
 1617         h1     65    bbb     H1   1617 -0.03530000   1.008000   ; qtot 0.406499
 1618         h1     65    bbb     H2   1618 -0.03530000   1.008000   ; qtot 0.371199
 1619         c3     65    bbb     C2   1619 -0.28250000  12.010000   ; qtot 0.088699
 1620         h1     65    bbb     H3   1620 0.15710000   1.008000   ; qtot 0.245799
 1621         h1     65    bbb     H4   1621 0.15710000   1.008000   ; qtot 0.402899
 1622         n3     65    bbb     N1   1622 -0.74090000  14.010000   ; qtot -0.338001
 1623         c3     65    bbb     C3   1623 0.51680000  12.010000   ; qtot 0.178799
 1624         h1     65    bbb     H5   1624 -0.05230000   1.008000   ; qtot 0.126499
 1625         h1     65    bbb     H6   1625 -0.05230000   1.008000   ; qtot 0.074199
 1626         c3     65    bbb     C4   1626 0.51680000  12.010000   ; qtot 0.590999
 1627         h1     65    bbb     H7   1627 -0.05230000   1.008000   ; qtot 0.538699
 1628         h1     65    bbb     H8   1628 -0.05230000   1.008000   ; qtot 0.486399
 1629         c3     65    bbb     C5   1629 -0.60390000  12.010000   ; qtot -0.117501
 1630         hc     65    bbb     H9   1630 0.16730000   1.008000   ; qtot 0.049799
 1631         hc     65    bbb    H10   1631 0.16730000   1.008000   ; qtot 0.217099
 1632         c3     65    bbb     C6   1632 -0.60390000  12.010000   ; qtot -0.386801
 1633         hc     65    bbb    H11   1633 0.16730000   1.008000   ; qtot -0.219501
 1634         hc     65    bbb    H12   1634 0.16730000   1.008000   ; qtot -0.052201
 1635          c     65    bbb     C7   1635 0.72110000  12.010000   ; qtot 0.668899
 1636          c     65    bbb     C8   1636 0.72110000  12.010000   ; qtot 1.389999
 1637          o     65    bbb     O1   1637 -0.61950000  16.000000   ; qtot 0.770499
 1638          o     65    bbb     O2   1638 -0.61950000  16.000000   ; qtot 0.150999
 1639          n     65    bbb     N4   1639 -0.46580000  14.010000   ; qtot -0.314801
 1640         hn     65    bbb    H21   1640 0.31480000   1.008000   ; qtot -0.000001
; residue   66 bbb rtp bbb q -0.0
 1641         c3     66    bbb     C1   1641 0.44180000  12.010000   ; qtot 0.441799
 1642         h1     66    bbb     H1   1642 -0.03530000   1.008000   ; qtot 0.406499
 1643         h1     66    bbb     H2   1643 -0.03530000   1.008000   ; qtot 0.371199
 1644         c3     66    bbb     C2   1644 -0.28250000  12.010000   ; qtot 0.088699
 1645         h1     66    bbb     H3   1645 0.15710000   1.008000   ; qtot 0.245799
 1646         h1     66    bbb     H4   1646 0.15710000   1.008000   ; qtot 0.402899
 1647         n3     66    bbb     N1   1647 -0.74090000  14.010000   ; qtot -0.338001
 1648         c3     66    bbb     C3   1648 0.51680000  12.010000   ; qtot 0.178799
 1649         h1     66    bbb     H5   1649 -0.05230000   1.008000   ; qtot 0.126499
 1650         h1     66    bbb     H6   1650 -0.05230000   1.008000   ; qtot 0.074199
 1651         c3     66    bbb     C4   1651 0.51680000  12.010000   ; qtot 0.590999
 1652         h1     66    bbb     H7   1652 -0.05230000   1.008000   ; qtot 0.538699
 1653         h1     66    bbb     H8   1653 -0.05230000   1.008000   ; qtot 0.486399
 1654         c3     66    bbb     C5   1654 -0.60390000  12.010000   ; qtot -0.117501
 1655         hc     66    bbb     H9   1655 0.16730000   1.008000   ; qtot 0.049799
 1656         hc     66    bbb    H10   1656 0.16730000   1.008000   ; qtot 0.217099
 1657         c3     66    bbb     C6   1657 -0.60390000  12.010000   ; qtot -0.386801
 1658         hc     66    bbb    H11   1658 0.16730000   1.008000   ; qtot -0.219501
 1659         hc     66    bbb    H12   1659 0.16730000   1.008000   ; qtot -0.052201
 1660          c     66    bbb     C7   1660 0.72110000  12.010000   ; qtot 0.668899
 1661          c     66    bbb     C8   1661 0.72110000  12.010000   ; qtot 1.389999
 1662          o     66    bbb     O1   1662 -0.61950000  16.000000   ; qtot 0.770499
 1663          o     66    bbb     O2   1663 -0.61950000  16.000000   ; qtot 0.150999
 1664          n     66    bbb     N4   1664 -0.46580000  14.010000   ; qtot -0.314801
 1665         hn     66    bbb    H21   1665 0.31480000   1.008000   ; qtot -0.000001
; residue   67 bbb rtp bbb q -0.0
 1666         c3     67    bbb     C1   1666 0.44180000  12.010000   ; qtot 0.441799
 1667         h1     67    bbb     H1   1667 -0.03530000   1.008000   ; qtot 0.406499
 1668         h1     67    bbb     H2   1668 -0.03530000   1.008000   ; qtot 0.371199
 1669         c3     67    bbb     C2   1669 -0.28250000  12.010000   ; qtot 0.088699
 1670         h1     67    bbb     H3   1670 0.15710000   1.008000   ; qtot 0.245799
 1671         h1     67    bbb     H4   1671 0.15710000   1.008000   ; qtot 0.402899
 1672         n3     67    bbb     N1   1672 -0.74090000  14.010000   ; qtot -0.338001
 1673         c3     67    bbb     C3   1673 0.51680000  12.010000   ; qtot 0.178799
 1674         h1     67    bbb     H5   1674 -0.05230000   1.008000   ; qtot 0.126499
 1675         h1     67    bbb     H6   1675 -0.05230000   1.008000   ; qtot 0.074199
 1676         c3     67    bbb     C4   1676 0.51680000  12.010000   ; qtot 0.590999
 1677         h1     67    bbb     H7   1677 -0.05230000   1.008000   ; qtot 0.538699
 1678         h1     67    bbb     H8   1678 -0.05230000   1.008000   ; qtot 0.486399
 1679         c3     67    bbb     C5   1679 -0.60390000  12.010000   ; qtot -0.117501
 1680         hc     67    bbb     H9   1680 0.16730000   1.008000   ; qtot 0.049799
 1681         hc     67    bbb    H10   1681 0.16730000   1.008000   ; qtot 0.217099
 1682         c3     67    bbb     C6   1682 -0.60390000  12.010000   ; qtot -0.386801
 1683         hc     67    bbb    H11   1683 0.16730000   1.008000   ; qtot -0.219501
 1684         hc     67    bbb    H12   1684 0.16730000   1.008000   ; qtot -0.052201
 1685          c     67    bbb     C7   1685 0.72110000  12.010000   ; qtot 0.668899
 1686          c     67    bbb     C8   1686 0.72110000  12.010000   ; qtot 1.389999
 1687          o     67    bbb     O1   1687 -0.61950000  16.000000   ; qtot 0.770499
 1688          o     67    bbb     O2   1688 -0.61950000  16.000000   ; qtot 0.150999
 1689          n     67    bbb     N4   1689 -0.46580000  14.010000   ; qtot -0.314801
 1690         hn     67    bbb    H21   1690 0.31480000   1.008000   ; qtot -0.000001
; residue   68 bbb rtp bbb q -0.0
 1691         c3     68    bbb     C1   1691 0.44180000  12.010000   ; qtot 0.441799
 1692         h1     68    bbb     H1   1692 -0.03530000   1.008000   ; qtot 0.406499
 1693         h1     68    bbb     H2   1693 -0.03530000   1.008000   ; qtot 0.371199
 1694         c3     68    bbb     C2   1694 -0.28250000  12.010000   ; qtot 0.088699
 1695         h1     68    bbb     H3   1695 0.15710000   1.008000   ; qtot 0.245799
 1696         h1     68    bbb     H4   1696 0.15710000   1.008000   ; qtot 0.402899
 1697         n3     68    bbb     N1   1697 -0.74090000  14.010000   ; qtot -0.338001
 1698         c3     68    bbb     C3   1698 0.51680000  12.010000   ; qtot 0.178799
 1699         h1     68    bbb     H5   1699 -0.05230000   1.008000   ; qtot 0.126499
 1700         h1     68    bbb     H6   1700 -0.05230000   1.008000   ; qtot 0.074199
 1701         c3     68    bbb     C4   1701 0.51680000  12.010000   ; qtot 0.590999
 1702         h1     68    bbb     H7   1702 -0.05230000   1.008000   ; qtot 0.538699
 1703         h1     68    bbb     H8   1703 -0.05230000   1.008000   ; qtot 0.486399
 1704         c3     68    bbb     C5   1704 -0.60390000  12.010000   ; qtot -0.117501
 1705         hc     68    bbb     H9   1705 0.16730000   1.008000   ; qtot 0.049799
 1706         hc     68    bbb    H10   1706 0.16730000   1.008000   ; qtot 0.217099
 1707         c3     68    bbb     C6   1707 -0.60390000  12.010000   ; qtot -0.386801
 1708         hc     68    bbb    H11   1708 0.16730000   1.008000   ; qtot -0.219501
 1709         hc     68    bbb    H12   1709 0.16730000   1.008000   ; qtot -0.052201
 1710          c     68    bbb     C7   1710 0.72110000  12.010000   ; qtot 0.668899
 1711          c     68    bbb     C8   1711 0.72110000  12.010000   ; qtot 1.389999
 1712          o     68    bbb     O1   1712 -0.61950000  16.000000   ; qtot 0.770499
 1713          o     68    bbb     O2   1713 -0.61950000  16.000000   ; qtot 0.150999
 1714          n     68    bbb     N4   1714 -0.46580000  14.010000   ; qtot -0.314801
 1715         hn     68    bbb    H21   1715 0.31480000   1.008000   ; qtot -0.000001
; residue   69 bbb rtp bbb q -0.0
 1716         c3     69    bbb     C1   1716 0.44180000  12.010000   ; qtot 0.441799
 1717         h1     69    bbb     H1   1717 -0.03530000   1.008000   ; qtot 0.406499
 1718         h1     69    bbb     H2   1718 -0.03530000   1.008000   ; qtot 0.371199
 1719         c3     69    bbb     C2   1719 -0.28250000  12.010000   ; qtot 0.088699
 1720         h1     69    bbb     H3   1720 0.15710000   1.008000   ; qtot 0.245799
 1721         h1     69    bbb     H4   1721 0.15710000   1.008000   ; qtot 0.402899
 1722         n3     69    bbb     N1   1722 -0.74090000  14.010000   ; qtot -0.338001
 1723         c3     69    bbb     C3   1723 0.51680000  12.010000   ; qtot 0.178799
 1724         h1     69    bbb     H5   1724 -0.05230000   1.008000   ; qtot 0.126499
 1725         h1     69    bbb     H6   1725 -0.05230000   1.008000   ; qtot 0.074199
 1726         c3     69    bbb     C4   1726 0.51680000  12.010000   ; qtot 0.590999
 1727         h1     69    bbb     H7   1727 -0.05230000   1.008000   ; qtot 0.538699
 1728         h1     69    bbb     H8   1728 -0.05230000   1.008000   ; qtot 0.486399
 1729         c3     69    bbb     C5   1729 -0.60390000  12.010000   ; qtot -0.117501
 1730         hc     69    bbb     H9   1730 0.16730000   1.008000   ; qtot 0.049799
 1731         hc     69    bbb    H10   1731 0.16730000   1.008000   ; qtot 0.217099
 1732         c3     69    bbb     C6   1732 -0.60390000  12.010000   ; qtot -0.386801
 1733         hc     69    bbb    H11   1733 0.16730000   1.008000   ; qtot -0.219501
 1734         hc     69    bbb    H12   1734 0.16730000   1.008000   ; qtot -0.052201
 1735          c     69    bbb     C7   1735 0.72110000  12.010000   ; qtot 0.668899
 1736          c     69    bbb     C8   1736 0.72110000  12.010000   ; qtot 1.389999
 1737          o     69    bbb     O1   1737 -0.61950000  16.000000   ; qtot 0.770499
 1738          o     69    bbb     O2   1738 -0.61950000  16.000000   ; qtot 0.150999
 1739          n     69    bbb     N4   1739 -0.46580000  14.010000   ; qtot -0.314801
 1740         hn     69    bbb    H21   1740 0.31480000   1.008000   ; qtot -0.000001
; residue   70 bbb rtp bbb q -0.0
 1741         c3     70    bbb     C1   1741 0.44180000  12.010000   ; qtot 0.441799
 1742         h1     70    bbb     H1   1742 -0.03530000   1.008000   ; qtot 0.406499
 1743         h1     70    bbb     H2   1743 -0.03530000   1.008000   ; qtot 0.371199
 1744         c3     70    bbb     C2   1744 -0.28250000  12.010000   ; qtot 0.088699
 1745         h1     70    bbb     H3   1745 0.15710000   1.008000   ; qtot 0.245799
 1746         h1     70    bbb     H4   1746 0.15710000   1.008000   ; qtot 0.402899
 1747         n3     70    bbb     N1   1747 -0.74090000  14.010000   ; qtot -0.338001
 1748         c3     70    bbb     C3   1748 0.51680000  12.010000   ; qtot 0.178799
 1749         h1     70    bbb     H5   1749 -0.05230000   1.008000   ; qtot 0.126499
 1750         h1     70    bbb     H6   1750 -0.05230000   1.008000   ; qtot 0.074199
 1751         c3     70    bbb     C4   1751 0.51680000  12.010000   ; qtot 0.590999
 1752         h1     70    bbb     H7   1752 -0.05230000   1.008000   ; qtot 0.538699
 1753         h1     70    bbb     H8   1753 -0.05230000   1.008000   ; qtot 0.486399
 1754         c3     70    bbb     C5   1754 -0.60390000  12.010000   ; qtot -0.117501
 1755         hc     70    bbb     H9   1755 0.16730000   1.008000   ; qtot 0.049799
 1756         hc     70    bbb    H10   1756 0.16730000   1.008000   ; qtot 0.217099
 1757         c3     70    bbb     C6   1757 -0.60390000  12.010000   ; qtot -0.386801
 1758         hc     70    bbb    H11   1758 0.16730000   1.008000   ; qtot -0.219501
 1759         hc     70    bbb    H12   1759 0.16730000   1.008000   ; qtot -0.052201
 1760          c     70    bbb     C7   1760 0.72110000  12.010000   ; qtot 0.668899
 1761          c     70    bbb     C8   1761 0.72110000  12.010000   ; qtot 1.389999
 1762          o     70    bbb     O1   1762 -0.61950000  16.000000   ; qtot 0.770499
 1763          o     70    bbb     O2   1763 -0.61950000  16.000000   ; qtot 0.150999
 1764          n     70    bbb     N4   1764 -0.46580000  14.010000   ; qtot -0.314801
 1765         hn     70    bbb    H21   1765 0.31480000   1.008000   ; qtot -0.000001
; residue   71 bbb rtp bbb q -0.0
 1766         c3     71    bbb     C1   1766 0.44180000  12.010000   ; qtot 0.441799
 1767         h1     71    bbb     H1   1767 -0.03530000   1.008000   ; qtot 0.406499
 1768         h1     71    bbb     H2   1768 -0.03530000   1.008000   ; qtot 0.371199
 1769         c3     71    bbb     C2   1769 -0.28250000  12.010000   ; qtot 0.088699
 1770         h1     71    bbb     H3   1770 0.15710000   1.008000   ; qtot 0.245799
 1771         h1     71    bbb     H4   1771 0.15710000   1.008000   ; qtot 0.402899
 1772         n3     71    bbb     N1   1772 -0.74090000  14.010000   ; qtot -0.338001
 1773         c3     71    bbb     C3   1773 0.51680000  12.010000   ; qtot 0.178799
 1774         h1     71    bbb     H5   1774 -0.05230000   1.008000   ; qtot 0.126499
 1775         h1     71    bbb     H6   1775 -0.05230000   1.008000   ; qtot 0.074199
 1776         c3     71    bbb     C4   1776 0.51680000  12.010000   ; qtot 0.590999
 1777         h1     71    bbb     H7   1777 -0.05230000   1.008000   ; qtot 0.538699
 1778         h1     71    bbb     H8   1778 -0.05230000   1.008000   ; qtot 0.486399
 1779         c3     71    bbb     C5   1779 -0.60390000  12.010000   ; qtot -0.117501
 1780         hc     71    bbb     H9   1780 0.16730000   1.008000   ; qtot 0.049799
 1781         hc     71    bbb    H10   1781 0.16730000   1.008000   ; qtot 0.217099
 1782         c3     71    bbb     C6   1782 -0.60390000  12.010000   ; qtot -0.386801
 1783         hc     71    bbb    H11   1783 0.16730000   1.008000   ; qtot -0.219501
 1784         hc     71    bbb    H12   1784 0.16730000   1.008000   ; qtot -0.052201
 1785          c     71    bbb     C7   1785 0.72110000  12.010000   ; qtot 0.668899
 1786          c     71    bbb     C8   1786 0.72110000  12.010000   ; qtot 1.389999
 1787          o     71    bbb     O1   1787 -0.61950000  16.000000   ; qtot 0.770499
 1788          o     71    bbb     O2   1788 -0.61950000  16.000000   ; qtot 0.150999
 1789          n     71    bbb     N4   1789 -0.46580000  14.010000   ; qtot -0.314801
 1790         hn     71    bbb    H21   1790 0.31480000   1.008000   ; qtot -0.000001
; residue   72 bbb rtp bbb q -0.0
 1791         c3     72    bbb     C1   1791 0.44180000  12.010000   ; qtot 0.441799
 1792         h1     72    bbb     H1   1792 -0.03530000   1.008000   ; qtot 0.406499
 1793         h1     72    bbb     H2   1793 -0.03530000   1.008000   ; qtot 0.371199
 1794         c3     72    bbb     C2   1794 -0.28250000  12.010000   ; qtot 0.088699
 1795         h1     72    bbb     H3   1795 0.15710000   1.008000   ; qtot 0.245799
 1796         h1     72    bbb     H4   1796 0.15710000   1.008000   ; qtot 0.402899
 1797         n3     72    bbb     N1   1797 -0.74090000  14.010000   ; qtot -0.338001
 1798         c3     72    bbb     C3   1798 0.51680000  12.010000   ; qtot 0.178799
 1799         h1     72    bbb     H5   1799 -0.05230000   1.008000   ; qtot 0.126499
 1800         h1     72    bbb     H6   1800 -0.05230000   1.008000   ; qtot 0.074199
 1801         c3     72    bbb     C4   1801 0.51680000  12.010000   ; qtot 0.590999
 1802         h1     72    bbb     H7   1802 -0.05230000   1.008000   ; qtot 0.538699
 1803         h1     72    bbb     H8   1803 -0.05230000   1.008000   ; qtot 0.486399
 1804         c3     72    bbb     C5   1804 -0.60390000  12.010000   ; qtot -0.117501
 1805         hc     72    bbb     H9   1805 0.16730000   1.008000   ; qtot 0.049799
 1806         hc     72    bbb    H10   1806 0.16730000   1.008000   ; qtot 0.217099
 1807         c3     72    bbb     C6   1807 -0.60390000  12.010000   ; qtot -0.386801
 1808         hc     72    bbb    H11   1808 0.16730000   1.008000   ; qtot -0.219501
 1809         hc     72    bbb    H12   1809 0.16730000   1.008000   ; qtot -0.052201
 1810          c     72    bbb     C7   1810 0.72110000  12.010000   ; qtot 0.668899
 1811          c     72    bbb     C8   1811 0.72110000  12.010000   ; qtot 1.389999
 1812          o     72    bbb     O1   1812 -0.61950000  16.000000   ; qtot 0.770499
 1813          o     72    bbb     O2   1813 -0.61950000  16.000000   ; qtot 0.150999
 1814          n     72    bbb     N4   1814 -0.46580000  14.010000   ; qtot -0.314801
 1815         hn     72    bbb    H21   1815 0.31480000   1.008000   ; qtot -0.000001
; residue   73 bbb rtp bbb q -0.0
 1816         c3     73    bbb     C1   1816 0.44180000  12.010000   ; qtot 0.441799
 1817         h1     73    bbb     H1   1817 -0.03530000   1.008000   ; qtot 0.406499
 1818         h1     73    bbb     H2   1818 -0.03530000   1.008000   ; qtot 0.371199
 1819         c3     73    bbb     C2   1819 -0.28250000  12.010000   ; qtot 0.088699
 1820         h1     73    bbb     H3   1820 0.15710000   1.008000   ; qtot 0.245799
 1821         h1     73    bbb     H4   1821 0.15710000   1.008000   ; qtot 0.402899
 1822         n3     73    bbb     N1   1822 -0.74090000  14.010000   ; qtot -0.338001
 1823         c3     73    bbb     C3   1823 0.51680000  12.010000   ; qtot 0.178799
 1824         h1     73    bbb     H5   1824 -0.05230000   1.008000   ; qtot 0.126499
 1825         h1     73    bbb     H6   1825 -0.05230000   1.008000   ; qtot 0.074199
 1826         c3     73    bbb     C4   1826 0.51680000  12.010000   ; qtot 0.590999
 1827         h1     73    bbb     H7   1827 -0.05230000   1.008000   ; qtot 0.538699
 1828         h1     73    bbb     H8   1828 -0.05230000   1.008000   ; qtot 0.486399
 1829         c3     73    bbb     C5   1829 -0.60390000  12.010000   ; qtot -0.117501
 1830         hc     73    bbb     H9   1830 0.16730000   1.008000   ; qtot 0.049799
 1831         hc     73    bbb    H10   1831 0.16730000   1.008000   ; qtot 0.217099
 1832         c3     73    bbb     C6   1832 -0.60390000  12.010000   ; qtot -0.386801
 1833         hc     73    bbb    H11   1833 0.16730000   1.008000   ; qtot -0.219501
 1834         hc     73    bbb    H12   1834 0.16730000   1.008000   ; qtot -0.052201
 1835          c     73    bbb     C7   1835 0.72110000  12.010000   ; qtot 0.668899
 1836          c     73    bbb     C8   1836 0.72110000  12.010000   ; qtot 1.389999
 1837          o     73    bbb     O1   1837 -0.61950000  16.000000   ; qtot 0.770499
 1838          o     73    bbb     O2   1838 -0.61950000  16.000000   ; qtot 0.150999
 1839          n     73    bbb     N4   1839 -0.46580000  14.010000   ; qtot -0.314801
 1840         hn     73    bbb    H21   1840 0.31480000   1.008000   ; qtot -0.000001
; residue   74 bbb rtp bbb q -0.0
 1841         c3     74    bbb     C1   1841 0.44180000  12.010000   ; qtot 0.441799
 1842         h1     74    bbb     H1   1842 -0.03530000   1.008000   ; qtot 0.406499
 1843         h1     74    bbb     H2   1843 -0.03530000   1.008000   ; qtot 0.371199
 1844         c3     74    bbb     C2   1844 -0.28250000  12.010000   ; qtot 0.088699
 1845         h1     74    bbb     H3   1845 0.15710000   1.008000   ; qtot 0.245799
 1846         h1     74    bbb     H4   1846 0.15710000   1.008000   ; qtot 0.402899
 1847         n3     74    bbb     N1   1847 -0.74090000  14.010000   ; qtot -0.338001
 1848         c3     74    bbb     C3   1848 0.51680000  12.010000   ; qtot 0.178799
 1849         h1     74    bbb     H5   1849 -0.05230000   1.008000   ; qtot 0.126499
 1850         h1     74    bbb     H6   1850 -0.05230000   1.008000   ; qtot 0.074199
 1851         c3     74    bbb     C4   1851 0.51680000  12.010000   ; qtot 0.590999
 1852         h1     74    bbb     H7   1852 -0.05230000   1.008000   ; qtot 0.538699
 1853         h1     74    bbb     H8   1853 -0.05230000   1.008000   ; qtot 0.486399
 1854         c3     74    bbb     C5   1854 -0.60390000  12.010000   ; qtot -0.117501
 1855         hc     74    bbb     H9   1855 0.16730000   1.008000   ; qtot 0.049799
 1856         hc     74    bbb    H10   1856 0.16730000   1.008000   ; qtot 0.217099
 1857         c3     74    bbb     C6   1857 -0.60390000  12.010000   ; qtot -0.386801
 1858         hc     74    bbb    H11   1858 0.16730000   1.008000   ; qtot -0.219501
 1859         hc     74    bbb    H12   1859 0.16730000   1.008000   ; qtot -0.052201
 1860          c     74    bbb     C7   1860 0.72110000  12.010000   ; qtot 0.668899
 1861          c     74    bbb     C8   1861 0.72110000  12.010000   ; qtot 1.389999
 1862          o     74    bbb     O1   1862 -0.61950000  16.000000   ; qtot 0.770499
 1863          o     74    bbb     O2   1863 -0.61950000  16.000000   ; qtot 0.150999
 1864          n     74    bbb     N4   1864 -0.46580000  14.010000   ; qtot -0.314801
 1865         hn     74    bbb    H21   1865 0.31480000   1.008000   ; qtot -0.000001
; residue   75 bbb rtp bbb q -0.0
 1866         c3     75    bbb     C1   1866 0.44180000  12.010000   ; qtot 0.441799
 1867         h1     75    bbb     H1   1867 -0.03530000   1.008000   ; qtot 0.406499
 1868         h1     75    bbb     H2   1868 -0.03530000   1.008000   ; qtot 0.371199
 1869         c3     75    bbb     C2   1869 -0.28250000  12.010000   ; qtot 0.088699
 1870         h1     75    bbb     H3   1870 0.15710000   1.008000   ; qtot 0.245799
 1871         h1     75    bbb     H4   1871 0.15710000   1.008000   ; qtot 0.402899
 1872         n3     75    bbb     N1   1872 -0.74090000  14.010000   ; qtot -0.338001
 1873         c3     75    bbb     C3   1873 0.51680000  12.010000   ; qtot 0.178799
 1874         h1     75    bbb     H5   1874 -0.05230000   1.008000   ; qtot 0.126499
 1875         h1     75    bbb     H6   1875 -0.05230000   1.008000   ; qtot 0.074199
 1876         c3     75    bbb     C4   1876 0.51680000  12.010000   ; qtot 0.590999
 1877         h1     75    bbb     H7   1877 -0.05230000   1.008000   ; qtot 0.538699
 1878         h1     75    bbb     H8   1878 -0.05230000   1.008000   ; qtot 0.486399
 1879         c3     75    bbb     C5   1879 -0.60390000  12.010000   ; qtot -0.117501
 1880         hc     75    bbb     H9   1880 0.16730000   1.008000   ; qtot 0.049799
 1881         hc     75    bbb    H10   1881 0.16730000   1.008000   ; qtot 0.217099
 1882         c3     75    bbb     C6   1882 -0.60390000  12.010000   ; qtot -0.386801
 1883         hc     75    bbb    H11   1883 0.16730000   1.008000   ; qtot -0.219501
 1884         hc     75    bbb    H12   1884 0.16730000   1.008000   ; qtot -0.052201
 1885          c     75    bbb     C7   1885 0.72110000  12.010000   ; qtot 0.668899
 1886          c     75    bbb     C8   1886 0.72110000  12.010000   ; qtot 1.389999
 1887          o     75    bbb     O1   1887 -0.61950000  16.000000   ; qtot 0.770499
 1888          o     75    bbb     O2   1888 -0.61950000  16.000000   ; qtot 0.150999
 1889          n     75    bbb     N4   1889 -0.46580000  14.010000   ; qtot -0.314801
 1890         hn     75    bbb    H21   1890 0.31480000   1.008000   ; qtot -0.000001
; residue   76 bbb rtp bbb q -0.0
 1891         c3     76    bbb     C1   1891 0.44180000  12.010000   ; qtot 0.441799
 1892         h1     76    bbb     H1   1892 -0.03530000   1.008000   ; qtot 0.406499
 1893         h1     76    bbb     H2   1893 -0.03530000   1.008000   ; qtot 0.371199
 1894         c3     76    bbb     C2   1894 -0.28250000  12.010000   ; qtot 0.088699
 1895         h1     76    bbb     H3   1895 0.15710000   1.008000   ; qtot 0.245799
 1896         h1     76    bbb     H4   1896 0.15710000   1.008000   ; qtot 0.402899
 1897         n3     76    bbb     N1   1897 -0.74090000  14.010000   ; qtot -0.338001
 1898         c3     76    bbb     C3   1898 0.51680000  12.010000   ; qtot 0.178799
 1899         h1     76    bbb     H5   1899 -0.05230000   1.008000   ; qtot 0.126499
 1900         h1     76    bbb     H6   1900 -0.05230000   1.008000   ; qtot 0.074199
 1901         c3     76    bbb     C4   1901 0.51680000  12.010000   ; qtot 0.590999
 1902         h1     76    bbb     H7   1902 -0.05230000   1.008000   ; qtot 0.538699
 1903         h1     76    bbb     H8   1903 -0.05230000   1.008000   ; qtot 0.486399
 1904         c3     76    bbb     C5   1904 -0.60390000  12.010000   ; qtot -0.117501
 1905         hc     76    bbb     H9   1905 0.16730000   1.008000   ; qtot 0.049799
 1906         hc     76    bbb    H10   1906 0.16730000   1.008000   ; qtot 0.217099
 1907         c3     76    bbb     C6   1907 -0.60390000  12.010000   ; qtot -0.386801
 1908         hc     76    bbb    H11   1908 0.16730000   1.008000   ; qtot -0.219501
 1909         hc     76    bbb    H12   1909 0.16730000   1.008000   ; qtot -0.052201
 1910          c     76    bbb     C7   1910 0.72110000  12.010000   ; qtot 0.668899
 1911          c     76    bbb     C8   1911 0.72110000  12.010000   ; qtot 1.389999
 1912          o     76    bbb     O1   1912 -0.61950000  16.000000   ; qtot 0.770499
 1913          o     76    bbb     O2   1913 -0.61950000  16.000000   ; qtot 0.150999
 1914          n     76    bbb     N4   1914 -0.46580000  14.010000   ; qtot -0.314801
 1915         hn     76    bbb    H21   1915 0.31480000   1.008000   ; qtot -0.000001
; residue   77 bbb rtp bbb q -0.0
 1916         c3     77    bbb     C1   1916 0.44180000  12.010000   ; qtot 0.441799
 1917         h1     77    bbb     H1   1917 -0.03530000   1.008000   ; qtot 0.406499
 1918         h1     77    bbb     H2   1918 -0.03530000   1.008000   ; qtot 0.371199
 1919         c3     77    bbb     C2   1919 -0.28250000  12.010000   ; qtot 0.088699
 1920         h1     77    bbb     H3   1920 0.15710000   1.008000   ; qtot 0.245799
 1921         h1     77    bbb     H4   1921 0.15710000   1.008000   ; qtot 0.402899
 1922         n3     77    bbb     N1   1922 -0.74090000  14.010000   ; qtot -0.338001
 1923         c3     77    bbb     C3   1923 0.51680000  12.010000   ; qtot 0.178799
 1924         h1     77    bbb     H5   1924 -0.05230000   1.008000   ; qtot 0.126499
 1925         h1     77    bbb     H6   1925 -0.05230000   1.008000   ; qtot 0.074199
 1926         c3     77    bbb     C4   1926 0.51680000  12.010000   ; qtot 0.590999
 1927         h1     77    bbb     H7   1927 -0.05230000   1.008000   ; qtot 0.538699
 1928         h1     77    bbb     H8   1928 -0.05230000   1.008000   ; qtot 0.486399
 1929         c3     77    bbb     C5   1929 -0.60390000  12.010000   ; qtot -0.117501
 1930         hc     77    bbb     H9   1930 0.16730000   1.008000   ; qtot 0.049799
 1931         hc     77    bbb    H10   1931 0.16730000   1.008000   ; qtot 0.217099
 1932         c3     77    bbb     C6   1932 -0.60390000  12.010000   ; qtot -0.386801
 1933         hc     77    bbb    H11   1933 0.16730000   1.008000   ; qtot -0.219501
 1934         hc     77    bbb    H12   1934 0.16730000   1.008000   ; qtot -0.052201
 1935          c     77    bbb     C7   1935 0.72110000  12.010000   ; qtot 0.668899
 1936          c     77    bbb     C8   1936 0.72110000  12.010000   ; qtot 1.389999
 1937          o     77    bbb     O1   1937 -0.61950000  16.000000   ; qtot 0.770499
 1938          o     77    bbb     O2   1938 -0.61950000  16.000000   ; qtot 0.150999
 1939          n     77    bbb     N4   1939 -0.46580000  14.010000   ; qtot -0.314801
 1940         hn     77    bbb    H21   1940 0.31480000   1.008000   ; qtot -0.000001
; residue   78 bbb rtp bbb q -0.0
 1941         c3     78    bbb     C1   1941 0.44180000  12.010000   ; qtot 0.441799
 1942         h1     78    bbb     H1   1942 -0.03530000   1.008000   ; qtot 0.406499
 1943         h1     78    bbb     H2   1943 -0.03530000   1.008000   ; qtot 0.371199
 1944         c3     78    bbb     C2   1944 -0.28250000  12.010000   ; qtot 0.088699
 1945         h1     78    bbb     H3   1945 0.15710000   1.008000   ; qtot 0.245799
 1946         h1     78    bbb     H4   1946 0.15710000   1.008000   ; qtot 0.402899
 1947         n3     78    bbb     N1   1947 -0.74090000  14.010000   ; qtot -0.338001
 1948         c3     78    bbb     C3   1948 0.51680000  12.010000   ; qtot 0.178799
 1949         h1     78    bbb     H5   1949 -0.05230000   1.008000   ; qtot 0.126499
 1950         h1     78    bbb     H6   1950 -0.05230000   1.008000   ; qtot 0.074199
 1951         c3     78    bbb     C4   1951 0.51680000  12.010000   ; qtot 0.590999
 1952         h1     78    bbb     H7   1952 -0.05230000   1.008000   ; qtot 0.538699
 1953         h1     78    bbb     H8   1953 -0.05230000   1.008000   ; qtot 0.486399
 1954         c3     78    bbb     C5   1954 -0.60390000  12.010000   ; qtot -0.117501
 1955         hc     78    bbb     H9   1955 0.16730000   1.008000   ; qtot 0.049799
 1956         hc     78    bbb    H10   1956 0.16730000   1.008000   ; qtot 0.217099
 1957         c3     78    bbb     C6   1957 -0.60390000  12.010000   ; qtot -0.386801
 1958         hc     78    bbb    H11   1958 0.16730000   1.008000   ; qtot -0.219501
 1959         hc     78    bbb    H12   1959 0.16730000   1.008000   ; qtot -0.052201
 1960          c     78    bbb     C7   1960 0.72110000  12.010000   ; qtot 0.668899
 1961          c     78    bbb     C8   1961 0.72110000  12.010000   ; qtot 1.389999
 1962          o     78    bbb     O1   1962 -0.61950000  16.000000   ; qtot 0.770499
 1963          o     78    bbb     O2   1963 -0.61950000  16.000000   ; qtot 0.150999
 1964          n     78    bbb     N4   1964 -0.46580000  14.010000   ; qtot -0.314801
 1965         hn     78    bbb    H21   1965 0.31480000   1.008000   ; qtot -0.000001
; residue   79 bbb rtp bbb q -0.0
 1966         c3     79    bbb     C1   1966 0.44180000  12.010000   ; qtot 0.441799
 1967         h1     79    bbb     H1   1967 -0.03530000   1.008000   ; qtot 0.406499
 1968         h1     79    bbb     H2   1968 -0.03530000   1.008000   ; qtot 0.371199
 1969         c3     79    bbb     C2   1969 -0.28250000  12.010000   ; qtot 0.088699
 1970         h1     79    bbb     H3   1970 0.15710000   1.008000   ; qtot 0.245799
 1971         h1     79    bbb     H4   1971 0.15710000   1.008000   ; qtot 0.402899
 1972         n3     79    bbb     N1   1972 -0.74090000  14.010000   ; qtot -0.338001
 1973         c3     79    bbb     C3   1973 0.51680000  12.010000   ; qtot 0.178799
 1974         h1     79    bbb     H5   1974 -0.05230000   1.008000   ; qtot 0.126499
 1975         h1     79    bbb     H6   1975 -0.05230000   1.008000   ; qtot 0.074199
 1976         c3     79    bbb     C4   1976 0.51680000  12.010000   ; qtot 0.590999
 1977         h1     79    bbb     H7   1977 -0.05230000   1.008000   ; qtot 0.538699
 1978         h1     79    bbb     H8   1978 -0.05230000   1.008000   ; qtot 0.486399
 1979         c3     79    bbb     C5   1979 -0.60390000  12.010000   ; qtot -0.117501
 1980         hc     79    bbb     H9   1980 0.16730000   1.008000   ; qtot 0.049799
 1981         hc     79    bbb    H10   1981 0.16730000   1.008000   ; qtot 0.217099
 1982         c3     79    bbb     C6   1982 -0.60390000  12.010000   ; qtot -0.386801
 1983         hc     79    bbb    H11   1983 0.16730000   1.008000   ; qtot -0.219501
 1984         hc     79    bbb    H12   1984 0.16730000   1.008000   ; qtot -0.052201
 1985          c     79    bbb     C7   1985 0.72110000  12.010000   ; qtot 0.668899
 1986          c     79    bbb     C8   1986 0.72110000  12.010000   ; qtot 1.389999
 1987          o     79    bbb     O1   1987 -0.61950000  16.000000   ; qtot 0.770499
 1988          o     79    bbb     O2   1988 -0.61950000  16.000000   ; qtot 0.150999
 1989          n     79    bbb     N4   1989 -0.46580000  14.010000   ; qtot -0.314801
 1990         hn     79    bbb    H21   1990 0.31480000   1.008000   ; qtot -0.000001
; residue   80 bbb rtp bbb q -0.0
 1991         c3     80    bbb     C1   1991 0.44180000  12.010000   ; qtot 0.441799
 1992         h1     80    bbb     H1   1992 -0.03530000   1.008000   ; qtot 0.406499
 1993         h1     80    bbb     H2   1993 -0.03530000   1.008000   ; qtot 0.371199
 1994         c3     80    bbb     C2   1994 -0.28250000  12.010000   ; qtot 0.088699
 1995         h1     80    bbb     H3   1995 0.15710000   1.008000   ; qtot 0.245799
 1996         h1     80    bbb     H4   1996 0.15710000   1.008000   ; qtot 0.402899
 1997         n3     80    bbb     N1   1997 -0.74090000  14.010000   ; qtot -0.338001
 1998         c3     80    bbb     C3   1998 0.51680000  12.010000   ; qtot 0.178799
 1999         h1     80    bbb     H5   1999 -0.05230000   1.008000   ; qtot 0.126499
 2000         h1     80    bbb     H6   2000 -0.05230000   1.008000   ; qtot 0.074199
 2001         c3     80    bbb     C4   2001 0.51680000  12.010000   ; qtot 0.590999
 2002         h1     80    bbb     H7   2002 -0.05230000   1.008000   ; qtot 0.538699
 2003         h1     80    bbb     H8   2003 -0.05230000   1.008000   ; qtot 0.486399
 2004         c3     80    bbb     C5   2004 -0.60390000  12.010000   ; qtot -0.117501
 2005         hc     80    bbb     H9   2005 0.16730000   1.008000   ; qtot 0.049799
 2006         hc     80    bbb    H10   2006 0.16730000   1.008000   ; qtot 0.217099
 2007         c3     80    bbb     C6   2007 -0.60390000  12.010000   ; qtot -0.386801
 2008         hc     80    bbb    H11   2008 0.16730000   1.008000   ; qtot -0.219501
 2009         hc     80    bbb    H12   2009 0.16730000   1.008000   ; qtot -0.052201
 2010          c     80    bbb     C7   2010 0.72110000  12.010000   ; qtot 0.668899
 2011          c     80    bbb     C8   2011 0.72110000  12.010000   ; qtot 1.389999
 2012          o     80    bbb     O1   2012 -0.61950000  16.000000   ; qtot 0.770499
 2013          o     80    bbb     O2   2013 -0.61950000  16.000000   ; qtot 0.150999
 2014          n     80    bbb     N4   2014 -0.46580000  14.010000   ; qtot -0.314801
 2015         hn     80    bbb    H21   2015 0.31480000   1.008000   ; qtot -0.000001
; residue   81 bbb rtp bbb q -0.0
 2016         c3     81    bbb     C1   2016 0.44180000  12.010000   ; qtot 0.441799
 2017         h1     81    bbb     H1   2017 -0.03530000   1.008000   ; qtot 0.406499
 2018         h1     81    bbb     H2   2018 -0.03530000   1.008000   ; qtot 0.371199
 2019         c3     81    bbb     C2   2019 -0.28250000  12.010000   ; qtot 0.088699
 2020         h1     81    bbb     H3   2020 0.15710000   1.008000   ; qtot 0.245799
 2021         h1     81    bbb     H4   2021 0.15710000   1.008000   ; qtot 0.402899
 2022         n3     81    bbb     N1   2022 -0.74090000  14.010000   ; qtot -0.338001
 2023         c3     81    bbb     C3   2023 0.51680000  12.010000   ; qtot 0.178799
 2024         h1     81    bbb     H5   2024 -0.05230000   1.008000   ; qtot 0.126499
 2025         h1     81    bbb     H6   2025 -0.05230000   1.008000   ; qtot 0.074199
 2026         c3     81    bbb     C4   2026 0.51680000  12.010000   ; qtot 0.590999
 2027         h1     81    bbb     H7   2027 -0.05230000   1.008000   ; qtot 0.538699
 2028         h1     81    bbb     H8   2028 -0.05230000   1.008000   ; qtot 0.486399
 2029         c3     81    bbb     C5   2029 -0.60390000  12.010000   ; qtot -0.117501
 2030         hc     81    bbb     H9   2030 0.16730000   1.008000   ; qtot 0.049799
 2031         hc     81    bbb    H10   2031 0.16730000   1.008000   ; qtot 0.217099
 2032         c3     81    bbb     C6   2032 -0.60390000  12.010000   ; qtot -0.386801
 2033         hc     81    bbb    H11   2033 0.16730000   1.008000   ; qtot -0.219501
 2034         hc     81    bbb    H12   2034 0.16730000   1.008000   ; qtot -0.052201
 2035          c     81    bbb     C7   2035 0.72110000  12.010000   ; qtot 0.668899
 2036          c     81    bbb     C8   2036 0.72110000  12.010000   ; qtot 1.389999
 2037          o     81    bbb     O1   2037 -0.61950000  16.000000   ; qtot 0.770499
 2038          o     81    bbb     O2   2038 -0.61950000  16.000000   ; qtot 0.150999
 2039          n     81    bbb     N4   2039 -0.46580000  14.010000   ; qtot -0.314801
 2040         hn     81    bbb    H21   2040 0.31480000   1.008000   ; qtot -0.000001
; residue   82 bbb rtp bbb q -0.0
 2041         c3     82    bbb     C1   2041 0.44180000  12.010000   ; qtot 0.441799
 2042         h1     82    bbb     H1   2042 -0.03530000   1.008000   ; qtot 0.406499
 2043         h1     82    bbb     H2   2043 -0.03530000   1.008000   ; qtot 0.371199
 2044         c3     82    bbb     C2   2044 -0.28250000  12.010000   ; qtot 0.088699
 2045         h1     82    bbb     H3   2045 0.15710000   1.008000   ; qtot 0.245799
 2046         h1     82    bbb     H4   2046 0.15710000   1.008000   ; qtot 0.402899
 2047         n3     82    bbb     N1   2047 -0.74090000  14.010000   ; qtot -0.338001
 2048         c3     82    bbb     C3   2048 0.51680000  12.010000   ; qtot 0.178799
 2049         h1     82    bbb     H5   2049 -0.05230000   1.008000   ; qtot 0.126499
 2050         h1     82    bbb     H6   2050 -0.05230000   1.008000   ; qtot 0.074199
 2051         c3     82    bbb     C4   2051 0.51680000  12.010000   ; qtot 0.590999
 2052         h1     82    bbb     H7   2052 -0.05230000   1.008000   ; qtot 0.538699
 2053         h1     82    bbb     H8   2053 -0.05230000   1.008000   ; qtot 0.486399
 2054         c3     82    bbb     C5   2054 -0.60390000  12.010000   ; qtot -0.117501
 2055         hc     82    bbb     H9   2055 0.16730000   1.008000   ; qtot 0.049799
 2056         hc     82    bbb    H10   2056 0.16730000   1.008000   ; qtot 0.217099
 2057         c3     82    bbb     C6   2057 -0.60390000  12.010000   ; qtot -0.386801
 2058         hc     82    bbb    H11   2058 0.16730000   1.008000   ; qtot -0.219501
 2059         hc     82    bbb    H12   2059 0.16730000   1.008000   ; qtot -0.052201
 2060          c     82    bbb     C7   2060 0.72110000  12.010000   ; qtot 0.668899
 2061          c     82    bbb     C8   2061 0.72110000  12.010000   ; qtot 1.389999
 2062          o     82    bbb     O1   2062 -0.61950000  16.000000   ; qtot 0.770499
 2063          o     82    bbb     O2   2063 -0.61950000  16.000000   ; qtot 0.150999
 2064          n     82    bbb     N4   2064 -0.46580000  14.010000   ; qtot -0.314801
 2065         hn     82    bbb    H21   2065 0.31480000   1.008000   ; qtot -0.000001
; residue   83 bbb rtp bbb q -0.0
 2066         c3     83    bbb     C1   2066 0.44180000  12.010000   ; qtot 0.441799
 2067         h1     83    bbb     H1   2067 -0.03530000   1.008000   ; qtot 0.406499
 2068         h1     83    bbb     H2   2068 -0.03530000   1.008000   ; qtot 0.371199
 2069         c3     83    bbb     C2   2069 -0.28250000  12.010000   ; qtot 0.088699
 2070         h1     83    bbb     H3   2070 0.15710000   1.008000   ; qtot 0.245799
 2071         h1     83    bbb     H4   2071 0.15710000   1.008000   ; qtot 0.402899
 2072         n3     83    bbb     N1   2072 -0.74090000  14.010000   ; qtot -0.338001
 2073         c3     83    bbb     C3   2073 0.51680000  12.010000   ; qtot 0.178799
 2074         h1     83    bbb     H5   2074 -0.05230000   1.008000   ; qtot 0.126499
 2075         h1     83    bbb     H6   2075 -0.05230000   1.008000   ; qtot 0.074199
 2076         c3     83    bbb     C4   2076 0.51680000  12.010000   ; qtot 0.590999
 2077         h1     83    bbb     H7   2077 -0.05230000   1.008000   ; qtot 0.538699
 2078         h1     83    bbb     H8   2078 -0.05230000   1.008000   ; qtot 0.486399
 2079         c3     83    bbb     C5   2079 -0.60390000  12.010000   ; qtot -0.117501
 2080         hc     83    bbb     H9   2080 0.16730000   1.008000   ; qtot 0.049799
 2081         hc     83    bbb    H10   2081 0.16730000   1.008000   ; qtot 0.217099
 2082         c3     83    bbb     C6   2082 -0.60390000  12.010000   ; qtot -0.386801
 2083         hc     83    bbb    H11   2083 0.16730000   1.008000   ; qtot -0.219501
 2084         hc     83    bbb    H12   2084 0.16730000   1.008000   ; qtot -0.052201
 2085          c     83    bbb     C7   2085 0.72110000  12.010000   ; qtot 0.668899
 2086          c     83    bbb     C8   2086 0.72110000  12.010000   ; qtot 1.389999
 2087          o     83    bbb     O1   2087 -0.61950000  16.000000   ; qtot 0.770499
 2088          o     83    bbb     O2   2088 -0.61950000  16.000000   ; qtot 0.150999
 2089          n     83    bbb     N4   2089 -0.46580000  14.010000   ; qtot -0.314801
 2090         hn     83    bbb    H21   2090 0.31480000   1.008000   ; qtot -0.000001
; residue   84 bbb rtp bbb q -0.0
 2091         c3     84    bbb     C1   2091 0.44180000  12.010000   ; qtot 0.441799
 2092         h1     84    bbb     H1   2092 -0.03530000   1.008000   ; qtot 0.406499
 2093         h1     84    bbb     H2   2093 -0.03530000   1.008000   ; qtot 0.371199
 2094         c3     84    bbb     C2   2094 -0.28250000  12.010000   ; qtot 0.088699
 2095         h1     84    bbb     H3   2095 0.15710000   1.008000   ; qtot 0.245799
 2096         h1     84    bbb     H4   2096 0.15710000   1.008000   ; qtot 0.402899
 2097         n3     84    bbb     N1   2097 -0.74090000  14.010000   ; qtot -0.338001
 2098         c3     84    bbb     C3   2098 0.51680000  12.010000   ; qtot 0.178799
 2099         h1     84    bbb     H5   2099 -0.05230000   1.008000   ; qtot 0.126499
 2100         h1     84    bbb     H6   2100 -0.05230000   1.008000   ; qtot 0.074199
 2101         c3     84    bbb     C4   2101 0.51680000  12.010000   ; qtot 0.590999
 2102         h1     84    bbb     H7   2102 -0.05230000   1.008000   ; qtot 0.538699
 2103         h1     84    bbb     H8   2103 -0.05230000   1.008000   ; qtot 0.486399
 2104         c3     84    bbb     C5   2104 -0.60390000  12.010000   ; qtot -0.117501
 2105         hc     84    bbb     H9   2105 0.16730000   1.008000   ; qtot 0.049799
 2106         hc     84    bbb    H10   2106 0.16730000   1.008000   ; qtot 0.217099
 2107         c3     84    bbb     C6   2107 -0.60390000  12.010000   ; qtot -0.386801
 2108         hc     84    bbb    H11   2108 0.16730000   1.008000   ; qtot -0.219501
 2109         hc     84    bbb    H12   2109 0.16730000   1.008000   ; qtot -0.052201
 2110          c     84    bbb     C7   2110 0.72110000  12.010000   ; qtot 0.668899
 2111          c     84    bbb     C8   2111 0.72110000  12.010000   ; qtot 1.389999
 2112          o     84    bbb     O1   2112 -0.61950000  16.000000   ; qtot 0.770499
 2113          o     84    bbb     O2   2113 -0.61950000  16.000000   ; qtot 0.150999
 2114          n     84    bbb     N4   2114 -0.46580000  14.010000   ; qtot -0.314801
 2115         hn     84    bbb    H21   2115 0.31480000   1.008000   ; qtot -0.000001
; residue   85 bbb rtp bbb q -0.0
 2116         c3     85    bbb     C1   2116 0.44180000  12.010000   ; qtot 0.441799
 2117         h1     85    bbb     H1   2117 -0.03530000   1.008000   ; qtot 0.406499
 2118         h1     85    bbb     H2   2118 -0.03530000   1.008000   ; qtot 0.371199
 2119         c3     85    bbb     C2   2119 -0.28250000  12.010000   ; qtot 0.088699
 2120         h1     85    bbb     H3   2120 0.15710000   1.008000   ; qtot 0.245799
 2121         h1     85    bbb     H4   2121 0.15710000   1.008000   ; qtot 0.402899
 2122         n3     85    bbb     N1   2122 -0.74090000  14.010000   ; qtot -0.338001
 2123         c3     85    bbb     C3   2123 0.51680000  12.010000   ; qtot 0.178799
 2124         h1     85    bbb     H5   2124 -0.05230000   1.008000   ; qtot 0.126499
 2125         h1     85    bbb     H6   2125 -0.05230000   1.008000   ; qtot 0.074199
 2126         c3     85    bbb     C4   2126 0.51680000  12.010000   ; qtot 0.590999
 2127         h1     85    bbb     H7   2127 -0.05230000   1.008000   ; qtot 0.538699
 2128         h1     85    bbb     H8   2128 -0.05230000   1.008000   ; qtot 0.486399
 2129         c3     85    bbb     C5   2129 -0.60390000  12.010000   ; qtot -0.117501
 2130         hc     85    bbb     H9   2130 0.16730000   1.008000   ; qtot 0.049799
 2131         hc     85    bbb    H10   2131 0.16730000   1.008000   ; qtot 0.217099
 2132         c3     85    bbb     C6   2132 -0.60390000  12.010000   ; qtot -0.386801
 2133         hc     85    bbb    H11   2133 0.16730000   1.008000   ; qtot -0.219501
 2134         hc     85    bbb    H12   2134 0.16730000   1.008000   ; qtot -0.052201
 2135          c     85    bbb     C7   2135 0.72110000  12.010000   ; qtot 0.668899
 2136          c     85    bbb     C8   2136 0.72110000  12.010000   ; qtot 1.389999
 2137          o     85    bbb     O1   2137 -0.61950000  16.000000   ; qtot 0.770499
 2138          o     85    bbb     O2   2138 -0.61950000  16.000000   ; qtot 0.150999
 2139          n     85    bbb     N4   2139 -0.46580000  14.010000   ; qtot -0.314801
 2140         hn     85    bbb    H21   2140 0.31480000   1.008000   ; qtot -0.000001
; residue   86 bbb rtp bbb q -0.0
 2141         c3     86    bbb     C1   2141 0.44180000  12.010000   ; qtot 0.441799
 2142         h1     86    bbb     H1   2142 -0.03530000   1.008000   ; qtot 0.406499
 2143         h1     86    bbb     H2   2143 -0.03530000   1.008000   ; qtot 0.371199
 2144         c3     86    bbb     C2   2144 -0.28250000  12.010000   ; qtot 0.088699
 2145         h1     86    bbb     H3   2145 0.15710000   1.008000   ; qtot 0.245799
 2146         h1     86    bbb     H4   2146 0.15710000   1.008000   ; qtot 0.402899
 2147         n3     86    bbb     N1   2147 -0.74090000  14.010000   ; qtot -0.338001
 2148         c3     86    bbb     C3   2148 0.51680000  12.010000   ; qtot 0.178799
 2149         h1     86    bbb     H5   2149 -0.05230000   1.008000   ; qtot 0.126499
 2150         h1     86    bbb     H6   2150 -0.05230000   1.008000   ; qtot 0.074199
 2151         c3     86    bbb     C4   2151 0.51680000  12.010000   ; qtot 0.590999
 2152         h1     86    bbb     H7   2152 -0.05230000   1.008000   ; qtot 0.538699
 2153         h1     86    bbb     H8   2153 -0.05230000   1.008000   ; qtot 0.486399
 2154         c3     86    bbb     C5   2154 -0.60390000  12.010000   ; qtot -0.117501
 2155         hc     86    bbb     H9   2155 0.16730000   1.008000   ; qtot 0.049799
 2156         hc     86    bbb    H10   2156 0.16730000   1.008000   ; qtot 0.217099
 2157         c3     86    bbb     C6   2157 -0.60390000  12.010000   ; qtot -0.386801
 2158         hc     86    bbb    H11   2158 0.16730000   1.008000   ; qtot -0.219501
 2159         hc     86    bbb    H12   2159 0.16730000   1.008000   ; qtot -0.052201
 2160          c     86    bbb     C7   2160 0.72110000  12.010000   ; qtot 0.668899
 2161          c     86    bbb     C8   2161 0.72110000  12.010000   ; qtot 1.389999
 2162          o     86    bbb     O1   2162 -0.61950000  16.000000   ; qtot 0.770499
 2163          o     86    bbb     O2   2163 -0.61950000  16.000000   ; qtot 0.150999
 2164          n     86    bbb     N4   2164 -0.46580000  14.010000   ; qtot -0.314801
 2165         hn     86    bbb    H21   2165 0.31480000   1.008000   ; qtot -0.000001
; residue   87 bbb rtp bbb q -0.0
 2166         c3     87    bbb     C1   2166 0.44180000  12.010000   ; qtot 0.441799
 2167         h1     87    bbb     H1   2167 -0.03530000   1.008000   ; qtot 0.406499
 2168         h1     87    bbb     H2   2168 -0.03530000   1.008000   ; qtot 0.371199
 2169         c3     87    bbb     C2   2169 -0.28250000  12.010000   ; qtot 0.088699
 2170         h1     87    bbb     H3   2170 0.15710000   1.008000   ; qtot 0.245799
 2171         h1     87    bbb     H4   2171 0.15710000   1.008000   ; qtot 0.402899
 2172         n3     87    bbb     N1   2172 -0.74090000  14.010000   ; qtot -0.338001
 2173         c3     87    bbb     C3   2173 0.51680000  12.010000   ; qtot 0.178799
 2174         h1     87    bbb     H5   2174 -0.05230000   1.008000   ; qtot 0.126499
 2175         h1     87    bbb     H6   2175 -0.05230000   1.008000   ; qtot 0.074199
 2176         c3     87    bbb     C4   2176 0.51680000  12.010000   ; qtot 0.590999
 2177         h1     87    bbb     H7   2177 -0.05230000   1.008000   ; qtot 0.538699
 2178         h1     87    bbb     H8   2178 -0.05230000   1.008000   ; qtot 0.486399
 2179         c3     87    bbb     C5   2179 -0.60390000  12.010000   ; qtot -0.117501
 2180         hc     87    bbb     H9   2180 0.16730000   1.008000   ; qtot 0.049799
 2181         hc     87    bbb    H10   2181 0.16730000   1.008000   ; qtot 0.217099
 2182         c3     87    bbb     C6   2182 -0.60390000  12.010000   ; qtot -0.386801
 2183         hc     87    bbb    H11   2183 0.16730000   1.008000   ; qtot -0.219501
 2184         hc     87    bbb    H12   2184 0.16730000   1.008000   ; qtot -0.052201
 2185          c     87    bbb     C7   2185 0.72110000  12.010000   ; qtot 0.668899
 2186          c     87    bbb     C8   2186 0.72110000  12.010000   ; qtot 1.389999
 2187          o     87    bbb     O1   2187 -0.61950000  16.000000   ; qtot 0.770499
 2188          o     87    bbb     O2   2188 -0.61950000  16.000000   ; qtot 0.150999
 2189          n     87    bbb     N4   2189 -0.46580000  14.010000   ; qtot -0.314801
 2190         hn     87    bbb    H21   2190 0.31480000   1.008000   ; qtot -0.000001
; residue   88 bbb rtp bbb q -0.0
 2191         c3     88    bbb     C1   2191 0.44180000  12.010000   ; qtot 0.441799
 2192         h1     88    bbb     H1   2192 -0.03530000   1.008000   ; qtot 0.406499
 2193         h1     88    bbb     H2   2193 -0.03530000   1.008000   ; qtot 0.371199
 2194         c3     88    bbb     C2   2194 -0.28250000  12.010000   ; qtot 0.088699
 2195         h1     88    bbb     H3   2195 0.15710000   1.008000   ; qtot 0.245799
 2196         h1     88    bbb     H4   2196 0.15710000   1.008000   ; qtot 0.402899
 2197         n3     88    bbb     N1   2197 -0.74090000  14.010000   ; qtot -0.338001
 2198         c3     88    bbb     C3   2198 0.51680000  12.010000   ; qtot 0.178799
 2199         h1     88    bbb     H5   2199 -0.05230000   1.008000   ; qtot 0.126499
 2200         h1     88    bbb     H6   2200 -0.05230000   1.008000   ; qtot 0.074199
 2201         c3     88    bbb     C4   2201 0.51680000  12.010000   ; qtot 0.590999
 2202         h1     88    bbb     H7   2202 -0.05230000   1.008000   ; qtot 0.538699
 2203         h1     88    bbb     H8   2203 -0.05230000   1.008000   ; qtot 0.486399
 2204         c3     88    bbb     C5   2204 -0.60390000  12.010000   ; qtot -0.117501
 2205         hc     88    bbb     H9   2205 0.16730000   1.008000   ; qtot 0.049799
 2206         hc     88    bbb    H10   2206 0.16730000   1.008000   ; qtot 0.217099
 2207         c3     88    bbb     C6   2207 -0.60390000  12.010000   ; qtot -0.386801
 2208         hc     88    bbb    H11   2208 0.16730000   1.008000   ; qtot -0.219501
 2209         hc     88    bbb    H12   2209 0.16730000   1.008000   ; qtot -0.052201
 2210          c     88    bbb     C7   2210 0.72110000  12.010000   ; qtot 0.668899
 2211          c     88    bbb     C8   2211 0.72110000  12.010000   ; qtot 1.389999
 2212          o     88    bbb     O1   2212 -0.61950000  16.000000   ; qtot 0.770499
 2213          o     88    bbb     O2   2213 -0.61950000  16.000000   ; qtot 0.150999
 2214          n     88    bbb     N4   2214 -0.46580000  14.010000   ; qtot -0.314801
 2215         hn     88    bbb    H21   2215 0.31480000   1.008000   ; qtot -0.000001
; residue   89 bbb rtp bbb q -0.0
 2216         c3     89    bbb     C1   2216 0.44180000  12.010000   ; qtot 0.441799
 2217         h1     89    bbb     H1   2217 -0.03530000   1.008000   ; qtot 0.406499
 2218         h1     89    bbb     H2   2218 -0.03530000   1.008000   ; qtot 0.371199
 2219         c3     89    bbb     C2   2219 -0.28250000  12.010000   ; qtot 0.088699
 2220         h1     89    bbb     H3   2220 0.15710000   1.008000   ; qtot 0.245799
 2221         h1     89    bbb     H4   2221 0.15710000   1.008000   ; qtot 0.402899
 2222         n3     89    bbb     N1   2222 -0.74090000  14.010000   ; qtot -0.338001
 2223         c3     89    bbb     C3   2223 0.51680000  12.010000   ; qtot 0.178799
 2224         h1     89    bbb     H5   2224 -0.05230000   1.008000   ; qtot 0.126499
 2225         h1     89    bbb     H6   2225 -0.05230000   1.008000   ; qtot 0.074199
 2226         c3     89    bbb     C4   2226 0.51680000  12.010000   ; qtot 0.590999
 2227         h1     89    bbb     H7   2227 -0.05230000   1.008000   ; qtot 0.538699
 2228         h1     89    bbb     H8   2228 -0.05230000   1.008000   ; qtot 0.486399
 2229         c3     89    bbb     C5   2229 -0.60390000  12.010000   ; qtot -0.117501
 2230         hc     89    bbb     H9   2230 0.16730000   1.008000   ; qtot 0.049799
 2231         hc     89    bbb    H10   2231 0.16730000   1.008000   ; qtot 0.217099
 2232         c3     89    bbb     C6   2232 -0.60390000  12.010000   ; qtot -0.386801
 2233         hc     89    bbb    H11   2233 0.16730000   1.008000   ; qtot -0.219501
 2234         hc     89    bbb    H12   2234 0.16730000   1.008000   ; qtot -0.052201
 2235          c     89    bbb     C7   2235 0.72110000  12.010000   ; qtot 0.668899
 2236          c     89    bbb     C8   2236 0.72110000  12.010000   ; qtot 1.389999
 2237          o     89    bbb     O1   2237 -0.61950000  16.000000   ; qtot 0.770499
 2238          o     89    bbb     O2   2238 -0.61950000  16.000000   ; qtot 0.150999
 2239          n     89    bbb     N4   2239 -0.46580000  14.010000   ; qtot -0.314801
 2240         hn     89    bbb    H21   2240 0.31480000   1.008000   ; qtot -0.000001
; residue   90 bbb rtp bbb q -0.0
 2241         c3     90    bbb     C1   2241 0.44180000  12.010000   ; qtot 0.441799
 2242         h1     90    bbb     H1   2242 -0.03530000   1.008000   ; qtot 0.406499
 2243         h1     90    bbb     H2   2243 -0.03530000   1.008000   ; qtot 0.371199
 2244         c3     90    bbb     C2   2244 -0.28250000  12.010000   ; qtot 0.088699
 2245         h1     90    bbb     H3   2245 0.15710000   1.008000   ; qtot 0.245799
 2246         h1     90    bbb     H4   2246 0.15710000   1.008000   ; qtot 0.402899
 2247         n3     90    bbb     N1   2247 -0.74090000  14.010000   ; qtot -0.338001
 2248         c3     90    bbb     C3   2248 0.51680000  12.010000   ; qtot 0.178799
 2249         h1     90    bbb     H5   2249 -0.05230000   1.008000   ; qtot 0.126499
 2250         h1     90    bbb     H6   2250 -0.05230000   1.008000   ; qtot 0.074199
 2251         c3     90    bbb     C4   2251 0.51680000  12.010000   ; qtot 0.590999
 2252         h1     90    bbb     H7   2252 -0.05230000   1.008000   ; qtot 0.538699
 2253         h1     90    bbb     H8   2253 -0.05230000   1.008000   ; qtot 0.486399
 2254         c3     90    bbb     C5   2254 -0.60390000  12.010000   ; qtot -0.117501
 2255         hc     90    bbb     H9   2255 0.16730000   1.008000   ; qtot 0.049799
 2256         hc     90    bbb    H10   2256 0.16730000   1.008000   ; qtot 0.217099
 2257         c3     90    bbb     C6   2257 -0.60390000  12.010000   ; qtot -0.386801
 2258         hc     90    bbb    H11   2258 0.16730000   1.008000   ; qtot -0.219501
 2259         hc     90    bbb    H12   2259 0.16730000   1.008000   ; qtot -0.052201
 2260          c     90    bbb     C7   2260 0.72110000  12.010000   ; qtot 0.668899
 2261          c     90    bbb     C8   2261 0.72110000  12.010000   ; qtot 1.389999
 2262          o     90    bbb     O1   2262 -0.61950000  16.000000   ; qtot 0.770499
 2263          o     90    bbb     O2   2263 -0.61950000  16.000000   ; qtot 0.150999
 2264          n     90    bbb     N4   2264 -0.46580000  14.010000   ; qtot -0.314801
 2265         hn     90    bbb    H21   2265 0.31480000   1.008000   ; qtot -0.000001
; residue   91 bbb rtp bbb q -0.0
 2266         c3     91    bbb     C1   2266 0.44180000  12.010000   ; qtot 0.441799
 2267         h1     91    bbb     H1   2267 -0.03530000   1.008000   ; qtot 0.406499
 2268         h1     91    bbb     H2   2268 -0.03530000   1.008000   ; qtot 0.371199
 2269         c3     91    bbb     C2   2269 -0.28250000  12.010000   ; qtot 0.088699
 2270         h1     91    bbb     H3   2270 0.15710000   1.008000   ; qtot 0.245799
 2271         h1     91    bbb     H4   2271 0.15710000   1.008000   ; qtot 0.402899
 2272         n3     91    bbb     N1   2272 -0.74090000  14.010000   ; qtot -0.338001
 2273         c3     91    bbb     C3   2273 0.51680000  12.010000   ; qtot 0.178799
 2274         h1     91    bbb     H5   2274 -0.05230000   1.008000   ; qtot 0.126499
 2275         h1     91    bbb     H6   2275 -0.05230000   1.008000   ; qtot 0.074199
 2276         c3     91    bbb     C4   2276 0.51680000  12.010000   ; qtot 0.590999
 2277         h1     91    bbb     H7   2277 -0.05230000   1.008000   ; qtot 0.538699
 2278         h1     91    bbb     H8   2278 -0.05230000   1.008000   ; qtot 0.486399
 2279         c3     91    bbb     C5   2279 -0.60390000  12.010000   ; qtot -0.117501
 2280         hc     91    bbb     H9   2280 0.16730000   1.008000   ; qtot 0.049799
 2281         hc     91    bbb    H10   2281 0.16730000   1.008000   ; qtot 0.217099
 2282         c3     91    bbb     C6   2282 -0.60390000  12.010000   ; qtot -0.386801
 2283         hc     91    bbb    H11   2283 0.16730000   1.008000   ; qtot -0.219501
 2284         hc     91    bbb    H12   2284 0.16730000   1.008000   ; qtot -0.052201
 2285          c     91    bbb     C7   2285 0.72110000  12.010000   ; qtot 0.668899
 2286          c     91    bbb     C8   2286 0.72110000  12.010000   ; qtot 1.389999
 2287          o     91    bbb     O1   2287 -0.61950000  16.000000   ; qtot 0.770499
 2288          o     91    bbb     O2   2288 -0.61950000  16.000000   ; qtot 0.150999
 2289          n     91    bbb     N4   2289 -0.46580000  14.010000   ; qtot -0.314801
 2290         hn     91    bbb    H21   2290 0.31480000   1.008000   ; qtot -0.000001
; residue   92 bbb rtp bbb q -0.0
 2291         c3     92    bbb     C1   2291 0.44180000  12.010000   ; qtot 0.441799
 2292         h1     92    bbb     H1   2292 -0.03530000   1.008000   ; qtot 0.406499
 2293         h1     92    bbb     H2   2293 -0.03530000   1.008000   ; qtot 0.371199
 2294         c3     92    bbb     C2   2294 -0.28250000  12.010000   ; qtot 0.088699
 2295         h1     92    bbb     H3   2295 0.15710000   1.008000   ; qtot 0.245799
 2296         h1     92    bbb     H4   2296 0.15710000   1.008000   ; qtot 0.402899
 2297         n3     92    bbb     N1   2297 -0.74090000  14.010000   ; qtot -0.338001
 2298         c3     92    bbb     C3   2298 0.51680000  12.010000   ; qtot 0.178799
 2299         h1     92    bbb     H5   2299 -0.05230000   1.008000   ; qtot 0.126499
 2300         h1     92    bbb     H6   2300 -0.05230000   1.008000   ; qtot 0.074199
 2301         c3     92    bbb     C4   2301 0.51680000  12.010000   ; qtot 0.590999
 2302         h1     92    bbb     H7   2302 -0.05230000   1.008000   ; qtot 0.538699
 2303         h1     92    bbb     H8   2303 -0.05230000   1.008000   ; qtot 0.486399
 2304         c3     92    bbb     C5   2304 -0.60390000  12.010000   ; qtot -0.117501
 2305         hc     92    bbb     H9   2305 0.16730000   1.008000   ; qtot 0.049799
 2306         hc     92    bbb    H10   2306 0.16730000   1.008000   ; qtot 0.217099
 2307         c3     92    bbb     C6   2307 -0.60390000  12.010000   ; qtot -0.386801
 2308         hc     92    bbb    H11   2308 0.16730000   1.008000   ; qtot -0.219501
 2309         hc     92    bbb    H12   2309 0.16730000   1.008000   ; qtot -0.052201
 2310          c     92    bbb     C7   2310 0.72110000  12.010000   ; qtot 0.668899
 2311          c     92    bbb     C8   2311 0.72110000  12.010000   ; qtot 1.389999
 2312          o     92    bbb     O1   2312 -0.61950000  16.000000   ; qtot 0.770499
 2313          o     92    bbb     O2   2313 -0.61950000  16.000000   ; qtot 0.150999
 2314          n     92    bbb     N4   2314 -0.46580000  14.010000   ; qtot -0.314801
 2315         hn     92    bbb    H21   2315 0.31480000   1.008000   ; qtot -0.000001
; residue   93 bbb rtp bbb q -0.0
 2316         c3     93    bbb     C1   2316 0.44180000  12.010000   ; qtot 0.441799
 2317         h1     93    bbb     H1   2317 -0.03530000   1.008000   ; qtot 0.406499
 2318         h1     93    bbb     H2   2318 -0.03530000   1.008000   ; qtot 0.371199
 2319         c3     93    bbb     C2   2319 -0.28250000  12.010000   ; qtot 0.088699
 2320         h1     93    bbb     H3   2320 0.15710000   1.008000   ; qtot 0.245799
 2321         h1     93    bbb     H4   2321 0.15710000   1.008000   ; qtot 0.402899
 2322         n3     93    bbb     N1   2322 -0.74090000  14.010000   ; qtot -0.338001
 2323         c3     93    bbb     C3   2323 0.51680000  12.010000   ; qtot 0.178799
 2324         h1     93    bbb     H5   2324 -0.05230000   1.008000   ; qtot 0.126499
 2325         h1     93    bbb     H6   2325 -0.05230000   1.008000   ; qtot 0.074199
 2326         c3     93    bbb     C4   2326 0.51680000  12.010000   ; qtot 0.590999
 2327         h1     93    bbb     H7   2327 -0.05230000   1.008000   ; qtot 0.538699
 2328         h1     93    bbb     H8   2328 -0.05230000   1.008000   ; qtot 0.486399
 2329         c3     93    bbb     C5   2329 -0.60390000  12.010000   ; qtot -0.117501
 2330         hc     93    bbb     H9   2330 0.16730000   1.008000   ; qtot 0.049799
 2331         hc     93    bbb    H10   2331 0.16730000   1.008000   ; qtot 0.217099
 2332         c3     93    bbb     C6   2332 -0.60390000  12.010000   ; qtot -0.386801
 2333         hc     93    bbb    H11   2333 0.16730000   1.008000   ; qtot -0.219501
 2334         hc     93    bbb    H12   2334 0.16730000   1.008000   ; qtot -0.052201
 2335          c     93    bbb     C7   2335 0.72110000  12.010000   ; qtot 0.668899
 2336          c     93    bbb     C8   2336 0.72110000  12.010000   ; qtot 1.389999
 2337          o     93    bbb     O1   2337 -0.61950000  16.000000   ; qtot 0.770499
 2338          o     93    bbb     O2   2338 -0.61950000  16.000000   ; qtot 0.150999
 2339          n     93    bbb     N4   2339 -0.46580000  14.010000   ; qtot -0.314801
 2340         hn     93    bbb    H21   2340 0.31480000   1.008000   ; qtot -0.000001
; residue   94 bbb rtp bbb q -0.0
 2341         c3     94    bbb     C1   2341 0.44180000  12.010000   ; qtot 0.441799
 2342         h1     94    bbb     H1   2342 -0.03530000   1.008000   ; qtot 0.406499
 2343         h1     94    bbb     H2   2343 -0.03530000   1.008000   ; qtot 0.371199
 2344         c3     94    bbb     C2   2344 -0.28250000  12.010000   ; qtot 0.088699
 2345         h1     94    bbb     H3   2345 0.15710000   1.008000   ; qtot 0.245799
 2346         h1     94    bbb     H4   2346 0.15710000   1.008000   ; qtot 0.402899
 2347         n3     94    bbb     N1   2347 -0.74090000  14.010000   ; qtot -0.338001
 2348         c3     94    bbb     C3   2348 0.51680000  12.010000   ; qtot 0.178799
 2349         h1     94    bbb     H5   2349 -0.05230000   1.008000   ; qtot 0.126499
 2350         h1     94    bbb     H6   2350 -0.05230000   1.008000   ; qtot 0.074199
 2351         c3     94    bbb     C4   2351 0.51680000  12.010000   ; qtot 0.590999
 2352         h1     94    bbb     H7   2352 -0.05230000   1.008000   ; qtot 0.538699
 2353         h1     94    bbb     H8   2353 -0.05230000   1.008000   ; qtot 0.486399
 2354         c3     94    bbb     C5   2354 -0.60390000  12.010000   ; qtot -0.117501
 2355         hc     94    bbb     H9   2355 0.16730000   1.008000   ; qtot 0.049799
 2356         hc     94    bbb    H10   2356 0.16730000   1.008000   ; qtot 0.217099
 2357         c3     94    bbb     C6   2357 -0.60390000  12.010000   ; qtot -0.386801
 2358         hc     94    bbb    H11   2358 0.16730000   1.008000   ; qtot -0.219501
 2359         hc     94    bbb    H12   2359 0.16730000   1.008000   ; qtot -0.052201
 2360          c     94    bbb     C7   2360 0.72110000  12.010000   ; qtot 0.668899
 2361          c     94    bbb     C8   2361 0.72110000  12.010000   ; qtot 1.389999
 2362          o     94    bbb     O1   2362 -0.61950000  16.000000   ; qtot 0.770499
 2363          o     94    bbb     O2   2363 -0.61950000  16.000000   ; qtot 0.150999
 2364          n     94    bbb     N4   2364 -0.46580000  14.010000   ; qtot -0.314801
 2365         hn     94    bbb    H21   2365 0.31480000   1.008000   ; qtot -0.000001
; residue   95 bbb rtp bbb q -0.0
 2366         c3     95    bbb     C1   2366 0.44180000  12.010000   ; qtot 0.441799
 2367         h1     95    bbb     H1   2367 -0.03530000   1.008000   ; qtot 0.406499
 2368         h1     95    bbb     H2   2368 -0.03530000   1.008000   ; qtot 0.371199
 2369         c3     95    bbb     C2   2369 -0.28250000  12.010000   ; qtot 0.088699
 2370         h1     95    bbb     H3   2370 0.15710000   1.008000   ; qtot 0.245799
 2371         h1     95    bbb     H4   2371 0.15710000   1.008000   ; qtot 0.402899
 2372         n3     95    bbb     N1   2372 -0.74090000  14.010000   ; qtot -0.338001
 2373         c3     95    bbb     C3   2373 0.51680000  12.010000   ; qtot 0.178799
 2374         h1     95    bbb     H5   2374 -0.05230000   1.008000   ; qtot 0.126499
 2375         h1     95    bbb     H6   2375 -0.05230000   1.008000   ; qtot 0.074199
 2376         c3     95    bbb     C4   2376 0.51680000  12.010000   ; qtot 0.590999
 2377         h1     95    bbb     H7   2377 -0.05230000   1.008000   ; qtot 0.538699
 2378         h1     95    bbb     H8   2378 -0.05230000   1.008000   ; qtot 0.486399
 2379         c3     95    bbb     C5   2379 -0.60390000  12.010000   ; qtot -0.117501
 2380         hc     95    bbb     H9   2380 0.16730000   1.008000   ; qtot 0.049799
 2381         hc     95    bbb    H10   2381 0.16730000   1.008000   ; qtot 0.217099
 2382         c3     95    bbb     C6   2382 -0.60390000  12.010000   ; qtot -0.386801
 2383         hc     95    bbb    H11   2383 0.16730000   1.008000   ; qtot -0.219501
 2384         hc     95    bbb    H12   2384 0.16730000   1.008000   ; qtot -0.052201
 2385          c     95    bbb     C7   2385 0.72110000  12.010000   ; qtot 0.668899
 2386          c     95    bbb     C8   2386 0.72110000  12.010000   ; qtot 1.389999
 2387          o     95    bbb     O1   2387 -0.61950000  16.000000   ; qtot 0.770499
 2388          o     95    bbb     O2   2388 -0.61950000  16.000000   ; qtot 0.150999
 2389          n     95    bbb     N4   2389 -0.46580000  14.010000   ; qtot -0.314801
 2390         hn     95    bbb    H21   2390 0.31480000   1.008000   ; qtot -0.000001
; residue   96 bbb rtp bbb q -0.0
 2391         c3     96    bbb     C1   2391 0.44180000  12.010000   ; qtot 0.441799
 2392         h1     96    bbb     H1   2392 -0.03530000   1.008000   ; qtot 0.406499
 2393         h1     96    bbb     H2   2393 -0.03530000   1.008000   ; qtot 0.371199
 2394         c3     96    bbb     C2   2394 -0.28250000  12.010000   ; qtot 0.088699
 2395         h1     96    bbb     H3   2395 0.15710000   1.008000   ; qtot 0.245799
 2396         h1     96    bbb     H4   2396 0.15710000   1.008000   ; qtot 0.402899
 2397         n3     96    bbb     N1   2397 -0.74090000  14.010000   ; qtot -0.338001
 2398         c3     96    bbb     C3   2398 0.51680000  12.010000   ; qtot 0.178799
 2399         h1     96    bbb     H5   2399 -0.05230000   1.008000   ; qtot 0.126499
 2400         h1     96    bbb     H6   2400 -0.05230000   1.008000   ; qtot 0.074199
 2401         c3     96    bbb     C4   2401 0.51680000  12.010000   ; qtot 0.590999
 2402         h1     96    bbb     H7   2402 -0.05230000   1.008000   ; qtot 0.538699
 2403         h1     96    bbb     H8   2403 -0.05230000   1.008000   ; qtot 0.486399
 2404         c3     96    bbb     C5   2404 -0.60390000  12.010000   ; qtot -0.117501
 2405         hc     96    bbb     H9   2405 0.16730000   1.008000   ; qtot 0.049799
 2406         hc     96    bbb    H10   2406 0.16730000   1.008000   ; qtot 0.217099
 2407         c3     96    bbb     C6   2407 -0.60390000  12.010000   ; qtot -0.386801
 2408         hc     96    bbb    H11   2408 0.16730000   1.008000   ; qtot -0.219501
 2409         hc     96    bbb    H12   2409 0.16730000   1.008000   ; qtot -0.052201
 2410          c     96    bbb     C7   2410 0.72110000  12.010000   ; qtot 0.668899
 2411          c     96    bbb     C8   2411 0.72110000  12.010000   ; qtot 1.389999
 2412          o     96    bbb     O1   2412 -0.61950000  16.000000   ; qtot 0.770499
 2413          o     96    bbb     O2   2413 -0.61950000  16.000000   ; qtot 0.150999
 2414          n     96    bbb     N4   2414 -0.46580000  14.010000   ; qtot -0.314801
 2415         hn     96    bbb    H21   2415 0.31480000   1.008000   ; qtot -0.000001
; residue   97 bbb rtp bbb q -0.0
 2416         c3     97    bbb     C1   2416 0.44180000  12.010000   ; qtot 0.441799
 2417         h1     97    bbb     H1   2417 -0.03530000   1.008000   ; qtot 0.406499
 2418         h1     97    bbb     H2   2418 -0.03530000   1.008000   ; qtot 0.371199
 2419         c3     97    bbb     C2   2419 -0.28250000  12.010000   ; qtot 0.088699
 2420         h1     97    bbb     H3   2420 0.15710000   1.008000   ; qtot 0.245799
 2421         h1     97    bbb     H4   2421 0.15710000   1.008000   ; qtot 0.402899
 2422         n3     97    bbb     N1   2422 -0.74090000  14.010000   ; qtot -0.338001
 2423         c3     97    bbb     C3   2423 0.51680000  12.010000   ; qtot 0.178799
 2424         h1     97    bbb     H5   2424 -0.05230000   1.008000   ; qtot 0.126499
 2425         h1     97    bbb     H6   2425 -0.05230000   1.008000   ; qtot 0.074199
 2426         c3     97    bbb     C4   2426 0.51680000  12.010000   ; qtot 0.590999
 2427         h1     97    bbb     H7   2427 -0.05230000   1.008000   ; qtot 0.538699
 2428         h1     97    bbb     H8   2428 -0.05230000   1.008000   ; qtot 0.486399
 2429         c3     97    bbb     C5   2429 -0.60390000  12.010000   ; qtot -0.117501
 2430         hc     97    bbb     H9   2430 0.16730000   1.008000   ; qtot 0.049799
 2431         hc     97    bbb    H10   2431 0.16730000   1.008000   ; qtot 0.217099
 2432         c3     97    bbb     C6   2432 -0.60390000  12.010000   ; qtot -0.386801
 2433         hc     97    bbb    H11   2433 0.16730000   1.008000   ; qtot -0.219501
 2434         hc     97    bbb    H12   2434 0.16730000   1.008000   ; qtot -0.052201
 2435          c     97    bbb     C7   2435 0.72110000  12.010000   ; qtot 0.668899
 2436          c     97    bbb     C8   2436 0.72110000  12.010000   ; qtot 1.389999
 2437          o     97    bbb     O1   2437 -0.61950000  16.000000   ; qtot 0.770499
 2438          o     97    bbb     O2   2438 -0.61950000  16.000000   ; qtot 0.150999
 2439          n     97    bbb     N4   2439 -0.46580000  14.010000   ; qtot -0.314801
 2440         hn     97    bbb    H21   2440 0.31480000   1.008000   ; qtot -0.000001
; residue   98 bbb rtp bbb q -0.0
 2441         c3     98    bbb     C1   2441 0.44180000  12.010000   ; qtot 0.441799
 2442         h1     98    bbb     H1   2442 -0.03530000   1.008000   ; qtot 0.406499
 2443         h1     98    bbb     H2   2443 -0.03530000   1.008000   ; qtot 0.371199
 2444         c3     98    bbb     C2   2444 -0.28250000  12.010000   ; qtot 0.088699
 2445         h1     98    bbb     H3   2445 0.15710000   1.008000   ; qtot 0.245799
 2446         h1     98    bbb     H4   2446 0.15710000   1.008000   ; qtot 0.402899
 2447         n3     98    bbb     N1   2447 -0.74090000  14.010000   ; qtot -0.338001
 2448         c3     98    bbb     C3   2448 0.51680000  12.010000   ; qtot 0.178799
 2449         h1     98    bbb     H5   2449 -0.05230000   1.008000   ; qtot 0.126499
 2450         h1     98    bbb     H6   2450 -0.05230000   1.008000   ; qtot 0.074199
 2451         c3     98    bbb     C4   2451 0.51680000  12.010000   ; qtot 0.590999
 2452         h1     98    bbb     H7   2452 -0.05230000   1.008000   ; qtot 0.538699
 2453         h1     98    bbb     H8   2453 -0.05230000   1.008000   ; qtot 0.486399
 2454         c3     98    bbb     C5   2454 -0.60390000  12.010000   ; qtot -0.117501
 2455         hc     98    bbb     H9   2455 0.16730000   1.008000   ; qtot 0.049799
 2456         hc     98    bbb    H10   2456 0.16730000   1.008000   ; qtot 0.217099
 2457         c3     98    bbb     C6   2457 -0.60390000  12.010000   ; qtot -0.386801
 2458         hc     98    bbb    H11   2458 0.16730000   1.008000   ; qtot -0.219501
 2459         hc     98    bbb    H12   2459 0.16730000   1.008000   ; qtot -0.052201
 2460          c     98    bbb     C7   2460 0.72110000  12.010000   ; qtot 0.668899
 2461          c     98    bbb     C8   2461 0.72110000  12.010000   ; qtot 1.389999
 2462          o     98    bbb     O1   2462 -0.61950000  16.000000   ; qtot 0.770499
 2463          o     98    bbb     O2   2463 -0.61950000  16.000000   ; qtot 0.150999
 2464          n     98    bbb     N4   2464 -0.46580000  14.010000   ; qtot -0.314801
 2465         hn     98    bbb    H21   2465 0.31480000   1.008000   ; qtot -0.000001
; residue   99 bbb rtp bbb q -0.0
 2466         c3     99    bbb     C1   2466 0.44180000  12.010000   ; qtot 0.441799
 2467         h1     99    bbb     H1   2467 -0.03530000   1.008000   ; qtot 0.406499
 2468         h1     99    bbb     H2   2468 -0.03530000   1.008000   ; qtot 0.371199
 2469         c3     99    bbb     C2   2469 -0.28250000  12.010000   ; qtot 0.088699
 2470         h1     99    bbb     H3   2470 0.15710000   1.008000   ; qtot 0.245799
 2471         h1     99    bbb     H4   2471 0.15710000   1.008000   ; qtot 0.402899
 2472         n3     99    bbb     N1   2472 -0.74090000  14.010000   ; qtot -0.338001
 2473         c3     99    bbb     C3   2473 0.51680000  12.010000   ; qtot 0.178799
 2474         h1     99    bbb     H5   2474 -0.05230000   1.008000   ; qtot 0.126499
 2475         h1     99    bbb     H6   2475 -0.05230000   1.008000   ; qtot 0.074199
 2476         c3     99    bbb     C4   2476 0.51680000  12.010000   ; qtot 0.590999
 2477         h1     99    bbb     H7   2477 -0.05230000   1.008000   ; qtot 0.538699
 2478         h1     99    bbb     H8   2478 -0.05230000   1.008000   ; qtot 0.486399
 2479         c3     99    bbb     C5   2479 -0.60390000  12.010000   ; qtot -0.117501
 2480         hc     99    bbb     H9   2480 0.16730000   1.008000   ; qtot 0.049799
 2481         hc     99    bbb    H10   2481 0.16730000   1.008000   ; qtot 0.217099
 2482         c3     99    bbb     C6   2482 -0.60390000  12.010000   ; qtot -0.386801
 2483         hc     99    bbb    H11   2483 0.16730000   1.008000   ; qtot -0.219501
 2484         hc     99    bbb    H12   2484 0.16730000   1.008000   ; qtot -0.052201
 2485          c     99    bbb     C7   2485 0.72110000  12.010000   ; qtot 0.668899
 2486          c     99    bbb     C8   2486 0.72110000  12.010000   ; qtot 1.389999
 2487          o     99    bbb     O1   2487 -0.61950000  16.000000   ; qtot 0.770499
 2488          o     99    bbb     O2   2488 -0.61950000  16.000000   ; qtot 0.150999
 2489          n     99    bbb     N4   2489 -0.46580000  14.010000   ; qtot -0.314801
 2490         hn     99    bbb    H21   2490 0.31480000   1.008000   ; qtot -0.000001
; residue  100 bbb rtp bbb q -0.0
 2491         c3    100    bbb     C1   2491 0.44180000  12.010000   ; qtot 0.441799
 2492         h1    100    bbb     H1   2492 -0.03530000   1.008000   ; qtot 0.406499
 2493         h1    100    bbb     H2   2493 -0.03530000   1.008000   ; qtot 0.371199
 2494         c3    100    bbb     C2   2494 -0.28250000  12.010000   ; qtot 0.088699
 2495         h1    100    bbb     H3   2495 0.15710000   1.008000   ; qtot 0.245799
 2496         h1    100    bbb     H4   2496 0.15710000   1.008000   ; qtot 0.402899
 2497         n3    100    bbb     N1   2497 -0.74090000  14.010000   ; qtot -0.338001
 2498         c3    100    bbb     C3   2498 0.51680000  12.010000   ; qtot 0.178799
 2499         h1    100    bbb     H5   2499 -0.05230000   1.008000   ; qtot 0.126499
 2500         h1    100    bbb     H6   2500 -0.05230000   1.008000   ; qtot 0.074199
 2501         c3    100    bbb     C4   2501 0.51680000  12.010000   ; qtot 0.590999
 2502         h1    100    bbb     H7   2502 -0.05230000   1.008000   ; qtot 0.538699
 2503         h1    100    bbb     H8   2503 -0.05230000   1.008000   ; qtot 0.486399
 2504         c3    100    bbb     C5   2504 -0.60390000  12.010000   ; qtot -0.117501
 2505         hc    100    bbb     H9   2505 0.16730000   1.008000   ; qtot 0.049799
 2506         hc    100    bbb    H10   2506 0.16730000   1.008000   ; qtot 0.217099
 2507         c3    100    bbb     C6   2507 -0.60390000  12.010000   ; qtot -0.386801
 2508         hc    100    bbb    H11   2508 0.16730000   1.008000   ; qtot -0.219501
 2509         hc    100    bbb    H12   2509 0.16730000   1.008000   ; qtot -0.052201
 2510          c    100    bbb     C7   2510 0.72110000  12.010000   ; qtot 0.668899
 2511          c    100    bbb     C8   2511 0.72110000  12.010000   ; qtot 1.389999
 2512          o    100    bbb     O1   2512 -0.61950000  16.000000   ; qtot 0.770499
 2513          o    100    bbb     O2   2513 -0.61950000  16.000000   ; qtot 0.150999
 2514          n    100    bbb     N4   2514 -0.46580000  14.010000   ; qtot -0.314801
 2515         hn    100    bbb    H21   2515 0.31480000   1.008000   ; qtot -0.000001
; residue  101 bbb rtp bbb q -0.0
 2516         c3    101    bbb     C1   2516 0.44180000  12.010000   ; qtot 0.441799
 2517         h1    101    bbb     H1   2517 -0.03530000   1.008000   ; qtot 0.406499
 2518         h1    101    bbb     H2   2518 -0.03530000   1.008000   ; qtot 0.371199
 2519         c3    101    bbb     C2   2519 -0.28250000  12.010000   ; qtot 0.088699
 2520         h1    101    bbb     H3   2520 0.15710000   1.008000   ; qtot 0.245799
 2521         h1    101    bbb     H4   2521 0.15710000   1.008000   ; qtot 0.402899
 2522         n3    101    bbb     N1   2522 -0.74090000  14.010000   ; qtot -0.338001
 2523         c3    101    bbb     C3   2523 0.51680000  12.010000   ; qtot 0.178799
 2524         h1    101    bbb     H5   2524 -0.05230000   1.008000   ; qtot 0.126499
 2525         h1    101    bbb     H6   2525 -0.05230000   1.008000   ; qtot 0.074199
 2526         c3    101    bbb     C4   2526 0.51680000  12.010000   ; qtot 0.590999
 2527         h1    101    bbb     H7   2527 -0.05230000   1.008000   ; qtot 0.538699
 2528         h1    101    bbb     H8   2528 -0.05230000   1.008000   ; qtot 0.486399
 2529         c3    101    bbb     C5   2529 -0.60390000  12.010000   ; qtot -0.117501
 2530         hc    101    bbb     H9   2530 0.16730000   1.008000   ; qtot 0.049799
 2531         hc    101    bbb    H10   2531 0.16730000   1.008000   ; qtot 0.217099
 2532         c3    101    bbb     C6   2532 -0.60390000  12.010000   ; qtot -0.386801
 2533         hc    101    bbb    H11   2533 0.16730000   1.008000   ; qtot -0.219501
 2534         hc    101    bbb    H12   2534 0.16730000   1.008000   ; qtot -0.052201
 2535          c    101    bbb     C7   2535 0.72110000  12.010000   ; qtot 0.668899
 2536          c    101    bbb     C8   2536 0.72110000  12.010000   ; qtot 1.389999
 2537          o    101    bbb     O1   2537 -0.61950000  16.000000   ; qtot 0.770499
 2538          o    101    bbb     O2   2538 -0.61950000  16.000000   ; qtot 0.150999
 2539          n    101    bbb     N4   2539 -0.46580000  14.010000   ; qtot -0.314801
 2540         hn    101    bbb    H21   2540 0.31480000   1.008000   ; qtot -0.000001
; residue  102 bbb rtp bbb q -0.0
 2541         c3    102    bbb     C1   2541 0.44180000  12.010000   ; qtot 0.441799
 2542         h1    102    bbb     H1   2542 -0.03530000   1.008000   ; qtot 0.406499
 2543         h1    102    bbb     H2   2543 -0.03530000   1.008000   ; qtot 0.371199
 2544         c3    102    bbb     C2   2544 -0.28250000  12.010000   ; qtot 0.088699
 2545         h1    102    bbb     H3   2545 0.15710000   1.008000   ; qtot 0.245799
 2546         h1    102    bbb     H4   2546 0.15710000   1.008000   ; qtot 0.402899
 2547         n3    102    bbb     N1   2547 -0.74090000  14.010000   ; qtot -0.338001
 2548         c3    102    bbb     C3   2548 0.51680000  12.010000   ; qtot 0.178799
 2549         h1    102    bbb     H5   2549 -0.05230000   1.008000   ; qtot 0.126499
 2550         h1    102    bbb     H6   2550 -0.05230000   1.008000   ; qtot 0.074199
 2551         c3    102    bbb     C4   2551 0.51680000  12.010000   ; qtot 0.590999
 2552         h1    102    bbb     H7   2552 -0.05230000   1.008000   ; qtot 0.538699
 2553         h1    102    bbb     H8   2553 -0.05230000   1.008000   ; qtot 0.486399
 2554         c3    102    bbb     C5   2554 -0.60390000  12.010000   ; qtot -0.117501
 2555         hc    102    bbb     H9   2555 0.16730000   1.008000   ; qtot 0.049799
 2556         hc    102    bbb    H10   2556 0.16730000   1.008000   ; qtot 0.217099
 2557         c3    102    bbb     C6   2557 -0.60390000  12.010000   ; qtot -0.386801
 2558         hc    102    bbb    H11   2558 0.16730000   1.008000   ; qtot -0.219501
 2559         hc    102    bbb    H12   2559 0.16730000   1.008000   ; qtot -0.052201
 2560          c    102    bbb     C7   2560 0.72110000  12.010000   ; qtot 0.668899
 2561          c    102    bbb     C8   2561 0.72110000  12.010000   ; qtot 1.389999
 2562          o    102    bbb     O1   2562 -0.61950000  16.000000   ; qtot 0.770499
 2563          o    102    bbb     O2   2563 -0.61950000  16.000000   ; qtot 0.150999
 2564          n    102    bbb     N4   2564 -0.46580000  14.010000   ; qtot -0.314801
 2565         hn    102    bbb    H21   2565 0.31480000   1.008000   ; qtot -0.000001
; residue  103 bbb rtp bbb q -0.0
 2566         c3    103    bbb     C1   2566 0.44180000  12.010000   ; qtot 0.441799
 2567         h1    103    bbb     H1   2567 -0.03530000   1.008000   ; qtot 0.406499
 2568         h1    103    bbb     H2   2568 -0.03530000   1.008000   ; qtot 0.371199
 2569         c3    103    bbb     C2   2569 -0.28250000  12.010000   ; qtot 0.088699
 2570         h1    103    bbb     H3   2570 0.15710000   1.008000   ; qtot 0.245799
 2571         h1    103    bbb     H4   2571 0.15710000   1.008000   ; qtot 0.402899
 2572         n3    103    bbb     N1   2572 -0.74090000  14.010000   ; qtot -0.338001
 2573         c3    103    bbb     C3   2573 0.51680000  12.010000   ; qtot 0.178799
 2574         h1    103    bbb     H5   2574 -0.05230000   1.008000   ; qtot 0.126499
 2575         h1    103    bbb     H6   2575 -0.05230000   1.008000   ; qtot 0.074199
 2576         c3    103    bbb     C4   2576 0.51680000  12.010000   ; qtot 0.590999
 2577         h1    103    bbb     H7   2577 -0.05230000   1.008000   ; qtot 0.538699
 2578         h1    103    bbb     H8   2578 -0.05230000   1.008000   ; qtot 0.486399
 2579         c3    103    bbb     C5   2579 -0.60390000  12.010000   ; qtot -0.117501
 2580         hc    103    bbb     H9   2580 0.16730000   1.008000   ; qtot 0.049799
 2581         hc    103    bbb    H10   2581 0.16730000   1.008000   ; qtot 0.217099
 2582         c3    103    bbb     C6   2582 -0.60390000  12.010000   ; qtot -0.386801
 2583         hc    103    bbb    H11   2583 0.16730000   1.008000   ; qtot -0.219501
 2584         hc    103    bbb    H12   2584 0.16730000   1.008000   ; qtot -0.052201
 2585          c    103    bbb     C7   2585 0.72110000  12.010000   ; qtot 0.668899
 2586          c    103    bbb     C8   2586 0.72110000  12.010000   ; qtot 1.389999
 2587          o    103    bbb     O1   2587 -0.61950000  16.000000   ; qtot 0.770499
 2588          o    103    bbb     O2   2588 -0.61950000  16.000000   ; qtot 0.150999
 2589          n    103    bbb     N4   2589 -0.46580000  14.010000   ; qtot -0.314801
 2590         hn    103    bbb    H21   2590 0.31480000   1.008000   ; qtot -0.000001
; residue  104 bbb rtp bbb q -0.0
 2591         c3    104    bbb     C1   2591 0.44180000  12.010000   ; qtot 0.441799
 2592         h1    104    bbb     H1   2592 -0.03530000   1.008000   ; qtot 0.406499
 2593         h1    104    bbb     H2   2593 -0.03530000   1.008000   ; qtot 0.371199
 2594         c3    104    bbb     C2   2594 -0.28250000  12.010000   ; qtot 0.088699
 2595         h1    104    bbb     H3   2595 0.15710000   1.008000   ; qtot 0.245799
 2596         h1    104    bbb     H4   2596 0.15710000   1.008000   ; qtot 0.402899
 2597         n3    104    bbb     N1   2597 -0.74090000  14.010000   ; qtot -0.338001
 2598         c3    104    bbb     C3   2598 0.51680000  12.010000   ; qtot 0.178799
 2599         h1    104    bbb     H5   2599 -0.05230000   1.008000   ; qtot 0.126499
 2600         h1    104    bbb     H6   2600 -0.05230000   1.008000   ; qtot 0.074199
 2601         c3    104    bbb     C4   2601 0.51680000  12.010000   ; qtot 0.590999
 2602         h1    104    bbb     H7   2602 -0.05230000   1.008000   ; qtot 0.538699
 2603         h1    104    bbb     H8   2603 -0.05230000   1.008000   ; qtot 0.486399
 2604         c3    104    bbb     C5   2604 -0.60390000  12.010000   ; qtot -0.117501
 2605         hc    104    bbb     H9   2605 0.16730000   1.008000   ; qtot 0.049799
 2606         hc    104    bbb    H10   2606 0.16730000   1.008000   ; qtot 0.217099
 2607         c3    104    bbb     C6   2607 -0.60390000  12.010000   ; qtot -0.386801
 2608         hc    104    bbb    H11   2608 0.16730000   1.008000   ; qtot -0.219501
 2609         hc    104    bbb    H12   2609 0.16730000   1.008000   ; qtot -0.052201
 2610          c    104    bbb     C7   2610 0.72110000  12.010000   ; qtot 0.668899
 2611          c    104    bbb     C8   2611 0.72110000  12.010000   ; qtot 1.389999
 2612          o    104    bbb     O1   2612 -0.61950000  16.000000   ; qtot 0.770499
 2613          o    104    bbb     O2   2613 -0.61950000  16.000000   ; qtot 0.150999
 2614          n    104    bbb     N4   2614 -0.46580000  14.010000   ; qtot -0.314801
 2615         hn    104    bbb    H21   2615 0.31480000   1.008000   ; qtot -0.000001
; residue  105 bbb rtp bbb q -0.0
 2616         c3    105    bbb     C1   2616 0.44180000  12.010000   ; qtot 0.441799
 2617         h1    105    bbb     H1   2617 -0.03530000   1.008000   ; qtot 0.406499
 2618         h1    105    bbb     H2   2618 -0.03530000   1.008000   ; qtot 0.371199
 2619         c3    105    bbb     C2   2619 -0.28250000  12.010000   ; qtot 0.088699
 2620         h1    105    bbb     H3   2620 0.15710000   1.008000   ; qtot 0.245799
 2621         h1    105    bbb     H4   2621 0.15710000   1.008000   ; qtot 0.402899
 2622         n3    105    bbb     N1   2622 -0.74090000  14.010000   ; qtot -0.338001
 2623         c3    105    bbb     C3   2623 0.51680000  12.010000   ; qtot 0.178799
 2624         h1    105    bbb     H5   2624 -0.05230000   1.008000   ; qtot 0.126499
 2625         h1    105    bbb     H6   2625 -0.05230000   1.008000   ; qtot 0.074199
 2626         c3    105    bbb     C4   2626 0.51680000  12.010000   ; qtot 0.590999
 2627         h1    105    bbb     H7   2627 -0.05230000   1.008000   ; qtot 0.538699
 2628         h1    105    bbb     H8   2628 -0.05230000   1.008000   ; qtot 0.486399
 2629         c3    105    bbb     C5   2629 -0.60390000  12.010000   ; qtot -0.117501
 2630         hc    105    bbb     H9   2630 0.16730000   1.008000   ; qtot 0.049799
 2631         hc    105    bbb    H10   2631 0.16730000   1.008000   ; qtot 0.217099
 2632         c3    105    bbb     C6   2632 -0.60390000  12.010000   ; qtot -0.386801
 2633         hc    105    bbb    H11   2633 0.16730000   1.008000   ; qtot -0.219501
 2634         hc    105    bbb    H12   2634 0.16730000   1.008000   ; qtot -0.052201
 2635          c    105    bbb     C7   2635 0.72110000  12.010000   ; qtot 0.668899
 2636          c    105    bbb     C8   2636 0.72110000  12.010000   ; qtot 1.389999
 2637          o    105    bbb     O1   2637 -0.61950000  16.000000   ; qtot 0.770499
 2638          o    105    bbb     O2   2638 -0.61950000  16.000000   ; qtot 0.150999
 2639          n    105    bbb     N4   2639 -0.46580000  14.010000   ; qtot -0.314801
 2640         hn    105    bbb    H21   2640 0.31480000   1.008000   ; qtot -0.000001
; residue  106 bbb rtp bbb q -0.0
 2641         c3    106    bbb     C1   2641 0.44180000  12.010000   ; qtot 0.441799
 2642         h1    106    bbb     H1   2642 -0.03530000   1.008000   ; qtot 0.406499
 2643         h1    106    bbb     H2   2643 -0.03530000   1.008000   ; qtot 0.371199
 2644         c3    106    bbb     C2   2644 -0.28250000  12.010000   ; qtot 0.088699
 2645         h1    106    bbb     H3   2645 0.15710000   1.008000   ; qtot 0.245799
 2646         h1    106    bbb     H4   2646 0.15710000   1.008000   ; qtot 0.402899
 2647         n3    106    bbb     N1   2647 -0.74090000  14.010000   ; qtot -0.338001
 2648         c3    106    bbb     C3   2648 0.51680000  12.010000   ; qtot 0.178799
 2649         h1    106    bbb     H5   2649 -0.05230000   1.008000   ; qtot 0.126499
 2650         h1    106    bbb     H6   2650 -0.05230000   1.008000   ; qtot 0.074199
 2651         c3    106    bbb     C4   2651 0.51680000  12.010000   ; qtot 0.590999
 2652         h1    106    bbb     H7   2652 -0.05230000   1.008000   ; qtot 0.538699
 2653         h1    106    bbb     H8   2653 -0.05230000   1.008000   ; qtot 0.486399
 2654         c3    106    bbb     C5   2654 -0.60390000  12.010000   ; qtot -0.117501
 2655         hc    106    bbb     H9   2655 0.16730000   1.008000   ; qtot 0.049799
 2656         hc    106    bbb    H10   2656 0.16730000   1.008000   ; qtot 0.217099
 2657         c3    106    bbb     C6   2657 -0.60390000  12.010000   ; qtot -0.386801
 2658         hc    106    bbb    H11   2658 0.16730000   1.008000   ; qtot -0.219501
 2659         hc    106    bbb    H12   2659 0.16730000   1.008000   ; qtot -0.052201
 2660          c    106    bbb     C7   2660 0.72110000  12.010000   ; qtot 0.668899
 2661          c    106    bbb     C8   2661 0.72110000  12.010000   ; qtot 1.389999
 2662          o    106    bbb     O1   2662 -0.61950000  16.000000   ; qtot 0.770499
 2663          o    106    bbb     O2   2663 -0.61950000  16.000000   ; qtot 0.150999
 2664          n    106    bbb     N4   2664 -0.46580000  14.010000   ; qtot -0.314801
 2665         hn    106    bbb    H21   2665 0.31480000   1.008000   ; qtot -0.000001
; residue  107 bbb rtp bbb q -0.0
 2666         c3    107    bbb     C1   2666 0.44180000  12.010000   ; qtot 0.441799
 2667         h1    107    bbb     H1   2667 -0.03530000   1.008000   ; qtot 0.406499
 2668         h1    107    bbb     H2   2668 -0.03530000   1.008000   ; qtot 0.371199
 2669         c3    107    bbb     C2   2669 -0.28250000  12.010000   ; qtot 0.088699
 2670         h1    107    bbb     H3   2670 0.15710000   1.008000   ; qtot 0.245799
 2671         h1    107    bbb     H4   2671 0.15710000   1.008000   ; qtot 0.402899
 2672         n3    107    bbb     N1   2672 -0.74090000  14.010000   ; qtot -0.338001
 2673         c3    107    bbb     C3   2673 0.51680000  12.010000   ; qtot 0.178799
 2674         h1    107    bbb     H5   2674 -0.05230000   1.008000   ; qtot 0.126499
 2675         h1    107    bbb     H6   2675 -0.05230000   1.008000   ; qtot 0.074199
 2676         c3    107    bbb     C4   2676 0.51680000  12.010000   ; qtot 0.590999
 2677         h1    107    bbb     H7   2677 -0.05230000   1.008000   ; qtot 0.538699
 2678         h1    107    bbb     H8   2678 -0.05230000   1.008000   ; qtot 0.486399
 2679         c3    107    bbb     C5   2679 -0.60390000  12.010000   ; qtot -0.117501
 2680         hc    107    bbb     H9   2680 0.16730000   1.008000   ; qtot 0.049799
 2681         hc    107    bbb    H10   2681 0.16730000   1.008000   ; qtot 0.217099
 2682         c3    107    bbb     C6   2682 -0.60390000  12.010000   ; qtot -0.386801
 2683         hc    107    bbb    H11   2683 0.16730000   1.008000   ; qtot -0.219501
 2684         hc    107    bbb    H12   2684 0.16730000   1.008000   ; qtot -0.052201
 2685          c    107    bbb     C7   2685 0.72110000  12.010000   ; qtot 0.668899
 2686          c    107    bbb     C8   2686 0.72110000  12.010000   ; qtot 1.389999
 2687          o    107    bbb     O1   2687 -0.61950000  16.000000   ; qtot 0.770499
 2688          o    107    bbb     O2   2688 -0.61950000  16.000000   ; qtot 0.150999
 2689          n    107    bbb     N4   2689 -0.46580000  14.010000   ; qtot -0.314801
 2690         hn    107    bbb    H21   2690 0.31480000   1.008000   ; qtot -0.000001
; residue  108 bbb rtp bbb q -0.0
 2691         c3    108    bbb     C1   2691 0.44180000  12.010000   ; qtot 0.441799
 2692         h1    108    bbb     H1   2692 -0.03530000   1.008000   ; qtot 0.406499
 2693         h1    108    bbb     H2   2693 -0.03530000   1.008000   ; qtot 0.371199
 2694         c3    108    bbb     C2   2694 -0.28250000  12.010000   ; qtot 0.088699
 2695         h1    108    bbb     H3   2695 0.15710000   1.008000   ; qtot 0.245799
 2696         h1    108    bbb     H4   2696 0.15710000   1.008000   ; qtot 0.402899
 2697         n3    108    bbb     N1   2697 -0.74090000  14.010000   ; qtot -0.338001
 2698         c3    108    bbb     C3   2698 0.51680000  12.010000   ; qtot 0.178799
 2699         h1    108    bbb     H5   2699 -0.05230000   1.008000   ; qtot 0.126499
 2700         h1    108    bbb     H6   2700 -0.05230000   1.008000   ; qtot 0.074199
 2701         c3    108    bbb     C4   2701 0.51680000  12.010000   ; qtot 0.590999
 2702         h1    108    bbb     H7   2702 -0.05230000   1.008000   ; qtot 0.538699
 2703         h1    108    bbb     H8   2703 -0.05230000   1.008000   ; qtot 0.486399
 2704         c3    108    bbb     C5   2704 -0.60390000  12.010000   ; qtot -0.117501
 2705         hc    108    bbb     H9   2705 0.16730000   1.008000   ; qtot 0.049799
 2706         hc    108    bbb    H10   2706 0.16730000   1.008000   ; qtot 0.217099
 2707         c3    108    bbb     C6   2707 -0.60390000  12.010000   ; qtot -0.386801
 2708         hc    108    bbb    H11   2708 0.16730000   1.008000   ; qtot -0.219501
 2709         hc    108    bbb    H12   2709 0.16730000   1.008000   ; qtot -0.052201
 2710          c    108    bbb     C7   2710 0.72110000  12.010000   ; qtot 0.668899
 2711          c    108    bbb     C8   2711 0.72110000  12.010000   ; qtot 1.389999
 2712          o    108    bbb     O1   2712 -0.61950000  16.000000   ; qtot 0.770499
 2713          o    108    bbb     O2   2713 -0.61950000  16.000000   ; qtot 0.150999
 2714          n    108    bbb     N4   2714 -0.46580000  14.010000   ; qtot -0.314801
 2715         hn    108    bbb    H21   2715 0.31480000   1.008000   ; qtot -0.000001
; residue  109 bbb rtp bbb q -0.0
 2716         c3    109    bbb     C1   2716 0.44180000  12.010000   ; qtot 0.441799
 2717         h1    109    bbb     H1   2717 -0.03530000   1.008000   ; qtot 0.406499
 2718         h1    109    bbb     H2   2718 -0.03530000   1.008000   ; qtot 0.371199
 2719         c3    109    bbb     C2   2719 -0.28250000  12.010000   ; qtot 0.088699
 2720         h1    109    bbb     H3   2720 0.15710000   1.008000   ; qtot 0.245799
 2721         h1    109    bbb     H4   2721 0.15710000   1.008000   ; qtot 0.402899
 2722         n3    109    bbb     N1   2722 -0.74090000  14.010000   ; qtot -0.338001
 2723         c3    109    bbb     C3   2723 0.51680000  12.010000   ; qtot 0.178799
 2724         h1    109    bbb     H5   2724 -0.05230000   1.008000   ; qtot 0.126499
 2725         h1    109    bbb     H6   2725 -0.05230000   1.008000   ; qtot 0.074199
 2726         c3    109    bbb     C4   2726 0.51680000  12.010000   ; qtot 0.590999
 2727         h1    109    bbb     H7   2727 -0.05230000   1.008000   ; qtot 0.538699
 2728         h1    109    bbb     H8   2728 -0.05230000   1.008000   ; qtot 0.486399
 2729         c3    109    bbb     C5   2729 -0.60390000  12.010000   ; qtot -0.117501
 2730         hc    109    bbb     H9   2730 0.16730000   1.008000   ; qtot 0.049799
 2731         hc    109    bbb    H10   2731 0.16730000   1.008000   ; qtot 0.217099
 2732         c3    109    bbb     C6   2732 -0.60390000  12.010000   ; qtot -0.386801
 2733         hc    109    bbb    H11   2733 0.16730000   1.008000   ; qtot -0.219501
 2734         hc    109    bbb    H12   2734 0.16730000   1.008000   ; qtot -0.052201
 2735          c    109    bbb     C7   2735 0.72110000  12.010000   ; qtot 0.668899
 2736          c    109    bbb     C8   2736 0.72110000  12.010000   ; qtot 1.389999
 2737          o    109    bbb     O1   2737 -0.61950000  16.000000   ; qtot 0.770499
 2738          o    109    bbb     O2   2738 -0.61950000  16.000000   ; qtot 0.150999
 2739          n    109    bbb     N4   2739 -0.46580000  14.010000   ; qtot -0.314801
 2740         hn    109    bbb    H21   2740 0.31480000   1.008000   ; qtot -0.000001
; residue  110 bbb rtp bbb q -0.0
 2741         c3    110    bbb     C1   2741 0.44180000  12.010000   ; qtot 0.441799
 2742         h1    110    bbb     H1   2742 -0.03530000   1.008000   ; qtot 0.406499
 2743         h1    110    bbb     H2   2743 -0.03530000   1.008000   ; qtot 0.371199
 2744         c3    110    bbb     C2   2744 -0.28250000  12.010000   ; qtot 0.088699
 2745         h1    110    bbb     H3   2745 0.15710000   1.008000   ; qtot 0.245799
 2746         h1    110    bbb     H4   2746 0.15710000   1.008000   ; qtot 0.402899
 2747         n3    110    bbb     N1   2747 -0.74090000  14.010000   ; qtot -0.338001
 2748         c3    110    bbb     C3   2748 0.51680000  12.010000   ; qtot 0.178799
 2749         h1    110    bbb     H5   2749 -0.05230000   1.008000   ; qtot 0.126499
 2750         h1    110    bbb     H6   2750 -0.05230000   1.008000   ; qtot 0.074199
 2751         c3    110    bbb     C4   2751 0.51680000  12.010000   ; qtot 0.590999
 2752         h1    110    bbb     H7   2752 -0.05230000   1.008000   ; qtot 0.538699
 2753         h1    110    bbb     H8   2753 -0.05230000   1.008000   ; qtot 0.486399
 2754         c3    110    bbb     C5   2754 -0.60390000  12.010000   ; qtot -0.117501
 2755         hc    110    bbb     H9   2755 0.16730000   1.008000   ; qtot 0.049799
 2756         hc    110    bbb    H10   2756 0.16730000   1.008000   ; qtot 0.217099
 2757         c3    110    bbb     C6   2757 -0.60390000  12.010000   ; qtot -0.386801
 2758         hc    110    bbb    H11   2758 0.16730000   1.008000   ; qtot -0.219501
 2759         hc    110    bbb    H12   2759 0.16730000   1.008000   ; qtot -0.052201
 2760          c    110    bbb     C7   2760 0.72110000  12.010000   ; qtot 0.668899
 2761          c    110    bbb     C8   2761 0.72110000  12.010000   ; qtot 1.389999
 2762          o    110    bbb     O1   2762 -0.61950000  16.000000   ; qtot 0.770499
 2763          o    110    bbb     O2   2763 -0.61950000  16.000000   ; qtot 0.150998
 2764          n    110    bbb     N4   2764 -0.46580000  14.010000   ; qtot -0.314802
 2765         hn    110    bbb    H21   2765 0.31480000   1.008000   ; qtot -0.000002
; residue  111 bbb rtp bbb q -0.0
 2766         c3    111    bbb     C1   2766 0.44180000  12.010000   ; qtot 0.441798
 2767         h1    111    bbb     H1   2767 -0.03530000   1.008000   ; qtot 0.406498
 2768         h1    111    bbb     H2   2768 -0.03530000   1.008000   ; qtot 0.371198
 2769         c3    111    bbb     C2   2769 -0.28250000  12.010000   ; qtot 0.088698
 2770         h1    111    bbb     H3   2770 0.15710000   1.008000   ; qtot 0.245798
 2771         h1    111    bbb     H4   2771 0.15710000   1.008000   ; qtot 0.402898
 2772         n3    111    bbb     N1   2772 -0.74090000  14.010000   ; qtot -0.338002
 2773         c3    111    bbb     C3   2773 0.51680000  12.010000   ; qtot 0.178798
 2774         h1    111    bbb     H5   2774 -0.05230000   1.008000   ; qtot 0.126498
 2775         h1    111    bbb     H6   2775 -0.05230000   1.008000   ; qtot 0.074198
 2776         c3    111    bbb     C4   2776 0.51680000  12.010000   ; qtot 0.590998
 2777         h1    111    bbb     H7   2777 -0.05230000   1.008000   ; qtot 0.538698
 2778         h1    111    bbb     H8   2778 -0.05230000   1.008000   ; qtot 0.486398
 2779         c3    111    bbb     C5   2779 -0.60390000  12.010000   ; qtot -0.117502
 2780         hc    111    bbb     H9   2780 0.16730000   1.008000   ; qtot 0.049798
 2781         hc    111    bbb    H10   2781 0.16730000   1.008000   ; qtot 0.217098
 2782         c3    111    bbb     C6   2782 -0.60390000  12.010000   ; qtot -0.386802
 2783         hc    111    bbb    H11   2783 0.16730000   1.008000   ; qtot -0.219502
 2784         hc    111    bbb    H12   2784 0.16730000   1.008000   ; qtot -0.052202
 2785          c    111    bbb     C7   2785 0.72110000  12.010000   ; qtot 0.668898
 2786          c    111    bbb     C8   2786 0.72110000  12.010000   ; qtot 1.389998
 2787          o    111    bbb     O1   2787 -0.61950000  16.000000   ; qtot 0.770498
 2788          o    111    bbb     O2   2788 -0.61950000  16.000000   ; qtot 0.150998
 2789          n    111    bbb     N4   2789 -0.46580000  14.010000   ; qtot -0.314802
 2790         hn    111    bbb    H21   2790 0.31480000   1.008000   ; qtot -0.000002
; residue  112 bbb rtp bbb q -0.0
 2791         c3    112    bbb     C1   2791 0.44180000  12.010000   ; qtot 0.441798
 2792         h1    112    bbb     H1   2792 -0.03530000   1.008000   ; qtot 0.406498
 2793         h1    112    bbb     H2   2793 -0.03530000   1.008000   ; qtot 0.371198
 2794         c3    112    bbb     C2   2794 -0.28250000  12.010000   ; qtot 0.088698
 2795         h1    112    bbb     H3   2795 0.15710000   1.008000   ; qtot 0.245798
 2796         h1    112    bbb     H4   2796 0.15710000   1.008000   ; qtot 0.402898
 2797         n3    112    bbb     N1   2797 -0.74090000  14.010000   ; qtot -0.338002
 2798         c3    112    bbb     C3   2798 0.51680000  12.010000   ; qtot 0.178798
 2799         h1    112    bbb     H5   2799 -0.05230000   1.008000   ; qtot 0.126498
 2800         h1    112    bbb     H6   2800 -0.05230000   1.008000   ; qtot 0.074198
 2801         c3    112    bbb     C4   2801 0.51680000  12.010000   ; qtot 0.590998
 2802         h1    112    bbb     H7   2802 -0.05230000   1.008000   ; qtot 0.538698
 2803         h1    112    bbb     H8   2803 -0.05230000   1.008000   ; qtot 0.486398
 2804         c3    112    bbb     C5   2804 -0.60390000  12.010000   ; qtot -0.117502
 2805         hc    112    bbb     H9   2805 0.16730000   1.008000   ; qtot 0.049798
 2806         hc    112    bbb    H10   2806 0.16730000   1.008000   ; qtot 0.217098
 2807         c3    112    bbb     C6   2807 -0.60390000  12.010000   ; qtot -0.386802
 2808         hc    112    bbb    H11   2808 0.16730000   1.008000   ; qtot -0.219502
 2809         hc    112    bbb    H12   2809 0.16730000   1.008000   ; qtot -0.052202
 2810          c    112    bbb     C7   2810 0.72110000  12.010000   ; qtot 0.668898
 2811          c    112    bbb     C8   2811 0.72110000  12.010000   ; qtot 1.389998
 2812          o    112    bbb     O1   2812 -0.61950000  16.000000   ; qtot 0.770498
 2813          o    112    bbb     O2   2813 -0.61950000  16.000000   ; qtot 0.150998
 2814          n    112    bbb     N4   2814 -0.46580000  14.010000   ; qtot -0.314802
 2815         hn    112    bbb    H21   2815 0.31480000   1.008000   ; qtot -0.000002
; residue  113 bbb rtp bbb q -0.0
 2816         c3    113    bbb     C1   2816 0.44180000  12.010000   ; qtot 0.441798
 2817         h1    113    bbb     H1   2817 -0.03530000   1.008000   ; qtot 0.406498
 2818         h1    113    bbb     H2   2818 -0.03530000   1.008000   ; qtot 0.371198
 2819         c3    113    bbb     C2   2819 -0.28250000  12.010000   ; qtot 0.088698
 2820         h1    113    bbb     H3   2820 0.15710000   1.008000   ; qtot 0.245798
 2821         h1    113    bbb     H4   2821 0.15710000   1.008000   ; qtot 0.402898
 2822         n3    113    bbb     N1   2822 -0.74090000  14.010000   ; qtot -0.338002
 2823         c3    113    bbb     C3   2823 0.51680000  12.010000   ; qtot 0.178798
 2824         h1    113    bbb     H5   2824 -0.05230000   1.008000   ; qtot 0.126498
 2825         h1    113    bbb     H6   2825 -0.05230000   1.008000   ; qtot 0.074198
 2826         c3    113    bbb     C4   2826 0.51680000  12.010000   ; qtot 0.590998
 2827         h1    113    bbb     H7   2827 -0.05230000   1.008000   ; qtot 0.538698
 2828         h1    113    bbb     H8   2828 -0.05230000   1.008000   ; qtot 0.486398
 2829         c3    113    bbb     C5   2829 -0.60390000  12.010000   ; qtot -0.117502
 2830         hc    113    bbb     H9   2830 0.16730000   1.008000   ; qtot 0.049798
 2831         hc    113    bbb    H10   2831 0.16730000   1.008000   ; qtot 0.217098
 2832         c3    113    bbb     C6   2832 -0.60390000  12.010000   ; qtot -0.386802
 2833         hc    113    bbb    H11   2833 0.16730000   1.008000   ; qtot -0.219502
 2834         hc    113    bbb    H12   2834 0.16730000   1.008000   ; qtot -0.052202
 2835          c    113    bbb     C7   2835 0.72110000  12.010000   ; qtot 0.668898
 2836          c    113    bbb     C8   2836 0.72110000  12.010000   ; qtot 1.389998
 2837          o    113    bbb     O1   2837 -0.61950000  16.000000   ; qtot 0.770498
 2838          o    113    bbb     O2   2838 -0.61950000  16.000000   ; qtot 0.150998
 2839          n    113    bbb     N4   2839 -0.46580000  14.010000   ; qtot -0.314802
 2840         hn    113    bbb    H21   2840 0.31480000   1.008000   ; qtot -0.000002
; residue  114 bbb rtp bbb q -0.0
 2841         c3    114    bbb     C1   2841 0.44180000  12.010000   ; qtot 0.441798
 2842         h1    114    bbb     H1   2842 -0.03530000   1.008000   ; qtot 0.406498
 2843         h1    114    bbb     H2   2843 -0.03530000   1.008000   ; qtot 0.371198
 2844         c3    114    bbb     C2   2844 -0.28250000  12.010000   ; qtot 0.088698
 2845         h1    114    bbb     H3   2845 0.15710000   1.008000   ; qtot 0.245798
 2846         h1    114    bbb     H4   2846 0.15710000   1.008000   ; qtot 0.402898
 2847         n3    114    bbb     N1   2847 -0.74090000  14.010000   ; qtot -0.338002
 2848         c3    114    bbb     C3   2848 0.51680000  12.010000   ; qtot 0.178798
 2849         h1    114    bbb     H5   2849 -0.05230000   1.008000   ; qtot 0.126498
 2850         h1    114    bbb     H6   2850 -0.05230000   1.008000   ; qtot 0.074198
 2851         c3    114    bbb     C4   2851 0.51680000  12.010000   ; qtot 0.590998
 2852         h1    114    bbb     H7   2852 -0.05230000   1.008000   ; qtot 0.538698
 2853         h1    114    bbb     H8   2853 -0.05230000   1.008000   ; qtot 0.486398
 2854         c3    114    bbb     C5   2854 -0.60390000  12.010000   ; qtot -0.117502
 2855         hc    114    bbb     H9   2855 0.16730000   1.008000   ; qtot 0.049798
 2856         hc    114    bbb    H10   2856 0.16730000   1.008000   ; qtot 0.217098
 2857         c3    114    bbb     C6   2857 -0.60390000  12.010000   ; qtot -0.386802
 2858         hc    114    bbb    H11   2858 0.16730000   1.008000   ; qtot -0.219502
 2859         hc    114    bbb    H12   2859 0.16730000   1.008000   ; qtot -0.052202
 2860          c    114    bbb     C7   2860 0.72110000  12.010000   ; qtot 0.668898
 2861          c    114    bbb     C8   2861 0.72110000  12.010000   ; qtot 1.389998
 2862          o    114    bbb     O1   2862 -0.61950000  16.000000   ; qtot 0.770498
 2863          o    114    bbb     O2   2863 -0.61950000  16.000000   ; qtot 0.150998
 2864          n    114    bbb     N4   2864 -0.46580000  14.010000   ; qtot -0.314802
 2865         hn    114    bbb    H21   2865 0.31480000   1.008000   ; qtot -0.000002
; residue  115 bbb rtp bbb q -0.0
 2866         c3    115    bbb     C1   2866 0.44180000  12.010000   ; qtot 0.441798
 2867         h1    115    bbb     H1   2867 -0.03530000   1.008000   ; qtot 0.406498
 2868         h1    115    bbb     H2   2868 -0.03530000   1.008000   ; qtot 0.371198
 2869         c3    115    bbb     C2   2869 -0.28250000  12.010000   ; qtot 0.088698
 2870         h1    115    bbb     H3   2870 0.15710000   1.008000   ; qtot 0.245798
 2871         h1    115    bbb     H4   2871 0.15710000   1.008000   ; qtot 0.402898
 2872         n3    115    bbb     N1   2872 -0.74090000  14.010000   ; qtot -0.338002
 2873         c3    115    bbb     C3   2873 0.51680000  12.010000   ; qtot 0.178798
 2874         h1    115    bbb     H5   2874 -0.05230000   1.008000   ; qtot 0.126498
 2875         h1    115    bbb     H6   2875 -0.05230000   1.008000   ; qtot 0.074198
 2876         c3    115    bbb     C4   2876 0.51680000  12.010000   ; qtot 0.590998
 2877         h1    115    bbb     H7   2877 -0.05230000   1.008000   ; qtot 0.538698
 2878         h1    115    bbb     H8   2878 -0.05230000   1.008000   ; qtot 0.486398
 2879         c3    115    bbb     C5   2879 -0.60390000  12.010000   ; qtot -0.117502
 2880         hc    115    bbb     H9   2880 0.16730000   1.008000   ; qtot 0.049798
 2881         hc    115    bbb    H10   2881 0.16730000   1.008000   ; qtot 0.217098
 2882         c3    115    bbb     C6   2882 -0.60390000  12.010000   ; qtot -0.386802
 2883         hc    115    bbb    H11   2883 0.16730000   1.008000   ; qtot -0.219502
 2884         hc    115    bbb    H12   2884 0.16730000   1.008000   ; qtot -0.052202
 2885          c    115    bbb     C7   2885 0.72110000  12.010000   ; qtot 0.668898
 2886          c    115    bbb     C8   2886 0.72110000  12.010000   ; qtot 1.389998
 2887          o    115    bbb     O1   2887 -0.61950000  16.000000   ; qtot 0.770498
 2888          o    115    bbb     O2   2888 -0.61950000  16.000000   ; qtot 0.150998
 2889          n    115    bbb     N4   2889 -0.46580000  14.010000   ; qtot -0.314802
 2890         hn    115    bbb    H21   2890 0.31480000   1.008000   ; qtot -0.000002
; residue  116 bbb rtp bbb q -0.0
 2891         c3    116    bbb     C1   2891 0.44180000  12.010000   ; qtot 0.441798
 2892         h1    116    bbb     H1   2892 -0.03530000   1.008000   ; qtot 0.406498
 2893         h1    116    bbb     H2   2893 -0.03530000   1.008000   ; qtot 0.371198
 2894         c3    116    bbb     C2   2894 -0.28250000  12.010000   ; qtot 0.088698
 2895         h1    116    bbb     H3   2895 0.15710000   1.008000   ; qtot 0.245798
 2896         h1    116    bbb     H4   2896 0.15710000   1.008000   ; qtot 0.402898
 2897         n3    116    bbb     N1   2897 -0.74090000  14.010000   ; qtot -0.338002
 2898         c3    116    bbb     C3   2898 0.51680000  12.010000   ; qtot 0.178798
 2899         h1    116    bbb     H5   2899 -0.05230000   1.008000   ; qtot 0.126498
 2900         h1    116    bbb     H6   2900 -0.05230000   1.008000   ; qtot 0.074198
 2901         c3    116    bbb     C4   2901 0.51680000  12.010000   ; qtot 0.590998
 2902         h1    116    bbb     H7   2902 -0.05230000   1.008000   ; qtot 0.538698
 2903         h1    116    bbb     H8   2903 -0.05230000   1.008000   ; qtot 0.486398
 2904         c3    116    bbb     C5   2904 -0.60390000  12.010000   ; qtot -0.117502
 2905         hc    116    bbb     H9   2905 0.16730000   1.008000   ; qtot 0.049798
 2906         hc    116    bbb    H10   2906 0.16730000   1.008000   ; qtot 0.217098
 2907         c3    116    bbb     C6   2907 -0.60390000  12.010000   ; qtot -0.386802
 2908         hc    116    bbb    H11   2908 0.16730000   1.008000   ; qtot -0.219502
 2909         hc    116    bbb    H12   2909 0.16730000   1.008000   ; qtot -0.052202
 2910          c    116    bbb     C7   2910 0.72110000  12.010000   ; qtot 0.668898
 2911          c    116    bbb     C8   2911 0.72110000  12.010000   ; qtot 1.389998
 2912          o    116    bbb     O1   2912 -0.61950000  16.000000   ; qtot 0.770498
 2913          o    116    bbb     O2   2913 -0.61950000  16.000000   ; qtot 0.150998
 2914          n    116    bbb     N4   2914 -0.46580000  14.010000   ; qtot -0.314802
 2915         hn    116    bbb    H21   2915 0.31480000   1.008000   ; qtot -0.000002
; residue  117 bbb rtp bbb q -0.0
 2916         c3    117    bbb     C1   2916 0.44180000  12.010000   ; qtot 0.441798
 2917         h1    117    bbb     H1   2917 -0.03530000   1.008000   ; qtot 0.406498
 2918         h1    117    bbb     H2   2918 -0.03530000   1.008000   ; qtot 0.371198
 2919         c3    117    bbb     C2   2919 -0.28250000  12.010000   ; qtot 0.088698
 2920         h1    117    bbb     H3   2920 0.15710000   1.008000   ; qtot 0.245798
 2921         h1    117    bbb     H4   2921 0.15710000   1.008000   ; qtot 0.402898
 2922         n3    117    bbb     N1   2922 -0.74090000  14.010000   ; qtot -0.338002
 2923         c3    117    bbb     C3   2923 0.51680000  12.010000   ; qtot 0.178798
 2924         h1    117    bbb     H5   2924 -0.05230000   1.008000   ; qtot 0.126498
 2925         h1    117    bbb     H6   2925 -0.05230000   1.008000   ; qtot 0.074198
 2926         c3    117    bbb     C4   2926 0.51680000  12.010000   ; qtot 0.590998
 2927         h1    117    bbb     H7   2927 -0.05230000   1.008000   ; qtot 0.538698
 2928         h1    117    bbb     H8   2928 -0.05230000   1.008000   ; qtot 0.486398
 2929         c3    117    bbb     C5   2929 -0.60390000  12.010000   ; qtot -0.117502
 2930         hc    117    bbb     H9   2930 0.16730000   1.008000   ; qtot 0.049798
 2931         hc    117    bbb    H10   2931 0.16730000   1.008000   ; qtot 0.217098
 2932         c3    117    bbb     C6   2932 -0.60390000  12.010000   ; qtot -0.386802
 2933         hc    117    bbb    H11   2933 0.16730000   1.008000   ; qtot -0.219502
 2934         hc    117    bbb    H12   2934 0.16730000   1.008000   ; qtot -0.052202
 2935          c    117    bbb     C7   2935 0.72110000  12.010000   ; qtot 0.668898
 2936          c    117    bbb     C8   2936 0.72110000  12.010000   ; qtot 1.389998
 2937          o    117    bbb     O1   2937 -0.61950000  16.000000   ; qtot 0.770498
 2938          o    117    bbb     O2   2938 -0.61950000  16.000000   ; qtot 0.150998
 2939          n    117    bbb     N4   2939 -0.46580000  14.010000   ; qtot -0.314802
 2940         hn    117    bbb    H21   2940 0.31480000   1.008000   ; qtot -0.000002
; residue  118 bbb rtp bbb q -0.0
 2941         c3    118    bbb     C1   2941 0.44180000  12.010000   ; qtot 0.441798
 2942         h1    118    bbb     H1   2942 -0.03530000   1.008000   ; qtot 0.406498
 2943         h1    118    bbb     H2   2943 -0.03530000   1.008000   ; qtot 0.371198
 2944         c3    118    bbb     C2   2944 -0.28250000  12.010000   ; qtot 0.088698
 2945         h1    118    bbb     H3   2945 0.15710000   1.008000   ; qtot 0.245798
 2946         h1    118    bbb     H4   2946 0.15710000   1.008000   ; qtot 0.402898
 2947         n3    118    bbb     N1   2947 -0.74090000  14.010000   ; qtot -0.338002
 2948         c3    118    bbb     C3   2948 0.51680000  12.010000   ; qtot 0.178798
 2949         h1    118    bbb     H5   2949 -0.05230000   1.008000   ; qtot 0.126498
 2950         h1    118    bbb     H6   2950 -0.05230000   1.008000   ; qtot 0.074198
 2951         c3    118    bbb     C4   2951 0.51680000  12.010000   ; qtot 0.590998
 2952         h1    118    bbb     H7   2952 -0.05230000   1.008000   ; qtot 0.538698
 2953         h1    118    bbb     H8   2953 -0.05230000   1.008000   ; qtot 0.486398
 2954         c3    118    bbb     C5   2954 -0.60390000  12.010000   ; qtot -0.117502
 2955         hc    118    bbb     H9   2955 0.16730000   1.008000   ; qtot 0.049798
 2956         hc    118    bbb    H10   2956 0.16730000   1.008000   ; qtot 0.217098
 2957         c3    118    bbb     C6   2957 -0.60390000  12.010000   ; qtot -0.386802
 2958         hc    118    bbb    H11   2958 0.16730000   1.008000   ; qtot -0.219502
 2959         hc    118    bbb    H12   2959 0.16730000   1.008000   ; qtot -0.052202
 2960          c    118    bbb     C7   2960 0.72110000  12.010000   ; qtot 0.668898
 2961          c    118    bbb     C8   2961 0.72110000  12.010000   ; qtot 1.389998
 2962          o    118    bbb     O1   2962 -0.61950000  16.000000   ; qtot 0.770498
 2963          o    118    bbb     O2   2963 -0.61950000  16.000000   ; qtot 0.150998
 2964          n    118    bbb     N4   2964 -0.46580000  14.010000   ; qtot -0.314802
 2965         hn    118    bbb    H21   2965 0.31480000   1.008000   ; qtot -0.000002
; residue  119 bbb rtp bbb q -0.0
 2966         c3    119    bbb     C1   2966 0.44180000  12.010000   ; qtot 0.441798
 2967         h1    119    bbb     H1   2967 -0.03530000   1.008000   ; qtot 0.406498
 2968         h1    119    bbb     H2   2968 -0.03530000   1.008000   ; qtot 0.371198
 2969         c3    119    bbb     C2   2969 -0.28250000  12.010000   ; qtot 0.088698
 2970         h1    119    bbb     H3   2970 0.15710000   1.008000   ; qtot 0.245798
 2971         h1    119    bbb     H4   2971 0.15710000   1.008000   ; qtot 0.402898
 2972         n3    119    bbb     N1   2972 -0.74090000  14.010000   ; qtot -0.338002
 2973         c3    119    bbb     C3   2973 0.51680000  12.010000   ; qtot 0.178798
 2974         h1    119    bbb     H5   2974 -0.05230000   1.008000   ; qtot 0.126498
 2975         h1    119    bbb     H6   2975 -0.05230000   1.008000   ; qtot 0.074198
 2976         c3    119    bbb     C4   2976 0.51680000  12.010000   ; qtot 0.590998
 2977         h1    119    bbb     H7   2977 -0.05230000   1.008000   ; qtot 0.538698
 2978         h1    119    bbb     H8   2978 -0.05230000   1.008000   ; qtot 0.486398
 2979         c3    119    bbb     C5   2979 -0.60390000  12.010000   ; qtot -0.117502
 2980         hc    119    bbb     H9   2980 0.16730000   1.008000   ; qtot 0.049798
 2981         hc    119    bbb    H10   2981 0.16730000   1.008000   ; qtot 0.217098
 2982         c3    119    bbb     C6   2982 -0.60390000  12.010000   ; qtot -0.386802
 2983         hc    119    bbb    H11   2983 0.16730000   1.008000   ; qtot -0.219502
 2984         hc    119    bbb    H12   2984 0.16730000   1.008000   ; qtot -0.052202
 2985          c    119    bbb     C7   2985 0.72110000  12.010000   ; qtot 0.668898
 2986          c    119    bbb     C8   2986 0.72110000  12.010000   ; qtot 1.389998
 2987          o    119    bbb     O1   2987 -0.61950000  16.000000   ; qtot 0.770498
 2988          o    119    bbb     O2   2988 -0.61950000  16.000000   ; qtot 0.150998
 2989          n    119    bbb     N4   2989 -0.46580000  14.010000   ; qtot -0.314802
 2990         hn    119    bbb    H21   2990 0.31480000   1.008000   ; qtot -0.000002
; residue  120 bbb rtp bbb q -0.0
 2991         c3    120    bbb     C1   2991 0.44180000  12.010000   ; qtot 0.441798
 2992         h1    120    bbb     H1   2992 -0.03530000   1.008000   ; qtot 0.406498
 2993         h1    120    bbb     H2   2993 -0.03530000   1.008000   ; qtot 0.371198
 2994         c3    120    bbb     C2   2994 -0.28250000  12.010000   ; qtot 0.088698
 2995         h1    120    bbb     H3   2995 0.15710000   1.008000   ; qtot 0.245798
 2996         h1    120    bbb     H4   2996 0.15710000   1.008000   ; qtot 0.402898
 2997         n3    120    bbb     N1   2997 -0.74090000  14.010000   ; qtot -0.338002
 2998         c3    120    bbb     C3   2998 0.51680000  12.010000   ; qtot 0.178798
 2999         h1    120    bbb     H5   2999 -0.05230000   1.008000   ; qtot 0.126498
 3000         h1    120    bbb     H6   3000 -0.05230000   1.008000   ; qtot 0.074198
 3001         c3    120    bbb     C4   3001 0.51680000  12.010000   ; qtot 0.590998
 3002         h1    120    bbb     H7   3002 -0.05230000   1.008000   ; qtot 0.538698
 3003         h1    120    bbb     H8   3003 -0.05230000   1.008000   ; qtot 0.486398
 3004         c3    120    bbb     C5   3004 -0.60390000  12.010000   ; qtot -0.117502
 3005         hc    120    bbb     H9   3005 0.16730000   1.008000   ; qtot 0.049798
 3006         hc    120    bbb    H10   3006 0.16730000   1.008000   ; qtot 0.217098
 3007         c3    120    bbb     C6   3007 -0.60390000  12.010000   ; qtot -0.386802
 3008         hc    120    bbb    H11   3008 0.16730000   1.008000   ; qtot -0.219502
 3009         hc    120    bbb    H12   3009 0.16730000   1.008000   ; qtot -0.052202
 3010          c    120    bbb     C7   3010 0.72110000  12.010000   ; qtot 0.668898
 3011          c    120    bbb     C8   3011 0.72110000  12.010000   ; qtot 1.389998
 3012          o    120    bbb     O1   3012 -0.61950000  16.000000   ; qtot 0.770498
 3013          o    120    bbb     O2   3013 -0.61950000  16.000000   ; qtot 0.150998
 3014          n    120    bbb     N4   3014 -0.46580000  14.010000   ; qtot -0.314802
 3015         hn    120    bbb    H21   3015 0.31480000   1.008000   ; qtot -0.000002
; residue  121 bbb rtp bbb q -0.0
 3016         c3    121    bbb     C1   3016 0.44180000  12.010000   ; qtot 0.441798
 3017         h1    121    bbb     H1   3017 -0.03530000   1.008000   ; qtot 0.406498
 3018         h1    121    bbb     H2   3018 -0.03530000   1.008000   ; qtot 0.371198
 3019         c3    121    bbb     C2   3019 -0.28250000  12.010000   ; qtot 0.088698
 3020         h1    121    bbb     H3   3020 0.15710000   1.008000   ; qtot 0.245798
 3021         h1    121    bbb     H4   3021 0.15710000   1.008000   ; qtot 0.402898
 3022         n3    121    bbb     N1   3022 -0.74090000  14.010000   ; qtot -0.338002
 3023         c3    121    bbb     C3   3023 0.51680000  12.010000   ; qtot 0.178798
 3024         h1    121    bbb     H5   3024 -0.05230000   1.008000   ; qtot 0.126498
 3025         h1    121    bbb     H6   3025 -0.05230000   1.008000   ; qtot 0.074198
 3026         c3    121    bbb     C4   3026 0.51680000  12.010000   ; qtot 0.590998
 3027         h1    121    bbb     H7   3027 -0.05230000   1.008000   ; qtot 0.538698
 3028         h1    121    bbb     H8   3028 -0.05230000   1.008000   ; qtot 0.486398
 3029         c3    121    bbb     C5   3029 -0.60390000  12.010000   ; qtot -0.117502
 3030         hc    121    bbb     H9   3030 0.16730000   1.008000   ; qtot 0.049798
 3031         hc    121    bbb    H10   3031 0.16730000   1.008000   ; qtot 0.217098
 3032         c3    121    bbb     C6   3032 -0.60390000  12.010000   ; qtot -0.386802
 3033         hc    121    bbb    H11   3033 0.16730000   1.008000   ; qtot -0.219502
 3034         hc    121    bbb    H12   3034 0.16730000   1.008000   ; qtot -0.052202
 3035          c    121    bbb     C7   3035 0.72110000  12.010000   ; qtot 0.668898
 3036          c    121    bbb     C8   3036 0.72110000  12.010000   ; qtot 1.389998
 3037          o    121    bbb     O1   3037 -0.61950000  16.000000   ; qtot 0.770498
 3038          o    121    bbb     O2   3038 -0.61950000  16.000000   ; qtot 0.150998
 3039          n    121    bbb     N4   3039 -0.46580000  14.010000   ; qtot -0.314802
 3040         hn    121    bbb    H21   3040 0.31480000   1.008000   ; qtot -0.000002
; residue  122 bbb rtp bbb q -0.0
 3041         c3    122    bbb     C1   3041 0.44180000  12.010000   ; qtot 0.441798
 3042         h1    122    bbb     H1   3042 -0.03530000   1.008000   ; qtot 0.406498
 3043         h1    122    bbb     H2   3043 -0.03530000   1.008000   ; qtot 0.371198
 3044         c3    122    bbb     C2   3044 -0.28250000  12.010000   ; qtot 0.088698
 3045         h1    122    bbb     H3   3045 0.15710000   1.008000   ; qtot 0.245798
 3046         h1    122    bbb     H4   3046 0.15710000   1.008000   ; qtot 0.402898
 3047         n3    122    bbb     N1   3047 -0.74090000  14.010000   ; qtot -0.338002
 3048         c3    122    bbb     C3   3048 0.51680000  12.010000   ; qtot 0.178798
 3049         h1    122    bbb     H5   3049 -0.05230000   1.008000   ; qtot 0.126498
 3050         h1    122    bbb     H6   3050 -0.05230000   1.008000   ; qtot 0.074198
 3051         c3    122    bbb     C4   3051 0.51680000  12.010000   ; qtot 0.590998
 3052         h1    122    bbb     H7   3052 -0.05230000   1.008000   ; qtot 0.538698
 3053         h1    122    bbb     H8   3053 -0.05230000   1.008000   ; qtot 0.486398
 3054         c3    122    bbb     C5   3054 -0.60390000  12.010000   ; qtot -0.117502
 3055         hc    122    bbb     H9   3055 0.16730000   1.008000   ; qtot 0.049798
 3056         hc    122    bbb    H10   3056 0.16730000   1.008000   ; qtot 0.217098
 3057         c3    122    bbb     C6   3057 -0.60390000  12.010000   ; qtot -0.386802
 3058         hc    122    bbb    H11   3058 0.16730000   1.008000   ; qtot -0.219502
 3059         hc    122    bbb    H12   3059 0.16730000   1.008000   ; qtot -0.052202
 3060          c    122    bbb     C7   3060 0.72110000  12.010000   ; qtot 0.668898
 3061          c    122    bbb     C8   3061 0.72110000  12.010000   ; qtot 1.389998
 3062          o    122    bbb     O1   3062 -0.61950000  16.000000   ; qtot 0.770498
 3063          o    122    bbb     O2   3063 -0.61950000  16.000000   ; qtot 0.150998
 3064          n    122    bbb     N4   3064 -0.46580000  14.010000   ; qtot -0.314802
 3065         hn    122    bbb    H21   3065 0.31480000   1.008000   ; qtot -0.000002
; residue  123 bbb rtp bbb q -0.0
 3066         c3    123    bbb     C1   3066 0.44180000  12.010000   ; qtot 0.441798
 3067         h1    123    bbb     H1   3067 -0.03530000   1.008000   ; qtot 0.406498
 3068         h1    123    bbb     H2   3068 -0.03530000   1.008000   ; qtot 0.371198
 3069         c3    123    bbb     C2   3069 -0.28250000  12.010000   ; qtot 0.088698
 3070         h1    123    bbb     H3   3070 0.15710000   1.008000   ; qtot 0.245798
 3071         h1    123    bbb     H4   3071 0.15710000   1.008000   ; qtot 0.402898
 3072         n3    123    bbb     N1   3072 -0.74090000  14.010000   ; qtot -0.338002
 3073         c3    123    bbb     C3   3073 0.51680000  12.010000   ; qtot 0.178798
 3074         h1    123    bbb     H5   3074 -0.05230000   1.008000   ; qtot 0.126498
 3075         h1    123    bbb     H6   3075 -0.05230000   1.008000   ; qtot 0.074198
 3076         c3    123    bbb     C4   3076 0.51680000  12.010000   ; qtot 0.590998
 3077         h1    123    bbb     H7   3077 -0.05230000   1.008000   ; qtot 0.538698
 3078         h1    123    bbb     H8   3078 -0.05230000   1.008000   ; qtot 0.486398
 3079         c3    123    bbb     C5   3079 -0.60390000  12.010000   ; qtot -0.117502
 3080         hc    123    bbb     H9   3080 0.16730000   1.008000   ; qtot 0.049798
 3081         hc    123    bbb    H10   3081 0.16730000   1.008000   ; qtot 0.217098
 3082         c3    123    bbb     C6   3082 -0.60390000  12.010000   ; qtot -0.386802
 3083         hc    123    bbb    H11   3083 0.16730000   1.008000   ; qtot -0.219502
 3084         hc    123    bbb    H12   3084 0.16730000   1.008000   ; qtot -0.052202
 3085          c    123    bbb     C7   3085 0.72110000  12.010000   ; qtot 0.668898
 3086          c    123    bbb     C8   3086 0.72110000  12.010000   ; qtot 1.389998
 3087          o    123    bbb     O1   3087 -0.61950000  16.000000   ; qtot 0.770498
 3088          o    123    bbb     O2   3088 -0.61950000  16.000000   ; qtot 0.150998
 3089          n    123    bbb     N4   3089 -0.46580000  14.010000   ; qtot -0.314802
 3090         hn    123    bbb    H21   3090 0.31480000   1.008000   ; qtot -0.000002
; residue  124 bbb rtp bbb q -0.0
 3091         c3    124    bbb     C1   3091 0.44180000  12.010000   ; qtot 0.441798
 3092         h1    124    bbb     H1   3092 -0.03530000   1.008000   ; qtot 0.406498
 3093         h1    124    bbb     H2   3093 -0.03530000   1.008000   ; qtot 0.371198
 3094         c3    124    bbb     C2   3094 -0.28250000  12.010000   ; qtot 0.088698
 3095         h1    124    bbb     H3   3095 0.15710000   1.008000   ; qtot 0.245798
 3096         h1    124    bbb     H4   3096 0.15710000   1.008000   ; qtot 0.402898
 3097         n3    124    bbb     N1   3097 -0.74090000  14.010000   ; qtot -0.338002
 3098         c3    124    bbb     C3   3098 0.51680000  12.010000   ; qtot 0.178798
 3099         h1    124    bbb     H5   3099 -0.05230000   1.008000   ; qtot 0.126498
 3100         h1    124    bbb     H6   3100 -0.05230000   1.008000   ; qtot 0.074198
 3101         c3    124    bbb     C4   3101 0.51680000  12.010000   ; qtot 0.590998
 3102         h1    124    bbb     H7   3102 -0.05230000   1.008000   ; qtot 0.538698
 3103         h1    124    bbb     H8   3103 -0.05230000   1.008000   ; qtot 0.486398
 3104         c3    124    bbb     C5   3104 -0.60390000  12.010000   ; qtot -0.117502
 3105         hc    124    bbb     H9   3105 0.16730000   1.008000   ; qtot 0.049798
 3106         hc    124    bbb    H10   3106 0.16730000   1.008000   ; qtot 0.217098
 3107         c3    124    bbb     C6   3107 -0.60390000  12.010000   ; qtot -0.386802
 3108         hc    124    bbb    H11   3108 0.16730000   1.008000   ; qtot -0.219502
 3109         hc    124    bbb    H12   3109 0.16730000   1.008000   ; qtot -0.052202
 3110          c    124    bbb     C7   3110 0.72110000  12.010000   ; qtot 0.668898
 3111          c    124    bbb     C8   3111 0.72110000  12.010000   ; qtot 1.389998
 3112          o    124    bbb     O1   3112 -0.61950000  16.000000   ; qtot 0.770498
 3113          o    124    bbb     O2   3113 -0.61950000  16.000000   ; qtot 0.150998
 3114          n    124    bbb     N4   3114 -0.46580000  14.010000   ; qtot -0.314802
 3115         hn    124    bbb    H21   3115 0.31480000   1.008000   ; qtot -0.000002
; residue  125 bbb rtp bbb q -0.0
 3116         c3    125    bbb     C1   3116 0.44180000  12.010000   ; qtot 0.441798
 3117         h1    125    bbb     H1   3117 -0.03530000   1.008000   ; qtot 0.406498
 3118         h1    125    bbb     H2   3118 -0.03530000   1.008000   ; qtot 0.371198
 3119         c3    125    bbb     C2   3119 -0.28250000  12.010000   ; qtot 0.088698
 3120         h1    125    bbb     H3   3120 0.15710000   1.008000   ; qtot 0.245798
 3121         h1    125    bbb     H4   3121 0.15710000   1.008000   ; qtot 0.402898
 3122         n3    125    bbb     N1   3122 -0.74090000  14.010000   ; qtot -0.338002
 3123         c3    125    bbb     C3   3123 0.51680000  12.010000   ; qtot 0.178798
 3124         h1    125    bbb     H5   3124 -0.05230000   1.008000   ; qtot 0.126498
 3125         h1    125    bbb     H6   3125 -0.05230000   1.008000   ; qtot 0.074198
 3126         c3    125    bbb     C4   3126 0.51680000  12.010000   ; qtot 0.590998
 3127         h1    125    bbb     H7   3127 -0.05230000   1.008000   ; qtot 0.538698
 3128         h1    125    bbb     H8   3128 -0.05230000   1.008000   ; qtot 0.486398
 3129         c3    125    bbb     C5   3129 -0.60390000  12.010000   ; qtot -0.117502
 3130         hc    125    bbb     H9   3130 0.16730000   1.008000   ; qtot 0.049798
 3131         hc    125    bbb    H10   3131 0.16730000   1.008000   ; qtot 0.217098
 3132         c3    125    bbb     C6   3132 -0.60390000  12.010000   ; qtot -0.386802
 3133         hc    125    bbb    H11   3133 0.16730000   1.008000   ; qtot -0.219502
 3134         hc    125    bbb    H12   3134 0.16730000   1.008000   ; qtot -0.052202
 3135          c    125    bbb     C7   3135 0.72110000  12.010000   ; qtot 0.668898
 3136          c    125    bbb     C8   3136 0.72110000  12.010000   ; qtot 1.389998
 3137          o    125    bbb     O1   3137 -0.61950000  16.000000   ; qtot 0.770498
 3138          o    125    bbb     O2   3138 -0.61950000  16.000000   ; qtot 0.150998
 3139          n    125    bbb     N4   3139 -0.46580000  14.010000   ; qtot -0.314802
 3140         hn    125    bbb    H21   3140 0.31480000   1.008000   ; qtot -0.000002
; residue  126 ccc rtp ccc q 0.0
 3141          n    126    ccc     N1   3141 -0.87251700  14.010000   ; qtot -0.872519
 3142         hn    126    ccc     H1   3142 0.46040000   1.008000   ; qtot -0.412119
 3143         c3    126    ccc     C1   3143 0.65477900  12.010000   ; qtot 0.242660
 3144         h1    126    ccc     H2   3144 -0.08959600   1.008000   ; qtot 0.153064
 3145         c3    126    ccc     C2   3145 0.03619700  12.010000   ; qtot 0.189261
 3146         h1    126    ccc     H3   3146 -0.08959600   1.008000   ; qtot 0.099665
 3147         h1    126    ccc     H4   3147 0.06927800   1.008000   ; qtot 0.168943
 3148         h1    126    ccc     H5   3148 0.06927800   1.008000   ; qtot 0.238221
 3149         n3    126    ccc     N2   3149 -0.61358100  14.010000   ; qtot -0.375360
 3150         c3    126    ccc     C3   3150 0.17944400  12.010000   ; qtot -0.195916
 3151         c3    126    ccc     C4   3151 0.17944400  12.010000   ; qtot -0.016472
 3152         h1    126    ccc     H6   3152 0.07335800   1.008000   ; qtot 0.056886
 3153         c3    126    ccc     C5   3153 -0.49079800  12.010000   ; qtot -0.433912
 3154         h1    126    ccc     H7   3154 0.07335800   1.008000   ; qtot -0.360554
 3155         hc    126    ccc     H8   3155 0.15101200   1.008000   ; qtot -0.209542
 3156         hc    126    ccc     H9   3156 0.15101200   1.008000   ; qtot -0.058530
 3157          c    126    ccc     C6   3157 0.558828  12.010000   ; qtot 0.943669
 3158         oh    126    ccc     O1   3158 -0.56822625  16.000000   ; qtot 0.170583
 3159          o    126    ccc     O2   3159 -0.39142825  16.000000   ; qtot -0.493755
 3160         h1    126    ccc    H10   3160 0.07335800   1.008000   ; qtot -0.420397
 3161         h1    126    ccc    H11   3161 0.07335800   1.008000   ; qtot -0.347039
 3162         c3    126    ccc     C7   3162 -0.49079800  12.010000   ; qtot -0.837837
 3163         hc    126    ccc    H12   3163 0.15101200   1.008000   ; qtot -0.686825
 3164         hc    126    ccc    H13   3164 0.15101200   1.008000   ; qtot -0.535813
 3165          c    126    ccc     C8   3165 0.558828  12.010000   ; qtot 0.466386
 3166          o    126    ccc     O3   3166 -0.39142825  16.000000   ; qtot -0.197952
 3167         oh    126    ccc     O4   3167 -0.56822625  16.000000   ; qtot -0.971038
 3168         ho    126    ccc    H14   3168 0.4511195   1.008000   ; qtot -0.485520
 3169         ho    126    ccc    H15   3169 0.4511195   1.008000   ; qtot -0.000002
; residue  127 ccc rtp ccc q 0.0
 3170          n    127    ccc     N1   3170 -0.87251700  14.010000   ; qtot -0.872519
 3171         hn    127    ccc     H1   3171 0.46040000   1.008000   ; qtot -0.412119
 3172         c3    127    ccc     C1   3172 0.65477900  12.010000   ; qtot 0.242660
 3173         h1    127    ccc     H2   3173 -0.08959600   1.008000   ; qtot 0.153064
 3174         c3    127    ccc     C2   3174 0.03619700  12.010000   ; qtot 0.189261
 3175         h1    127    ccc     H3   3175 -0.08959600   1.008000   ; qtot 0.099665
 3176         h1    127    ccc     H4   3176 0.06927800   1.008000   ; qtot 0.168943
 3177         h1    127    ccc     H5   3177 0.06927800   1.008000   ; qtot 0.238221
 3178         n3    127    ccc     N2   3178 -0.61358100  14.010000   ; qtot -0.375360
 3179         c3    127    ccc     C3   3179 0.17944400  12.010000   ; qtot -0.195916
 3180         c3    127    ccc     C4   3180 0.17944400  12.010000   ; qtot -0.016472
 3181         h1    127    ccc     H6   3181 0.07335800   1.008000   ; qtot 0.056886
 3182         c3    127    ccc     C5   3182 -0.49079800  12.010000   ; qtot -0.433912
 3183         h1    127    ccc     H7   3183 0.07335800   1.008000   ; qtot -0.360554
 3184         hc    127    ccc     H8   3184 0.15101200   1.008000   ; qtot -0.209542
 3185         hc    127    ccc     H9   3185 0.15101200   1.008000   ; qtot -0.058530
 3186          c    127    ccc     C6   3186 0.558828  12.010000   ; qtot 0.943669
 3187         oh    127    ccc     O1   3187 -0.56822625  16.000000   ; qtot 0.170583
 3188          o    127    ccc     O2   3188 -0.39142825  16.000000   ; qtot -0.493755
 3189         h1    127    ccc    H10   3189 0.07335800   1.008000   ; qtot -0.420397
 3190         h1    127    ccc    H11   3190 0.07335800   1.008000   ; qtot -0.347039
 3191         c3    127    ccc     C7   3191 -0.49079800  12.010000   ; qtot -0.837837
 3192         hc    127    ccc    H12   3192 0.15101200   1.008000   ; qtot -0.686825
 3193         hc    127    ccc    H13   3193 0.15101200   1.008000   ; qtot -0.535813
 3194          c    127    ccc     C8   3194 0.558828  12.010000   ; qtot 0.466386
 3195          o    127    ccc     O3   3195 -0.39142825  16.000000   ; qtot -0.197952
 3196         oh    127    ccc     O4   3196 -0.56822625  16.000000   ; qtot -0.971038
 3197         ho    127    ccc    H14   3197 0.4511195   1.008000   ; qtot -0.485520
 3198         ho    127    ccc    H15   3198 0.4511195   1.008000   ; qtot -0.000002
; residue  128 ccc rtp ccc q 0.0
 3199          n    128    ccc     N1   3199 -0.87251700  14.010000   ; qtot -0.872519
 3200         hn    128    ccc     H1   3200 0.46040000   1.008000   ; qtot -0.412119
 3201         c3    128    ccc     C1   3201 0.65477900  12.010000   ; qtot 0.242660
 3202         h1    128    ccc     H2   3202 -0.08959600   1.008000   ; qtot 0.153064
 3203         c3    128    ccc     C2   3203 0.03619700  12.010000   ; qtot 0.189261
 3204         h1    128    ccc     H3   3204 -0.08959600   1.008000   ; qtot 0.099665
 3205         h1    128    ccc     H4   3205 0.06927800   1.008000   ; qtot 0.168943
 3206         h1    128    ccc     H5   3206 0.06927800   1.008000   ; qtot 0.238221
 3207         n3    128    ccc     N2   3207 -0.61358100  14.010000   ; qtot -0.375360
 3208         c3    128    ccc     C3   3208 0.17944400  12.010000   ; qtot -0.195916
 3209         c3    128    ccc     C4   3209 0.17944400  12.010000   ; qtot -0.016472
 3210         h1    128    ccc     H6   3210 0.07335800   1.008000   ; qtot 0.056886
 3211         c3    128    ccc     C5   3211 -0.49079800  12.010000   ; qtot -0.433912
 3212         h1    128    ccc     H7   3212 0.07335800   1.008000   ; qtot -0.360554
 3213         hc    128    ccc     H8   3213 0.15101200   1.008000   ; qtot -0.209542
 3214         hc    128    ccc     H9   3214 0.15101200   1.008000   ; qtot -0.058530
 3215          c    128    ccc     C6   3215 0.558828  12.010000   ; qtot 0.943669
 3216         oh    128    ccc     O1   3216 -0.56822625  16.000000   ; qtot 0.170583
 3217          o    128    ccc     O2   3217 -0.39142825  16.000000   ; qtot -0.493755
 3218         h1    128    ccc    H10   3218 0.07335800   1.008000   ; qtot -0.420397
 3219         h1    128    ccc    H11   3219 0.07335800   1.008000   ; qtot -0.347039
 3220         c3    128    ccc     C7   3220 -0.49079800  12.010000   ; qtot -0.837837
 3221         hc    128    ccc    H12   3221 0.15101200   1.008000   ; qtot -0.686825
 3222         hc    128    ccc    H13   3222 0.15101200   1.008000   ; qtot -0.535813
 3223          c    128    ccc     C8   3223 0.558828  12.010000   ; qtot 0.466386
 3224          o    128    ccc     O3   3224 -0.39142825  16.000000   ; qtot -0.197952
 3225         oh    128    ccc     O4   3225 -0.56822625  16.000000   ; qtot -0.971038
 3226         ho    128    ccc    H14   3226 0.4511195   1.008000   ; qtot -0.485520
 3227         ho    128    ccc    H15   3227 0.4511195   1.008000   ; qtot -0.000002
; residue  129 ccc rtp ccc q 0.0
 3228          n    129    ccc     N1   3228 -0.87251700  14.010000   ; qtot -0.872519
 3229         hn    129    ccc     H1   3229 0.46040000   1.008000   ; qtot -0.412119
 3230         c3    129    ccc     C1   3230 0.65477900  12.010000   ; qtot 0.242660
 3231         h1    129    ccc     H2   3231 -0.08959600   1.008000   ; qtot 0.153064
 3232         c3    129    ccc     C2   3232 0.03619700  12.010000   ; qtot 0.189261
 3233         h1    129    ccc     H3   3233 -0.08959600   1.008000   ; qtot 0.099665
 3234         h1    129    ccc     H4   3234 0.06927800   1.008000   ; qtot 0.168943
 3235         h1    129    ccc     H5   3235 0.06927800   1.008000   ; qtot 0.238221
 3236         n3    129    ccc     N2   3236 -0.61358100  14.010000   ; qtot -0.375360
 3237         c3    129    ccc     C3   3237 0.17944400  12.010000   ; qtot -0.195916
 3238         c3    129    ccc     C4   3238 0.17944400  12.010000   ; qtot -0.016472
 3239         h1    129    ccc     H6   3239 0.07335800   1.008000   ; qtot 0.056886
 3240         c3    129    ccc     C5   3240 -0.49079800  12.010000   ; qtot -0.433912
 3241         h1    129    ccc     H7   3241 0.07335800   1.008000   ; qtot -0.360554
 3242         hc    129    ccc     H8   3242 0.15101200   1.008000   ; qtot -0.209542
 3243         hc    129    ccc     H9   3243 0.15101200   1.008000   ; qtot -0.058530
 3244          c    129    ccc     C6   3244 0.558828  12.010000   ; qtot 0.943669
 3245         oh    129    ccc     O1   3245 -0.56822625  16.000000   ; qtot 0.170583
 3246          o    129    ccc     O2   3246 -0.39142825  16.000000   ; qtot -0.493755
 3247         h1    129    ccc    H10   3247 0.07335800   1.008000   ; qtot -0.420397
 3248         h1    129    ccc    H11   3248 0.07335800   1.008000   ; qtot -0.347039
 3249         c3    129    ccc     C7   3249 -0.49079800  12.010000   ; qtot -0.837837
 3250         hc    129    ccc    H12   3250 0.15101200   1.008000   ; qtot -0.686825
 3251         hc    129    ccc    H13   3251 0.15101200   1.008000   ; qtot -0.535813
 3252          c    129    ccc     C8   3252 0.558828  12.010000   ; qtot 0.466386
 3253          o    129    ccc     O3   3253 -0.39142825  16.000000   ; qtot -0.197952
 3254         oh    129    ccc     O4   3254 -0.56822625  16.000000   ; qtot -0.971038
 3255         ho    129    ccc    H14   3255 0.4511195   1.008000   ; qtot -0.485520
 3256         ho    129    ccc    H15   3256 0.4511195   1.008000   ; qtot -0.000002
; residue  130 ccc rtp ccc q 0.0
 3257          n    130    ccc     N1   3257 -0.87251700  14.010000   ; qtot -0.872519
 3258         hn    130    ccc     H1   3258 0.46040000   1.008000   ; qtot -0.412119
 3259         c3    130    ccc     C1   3259 0.65477900  12.010000   ; qtot 0.242660
 3260         h1    130    ccc     H2   3260 -0.08959600   1.008000   ; qtot 0.153064
 3261         c3    130    ccc     C2   3261 0.03619700  12.010000   ; qtot 0.189261
 3262         h1    130    ccc     H3   3262 -0.08959600   1.008000   ; qtot 0.099665
 3263         h1    130    ccc     H4   3263 0.06927800   1.008000   ; qtot 0.168943
 3264         h1    130    ccc     H5   3264 0.06927800   1.008000   ; qtot 0.238221
 3265         n3    130    ccc     N2   3265 -0.61358100  14.010000   ; qtot -0.375360
 3266         c3    130    ccc     C3   3266 0.17944400  12.010000   ; qtot -0.195916
 3267         c3    130    ccc     C4   3267 0.17944400  12.010000   ; qtot -0.016472
 3268         h1    130    ccc     H6   3268 0.07335800   1.008000   ; qtot 0.056886
 3269         c3    130    ccc     C5   3269 -0.49079800  12.010000   ; qtot -0.433912
 3270         h1    130    ccc     H7   3270 0.07335800   1.008000   ; qtot -0.360554
 3271         hc    130    ccc     H8   3271 0.15101200   1.008000   ; qtot -0.209542
 3272         hc    130    ccc     H9   3272 0.15101200   1.008000   ; qtot -0.058530
 3273          c    130    ccc     C6   3273 0.558828  12.010000   ; qtot 0.943669
 3274         oh    130    ccc     O1   3274 -0.56822625  16.000000   ; qtot 0.170583
 3275          o    130    ccc     O2   3275 -0.39142825  16.000000   ; qtot -0.493755
 3276         h1    130    ccc    H10   3276 0.07335800   1.008000   ; qtot -0.420397
 3277         h1    130    ccc    H11   3277 0.07335800   1.008000   ; qtot -0.347039
 3278         c3    130    ccc     C7   3278 -0.49079800  12.010000   ; qtot -0.837837
 3279         hc    130    ccc    H12   3279 0.15101200   1.008000   ; qtot -0.686825
 3280         hc    130    ccc    H13   3280 0.15101200   1.008000   ; qtot -0.535813
 3281          c    130    ccc     C8   3281 0.558828  12.010000   ; qtot 0.466386
 3282          o    130    ccc     O3   3282 -0.39142825  16.000000   ; qtot -0.197952
 3283         oh    130    ccc     O4   3283 -0.56822625  16.000000   ; qtot -0.971038
 3284         ho    130    ccc    H14   3284 0.4511195   1.008000   ; qtot -0.485520
 3285         ho    130    ccc    H15   3285 0.4511195   1.008000   ; qtot -0.000002
; residue  131 ccc rtp ccc q 0.0
 3286          n    131    ccc     N1   3286 -0.87251700  14.010000   ; qtot -0.872519
 3287         hn    131    ccc     H1   3287 0.46040000   1.008000   ; qtot -0.412119
 3288         c3    131    ccc     C1   3288 0.65477900  12.010000   ; qtot 0.242660
 3289         h1    131    ccc     H2   3289 -0.08959600   1.008000   ; qtot 0.153064
 3290         c3    131    ccc     C2   3290 0.03619700  12.010000   ; qtot 0.189261
 3291         h1    131    ccc     H3   3291 -0.08959600   1.008000   ; qtot 0.099665
 3292         h1    131    ccc     H4   3292 0.06927800   1.008000   ; qtot 0.168943
 3293         h1    131    ccc     H5   3293 0.06927800   1.008000   ; qtot 0.238221
 3294         n3    131    ccc     N2   3294 -0.61358100  14.010000   ; qtot -0.375360
 3295         c3    131    ccc     C3   3295 0.17944400  12.010000   ; qtot -0.195916
 3296         c3    131    ccc     C4   3296 0.17944400  12.010000   ; qtot -0.016472
 3297         h1    131    ccc     H6   3297 0.07335800   1.008000   ; qtot 0.056886
 3298         c3    131    ccc     C5   3298 -0.49079800  12.010000   ; qtot -0.433912
 3299         h1    131    ccc     H7   3299 0.07335800   1.008000   ; qtot -0.360554
 3300         hc    131    ccc     H8   3300 0.15101200   1.008000   ; qtot -0.209542
 3301         hc    131    ccc     H9   3301 0.15101200   1.008000   ; qtot -0.058530
 3302          c    131    ccc     C6   3302 0.558828  12.010000   ; qtot 0.943669
 3303         oh    131    ccc     O1   3303 -0.56822625  16.000000   ; qtot 0.170583
 3304          o    131    ccc     O2   3304 -0.39142825  16.000000   ; qtot -0.493755
 3305         h1    131    ccc    H10   3305 0.07335800   1.008000   ; qtot -0.420397
 3306         h1    131    ccc    H11   3306 0.07335800   1.008000   ; qtot -0.347039
 3307         c3    131    ccc     C7   3307 -0.49079800  12.010000   ; qtot -0.837837
 3308         hc    131    ccc    H12   3308 0.15101200   1.008000   ; qtot -0.686825
 3309         hc    131    ccc    H13   3309 0.15101200   1.008000   ; qtot -0.535813
 3310          c    131    ccc     C8   3310 0.558828  12.010000   ; qtot 0.466386
 3311          o    131    ccc     O3   3311 -0.39142825  16.000000   ; qtot -0.197952
 3312         oh    131    ccc     O4   3312 -0.56822625  16.000000   ; qtot -0.971038
 3313         ho    131    ccc    H14   3313 0.4511195   1.008000   ; qtot -0.485520
 3314         ho    131    ccc    H15   3314 0.4511195   1.008000   ; qtot -0.000002
; residue  132 ccc rtp ccc q 0.0
 3315          n    132    ccc     N1   3315 -0.87251700  14.010000   ; qtot -0.872519
 3316         hn    132    ccc     H1   3316 0.46040000   1.008000   ; qtot -0.412119
 3317         c3    132    ccc     C1   3317 0.65477900  12.010000   ; qtot 0.242660
 3318         h1    132    ccc     H2   3318 -0.08959600   1.008000   ; qtot 0.153064
 3319         c3    132    ccc     C2   3319 0.03619700  12.010000   ; qtot 0.189261
 3320         h1    132    ccc     H3   3320 -0.08959600   1.008000   ; qtot 0.099665
 3321         h1    132    ccc     H4   3321 0.06927800   1.008000   ; qtot 0.168943
 3322         h1    132    ccc     H5   3322 0.06927800   1.008000   ; qtot 0.238221
 3323         n3    132    ccc     N2   3323 -0.61358100  14.010000   ; qtot -0.375360
 3324         c3    132    ccc     C3   3324 0.17944400  12.010000   ; qtot -0.195916
 3325         c3    132    ccc     C4   3325 0.17944400  12.010000   ; qtot -0.016472
 3326         h1    132    ccc     H6   3326 0.07335800   1.008000   ; qtot 0.056886
 3327         c3    132    ccc     C5   3327 -0.49079800  12.010000   ; qtot -0.433912
 3328         h1    132    ccc     H7   3328 0.07335800   1.008000   ; qtot -0.360554
 3329         hc    132    ccc     H8   3329 0.15101200   1.008000   ; qtot -0.209542
 3330         hc    132    ccc     H9   3330 0.15101200   1.008000   ; qtot -0.058530
 3331          c    132    ccc     C6   3331 0.558828  12.010000   ; qtot 0.943669
 3332         oh    132    ccc     O1   3332 -0.56822625  16.000000   ; qtot 0.170583
 3333          o    132    ccc     O2   3333 -0.39142825  16.000000   ; qtot -0.493755
 3334         h1    132    ccc    H10   3334 0.07335800   1.008000   ; qtot -0.420397
 3335         h1    132    ccc    H11   3335 0.07335800   1.008000   ; qtot -0.347039
 3336         c3    132    ccc     C7   3336 -0.49079800  12.010000   ; qtot -0.837837
 3337         hc    132    ccc    H12   3337 0.15101200   1.008000   ; qtot -0.686825
 3338         hc    132    ccc    H13   3338 0.15101200   1.008000   ; qtot -0.535813
 3339          c    132    ccc     C8   3339 0.558828  12.010000   ; qtot 0.466386
 3340          o    132    ccc     O3   3340 -0.39142825  16.000000   ; qtot -0.197952
 3341         oh    132    ccc     O4   3341 -0.56822625  16.000000   ; qtot -0.971038
 3342         ho    132    ccc    H14   3342 0.4511195   1.008000   ; qtot -0.485520
 3343         ho    132    ccc    H15   3343 0.4511195   1.008000   ; qtot -0.000002
; residue  133 ccc rtp ccc q 0.0
 3344          n    133    ccc     N1   3344 -0.87251700  14.010000   ; qtot -0.872519
 3345         hn    133    ccc     H1   3345 0.46040000   1.008000   ; qtot -0.412119
 3346         c3    133    ccc     C1   3346 0.65477900  12.010000   ; qtot 0.242660
 3347         h1    133    ccc     H2   3347 -0.08959600   1.008000   ; qtot 0.153064
 3348         c3    133    ccc     C2   3348 0.03619700  12.010000   ; qtot 0.189261
 3349         h1    133    ccc     H3   3349 -0.08959600   1.008000   ; qtot 0.099665
 3350         h1    133    ccc     H4   3350 0.06927800   1.008000   ; qtot 0.168943
 3351         h1    133    ccc     H5   3351 0.06927800   1.008000   ; qtot 0.238221
 3352         n3    133    ccc     N2   3352 -0.61358100  14.010000   ; qtot -0.375360
 3353         c3    133    ccc     C3   3353 0.17944400  12.010000   ; qtot -0.195916
 3354         c3    133    ccc     C4   3354 0.17944400  12.010000   ; qtot -0.016472
 3355         h1    133    ccc     H6   3355 0.07335800   1.008000   ; qtot 0.056886
 3356         c3    133    ccc     C5   3356 -0.49079800  12.010000   ; qtot -0.433912
 3357         h1    133    ccc     H7   3357 0.07335800   1.008000   ; qtot -0.360554
 3358         hc    133    ccc     H8   3358 0.15101200   1.008000   ; qtot -0.209542
 3359         hc    133    ccc     H9   3359 0.15101200   1.008000   ; qtot -0.058530
 3360          c    133    ccc     C6   3360 0.558828  12.010000   ; qtot 0.943669
 3361         oh    133    ccc     O1   3361 -0.56822625  16.000000   ; qtot 0.170583
 3362          o    133    ccc     O2   3362 -0.39142825  16.000000   ; qtot -0.493755
 3363         h1    133    ccc    H10   3363 0.07335800   1.008000   ; qtot -0.420397
 3364         h1    133    ccc    H11   3364 0.07335800   1.008000   ; qtot -0.347039
 3365         c3    133    ccc     C7   3365 -0.49079800  12.010000   ; qtot -0.837837
 3366         hc    133    ccc    H12   3366 0.15101200   1.008000   ; qtot -0.686825
 3367         hc    133    ccc    H13   3367 0.15101200   1.008000   ; qtot -0.535813
 3368          c    133    ccc     C8   3368 0.558828  12.010000   ; qtot 0.466386
 3369          o    133    ccc     O3   3369 -0.39142825  16.000000   ; qtot -0.197952
 3370         oh    133    ccc     O4   3370 -0.56822625  16.000000   ; qtot -0.971038
 3371         ho    133    ccc    H14   3371 0.4511195   1.008000   ; qtot -0.485520
 3372         ho    133    ccc    H15   3372 0.4511195   1.008000   ; qtot -0.000002
; residue  134 ccc rtp ccc q 0.0
 3373          n    134    ccc     N1   3373 -0.87251700  14.010000   ; qtot -0.872519
 3374         hn    134    ccc     H1   3374 0.46040000   1.008000   ; qtot -0.412119
 3375         c3    134    ccc     C1   3375 0.65477900  12.010000   ; qtot 0.242660
 3376         h1    134    ccc     H2   3376 -0.08959600   1.008000   ; qtot 0.153064
 3377         c3    134    ccc     C2   3377 0.03619700  12.010000   ; qtot 0.189261
 3378         h1    134    ccc     H3   3378 -0.08959600   1.008000   ; qtot 0.099665
 3379         h1    134    ccc     H4   3379 0.06927800   1.008000   ; qtot 0.168943
 3380         h1    134    ccc     H5   3380 0.06927800   1.008000   ; qtot 0.238221
 3381         n3    134    ccc     N2   3381 -0.61358100  14.010000   ; qtot -0.375360
 3382         c3    134    ccc     C3   3382 0.17944400  12.010000   ; qtot -0.195916
 3383         c3    134    ccc     C4   3383 0.17944400  12.010000   ; qtot -0.016472
 3384         h1    134    ccc     H6   3384 0.07335800   1.008000   ; qtot 0.056886
 3385         c3    134    ccc     C5   3385 -0.49079800  12.010000   ; qtot -0.433912
 3386         h1    134    ccc     H7   3386 0.07335800   1.008000   ; qtot -0.360554
 3387         hc    134    ccc     H8   3387 0.15101200   1.008000   ; qtot -0.209542
 3388         hc    134    ccc     H9   3388 0.15101200   1.008000   ; qtot -0.058530
 3389          c    134    ccc     C6   3389 0.558828  12.010000   ; qtot 0.943669
 3390         oh    134    ccc     O1   3390 -0.56822625  16.000000   ; qtot 0.170583
 3391          o    134    ccc     O2   3391 -0.39142825  16.000000   ; qtot -0.493755
 3392         h1    134    ccc    H10   3392 0.07335800   1.008000   ; qtot -0.420397
 3393         h1    134    ccc    H11   3393 0.07335800   1.008000   ; qtot -0.347039
 3394         c3    134    ccc     C7   3394 -0.49079800  12.010000   ; qtot -0.837837
 3395         hc    134    ccc    H12   3395 0.15101200   1.008000   ; qtot -0.686825
 3396         hc    134    ccc    H13   3396 0.15101200   1.008000   ; qtot -0.535813
 3397          c    134    ccc     C8   3397 0.558828  12.010000   ; qtot 0.466386
 3398          o    134    ccc     O3   3398 -0.39142825  16.000000   ; qtot -0.197952
 3399         oh    134    ccc     O4   3399 -0.56822625  16.000000   ; qtot -0.971038
 3400         ho    134    ccc    H14   3400 0.4511195   1.008000   ; qtot -0.485520
 3401         ho    134    ccc    H15   3401 0.4511195   1.008000   ; qtot -0.000002
; residue  135 ccc rtp ccc q 0.0
 3402          n    135    ccc     N1   3402 -0.87251700  14.010000   ; qtot -0.872519
 3403         hn    135    ccc     H1   3403 0.46040000   1.008000   ; qtot -0.412119
 3404         c3    135    ccc     C1   3404 0.65477900  12.010000   ; qtot 0.242660
 3405         h1    135    ccc     H2   3405 -0.08959600   1.008000   ; qtot 0.153064
 3406         c3    135    ccc     C2   3406 0.03619700  12.010000   ; qtot 0.189261
 3407         h1    135    ccc     H3   3407 -0.08959600   1.008000   ; qtot 0.099665
 3408         h1    135    ccc     H4   3408 0.06927800   1.008000   ; qtot 0.168943
 3409         h1    135    ccc     H5   3409 0.06927800   1.008000   ; qtot 0.238221
 3410         n3    135    ccc     N2   3410 -0.61358100  14.010000   ; qtot -0.375360
 3411         c3    135    ccc     C3   3411 0.17944400  12.010000   ; qtot -0.195916
 3412         c3    135    ccc     C4   3412 0.17944400  12.010000   ; qtot -0.016472
 3413         h1    135    ccc     H6   3413 0.07335800   1.008000   ; qtot 0.056886
 3414         c3    135    ccc     C5   3414 -0.49079800  12.010000   ; qtot -0.433912
 3415         h1    135    ccc     H7   3415 0.07335800   1.008000   ; qtot -0.360554
 3416         hc    135    ccc     H8   3416 0.15101200   1.008000   ; qtot -0.209542
 3417         hc    135    ccc     H9   3417 0.15101200   1.008000   ; qtot -0.058530
 3418          c    135    ccc     C6   3418 0.558828  12.010000   ; qtot 0.943669
 3419         oh    135    ccc     O1   3419 -0.56822625  16.000000   ; qtot 0.170583
 3420          o    135    ccc     O2   3420 -0.39142825  16.000000   ; qtot -0.493755
 3421         h1    135    ccc    H10   3421 0.07335800   1.008000   ; qtot -0.420397
 3422         h1    135    ccc    H11   3422 0.07335800   1.008000   ; qtot -0.347039
 3423         c3    135    ccc     C7   3423 -0.49079800  12.010000   ; qtot -0.837837
 3424         hc    135    ccc    H12   3424 0.15101200   1.008000   ; qtot -0.686825
 3425         hc    135    ccc    H13   3425 0.15101200   1.008000   ; qtot -0.535813
 3426          c    135    ccc     C8   3426 0.558828  12.010000   ; qtot 0.466386
 3427          o    135    ccc     O3   3427 -0.39142825  16.000000   ; qtot -0.197952
 3428         oh    135    ccc     O4   3428 -0.56822625  16.000000   ; qtot -0.971038
 3429         ho    135    ccc    H14   3429 0.4511195   1.008000   ; qtot -0.485520
 3430         ho    135    ccc    H15   3430 0.4511195   1.008000   ; qtot -0.000002
; residue  136 ccc rtp ccc q 0.0
 3431          n    136    ccc     N1   3431 -0.87251700  14.010000   ; qtot -0.872519
 3432         hn    136    ccc     H1   3432 0.46040000   1.008000   ; qtot -0.412119
 3433         c3    136    ccc     C1   3433 0.65477900  12.010000   ; qtot 0.242660
 3434         h1    136    ccc     H2   3434 -0.08959600   1.008000   ; qtot 0.153064
 3435         c3    136    ccc     C2   3435 0.03619700  12.010000   ; qtot 0.189261
 3436         h1    136    ccc     H3   3436 -0.08959600   1.008000   ; qtot 0.099665
 3437         h1    136    ccc     H4   3437 0.06927800   1.008000   ; qtot 0.168943
 3438         h1    136    ccc     H5   3438 0.06927800   1.008000   ; qtot 0.238221
 3439         n3    136    ccc     N2   3439 -0.61358100  14.010000   ; qtot -0.375360
 3440         c3    136    ccc     C3   3440 0.17944400  12.010000   ; qtot -0.195916
 3441         c3    136    ccc     C4   3441 0.17944400  12.010000   ; qtot -0.016472
 3442         h1    136    ccc     H6   3442 0.07335800   1.008000   ; qtot 0.056886
 3443         c3    136    ccc     C5   3443 -0.49079800  12.010000   ; qtot -0.433912
 3444         h1    136    ccc     H7   3444 0.07335800   1.008000   ; qtot -0.360554
 3445         hc    136    ccc     H8   3445 0.15101200   1.008000   ; qtot -0.209542
 3446         hc    136    ccc     H9   3446 0.15101200   1.008000   ; qtot -0.058530
 3447          c    136    ccc     C6   3447 0.558828  12.010000   ; qtot 0.943669
 3448         oh    136    ccc     O1   3448 -0.56822625  16.000000   ; qtot 0.170583
 3449          o    136    ccc     O2   3449 -0.39142825  16.000000   ; qtot -0.493755
 3450         h1    136    ccc    H10   3450 0.07335800   1.008000   ; qtot -0.420397
 3451         h1    136    ccc    H11   3451 0.07335800   1.008000   ; qtot -0.347039
 3452         c3    136    ccc     C7   3452 -0.49079800  12.010000   ; qtot -0.837837
 3453         hc    136    ccc    H12   3453 0.15101200   1.008000   ; qtot -0.686825
 3454         hc    136    ccc    H13   3454 0.15101200   1.008000   ; qtot -0.535813
 3455          c    136    ccc     C8   3455 0.558828  12.010000   ; qtot 0.466386
 3456          o    136    ccc     O3   3456 -0.39142825  16.000000   ; qtot -0.197952
 3457         oh    136    ccc     O4   3457 -0.56822625  16.000000   ; qtot -0.971038
 3458         ho    136    ccc    H14   3458 0.4511195   1.008000   ; qtot -0.485520
 3459         ho    136    ccc    H15   3459 0.4511195   1.008000   ; qtot -0.000002
; residue  137 ccc rtp ccc q 0.0
 3460          n    137    ccc     N1   3460 -0.87251700  14.010000   ; qtot -0.872519
 3461         hn    137    ccc     H1   3461 0.46040000   1.008000   ; qtot -0.412119
 3462         c3    137    ccc     C1   3462 0.65477900  12.010000   ; qtot 0.242660
 3463         h1    137    ccc     H2   3463 -0.08959600   1.008000   ; qtot 0.153064
 3464         c3    137    ccc     C2   3464 0.03619700  12.010000   ; qtot 0.189261
 3465         h1    137    ccc     H3   3465 -0.08959600   1.008000   ; qtot 0.099665
 3466         h1    137    ccc     H4   3466 0.06927800   1.008000   ; qtot 0.168943
 3467         h1    137    ccc     H5   3467 0.06927800   1.008000   ; qtot 0.238221
 3468         n3    137    ccc     N2   3468 -0.61358100  14.010000   ; qtot -0.375360
 3469         c3    137    ccc     C3   3469 0.17944400  12.010000   ; qtot -0.195916
 3470         c3    137    ccc     C4   3470 0.17944400  12.010000   ; qtot -0.016472
 3471         h1    137    ccc     H6   3471 0.07335800   1.008000   ; qtot 0.056886
 3472         c3    137    ccc     C5   3472 -0.49079800  12.010000   ; qtot -0.433912
 3473         h1    137    ccc     H7   3473 0.07335800   1.008000   ; qtot -0.360554
 3474         hc    137    ccc     H8   3474 0.15101200   1.008000   ; qtot -0.209542
 3475         hc    137    ccc     H9   3475 0.15101200   1.008000   ; qtot -0.058530
 3476          c    137    ccc     C6   3476 0.558828  12.010000   ; qtot 0.943669
 3477         oh    137    ccc     O1   3477 -0.56822625  16.000000   ; qtot 0.170583
 3478          o    137    ccc     O2   3478 -0.39142825  16.000000   ; qtot -0.493755
 3479         h1    137    ccc    H10   3479 0.07335800   1.008000   ; qtot -0.420397
 3480         h1    137    ccc    H11   3480 0.07335800   1.008000   ; qtot -0.347039
 3481         c3    137    ccc     C7   3481 -0.49079800  12.010000   ; qtot -0.837837
 3482         hc    137    ccc    H12   3482 0.15101200   1.008000   ; qtot -0.686825
 3483         hc    137    ccc    H13   3483 0.15101200   1.008000   ; qtot -0.535813
 3484          c    137    ccc     C8   3484 0.558828  12.010000   ; qtot 0.466386
 3485          o    137    ccc     O3   3485 -0.39142825  16.000000   ; qtot -0.197952
 3486         oh    137    ccc     O4   3486 -0.56822625  16.000000   ; qtot -0.971038
 3487         ho    137    ccc    H14   3487 0.4511195   1.008000   ; qtot -0.485520
 3488         ho    137    ccc    H15   3488 0.4511195   1.008000   ; qtot -0.000002
; residue  138 ccc rtp ccc q 0.0
 3489          n    138    ccc     N1   3489 -0.87251700  14.010000   ; qtot -0.872519
 3490         hn    138    ccc     H1   3490 0.46040000   1.008000   ; qtot -0.412119
 3491         c3    138    ccc     C1   3491 0.65477900  12.010000   ; qtot 0.242660
 3492         h1    138    ccc     H2   3492 -0.08959600   1.008000   ; qtot 0.153064
 3493         c3    138    ccc     C2   3493 0.03619700  12.010000   ; qtot 0.189261
 3494         h1    138    ccc     H3   3494 -0.08959600   1.008000   ; qtot 0.099665
 3495         h1    138    ccc     H4   3495 0.06927800   1.008000   ; qtot 0.168943
 3496         h1    138    ccc     H5   3496 0.06927800   1.008000   ; qtot 0.238221
 3497         n3    138    ccc     N2   3497 -0.61358100  14.010000   ; qtot -0.375360
 3498         c3    138    ccc     C3   3498 0.17944400  12.010000   ; qtot -0.195916
 3499         c3    138    ccc     C4   3499 0.17944400  12.010000   ; qtot -0.016472
 3500         h1    138    ccc     H6   3500 0.07335800   1.008000   ; qtot 0.056886
 3501         c3    138    ccc     C5   3501 -0.49079800  12.010000   ; qtot -0.433912
 3502         h1    138    ccc     H7   3502 0.07335800   1.008000   ; qtot -0.360554
 3503         hc    138    ccc     H8   3503 0.15101200   1.008000   ; qtot -0.209542
 3504         hc    138    ccc     H9   3504 0.15101200   1.008000   ; qtot -0.058530
 3505          c    138    ccc     C6   3505 0.558828  12.010000   ; qtot 0.943669
 3506         oh    138    ccc     O1   3506 -0.56822625  16.000000   ; qtot 0.170583
 3507          o    138    ccc     O2   3507 -0.39142825  16.000000   ; qtot -0.493755
 3508         h1    138    ccc    H10   3508 0.07335800   1.008000   ; qtot -0.420397
 3509         h1    138    ccc    H11   3509 0.07335800   1.008000   ; qtot -0.347039
 3510         c3    138    ccc     C7   3510 -0.49079800  12.010000   ; qtot -0.837837
 3511         hc    138    ccc    H12   3511 0.15101200   1.008000   ; qtot -0.686825
 3512         hc    138    ccc    H13   3512 0.15101200   1.008000   ; qtot -0.535813
 3513          c    138    ccc     C8   3513 0.558828  12.010000   ; qtot 0.466386
 3514          o    138    ccc     O3   3514 -0.39142825  16.000000   ; qtot -0.197952
 3515         oh    138    ccc     O4   3515 -0.56822625  16.000000   ; qtot -0.971038
 3516         ho    138    ccc    H14   3516 0.4511195   1.008000   ; qtot -0.485520
 3517         ho    138    ccc    H15   3517 0.4511195   1.008000   ; qtot -0.000002
; residue  139 ccc rtp ccc q 0.0
 3518          n    139    ccc     N1   3518 -0.87251700  14.010000   ; qtot -0.872519
 3519         hn    139    ccc     H1   3519 0.46040000   1.008000   ; qtot -0.412119
 3520         c3    139    ccc     C1   3520 0.65477900  12.010000   ; qtot 0.242660
 3521         h1    139    ccc     H2   3521 -0.08959600   1.008000   ; qtot 0.153064
 3522         c3    139    ccc     C2   3522 0.03619700  12.010000   ; qtot 0.189261
 3523         h1    139    ccc     H3   3523 -0.08959600   1.008000   ; qtot 0.099665
 3524         h1    139    ccc     H4   3524 0.06927800   1.008000   ; qtot 0.168943
 3525         h1    139    ccc     H5   3525 0.06927800   1.008000   ; qtot 0.238221
 3526         n3    139    ccc     N2   3526 -0.61358100  14.010000   ; qtot -0.375360
 3527         c3    139    ccc     C3   3527 0.17944400  12.010000   ; qtot -0.195916
 3528         c3    139    ccc     C4   3528 0.17944400  12.010000   ; qtot -0.016472
 3529         h1    139    ccc     H6   3529 0.07335800   1.008000   ; qtot 0.056886
 3530         c3    139    ccc     C5   3530 -0.49079800  12.010000   ; qtot -0.433912
 3531         h1    139    ccc     H7   3531 0.07335800   1.008000   ; qtot -0.360554
 3532         hc    139    ccc     H8   3532 0.15101200   1.008000   ; qtot -0.209542
 3533         hc    139    ccc     H9   3533 0.15101200   1.008000   ; qtot -0.058530
 3534          c    139    ccc     C6   3534 0.558828  12.010000   ; qtot 0.943669
 3535         oh    139    ccc     O1   3535 -0.56822625  16.000000   ; qtot 0.170583
 3536          o    139    ccc     O2   3536 -0.39142825  16.000000   ; qtot -0.493755
 3537         h1    139    ccc    H10   3537 0.07335800   1.008000   ; qtot -0.420397
 3538         h1    139    ccc    H11   3538 0.07335800   1.008000   ; qtot -0.347039
 3539         c3    139    ccc     C7   3539 -0.49079800  12.010000   ; qtot -0.837837
 3540         hc    139    ccc    H12   3540 0.15101200   1.008000   ; qtot -0.686825
 3541         hc    139    ccc    H13   3541 0.15101200   1.008000   ; qtot -0.535813
 3542          c    139    ccc     C8   3542 0.558828  12.010000   ; qtot 0.466386
 3543          o    139    ccc     O3   3543 -0.39142825  16.000000   ; qtot -0.197952
 3544         oh    139    ccc     O4   3544 -0.56822625  16.000000   ; qtot -0.971038
 3545         ho    139    ccc    H14   3545 0.4511195   1.008000   ; qtot -0.485520
 3546         ho    139    ccc    H15   3546 0.4511195   1.008000   ; qtot -0.000002
; residue  140 ccc rtp ccc q 0.0
 3547          n    140    ccc     N1   3547 -0.87251700  14.010000   ; qtot -0.872519
 3548         hn    140    ccc     H1   3548 0.46040000   1.008000   ; qtot -0.412119
 3549         c3    140    ccc     C1   3549 0.65477900  12.010000   ; qtot 0.242660
 3550         h1    140    ccc     H2   3550 -0.08959600   1.008000   ; qtot 0.153064
 3551         c3    140    ccc     C2   3551 0.03619700  12.010000   ; qtot 0.189261
 3552         h1    140    ccc     H3   3552 -0.08959600   1.008000   ; qtot 0.099665
 3553         h1    140    ccc     H4   3553 0.06927800   1.008000   ; qtot 0.168943
 3554         h1    140    ccc     H5   3554 0.06927800   1.008000   ; qtot 0.238221
 3555         n3    140    ccc     N2   3555 -0.61358100  14.010000   ; qtot -0.375360
 3556         c3    140    ccc     C3   3556 0.17944400  12.010000   ; qtot -0.195916
 3557         c3    140    ccc     C4   3557 0.17944400  12.010000   ; qtot -0.016472
 3558         h1    140    ccc     H6   3558 0.07335800   1.008000   ; qtot 0.056886
 3559         c3    140    ccc     C5   3559 -0.49079800  12.010000   ; qtot -0.433912
 3560         h1    140    ccc     H7   3560 0.07335800   1.008000   ; qtot -0.360554
 3561         hc    140    ccc     H8   3561 0.15101200   1.008000   ; qtot -0.209542
 3562         hc    140    ccc     H9   3562 0.15101200   1.008000   ; qtot -0.058530
 3563          c    140    ccc     C6   3563 0.558828  12.010000   ; qtot 0.943669
 3564         oh    140    ccc     O1   3564 -0.56822625  16.000000   ; qtot 0.170583
 3565          o    140    ccc     O2   3565 -0.39142825  16.000000   ; qtot -0.493755
 3566         h1    140    ccc    H10   3566 0.07335800   1.008000   ; qtot -0.420397
 3567         h1    140    ccc    H11   3567 0.07335800   1.008000   ; qtot -0.347039
 3568         c3    140    ccc     C7   3568 -0.49079800  12.010000   ; qtot -0.837837
 3569         hc    140    ccc    H12   3569 0.15101200   1.008000   ; qtot -0.686825
 3570         hc    140    ccc    H13   3570 0.15101200   1.008000   ; qtot -0.535813
 3571          c    140    ccc     C8   3571 0.558828  12.010000   ; qtot 0.466386
 3572          o    140    ccc     O3   3572 -0.39142825  16.000000   ; qtot -0.197952
 3573         oh    140    ccc     O4   3573 -0.56822625  16.000000   ; qtot -0.971038
 3574         ho    140    ccc    H14   3574 0.4511195   1.008000   ; qtot -0.485520
 3575         ho    140    ccc    H15   3575 0.4511195   1.008000   ; qtot -0.000002
; residue  141 ccc rtp ccc q 0.0
 3576          n    141    ccc     N1   3576 -0.87251700  14.010000   ; qtot -0.872519
 3577         hn    141    ccc     H1   3577 0.46040000   1.008000   ; qtot -0.412119
 3578         c3    141    ccc     C1   3578 0.65477900  12.010000   ; qtot 0.242660
 3579         h1    141    ccc     H2   3579 -0.08959600   1.008000   ; qtot 0.153064
 3580         c3    141    ccc     C2   3580 0.03619700  12.010000   ; qtot 0.189261
 3581         h1    141    ccc     H3   3581 -0.08959600   1.008000   ; qtot 0.099665
 3582         h1    141    ccc     H4   3582 0.06927800   1.008000   ; qtot 0.168943
 3583         h1    141    ccc     H5   3583 0.06927800   1.008000   ; qtot 0.238221
 3584         n3    141    ccc     N2   3584 -0.61358100  14.010000   ; qtot -0.375360
 3585         c3    141    ccc     C3   3585 0.17944400  12.010000   ; qtot -0.195916
 3586         c3    141    ccc     C4   3586 0.17944400  12.010000   ; qtot -0.016472
 3587         h1    141    ccc     H6   3587 0.07335800   1.008000   ; qtot 0.056886
 3588         c3    141    ccc     C5   3588 -0.49079800  12.010000   ; qtot -0.433912
 3589         h1    141    ccc     H7   3589 0.07335800   1.008000   ; qtot -0.360554
 3590         hc    141    ccc     H8   3590 0.15101200   1.008000   ; qtot -0.209542
 3591         hc    141    ccc     H9   3591 0.15101200   1.008000   ; qtot -0.058530
 3592          c    141    ccc     C6   3592 0.558828  12.010000   ; qtot 0.943669
 3593         oh    141    ccc     O1   3593 -0.56822625  16.000000   ; qtot 0.170583
 3594          o    141    ccc     O2   3594 -0.39142825  16.000000   ; qtot -0.493755
 3595         h1    141    ccc    H10   3595 0.07335800   1.008000   ; qtot -0.420397
 3596         h1    141    ccc    H11   3596 0.07335800   1.008000   ; qtot -0.347039
 3597         c3    141    ccc     C7   3597 -0.49079800  12.010000   ; qtot -0.837837
 3598         hc    141    ccc    H12   3598 0.15101200   1.008000   ; qtot -0.686825
 3599         hc    141    ccc    H13   3599 0.15101200   1.008000   ; qtot -0.535813
 3600          c    141    ccc     C8   3600 0.558828  12.010000   ; qtot 0.466386
 3601          o    141    ccc     O3   3601 -0.39142825  16.000000   ; qtot -0.197952
 3602         oh    141    ccc     O4   3602 -0.56822625  16.000000   ; qtot -0.971038
 3603         ho    141    ccc    H14   3603 0.4511195   1.008000   ; qtot -0.485520
 3604         ho    141    ccc    H15   3604 0.4511195   1.008000   ; qtot -0.000002
; residue  142 ccc rtp ccc q 0.0
 3605          n    142    ccc     N1   3605 -0.87251700  14.010000   ; qtot -0.872519
 3606         hn    142    ccc     H1   3606 0.46040000   1.008000   ; qtot -0.412119
 3607         c3    142    ccc     C1   3607 0.65477900  12.010000   ; qtot 0.242660
 3608         h1    142    ccc     H2   3608 -0.08959600   1.008000   ; qtot 0.153064
 3609         c3    142    ccc     C2   3609 0.03619700  12.010000   ; qtot 0.189261
 3610         h1    142    ccc     H3   3610 -0.08959600   1.008000   ; qtot 0.099665
 3611         h1    142    ccc     H4   3611 0.06927800   1.008000   ; qtot 0.168943
 3612         h1    142    ccc     H5   3612 0.06927800   1.008000   ; qtot 0.238221
 3613         n3    142    ccc     N2   3613 -0.61358100  14.010000   ; qtot -0.375360
 3614         c3    142    ccc     C3   3614 0.17944400  12.010000   ; qtot -0.195916
 3615         c3    142    ccc     C4   3615 0.17944400  12.010000   ; qtot -0.016472
 3616         h1    142    ccc     H6   3616 0.07335800   1.008000   ; qtot 0.056886
 3617         c3    142    ccc     C5   3617 -0.49079800  12.010000   ; qtot -0.433912
 3618         h1    142    ccc     H7   3618 0.07335800   1.008000   ; qtot -0.360554
 3619         hc    142    ccc     H8   3619 0.15101200   1.008000   ; qtot -0.209542
 3620         hc    142    ccc     H9   3620 0.15101200   1.008000   ; qtot -0.058530
 3621          c    142    ccc     C6   3621 0.558828  12.010000   ; qtot 0.943669
 3622         oh    142    ccc     O1   3622 -0.56822625  16.000000   ; qtot 0.170583
 3623          o    142    ccc     O2   3623 -0.39142825  16.000000   ; qtot -0.493755
 3624         h1    142    ccc    H10   3624 0.07335800   1.008000   ; qtot -0.420397
 3625         h1    142    ccc    H11   3625 0.07335800   1.008000   ; qtot -0.347039
 3626         c3    142    ccc     C7   3626 -0.49079800  12.010000   ; qtot -0.837837
 3627         hc    142    ccc    H12   3627 0.15101200   1.008000   ; qtot -0.686825
 3628         hc    142    ccc    H13   3628 0.15101200   1.008000   ; qtot -0.535813
 3629          c    142    ccc     C8   3629 0.558828  12.010000   ; qtot 0.466386
 3630          o    142    ccc     O3   3630 -0.39142825  16.000000   ; qtot -0.197952
 3631         oh    142    ccc     O4   3631 -0.56822625  16.000000   ; qtot -0.971038
 3632         ho    142    ccc    H14   3632 0.4511195   1.008000   ; qtot -0.485520
 3633         ho    142    ccc    H15   3633 0.4511195   1.008000   ; qtot -0.000002
; residue  143 ccc rtp ccc q 0.0
 3634          n    143    ccc     N1   3634 -0.87251700  14.010000   ; qtot -0.872519
 3635         hn    143    ccc     H1   3635 0.46040000   1.008000   ; qtot -0.412119
 3636         c3    143    ccc     C1   3636 0.65477900  12.010000   ; qtot 0.242660
 3637         h1    143    ccc     H2   3637 -0.08959600   1.008000   ; qtot 0.153064
 3638         c3    143    ccc     C2   3638 0.03619700  12.010000   ; qtot 0.189261
 3639         h1    143    ccc     H3   3639 -0.08959600   1.008000   ; qtot 0.099665
 3640         h1    143    ccc     H4   3640 0.06927800   1.008000   ; qtot 0.168943
 3641         h1    143    ccc     H5   3641 0.06927800   1.008000   ; qtot 0.238221
 3642         n3    143    ccc     N2   3642 -0.61358100  14.010000   ; qtot -0.375360
 3643         c3    143    ccc     C3   3643 0.17944400  12.010000   ; qtot -0.195916
 3644         c3    143    ccc     C4   3644 0.17944400  12.010000   ; qtot -0.016472
 3645         h1    143    ccc     H6   3645 0.07335800   1.008000   ; qtot 0.056886
 3646         c3    143    ccc     C5   3646 -0.49079800  12.010000   ; qtot -0.433912
 3647         h1    143    ccc     H7   3647 0.07335800   1.008000   ; qtot -0.360554
 3648         hc    143    ccc     H8   3648 0.15101200   1.008000   ; qtot -0.209542
 3649         hc    143    ccc     H9   3649 0.15101200   1.008000   ; qtot -0.058530
 3650          c    143    ccc     C6   3650 0.558828  12.010000   ; qtot 0.943669
 3651         oh    143    ccc     O1   3651 -0.56822625  16.000000   ; qtot 0.170583
 3652          o    143    ccc     O2   3652 -0.39142825  16.000000   ; qtot -0.493755
 3653         h1    143    ccc    H10   3653 0.07335800   1.008000   ; qtot -0.420397
 3654         h1    143    ccc    H11   3654 0.07335800   1.008000   ; qtot -0.347039
 3655         c3    143    ccc     C7   3655 -0.49079800  12.010000   ; qtot -0.837837
 3656         hc    143    ccc    H12   3656 0.15101200   1.008000   ; qtot -0.686825
 3657         hc    143    ccc    H13   3657 0.15101200   1.008000   ; qtot -0.535813
 3658          c    143    ccc     C8   3658 0.558828  12.010000   ; qtot 0.466386
 3659          o    143    ccc     O3   3659 -0.39142825  16.000000   ; qtot -0.197952
 3660         oh    143    ccc     O4   3660 -0.56822625  16.000000   ; qtot -0.971038
 3661         ho    143    ccc    H14   3661 0.4511195   1.008000   ; qtot -0.485520
 3662         ho    143    ccc    H15   3662 0.4511195   1.008000   ; qtot -0.000002
; residue  144 ccc rtp ccc q 0.0
 3663          n    144    ccc     N1   3663 -0.87251700  14.010000   ; qtot -0.872519
 3664         hn    144    ccc     H1   3664 0.46040000   1.008000   ; qtot -0.412119
 3665         c3    144    ccc     C1   3665 0.65477900  12.010000   ; qtot 0.242660
 3666         h1    144    ccc     H2   3666 -0.08959600   1.008000   ; qtot 0.153064
 3667         c3    144    ccc     C2   3667 0.03619700  12.010000   ; qtot 0.189261
 3668         h1    144    ccc     H3   3668 -0.08959600   1.008000   ; qtot 0.099665
 3669         h1    144    ccc     H4   3669 0.06927800   1.008000   ; qtot 0.168943
 3670         h1    144    ccc     H5   3670 0.06927800   1.008000   ; qtot 0.238221
 3671         n3    144    ccc     N2   3671 -0.61358100  14.010000   ; qtot -0.375360
 3672         c3    144    ccc     C3   3672 0.17944400  12.010000   ; qtot -0.195916
 3673         c3    144    ccc     C4   3673 0.17944400  12.010000   ; qtot -0.016472
 3674         h1    144    ccc     H6   3674 0.07335800   1.008000   ; qtot 0.056886
 3675         c3    144    ccc     C5   3675 -0.49079800  12.010000   ; qtot -0.433912
 3676         h1    144    ccc     H7   3676 0.07335800   1.008000   ; qtot -0.360554
 3677         hc    144    ccc     H8   3677 0.15101200   1.008000   ; qtot -0.209542
 3678         hc    144    ccc     H9   3678 0.15101200   1.008000   ; qtot -0.058530
 3679          c    144    ccc     C6   3679 0.558828  12.010000   ; qtot 0.943669
 3680         oh    144    ccc     O1   3680 -0.56822625  16.000000   ; qtot 0.170583
 3681          o    144    ccc     O2   3681 -0.39142825  16.000000   ; qtot -0.493755
 3682         h1    144    ccc    H10   3682 0.07335800   1.008000   ; qtot -0.420397
 3683         h1    144    ccc    H11   3683 0.07335800   1.008000   ; qtot -0.347039
 3684         c3    144    ccc     C7   3684 -0.49079800  12.010000   ; qtot -0.837837
 3685         hc    144    ccc    H12   3685 0.15101200   1.008000   ; qtot -0.686825
 3686         hc    144    ccc    H13   3686 0.15101200   1.008000   ; qtot -0.535813
 3687          c    144    ccc     C8   3687 0.558828  12.010000   ; qtot 0.466386
 3688          o    144    ccc     O3   3688 -0.39142825  16.000000   ; qtot -0.197952
 3689         oh    144    ccc     O4   3689 -0.56822625  16.000000   ; qtot -0.971038
 3690         ho    144    ccc    H14   3690 0.4511195   1.008000   ; qtot -0.485520
 3691         ho    144    ccc    H15   3691 0.4511195   1.008000   ; qtot -0.000002
; residue  145 ccc rtp ccc q 0.0
 3692          n    145    ccc     N1   3692 -0.87251700  14.010000   ; qtot -0.872519
 3693         hn    145    ccc     H1   3693 0.46040000   1.008000   ; qtot -0.412119
 3694         c3    145    ccc     C1   3694 0.65477900  12.010000   ; qtot 0.242660
 3695         h1    145    ccc     H2   3695 -0.08959600   1.008000   ; qtot 0.153064
 3696         c3    145    ccc     C2   3696 0.03619700  12.010000   ; qtot 0.189261
 3697         h1    145    ccc     H3   3697 -0.08959600   1.008000   ; qtot 0.099665
 3698         h1    145    ccc     H4   3698 0.06927800   1.008000   ; qtot 0.168943
 3699         h1    145    ccc     H5   3699 0.06927800   1.008000   ; qtot 0.238221
 3700         n3    145    ccc     N2   3700 -0.61358100  14.010000   ; qtot -0.375360
 3701         c3    145    ccc     C3   3701 0.17944400  12.010000   ; qtot -0.195916
 3702         c3    145    ccc     C4   3702 0.17944400  12.010000   ; qtot -0.016472
 3703         h1    145    ccc     H6   3703 0.07335800   1.008000   ; qtot 0.056886
 3704         c3    145    ccc     C5   3704 -0.49079800  12.010000   ; qtot -0.433912
 3705         h1    145    ccc     H7   3705 0.07335800   1.008000   ; qtot -0.360554
 3706         hc    145    ccc     H8   3706 0.15101200   1.008000   ; qtot -0.209542
 3707         hc    145    ccc     H9   3707 0.15101200   1.008000   ; qtot -0.058530
 3708          c    145    ccc     C6   3708 0.558828  12.010000   ; qtot 0.943669
 3709         oh    145    ccc     O1   3709 -0.56822625  16.000000   ; qtot 0.170583
 3710          o    145    ccc     O2   3710 -0.39142825  16.000000   ; qtot -0.493755
 3711         h1    145    ccc    H10   3711 0.07335800   1.008000   ; qtot -0.420397
 3712         h1    145    ccc    H11   3712 0.07335800   1.008000   ; qtot -0.347039
 3713         c3    145    ccc     C7   3713 -0.49079800  12.010000   ; qtot -0.837837
 3714         hc    145    ccc    H12   3714 0.15101200   1.008000   ; qtot -0.686825
 3715         hc    145    ccc    H13   3715 0.15101200   1.008000   ; qtot -0.535813
 3716          c    145    ccc     C8   3716 0.558828  12.010000   ; qtot 0.466386
 3717          o    145    ccc     O3   3717 -0.39142825  16.000000   ; qtot -0.197952
 3718         oh    145    ccc     O4   3718 -0.56822625  16.000000   ; qtot -0.971038
 3719         ho    145    ccc    H14   3719 0.4511195   1.008000   ; qtot -0.485520
 3720         ho    145    ccc    H15   3720 0.4511195   1.008000   ; qtot -0.000002
; residue  146 ccc rtp ccc q 0.0
 3721          n    146    ccc     N1   3721 -0.87251700  14.010000   ; qtot -0.872519
 3722         hn    146    ccc     H1   3722 0.46040000   1.008000   ; qtot -0.412119
 3723         c3    146    ccc     C1   3723 0.65477900  12.010000   ; qtot 0.242660
 3724         h1    146    ccc     H2   3724 -0.08959600   1.008000   ; qtot 0.153064
 3725         c3    146    ccc     C2   3725 0.03619700  12.010000   ; qtot 0.189261
 3726         h1    146    ccc     H3   3726 -0.08959600   1.008000   ; qtot 0.099665
 3727         h1    146    ccc     H4   3727 0.06927800   1.008000   ; qtot 0.168943
 3728         h1    146    ccc     H5   3728 0.06927800   1.008000   ; qtot 0.238221
 3729         n3    146    ccc     N2   3729 -0.61358100  14.010000   ; qtot -0.375360
 3730         c3    146    ccc     C3   3730 0.17944400  12.010000   ; qtot -0.195916
 3731         c3    146    ccc     C4   3731 0.17944400  12.010000   ; qtot -0.016472
 3732         h1    146    ccc     H6   3732 0.07335800   1.008000   ; qtot 0.056886
 3733         c3    146    ccc     C5   3733 -0.49079800  12.010000   ; qtot -0.433912
 3734         h1    146    ccc     H7   3734 0.07335800   1.008000   ; qtot -0.360554
 3735         hc    146    ccc     H8   3735 0.15101200   1.008000   ; qtot -0.209542
 3736         hc    146    ccc     H9   3736 0.15101200   1.008000   ; qtot -0.058530
 3737          c    146    ccc     C6   3737 0.558828  12.010000   ; qtot 0.943669
 3738         oh    146    ccc     O1   3738 -0.56822625  16.000000   ; qtot 0.170583
 3739          o    146    ccc     O2   3739 -0.39142825  16.000000   ; qtot -0.493755
 3740         h1    146    ccc    H10   3740 0.07335800   1.008000   ; qtot -0.420397
 3741         h1    146    ccc    H11   3741 0.07335800   1.008000   ; qtot -0.347039
 3742         c3    146    ccc     C7   3742 -0.49079800  12.010000   ; qtot -0.837837
 3743         hc    146    ccc    H12   3743 0.15101200   1.008000   ; qtot -0.686825
 3744         hc    146    ccc    H13   3744 0.15101200   1.008000   ; qtot -0.535813
 3745          c    146    ccc     C8   3745 0.558828  12.010000   ; qtot 0.466386
 3746          o    146    ccc     O3   3746 -0.39142825  16.000000   ; qtot -0.197952
 3747         oh    146    ccc     O4   3747 -0.56822625  16.000000   ; qtot -0.971038
 3748         ho    146    ccc    H14   3748 0.4511195   1.008000   ; qtot -0.485520
 3749         ho    146    ccc    H15   3749 0.4511195   1.008000   ; qtot -0.000002
; residue  147 ccc rtp ccc q 0.0
 3750          n    147    ccc     N1   3750 -0.87251700  14.010000   ; qtot -0.872519
 3751         hn    147    ccc     H1   3751 0.46040000   1.008000   ; qtot -0.412119
 3752         c3    147    ccc     C1   3752 0.65477900  12.010000   ; qtot 0.242660
 3753         h1    147    ccc     H2   3753 -0.08959600   1.008000   ; qtot 0.153064
 3754         c3    147    ccc     C2   3754 0.03619700  12.010000   ; qtot 0.189261
 3755         h1    147    ccc     H3   3755 -0.08959600   1.008000   ; qtot 0.099665
 3756         h1    147    ccc     H4   3756 0.06927800   1.008000   ; qtot 0.168943
 3757         h1    147    ccc     H5   3757 0.06927800   1.008000   ; qtot 0.238221
 3758         n3    147    ccc     N2   3758 -0.61358100  14.010000   ; qtot -0.375360
 3759         c3    147    ccc     C3   3759 0.17944400  12.010000   ; qtot -0.195916
 3760         c3    147    ccc     C4   3760 0.17944400  12.010000   ; qtot -0.016472
 3761         h1    147    ccc     H6   3761 0.07335800   1.008000   ; qtot 0.056886
 3762         c3    147    ccc     C5   3762 -0.49079800  12.010000   ; qtot -0.433912
 3763         h1    147    ccc     H7   3763 0.07335800   1.008000   ; qtot -0.360554
 3764         hc    147    ccc     H8   3764 0.15101200   1.008000   ; qtot -0.209542
 3765         hc    147    ccc     H9   3765 0.15101200   1.008000   ; qtot -0.058530
 3766          c    147    ccc     C6   3766 0.558828  12.010000   ; qtot 0.943669
 3767         oh    147    ccc     O1   3767 -0.56822625  16.000000   ; qtot 0.170583
 3768          o    147    ccc     O2   3768 -0.39142825  16.000000   ; qtot -0.493755
 3769         h1    147    ccc    H10   3769 0.07335800   1.008000   ; qtot -0.420397
 3770         h1    147    ccc    H11   3770 0.07335800   1.008000   ; qtot -0.347039
 3771         c3    147    ccc     C7   3771 -0.49079800  12.010000   ; qtot -0.837837
 3772         hc    147    ccc    H12   3772 0.15101200   1.008000   ; qtot -0.686825
 3773         hc    147    ccc    H13   3773 0.15101200   1.008000   ; qtot -0.535813
 3774          c    147    ccc     C8   3774 0.558828  12.010000   ; qtot 0.466386
 3775          o    147    ccc     O3   3775 -0.39142825  16.000000   ; qtot -0.197952
 3776         oh    147    ccc     O4   3776 -0.56822625  16.000000   ; qtot -0.971038
 3777         ho    147    ccc    H14   3777 0.4511195   1.008000   ; qtot -0.485520
 3778         ho    147    ccc    H15   3778 0.4511195   1.008000   ; qtot -0.000002
; residue  148 ccc rtp ccc q 0.0
 3779          n    148    ccc     N1   3779 -0.87251700  14.010000   ; qtot -0.872519
 3780         hn    148    ccc     H1   3780 0.46040000   1.008000   ; qtot -0.412119
 3781         c3    148    ccc     C1   3781 0.65477900  12.010000   ; qtot 0.242660
 3782         h1    148    ccc     H2   3782 -0.08959600   1.008000   ; qtot 0.153064
 3783         c3    148    ccc     C2   3783 0.03619700  12.010000   ; qtot 0.189261
 3784         h1    148    ccc     H3   3784 -0.08959600   1.008000   ; qtot 0.099665
 3785         h1    148    ccc     H4   3785 0.06927800   1.008000   ; qtot 0.168943
 3786         h1    148    ccc     H5   3786 0.06927800   1.008000   ; qtot 0.238221
 3787         n3    148    ccc     N2   3787 -0.61358100  14.010000   ; qtot -0.375360
 3788         c3    148    ccc     C3   3788 0.17944400  12.010000   ; qtot -0.195916
 3789         c3    148    ccc     C4   3789 0.17944400  12.010000   ; qtot -0.016472
 3790         h1    148    ccc     H6   3790 0.07335800   1.008000   ; qtot 0.056886
 3791         c3    148    ccc     C5   3791 -0.49079800  12.010000   ; qtot -0.433912
 3792         h1    148    ccc     H7   3792 0.07335800   1.008000   ; qtot -0.360554
 3793         hc    148    ccc     H8   3793 0.15101200   1.008000   ; qtot -0.209542
 3794         hc    148    ccc     H9   3794 0.15101200   1.008000   ; qtot -0.058530
 3795          c    148    ccc     C6   3795 0.558828  12.010000   ; qtot 0.943669
 3796         oh    148    ccc     O1   3796 -0.56822625  16.000000   ; qtot 0.170583
 3797          o    148    ccc     O2   3797 -0.39142825  16.000000   ; qtot -0.493755
 3798         h1    148    ccc    H10   3798 0.07335800   1.008000   ; qtot -0.420397
 3799         h1    148    ccc    H11   3799 0.07335800   1.008000   ; qtot -0.347039
 3800         c3    148    ccc     C7   3800 -0.49079800  12.010000   ; qtot -0.837837
 3801         hc    148    ccc    H12   3801 0.15101200   1.008000   ; qtot -0.686825
 3802         hc    148    ccc    H13   3802 0.15101200   1.008000   ; qtot -0.535813
 3803          c    148    ccc     C8   3803 0.558828  12.010000   ; qtot 0.466386
 3804          o    148    ccc     O3   3804 -0.39142825  16.000000   ; qtot -0.197952
 3805         oh    148    ccc     O4   3805 -0.56822625  16.000000   ; qtot -0.971038
 3806         ho    148    ccc    H14   3806 0.4511195   1.008000   ; qtot -0.485520
 3807         ho    148    ccc    H15   3807 0.4511195   1.008000   ; qtot -0.000002
; residue  149 ccc rtp ccc q 0.0
 3808          n    149    ccc     N1   3808 -0.87251700  14.010000   ; qtot -0.872519
 3809         hn    149    ccc     H1   3809 0.46040000   1.008000   ; qtot -0.412119
 3810         c3    149    ccc     C1   3810 0.65477900  12.010000   ; qtot 0.242660
 3811         h1    149    ccc     H2   3811 -0.08959600   1.008000   ; qtot 0.153064
 3812         c3    149    ccc     C2   3812 0.03619700  12.010000   ; qtot 0.189261
 3813         h1    149    ccc     H3   3813 -0.08959600   1.008000   ; qtot 0.099665
 3814         h1    149    ccc     H4   3814 0.06927800   1.008000   ; qtot 0.168943
 3815         h1    149    ccc     H5   3815 0.06927800   1.008000   ; qtot 0.238221
 3816         n3    149    ccc     N2   3816 -0.61358100  14.010000   ; qtot -0.375360
 3817         c3    149    ccc     C3   3817 0.17944400  12.010000   ; qtot -0.195916
 3818         c3    149    ccc     C4   3818 0.17944400  12.010000   ; qtot -0.016472
 3819         h1    149    ccc     H6   3819 0.07335800   1.008000   ; qtot 0.056886
 3820         c3    149    ccc     C5   3820 -0.49079800  12.010000   ; qtot -0.433912
 3821         h1    149    ccc     H7   3821 0.07335800   1.008000   ; qtot -0.360554
 3822         hc    149    ccc     H8   3822 0.15101200   1.008000   ; qtot -0.209542
 3823         hc    149    ccc     H9   3823 0.15101200   1.008000   ; qtot -0.058530
 3824          c    149    ccc     C6   3824 0.558828  12.010000   ; qtot 0.943669
 3825         oh    149    ccc     O1   3825 -0.56822625  16.000000   ; qtot 0.170583
 3826          o    149    ccc     O2   3826 -0.39142825  16.000000   ; qtot -0.493755
 3827         h1    149    ccc    H10   3827 0.07335800   1.008000   ; qtot -0.420397
 3828         h1    149    ccc    H11   3828 0.07335800   1.008000   ; qtot -0.347039
 3829         c3    149    ccc     C7   3829 -0.49079800  12.010000   ; qtot -0.837837
 3830         hc    149    ccc    H12   3830 0.15101200   1.008000   ; qtot -0.686825
 3831         hc    149    ccc    H13   3831 0.15101200   1.008000   ; qtot -0.535813
 3832          c    149    ccc     C8   3832 0.558828  12.010000   ; qtot 0.466386
 3833          o    149    ccc     O3   3833 -0.39142825  16.000000   ; qtot -0.197952
 3834         oh    149    ccc     O4   3834 -0.56822625  16.000000   ; qtot -0.971038
 3835         ho    149    ccc    H14   3835 0.4511195   1.008000   ; qtot -0.485520
 3836         ho    149    ccc    H15   3836 0.4511195   1.008000   ; qtot -0.000002
; residue  150 ccc rtp ccc q 0.0
 3837          n    150    ccc     N1   3837 -0.87251700  14.010000   ; qtot -0.872519
 3838         hn    150    ccc     H1   3838 0.46040000   1.008000   ; qtot -0.412119
 3839         c3    150    ccc     C1   3839 0.65477900  12.010000   ; qtot 0.242660
 3840         h1    150    ccc     H2   3840 -0.08959600   1.008000   ; qtot 0.153064
 3841         c3    150    ccc     C2   3841 0.03619700  12.010000   ; qtot 0.189261
 3842         h1    150    ccc     H3   3842 -0.08959600   1.008000   ; qtot 0.099665
 3843         h1    150    ccc     H4   3843 0.06927800   1.008000   ; qtot 0.168943
 3844         h1    150    ccc     H5   3844 0.06927800   1.008000   ; qtot 0.238221
 3845         n3    150    ccc     N2   3845 -0.61358100  14.010000   ; qtot -0.375360
 3846         c3    150    ccc     C3   3846 0.17944400  12.010000   ; qtot -0.195916
 3847         c3    150    ccc     C4   3847 0.17944400  12.010000   ; qtot -0.016472
 3848         h1    150    ccc     H6   3848 0.07335800   1.008000   ; qtot 0.056886
 3849         c3    150    ccc     C5   3849 -0.49079800  12.010000   ; qtot -0.433912
 3850         h1    150    ccc     H7   3850 0.07335800   1.008000   ; qtot -0.360554
 3851         hc    150    ccc     H8   3851 0.15101200   1.008000   ; qtot -0.209542
 3852         hc    150    ccc     H9   3852 0.15101200   1.008000   ; qtot -0.058530
 3853          c    150    ccc     C6   3853 0.558828  12.010000   ; qtot 0.943669
 3854         oh    150    ccc     O1   3854 -0.56822625  16.000000   ; qtot 0.170583
 3855          o    150    ccc     O2   3855 -0.39142825  16.000000   ; qtot -0.493755
 3856         h1    150    ccc    H10   3856 0.07335800   1.008000   ; qtot -0.420397
 3857         h1    150    ccc    H11   3857 0.07335800   1.008000   ; qtot -0.347039
 3858         c3    150    ccc     C7   3858 -0.49079800  12.010000   ; qtot -0.837837
 3859         hc    150    ccc    H12   3859 0.15101200   1.008000   ; qtot -0.686825
 3860         hc    150    ccc    H13   3860 0.15101200   1.008000   ; qtot -0.535813
 3861          c    150    ccc     C8   3861 0.558828  12.010000   ; qtot 0.466386
 3862          o    150    ccc     O3   3862 -0.39142825  16.000000   ; qtot -0.197952
 3863         oh    150    ccc     O4   3863 -0.56822625  16.000000   ; qtot -0.971038
 3864         ho    150    ccc    H14   3864 0.4511195   1.008000   ; qtot -0.485520
 3865         ho    150    ccc    H15   3865 0.4511195   1.008000   ; qtot -0.000002
; residue  151 ccc rtp ccc q 0.0
 3866          n    151    ccc     N1   3866 -0.87251700  14.010000   ; qtot -0.872519
 3867         hn    151    ccc     H1   3867 0.46040000   1.008000   ; qtot -0.412119
 3868         c3    151    ccc     C1   3868 0.65477900  12.010000   ; qtot 0.242660
 3869         h1    151    ccc     H2   3869 -0.08959600   1.008000   ; qtot 0.153064
 3870         c3    151    ccc     C2   3870 0.03619700  12.010000   ; qtot 0.189261
 3871         h1    151    ccc     H3   3871 -0.08959600   1.008000   ; qtot 0.099665
 3872         h1    151    ccc     H4   3872 0.06927800   1.008000   ; qtot 0.168943
 3873         h1    151    ccc     H5   3873 0.06927800   1.008000   ; qtot 0.238221
 3874         n3    151    ccc     N2   3874 -0.61358100  14.010000   ; qtot -0.375360
 3875         c3    151    ccc     C3   3875 0.17944400  12.010000   ; qtot -0.195916
 3876         c3    151    ccc     C4   3876 0.17944400  12.010000   ; qtot -0.016472
 3877         h1    151    ccc     H6   3877 0.07335800   1.008000   ; qtot 0.056886
 3878         c3    151    ccc     C5   3878 -0.49079800  12.010000   ; qtot -0.433912
 3879         h1    151    ccc     H7   3879 0.07335800   1.008000   ; qtot -0.360554
 3880         hc    151    ccc     H8   3880 0.15101200   1.008000   ; qtot -0.209542
 3881         hc    151    ccc     H9   3881 0.15101200   1.008000   ; qtot -0.058530
 3882          c    151    ccc     C6   3882 0.558828  12.010000   ; qtot 0.943669
 3883         oh    151    ccc     O1   3883 -0.56822625  16.000000   ; qtot 0.170583
 3884          o    151    ccc     O2   3884 -0.39142825  16.000000   ; qtot -0.493755
 3885         h1    151    ccc    H10   3885 0.07335800   1.008000   ; qtot -0.420397
 3886         h1    151    ccc    H11   3886 0.07335800   1.008000   ; qtot -0.347039
 3887         c3    151    ccc     C7   3887 -0.49079800  12.010000   ; qtot -0.837837
 3888         hc    151    ccc    H12   3888 0.15101200   1.008000   ; qtot -0.686825
 3889         hc    151    ccc    H13   3889 0.15101200   1.008000   ; qtot -0.535813
 3890          c    151    ccc     C8   3890 0.558828  12.010000   ; qtot 0.466386
 3891          o    151    ccc     O3   3891 -0.39142825  16.000000   ; qtot -0.197952
 3892         oh    151    ccc     O4   3892 -0.56822625  16.000000   ; qtot -0.971038
 3893         ho    151    ccc    H14   3893 0.4511195   1.008000   ; qtot -0.485520
 3894         ho    151    ccc    H15   3894 0.4511195   1.008000   ; qtot -0.000002
; residue  152 ccc rtp ccc q 0.0
 3895          n    152    ccc     N1   3895 -0.87251700  14.010000   ; qtot -0.872519
 3896         hn    152    ccc     H1   3896 0.46040000   1.008000   ; qtot -0.412119
 3897         c3    152    ccc     C1   3897 0.65477900  12.010000   ; qtot 0.242660
 3898         h1    152    ccc     H2   3898 -0.08959600   1.008000   ; qtot 0.153064
 3899         c3    152    ccc     C2   3899 0.03619700  12.010000   ; qtot 0.189261
 3900         h1    152    ccc     H3   3900 -0.08959600   1.008000   ; qtot 0.099665
 3901         h1    152    ccc     H4   3901 0.06927800   1.008000   ; qtot 0.168943
 3902         h1    152    ccc     H5   3902 0.06927800   1.008000   ; qtot 0.238221
 3903         n3    152    ccc     N2   3903 -0.61358100  14.010000   ; qtot -0.375360
 3904         c3    152    ccc     C3   3904 0.17944400  12.010000   ; qtot -0.195916
 3905         c3    152    ccc     C4   3905 0.17944400  12.010000   ; qtot -0.016472
 3906         h1    152    ccc     H6   3906 0.07335800   1.008000   ; qtot 0.056886
 3907         c3    152    ccc     C5   3907 -0.49079800  12.010000   ; qtot -0.433912
 3908         h1    152    ccc     H7   3908 0.07335800   1.008000   ; qtot -0.360554
 3909         hc    152    ccc     H8   3909 0.15101200   1.008000   ; qtot -0.209542
 3910         hc    152    ccc     H9   3910 0.15101200   1.008000   ; qtot -0.058530
 3911          c    152    ccc     C6   3911 0.558828  12.010000   ; qtot 0.943669
 3912         oh    152    ccc     O1   3912 -0.56822625  16.000000   ; qtot 0.170583
 3913          o    152    ccc     O2   3913 -0.39142825  16.000000   ; qtot -0.493755
 3914         h1    152    ccc    H10   3914 0.07335800   1.008000   ; qtot -0.420397
 3915         h1    152    ccc    H11   3915 0.07335800   1.008000   ; qtot -0.347039
 3916         c3    152    ccc     C7   3916 -0.49079800  12.010000   ; qtot -0.837837
 3917         hc    152    ccc    H12   3917 0.15101200   1.008000   ; qtot -0.686825
 3918         hc    152    ccc    H13   3918 0.15101200   1.008000   ; qtot -0.535813
 3919          c    152    ccc     C8   3919 0.558828  12.010000   ; qtot 0.466386
 3920          o    152    ccc     O3   3920 -0.39142825  16.000000   ; qtot -0.197952
 3921         oh    152    ccc     O4   3921 -0.56822625  16.000000   ; qtot -0.971038
 3922         ho    152    ccc    H14   3922 0.4511195   1.008000   ; qtot -0.485520
 3923         ho    152    ccc    H15   3923 0.4511195   1.008000   ; qtot -0.000002
; residue  153 ccc rtp ccc q 0.0
 3924          n    153    ccc     N1   3924 -0.87251700  14.010000   ; qtot -0.872519
 3925         hn    153    ccc     H1   3925 0.46040000   1.008000   ; qtot -0.412119
 3926         c3    153    ccc     C1   3926 0.65477900  12.010000   ; qtot 0.242660
 3927         h1    153    ccc     H2   3927 -0.08959600   1.008000   ; qtot 0.153064
 3928         c3    153    ccc     C2   3928 0.03619700  12.010000   ; qtot 0.189261
 3929         h1    153    ccc     H3   3929 -0.08959600   1.008000   ; qtot 0.099665
 3930         h1    153    ccc     H4   3930 0.06927800   1.008000   ; qtot 0.168943
 3931         h1    153    ccc     H5   3931 0.06927800   1.008000   ; qtot 0.238221
 3932         n3    153    ccc     N2   3932 -0.61358100  14.010000   ; qtot -0.375360
 3933         c3    153    ccc     C3   3933 0.17944400  12.010000   ; qtot -0.195916
 3934         c3    153    ccc     C4   3934 0.17944400  12.010000   ; qtot -0.016472
 3935         h1    153    ccc     H6   3935 0.07335800   1.008000   ; qtot 0.056886
 3936         c3    153    ccc     C5   3936 -0.49079800  12.010000   ; qtot -0.433912
 3937         h1    153    ccc     H7   3937 0.07335800   1.008000   ; qtot -0.360554
 3938         hc    153    ccc     H8   3938 0.15101200   1.008000   ; qtot -0.209542
 3939         hc    153    ccc     H9   3939 0.15101200   1.008000   ; qtot -0.058530
 3940          c    153    ccc     C6   3940 0.558828  12.010000   ; qtot 0.943669
 3941         oh    153    ccc     O1   3941 -0.56822625  16.000000   ; qtot 0.170583
 3942          o    153    ccc     O2   3942 -0.39142825  16.000000   ; qtot -0.493755
 3943         h1    153    ccc    H10   3943 0.07335800   1.008000   ; qtot -0.420397
 3944         h1    153    ccc    H11   3944 0.07335800   1.008000   ; qtot -0.347039
 3945         c3    153    ccc     C7   3945 -0.49079800  12.010000   ; qtot -0.837837
 3946         hc    153    ccc    H12   3946 0.15101200   1.008000   ; qtot -0.686825
 3947         hc    153    ccc    H13   3947 0.15101200   1.008000   ; qtot -0.535813
 3948          c    153    ccc     C8   3948 0.558828  12.010000   ; qtot 0.466386
 3949          o    153    ccc     O3   3949 -0.39142825  16.000000   ; qtot -0.197952
 3950         oh    153    ccc     O4   3950 -0.56822625  16.000000   ; qtot -0.971038
 3951         ho    153    ccc    H14   3951 0.4511195   1.008000   ; qtot -0.485520
 3952         ho    153    ccc    H15   3952 0.4511195   1.008000   ; qtot -0.000002
; residue  154 ccc rtp ccc q 0.0
 3953          n    154    ccc     N1   3953 -0.87251700  14.010000   ; qtot -0.872519
 3954         hn    154    ccc     H1   3954 0.46040000   1.008000   ; qtot -0.412119
 3955         c3    154    ccc     C1   3955 0.65477900  12.010000   ; qtot 0.242660
 3956         h1    154    ccc     H2   3956 -0.08959600   1.008000   ; qtot 0.153064
 3957         c3    154    ccc     C2   3957 0.03619700  12.010000   ; qtot 0.189261
 3958         h1    154    ccc     H3   3958 -0.08959600   1.008000   ; qtot 0.099665
 3959         h1    154    ccc     H4   3959 0.06927800   1.008000   ; qtot 0.168943
 3960         h1    154    ccc     H5   3960 0.06927800   1.008000   ; qtot 0.238221
 3961         n3    154    ccc     N2   3961 -0.61358100  14.010000   ; qtot -0.375360
 3962         c3    154    ccc     C3   3962 0.17944400  12.010000   ; qtot -0.195916
 3963         c3    154    ccc     C4   3963 0.17944400  12.010000   ; qtot -0.016472
 3964         h1    154    ccc     H6   3964 0.07335800   1.008000   ; qtot 0.056886
 3965         c3    154    ccc     C5   3965 -0.49079800  12.010000   ; qtot -0.433912
 3966         h1    154    ccc     H7   3966 0.07335800   1.008000   ; qtot -0.360554
 3967         hc    154    ccc     H8   3967 0.15101200   1.008000   ; qtot -0.209542
 3968         hc    154    ccc     H9   3968 0.15101200   1.008000   ; qtot -0.058530
 3969          c    154    ccc     C6   3969 0.558828  12.010000   ; qtot 0.943669
 3970         oh    154    ccc     O1   3970 -0.56822625  16.000000   ; qtot 0.170583
 3971          o    154    ccc     O2   3971 -0.39142825  16.000000   ; qtot -0.493755
 3972         h1    154    ccc    H10   3972 0.07335800   1.008000   ; qtot -0.420397
 3973         h1    154    ccc    H11   3973 0.07335800   1.008000   ; qtot -0.347039
 3974         c3    154    ccc     C7   3974 -0.49079800  12.010000   ; qtot -0.837837
 3975         hc    154    ccc    H12   3975 0.15101200   1.008000   ; qtot -0.686825
 3976         hc    154    ccc    H13   3976 0.15101200   1.008000   ; qtot -0.535813
 3977          c    154    ccc     C8   3977 0.558828  12.010000   ; qtot 0.466386
 3978          o    154    ccc     O3   3978 -0.39142825  16.000000   ; qtot -0.197952
 3979         oh    154    ccc     O4   3979 -0.56822625  16.000000   ; qtot -0.971038
 3980         ho    154    ccc    H14   3980 0.4511195   1.008000   ; qtot -0.485520
 3981         ho    154    ccc    H15   3981 0.4511195   1.008000   ; qtot -0.000002
; residue  155 ccc rtp ccc q 0.0
 3982          n    155    ccc     N1   3982 -0.87251700  14.010000   ; qtot -0.872519
 3983         hn    155    ccc     H1   3983 0.46040000   1.008000   ; qtot -0.412119
 3984         c3    155    ccc     C1   3984 0.65477900  12.010000   ; qtot 0.242660
 3985         h1    155    ccc     H2   3985 -0.08959600   1.008000   ; qtot 0.153064
 3986         c3    155    ccc     C2   3986 0.03619700  12.010000   ; qtot 0.189261
 3987         h1    155    ccc     H3   3987 -0.08959600   1.008000   ; qtot 0.099665
 3988         h1    155    ccc     H4   3988 0.06927800   1.008000   ; qtot 0.168943
 3989         h1    155    ccc     H5   3989 0.06927800   1.008000   ; qtot 0.238221
 3990         n3    155    ccc     N2   3990 -0.61358100  14.010000   ; qtot -0.375360
 3991         c3    155    ccc     C3   3991 0.17944400  12.010000   ; qtot -0.195916
 3992         c3    155    ccc     C4   3992 0.17944400  12.010000   ; qtot -0.016472
 3993         h1    155    ccc     H6   3993 0.07335800   1.008000   ; qtot 0.056886
 3994         c3    155    ccc     C5   3994 -0.49079800  12.010000   ; qtot -0.433912
 3995         h1    155    ccc     H7   3995 0.07335800   1.008000   ; qtot -0.360554
 3996         hc    155    ccc     H8   3996 0.15101200   1.008000   ; qtot -0.209542
 3997         hc    155    ccc     H9   3997 0.15101200   1.008000   ; qtot -0.058530
 3998          c    155    ccc     C6   3998 0.558828  12.010000   ; qtot 0.943669
 3999         oh    155    ccc     O1   3999 -0.56822625  16.000000   ; qtot 0.170583
 4000          o    155    ccc     O2   4000 -0.39142825  16.000000   ; qtot -0.493755
 4001         h1    155    ccc    H10   4001 0.07335800   1.008000   ; qtot -0.420397
 4002         h1    155    ccc    H11   4002 0.07335800   1.008000   ; qtot -0.347039
 4003         c3    155    ccc     C7   4003 -0.49079800  12.010000   ; qtot -0.837837
 4004         hc    155    ccc    H12   4004 0.15101200   1.008000   ; qtot -0.686825
 4005         hc    155    ccc    H13   4005 0.15101200   1.008000   ; qtot -0.535813
 4006          c    155    ccc     C8   4006 0.558828  12.010000   ; qtot 0.466386
 4007          o    155    ccc     O3   4007 -0.39142825  16.000000   ; qtot -0.197952
 4008         oh    155    ccc     O4   4008 -0.56822625  16.000000   ; qtot -0.971038
 4009         ho    155    ccc    H14   4009 0.4511195   1.008000   ; qtot -0.485520
 4010         ho    155    ccc    H15   4010 0.4511195   1.008000   ; qtot -0.000002
; residue  156 ccc rtp ccc q 0.0
 4011          n    156    ccc     N1   4011 -0.87251700  14.010000   ; qtot -0.872519
 4012         hn    156    ccc     H1   4012 0.46040000   1.008000   ; qtot -0.412119
 4013         c3    156    ccc     C1   4013 0.65477900  12.010000   ; qtot 0.242660
 4014         h1    156    ccc     H2   4014 -0.08959600   1.008000   ; qtot 0.153064
 4015         c3    156    ccc     C2   4015 0.03619700  12.010000   ; qtot 0.189261
 4016         h1    156    ccc     H3   4016 -0.08959600   1.008000   ; qtot 0.099665
 4017         h1    156    ccc     H4   4017 0.06927800   1.008000   ; qtot 0.168943
 4018         h1    156    ccc     H5   4018 0.06927800   1.008000   ; qtot 0.238221
 4019         n3    156    ccc     N2   4019 -0.61358100  14.010000   ; qtot -0.375360
 4020         c3    156    ccc     C3   4020 0.17944400  12.010000   ; qtot -0.195916
 4021         c3    156    ccc     C4   4021 0.17944400  12.010000   ; qtot -0.016472
 4022         h1    156    ccc     H6   4022 0.07335800   1.008000   ; qtot 0.056886
 4023         c3    156    ccc     C5   4023 -0.49079800  12.010000   ; qtot -0.433912
 4024         h1    156    ccc     H7   4024 0.07335800   1.008000   ; qtot -0.360554
 4025         hc    156    ccc     H8   4025 0.15101200   1.008000   ; qtot -0.209542
 4026         hc    156    ccc     H9   4026 0.15101200   1.008000   ; qtot -0.058530
 4027          c    156    ccc     C6   4027 0.558828  12.010000   ; qtot 0.943669
 4028         oh    156    ccc     O1   4028 -0.56822625  16.000000   ; qtot 0.170583
 4029          o    156    ccc     O2   4029 -0.39142825  16.000000   ; qtot -0.493755
 4030         h1    156    ccc    H10   4030 0.07335800   1.008000   ; qtot -0.420397
 4031         h1    156    ccc    H11   4031 0.07335800   1.008000   ; qtot -0.347039
 4032         c3    156    ccc     C7   4032 -0.49079800  12.010000   ; qtot -0.837837
 4033         hc    156    ccc    H12   4033 0.15101200   1.008000   ; qtot -0.686825
 4034         hc    156    ccc    H13   4034 0.15101200   1.008000   ; qtot -0.535813
 4035          c    156    ccc     C8   4035 0.558828  12.010000   ; qtot 0.466386
 4036          o    156    ccc     O3   4036 -0.39142825  16.000000   ; qtot -0.197952
 4037         oh    156    ccc     O4   4037 -0.56822625  16.000000   ; qtot -0.971038
 4038         ho    156    ccc    H14   4038 0.4511195   1.008000   ; qtot -0.485520
 4039         ho    156    ccc    H15   4039 0.4511195   1.008000   ; qtot -0.000002
; residue  157 ccc rtp ccc q 0.0
 4040          n    157    ccc     N1   4040 -0.87251700  14.010000   ; qtot -0.872519
 4041         hn    157    ccc     H1   4041 0.46040000   1.008000   ; qtot -0.412119
 4042         c3    157    ccc     C1   4042 0.65477900  12.010000   ; qtot 0.242660
 4043         h1    157    ccc     H2   4043 -0.08959600   1.008000   ; qtot 0.153064
 4044         c3    157    ccc     C2   4044 0.03619700  12.010000   ; qtot 0.189261
 4045         h1    157    ccc     H3   4045 -0.08959600   1.008000   ; qtot 0.099665
 4046         h1    157    ccc     H4   4046 0.06927800   1.008000   ; qtot 0.168943
 4047         h1    157    ccc     H5   4047 0.06927800   1.008000   ; qtot 0.238221
 4048         n3    157    ccc     N2   4048 -0.61358100  14.010000   ; qtot -0.375360
 4049         c3    157    ccc     C3   4049 0.17944400  12.010000   ; qtot -0.195916
 4050         c3    157    ccc     C4   4050 0.17944400  12.010000   ; qtot -0.016472
 4051         h1    157    ccc     H6   4051 0.07335800   1.008000   ; qtot 0.056886
 4052         c3    157    ccc     C5   4052 -0.49079800  12.010000   ; qtot -0.433912
 4053         h1    157    ccc     H7   4053 0.07335800   1.008000   ; qtot -0.360554
 4054         hc    157    ccc     H8   4054 0.15101200   1.008000   ; qtot -0.209542
 4055         hc    157    ccc     H9   4055 0.15101200   1.008000   ; qtot -0.058530
 4056          c    157    ccc     C6   4056 0.558828  12.010000   ; qtot 0.943669
 4057         oh    157    ccc     O1   4057 -0.56822625  16.000000   ; qtot 0.170583
 4058          o    157    ccc     O2   4058 -0.39142825  16.000000   ; qtot -0.493755
 4059         h1    157    ccc    H10   4059 0.07335800   1.008000   ; qtot -0.420397
 4060         h1    157    ccc    H11   4060 0.07335800   1.008000   ; qtot -0.347039
 4061         c3    157    ccc     C7   4061 -0.49079800  12.010000   ; qtot -0.837837
 4062         hc    157    ccc    H12   4062 0.15101200   1.008000   ; qtot -0.686825
 4063         hc    157    ccc    H13   4063 0.15101200   1.008000   ; qtot -0.535813
 4064          c    157    ccc     C8   4064 0.558828  12.010000   ; qtot 0.466386
 4065          o    157    ccc     O3   4065 -0.39142825  16.000000   ; qtot -0.197952
 4066         oh    157    ccc     O4   4066 -0.56822625  16.000000   ; qtot -0.971038
 4067         ho    157    ccc    H14   4067 0.4511195   1.008000   ; qtot -0.485520
 4068         ho    157    ccc    H15   4068 0.4511195   1.008000   ; qtot -0.000002
; residue  158 ccc rtp ccc q 0.0
 4069          n    158    ccc     N1   4069 -0.87251700  14.010000   ; qtot -0.872519
 4070         hn    158    ccc     H1   4070 0.46040000   1.008000   ; qtot -0.412119
 4071         c3    158    ccc     C1   4071 0.65477900  12.010000   ; qtot 0.242660
 4072         h1    158    ccc     H2   4072 -0.08959600   1.008000   ; qtot 0.153064
 4073         c3    158    ccc     C2   4073 0.03619700  12.010000   ; qtot 0.189261
 4074         h1    158    ccc     H3   4074 -0.08959600   1.008000   ; qtot 0.099665
 4075         h1    158    ccc     H4   4075 0.06927800   1.008000   ; qtot 0.168943
 4076         h1    158    ccc     H5   4076 0.06927800   1.008000   ; qtot 0.238221
 4077         n3    158    ccc     N2   4077 -0.61358100  14.010000   ; qtot -0.375360
 4078         c3    158    ccc     C3   4078 0.17944400  12.010000   ; qtot -0.195916
 4079         c3    158    ccc     C4   4079 0.17944400  12.010000   ; qtot -0.016472
 4080         h1    158    ccc     H6   4080 0.07335800   1.008000   ; qtot 0.056886
 4081         c3    158    ccc     C5   4081 -0.49079800  12.010000   ; qtot -0.433912
 4082         h1    158    ccc     H7   4082 0.07335800   1.008000   ; qtot -0.360554
 4083         hc    158    ccc     H8   4083 0.15101200   1.008000   ; qtot -0.209542
 4084         hc    158    ccc     H9   4084 0.15101200   1.008000   ; qtot -0.058530
 4085          c    158    ccc     C6   4085 0.558828  12.010000   ; qtot 0.943669
 4086         oh    158    ccc     O1   4086 -0.56822625  16.000000   ; qtot 0.170583
 4087          o    158    ccc     O2   4087 -0.39142825  16.000000   ; qtot -0.493755
 4088         h1    158    ccc    H10   4088 0.07335800   1.008000   ; qtot -0.420397
 4089         h1    158    ccc    H11   4089 0.07335800   1.008000   ; qtot -0.347039
 4090         c3    158    ccc     C7   4090 -0.49079800  12.010000   ; qtot -0.837837
 4091         hc    158    ccc    H12   4091 0.15101200   1.008000   ; qtot -0.686825
 4092         hc    158    ccc    H13   4092 0.15101200   1.008000   ; qtot -0.535813
 4093          c    158    ccc     C8   4093 0.558828  12.010000   ; qtot 0.466386
 4094          o    158    ccc     O3   4094 -0.39142825  16.000000   ; qtot -0.197952
 4095         oh    158    ccc     O4   4095 -0.56822625  16.000000   ; qtot -0.971038
 4096         ho    158    ccc    H14   4096 0.4511195   1.008000   ; qtot -0.485520
 4097         ho    158    ccc    H15   4097 0.4511195   1.008000   ; qtot -0.000002
; residue  159 ccc rtp ccc q 0.0
 4098          n    159    ccc     N1   4098 -0.87251700  14.010000   ; qtot -0.872519
 4099         hn    159    ccc     H1   4099 0.46040000   1.008000   ; qtot -0.412119
 4100         c3    159    ccc     C1   4100 0.65477900  12.010000   ; qtot 0.242660
 4101         h1    159    ccc     H2   4101 -0.08959600   1.008000   ; qtot 0.153064
 4102         c3    159    ccc     C2   4102 0.03619700  12.010000   ; qtot 0.189261
 4103         h1    159    ccc     H3   4103 -0.08959600   1.008000   ; qtot 0.099665
 4104         h1    159    ccc     H4   4104 0.06927800   1.008000   ; qtot 0.168943
 4105         h1    159    ccc     H5   4105 0.06927800   1.008000   ; qtot 0.238221
 4106         n3    159    ccc     N2   4106 -0.61358100  14.010000   ; qtot -0.375360
 4107         c3    159    ccc     C3   4107 0.17944400  12.010000   ; qtot -0.195916
 4108         c3    159    ccc     C4   4108 0.17944400  12.010000   ; qtot -0.016472
 4109         h1    159    ccc     H6   4109 0.07335800   1.008000   ; qtot 0.056886
 4110         c3    159    ccc     C5   4110 -0.49079800  12.010000   ; qtot -0.433912
 4111         h1    159    ccc     H7   4111 0.07335800   1.008000   ; qtot -0.360554
 4112         hc    159    ccc     H8   4112 0.15101200   1.008000   ; qtot -0.209542
 4113         hc    159    ccc     H9   4113 0.15101200   1.008000   ; qtot -0.058530
 4114          c    159    ccc     C6   4114 0.558828  12.010000   ; qtot 0.943669
 4115         oh    159    ccc     O1   4115 -0.56822625  16.000000   ; qtot 0.170583
 4116          o    159    ccc     O2   4116 -0.39142825  16.000000   ; qtot -0.493755
 4117         h1    159    ccc    H10   4117 0.07335800   1.008000   ; qtot -0.420397
 4118         h1    159    ccc    H11   4118 0.07335800   1.008000   ; qtot -0.347039
 4119         c3    159    ccc     C7   4119 -0.49079800  12.010000   ; qtot -0.837837
 4120         hc    159    ccc    H12   4120 0.15101200   1.008000   ; qtot -0.686825
 4121         hc    159    ccc    H13   4121 0.15101200   1.008000   ; qtot -0.535813
 4122          c    159    ccc     C8   4122 0.558828  12.010000   ; qtot 0.466386
 4123          o    159    ccc     O3   4123 -0.39142825  16.000000   ; qtot -0.197952
 4124         oh    159    ccc     O4   4124 -0.56822625  16.000000   ; qtot -0.971038
 4125         ho    159    ccc    H14   4125 0.4511195   1.008000   ; qtot -0.485520
 4126         ho    159    ccc    H15   4126 0.4511195   1.008000   ; qtot -0.000002
; residue  160 ccc rtp ccc q 0.0
 4127          n    160    ccc     N1   4127 -0.87251700  14.010000   ; qtot -0.872519
 4128         hn    160    ccc     H1   4128 0.46040000   1.008000   ; qtot -0.412119
 4129         c3    160    ccc     C1   4129 0.65477900  12.010000   ; qtot 0.242660
 4130         h1    160    ccc     H2   4130 -0.08959600   1.008000   ; qtot 0.153064
 4131         c3    160    ccc     C2   4131 0.03619700  12.010000   ; qtot 0.189261
 4132         h1    160    ccc     H3   4132 -0.08959600   1.008000   ; qtot 0.099665
 4133         h1    160    ccc     H4   4133 0.06927800   1.008000   ; qtot 0.168943
 4134         h1    160    ccc     H5   4134 0.06927800   1.008000   ; qtot 0.238221
 4135         n3    160    ccc     N2   4135 -0.61358100  14.010000   ; qtot -0.375360
 4136         c3    160    ccc     C3   4136 0.17944400  12.010000   ; qtot -0.195916
 4137         c3    160    ccc     C4   4137 0.17944400  12.010000   ; qtot -0.016472
 4138         h1    160    ccc     H6   4138 0.07335800   1.008000   ; qtot 0.056886
 4139         c3    160    ccc     C5   4139 -0.49079800  12.010000   ; qtot -0.433912
 4140         h1    160    ccc     H7   4140 0.07335800   1.008000   ; qtot -0.360554
 4141         hc    160    ccc     H8   4141 0.15101200   1.008000   ; qtot -0.209542
 4142         hc    160    ccc     H9   4142 0.15101200   1.008000   ; qtot -0.058530
 4143          c    160    ccc     C6   4143 0.558828  12.010000   ; qtot 0.943669
 4144         oh    160    ccc     O1   4144 -0.56822625  16.000000   ; qtot 0.170583
 4145          o    160    ccc     O2   4145 -0.39142825  16.000000   ; qtot -0.493755
 4146         h1    160    ccc    H10   4146 0.07335800   1.008000   ; qtot -0.420397
 4147         h1    160    ccc    H11   4147 0.07335800   1.008000   ; qtot -0.347039
 4148         c3    160    ccc     C7   4148 -0.49079800  12.010000   ; qtot -0.837837
 4149         hc    160    ccc    H12   4149 0.15101200   1.008000   ; qtot -0.686825
 4150         hc    160    ccc    H13   4150 0.15101200   1.008000   ; qtot -0.535813
 4151          c    160    ccc     C8   4151 0.558828  12.010000   ; qtot 0.466386
 4152          o    160    ccc     O3   4152 -0.39142825  16.000000   ; qtot -0.197952
 4153         oh    160    ccc     O4   4153 -0.56822625  16.000000   ; qtot -0.971038
 4154         ho    160    ccc    H14   4154 0.4511195   1.008000   ; qtot -0.485520
 4155         ho    160    ccc    H15   4155 0.4511195   1.008000   ; qtot -0.000002
; residue  161 ccc rtp ccc q 0.0
 4156          n    161    ccc     N1   4156 -0.87251700  14.010000   ; qtot -0.872519
 4157         hn    161    ccc     H1   4157 0.46040000   1.008000   ; qtot -0.412119
 4158         c3    161    ccc     C1   4158 0.65477900  12.010000   ; qtot 0.242660
 4159         h1    161    ccc     H2   4159 -0.08959600   1.008000   ; qtot 0.153064
 4160         c3    161    ccc     C2   4160 0.03619700  12.010000   ; qtot 0.189261
 4161         h1    161    ccc     H3   4161 -0.08959600   1.008000   ; qtot 0.099665
 4162         h1    161    ccc     H4   4162 0.06927800   1.008000   ; qtot 0.168943
 4163         h1    161    ccc     H5   4163 0.06927800   1.008000   ; qtot 0.238221
 4164         n3    161    ccc     N2   4164 -0.61358100  14.010000   ; qtot -0.375360
 4165         c3    161    ccc     C3   4165 0.17944400  12.010000   ; qtot -0.195916
 4166         c3    161    ccc     C4   4166 0.17944400  12.010000   ; qtot -0.016472
 4167         h1    161    ccc     H6   4167 0.07335800   1.008000   ; qtot 0.056886
 4168         c3    161    ccc     C5   4168 -0.49079800  12.010000   ; qtot -0.433912
 4169         h1    161    ccc     H7   4169 0.07335800   1.008000   ; qtot -0.360554
 4170         hc    161    ccc     H8   4170 0.15101200   1.008000   ; qtot -0.209542
 4171         hc    161    ccc     H9   4171 0.15101200   1.008000   ; qtot -0.058530
 4172          c    161    ccc     C6   4172 0.558828  12.010000   ; qtot 0.943669
 4173         oh    161    ccc     O1   4173 -0.56822625  16.000000   ; qtot 0.170583
 4174          o    161    ccc     O2   4174 -0.39142825  16.000000   ; qtot -0.493755
 4175         h1    161    ccc    H10   4175 0.07335800   1.008000   ; qtot -0.420397
 4176         h1    161    ccc    H11   4176 0.07335800   1.008000   ; qtot -0.347039
 4177         c3    161    ccc     C7   4177 -0.49079800  12.010000   ; qtot -0.837837
 4178         hc    161    ccc    H12   4178 0.15101200   1.008000   ; qtot -0.686825
 4179         hc    161    ccc    H13   4179 0.15101200   1.008000   ; qtot -0.535813
 4180          c    161    ccc     C8   4180 0.558828  12.010000   ; qtot 0.466386
 4181          o    161    ccc     O3   4181 -0.39142825  16.000000   ; qtot -0.197952
 4182         oh    161    ccc     O4   4182 -0.56822625  16.000000   ; qtot -0.971038
 4183         ho    161    ccc    H14   4183 0.4511195   1.008000   ; qtot -0.485520
 4184         ho    161    ccc    H15   4184 0.4511195   1.008000   ; qtot -0.000002
; residue  162 ccc rtp ccc q 0.0
 4185          n    162    ccc     N1   4185 -0.87251700  14.010000   ; qtot -0.872519
 4186         hn    162    ccc     H1   4186 0.46040000   1.008000   ; qtot -0.412119
 4187         c3    162    ccc     C1   4187 0.65477900  12.010000   ; qtot 0.242660
 4188         h1    162    ccc     H2   4188 -0.08959600   1.008000   ; qtot 0.153064
 4189         c3    162    ccc     C2   4189 0.03619700  12.010000   ; qtot 0.189261
 4190         h1    162    ccc     H3   4190 -0.08959600   1.008000   ; qtot 0.099665
 4191         h1    162    ccc     H4   4191 0.06927800   1.008000   ; qtot 0.168943
 4192         h1    162    ccc     H5   4192 0.06927800   1.008000   ; qtot 0.238221
 4193         n3    162    ccc     N2   4193 -0.61358100  14.010000   ; qtot -0.375360
 4194         c3    162    ccc     C3   4194 0.17944400  12.010000   ; qtot -0.195916
 4195         c3    162    ccc     C4   4195 0.17944400  12.010000   ; qtot -0.016472
 4196         h1    162    ccc     H6   4196 0.07335800   1.008000   ; qtot 0.056886
 4197         c3    162    ccc     C5   4197 -0.49079800  12.010000   ; qtot -0.433912
 4198         h1    162    ccc     H7   4198 0.07335800   1.008000   ; qtot -0.360554
 4199         hc    162    ccc     H8   4199 0.15101200   1.008000   ; qtot -0.209542
 4200         hc    162    ccc     H9   4200 0.15101200   1.008000   ; qtot -0.058530
 4201          c    162    ccc     C6   4201 0.558828  12.010000   ; qtot 0.943669
 4202         oh    162    ccc     O1   4202 -0.56822625  16.000000   ; qtot 0.170583
 4203          o    162    ccc     O2   4203 -0.39142825  16.000000   ; qtot -0.493755
 4204         h1    162    ccc    H10   4204 0.07335800   1.008000   ; qtot -0.420397
 4205         h1    162    ccc    H11   4205 0.07335800   1.008000   ; qtot -0.347039
 4206         c3    162    ccc     C7   4206 -0.49079800  12.010000   ; qtot -0.837837
 4207         hc    162    ccc    H12   4207 0.15101200   1.008000   ; qtot -0.686825
 4208         hc    162    ccc    H13   4208 0.15101200   1.008000   ; qtot -0.535813
 4209          c    162    ccc     C8   4209 0.558828  12.010000   ; qtot 0.466386
 4210          o    162    ccc     O3   4210 -0.39142825  16.000000   ; qtot -0.197952
 4211         oh    162    ccc     O4   4211 -0.56822625  16.000000   ; qtot -0.971038
 4212         ho    162    ccc    H14   4212 0.4511195   1.008000   ; qtot -0.485520
 4213         ho    162    ccc    H15   4213 0.4511195   1.008000   ; qtot -0.000002
; residue  163 ccc rtp ccc q 0.0
 4214          n    163    ccc     N1   4214 -0.87251700  14.010000   ; qtot -0.872519
 4215         hn    163    ccc     H1   4215 0.46040000   1.008000   ; qtot -0.412119
 4216         c3    163    ccc     C1   4216 0.65477900  12.010000   ; qtot 0.242660
 4217         h1    163    ccc     H2   4217 -0.08959600   1.008000   ; qtot 0.153064
 4218         c3    163    ccc     C2   4218 0.03619700  12.010000   ; qtot 0.189261
 4219         h1    163    ccc     H3   4219 -0.08959600   1.008000   ; qtot 0.099665
 4220         h1    163    ccc     H4   4220 0.06927800   1.008000   ; qtot 0.168943
 4221         h1    163    ccc     H5   4221 0.06927800   1.008000   ; qtot 0.238221
 4222         n3    163    ccc     N2   4222 -0.61358100  14.010000   ; qtot -0.375360
 4223         c3    163    ccc     C3   4223 0.17944400  12.010000   ; qtot -0.195916
 4224         c3    163    ccc     C4   4224 0.17944400  12.010000   ; qtot -0.016472
 4225         h1    163    ccc     H6   4225 0.07335800   1.008000   ; qtot 0.056886
 4226         c3    163    ccc     C5   4226 -0.49079800  12.010000   ; qtot -0.433912
 4227         h1    163    ccc     H7   4227 0.07335800   1.008000   ; qtot -0.360554
 4228         hc    163    ccc     H8   4228 0.15101200   1.008000   ; qtot -0.209542
 4229         hc    163    ccc     H9   4229 0.15101200   1.008000   ; qtot -0.058530
 4230          c    163    ccc     C6   4230 0.558828  12.010000   ; qtot 0.943669
 4231         oh    163    ccc     O1   4231 -0.56822625  16.000000   ; qtot 0.170583
 4232          o    163    ccc     O2   4232 -0.39142825  16.000000   ; qtot -0.493755
 4233         h1    163    ccc    H10   4233 0.07335800   1.008000   ; qtot -0.420397
 4234         h1    163    ccc    H11   4234 0.07335800   1.008000   ; qtot -0.347039
 4235         c3    163    ccc     C7   4235 -0.49079800  12.010000   ; qtot -0.837837
 4236         hc    163    ccc    H12   4236 0.15101200   1.008000   ; qtot -0.686825
 4237         hc    163    ccc    H13   4237 0.15101200   1.008000   ; qtot -0.535813
 4238          c    163    ccc     C8   4238 0.558828  12.010000   ; qtot 0.466386
 4239          o    163    ccc     O3   4239 -0.39142825  16.000000   ; qtot -0.197952
 4240         oh    163    ccc     O4   4240 -0.56822625  16.000000   ; qtot -0.971038
 4241         ho    163    ccc    H14   4241 0.4511195   1.008000   ; qtot -0.485520
 4242         ho    163    ccc    H15   4242 0.4511195   1.008000   ; qtot -0.000002
; residue  164 ccc rtp ccc q 0.0
 4243          n    164    ccc     N1   4243 -0.87251700  14.010000   ; qtot -0.872519
 4244         hn    164    ccc     H1   4244 0.46040000   1.008000   ; qtot -0.412119
 4245         c3    164    ccc     C1   4245 0.65477900  12.010000   ; qtot 0.242660
 4246         h1    164    ccc     H2   4246 -0.08959600   1.008000   ; qtot 0.153064
 4247         c3    164    ccc     C2   4247 0.03619700  12.010000   ; qtot 0.189261
 4248         h1    164    ccc     H3   4248 -0.08959600   1.008000   ; qtot 0.099665
 4249         h1    164    ccc     H4   4249 0.06927800   1.008000   ; qtot 0.168943
 4250         h1    164    ccc     H5   4250 0.06927800   1.008000   ; qtot 0.238221
 4251         n3    164    ccc     N2   4251 -0.61358100  14.010000   ; qtot -0.375360
 4252         c3    164    ccc     C3   4252 0.17944400  12.010000   ; qtot -0.195916
 4253         c3    164    ccc     C4   4253 0.17944400  12.010000   ; qtot -0.016472
 4254         h1    164    ccc     H6   4254 0.07335800   1.008000   ; qtot 0.056886
 4255         c3    164    ccc     C5   4255 -0.49079800  12.010000   ; qtot -0.433912
 4256         h1    164    ccc     H7   4256 0.07335800   1.008000   ; qtot -0.360554
 4257         hc    164    ccc     H8   4257 0.15101200   1.008000   ; qtot -0.209542
 4258         hc    164    ccc     H9   4258 0.15101200   1.008000   ; qtot -0.058530
 4259          c    164    ccc     C6   4259 0.558828  12.010000   ; qtot 0.943669
 4260         oh    164    ccc     O1   4260 -0.56822625  16.000000   ; qtot 0.170583
 4261          o    164    ccc     O2   4261 -0.39142825  16.000000   ; qtot -0.493755
 4262         h1    164    ccc    H10   4262 0.07335800   1.008000   ; qtot -0.420397
 4263         h1    164    ccc    H11   4263 0.07335800   1.008000   ; qtot -0.347039
 4264         c3    164    ccc     C7   4264 -0.49079800  12.010000   ; qtot -0.837837
 4265         hc    164    ccc    H12   4265 0.15101200   1.008000   ; qtot -0.686825
 4266         hc    164    ccc    H13   4266 0.15101200   1.008000   ; qtot -0.535813
 4267          c    164    ccc     C8   4267 0.558828  12.010000   ; qtot 0.466386
 4268          o    164    ccc     O3   4268 -0.39142825  16.000000   ; qtot -0.197952
 4269         oh    164    ccc     O4   4269 -0.56822625  16.000000   ; qtot -0.971038
 4270         ho    164    ccc    H14   4270 0.4511195   1.008000   ; qtot -0.485520
 4271         ho    164    ccc    H15   4271 0.4511195   1.008000   ; qtot -0.000002
; residue  165 ccc rtp ccc q 0.0
 4272          n    165    ccc     N1   4272 -0.87251700  14.010000   ; qtot -0.872519
 4273         hn    165    ccc     H1   4273 0.46040000   1.008000   ; qtot -0.412119
 4274         c3    165    ccc     C1   4274 0.65477900  12.010000   ; qtot 0.242660
 4275         h1    165    ccc     H2   4275 -0.08959600   1.008000   ; qtot 0.153064
 4276         c3    165    ccc     C2   4276 0.03619700  12.010000   ; qtot 0.189261
 4277         h1    165    ccc     H3   4277 -0.08959600   1.008000   ; qtot 0.099665
 4278         h1    165    ccc     H4   4278 0.06927800   1.008000   ; qtot 0.168943
 4279         h1    165    ccc     H5   4279 0.06927800   1.008000   ; qtot 0.238221
 4280         n3    165    ccc     N2   4280 -0.61358100  14.010000   ; qtot -0.375360
 4281         c3    165    ccc     C3   4281 0.17944400  12.010000   ; qtot -0.195916
 4282         c3    165    ccc     C4   4282 0.17944400  12.010000   ; qtot -0.016472
 4283         h1    165    ccc     H6   4283 0.07335800   1.008000   ; qtot 0.056886
 4284         c3    165    ccc     C5   4284 -0.49079800  12.010000   ; qtot -0.433912
 4285         h1    165    ccc     H7   4285 0.07335800   1.008000   ; qtot -0.360554
 4286         hc    165    ccc     H8   4286 0.15101200   1.008000   ; qtot -0.209542
 4287         hc    165    ccc     H9   4287 0.15101200   1.008000   ; qtot -0.058530
 4288          c    165    ccc     C6   4288 0.558828  12.010000   ; qtot 0.943669
 4289         oh    165    ccc     O1   4289 -0.56822625  16.000000   ; qtot 0.170583
 4290          o    165    ccc     O2   4290 -0.39142825  16.000000   ; qtot -0.493755
 4291         h1    165    ccc    H10   4291 0.07335800   1.008000   ; qtot -0.420397
 4292         h1    165    ccc    H11   4292 0.07335800   1.008000   ; qtot -0.347039
 4293         c3    165    ccc     C7   4293 -0.49079800  12.010000   ; qtot -0.837837
 4294         hc    165    ccc    H12   4294 0.15101200   1.008000   ; qtot -0.686825
 4295         hc    165    ccc    H13   4295 0.15101200   1.008000   ; qtot -0.535813
 4296          c    165    ccc     C8   4296 0.558828  12.010000   ; qtot 0.466386
 4297          o    165    ccc     O3   4297 -0.39142825  16.000000   ; qtot -0.197952
 4298         oh    165    ccc     O4   4298 -0.56822625  16.000000   ; qtot -0.971038
 4299         ho    165    ccc    H14   4299 0.4511195   1.008000   ; qtot -0.485520
 4300         ho    165    ccc    H15   4300 0.4511195   1.008000   ; qtot -0.000002
; residue  166 ccc rtp ccc q 0.0
 4301          n    166    ccc     N1   4301 -0.87251700  14.010000   ; qtot -0.872519
 4302         hn    166    ccc     H1   4302 0.46040000   1.008000   ; qtot -0.412119
 4303         c3    166    ccc     C1   4303 0.65477900  12.010000   ; qtot 0.242660
 4304         h1    166    ccc     H2   4304 -0.08959600   1.008000   ; qtot 0.153064
 4305         c3    166    ccc     C2   4305 0.03619700  12.010000   ; qtot 0.189261
 4306         h1    166    ccc     H3   4306 -0.08959600   1.008000   ; qtot 0.099665
 4307         h1    166    ccc     H4   4307 0.06927800   1.008000   ; qtot 0.168943
 4308         h1    166    ccc     H5   4308 0.06927800   1.008000   ; qtot 0.238221
 4309         n3    166    ccc     N2   4309 -0.61358100  14.010000   ; qtot -0.375360
 4310         c3    166    ccc     C3   4310 0.17944400  12.010000   ; qtot -0.195916
 4311         c3    166    ccc     C4   4311 0.17944400  12.010000   ; qtot -0.016472
 4312         h1    166    ccc     H6   4312 0.07335800   1.008000   ; qtot 0.056886
 4313         c3    166    ccc     C5   4313 -0.49079800  12.010000   ; qtot -0.433912
 4314         h1    166    ccc     H7   4314 0.07335800   1.008000   ; qtot -0.360554
 4315         hc    166    ccc     H8   4315 0.15101200   1.008000   ; qtot -0.209542
 4316         hc    166    ccc     H9   4316 0.15101200   1.008000   ; qtot -0.058530
 4317          c    166    ccc     C6   4317 0.558828  12.010000   ; qtot 0.943669
 4318         oh    166    ccc     O1   4318 -0.56822625  16.000000   ; qtot 0.170583
 4319          o    166    ccc     O2   4319 -0.39142825  16.000000   ; qtot -0.493755
 4320         h1    166    ccc    H10   4320 0.07335800   1.008000   ; qtot -0.420397
 4321         h1    166    ccc    H11   4321 0.07335800   1.008000   ; qtot -0.347039
 4322         c3    166    ccc     C7   4322 -0.49079800  12.010000   ; qtot -0.837837
 4323         hc    166    ccc    H12   4323 0.15101200   1.008000   ; qtot -0.686825
 4324         hc    166    ccc    H13   4324 0.15101200   1.008000   ; qtot -0.535813
 4325          c    166    ccc     C8   4325 0.558828  12.010000   ; qtot 0.466386
 4326          o    166    ccc     O3   4326 -0.39142825  16.000000   ; qtot -0.197952
 4327         oh    166    ccc     O4   4327 -0.56822625  16.000000   ; qtot -0.971038
 4328         ho    166    ccc    H14   4328 0.4511195   1.008000   ; qtot -0.485520
 4329         ho    166    ccc    H15   4329 0.4511195   1.008000   ; qtot -0.000002
; residue  167 ccc rtp ccc q 0.0
 4330          n    167    ccc     N1   4330 -0.87251700  14.010000   ; qtot -0.872519
 4331         hn    167    ccc     H1   4331 0.46040000   1.008000   ; qtot -0.412119
 4332         c3    167    ccc     C1   4332 0.65477900  12.010000   ; qtot 0.242660
 4333         h1    167    ccc     H2   4333 -0.08959600   1.008000   ; qtot 0.153064
 4334         c3    167    ccc     C2   4334 0.03619700  12.010000   ; qtot 0.189261
 4335         h1    167    ccc     H3   4335 -0.08959600   1.008000   ; qtot 0.099665
 4336         h1    167    ccc     H4   4336 0.06927800   1.008000   ; qtot 0.168943
 4337         h1    167    ccc     H5   4337 0.06927800   1.008000   ; qtot 0.238221
 4338         n3    167    ccc     N2   4338 -0.61358100  14.010000   ; qtot -0.375360
 4339         c3    167    ccc     C3   4339 0.17944400  12.010000   ; qtot -0.195916
 4340         c3    167    ccc     C4   4340 0.17944400  12.010000   ; qtot -0.016472
 4341         h1    167    ccc     H6   4341 0.07335800   1.008000   ; qtot 0.056886
 4342         c3    167    ccc     C5   4342 -0.49079800  12.010000   ; qtot -0.433912
 4343         h1    167    ccc     H7   4343 0.07335800   1.008000   ; qtot -0.360554
 4344         hc    167    ccc     H8   4344 0.15101200   1.008000   ; qtot -0.209542
 4345         hc    167    ccc     H9   4345 0.15101200   1.008000   ; qtot -0.058530
 4346          c    167    ccc     C6   4346 0.558828  12.010000   ; qtot 0.943669
 4347         oh    167    ccc     O1   4347 -0.56822625  16.000000   ; qtot 0.170583
 4348          o    167    ccc     O2   4348 -0.39142825  16.000000   ; qtot -0.493755
 4349         h1    167    ccc    H10   4349 0.07335800   1.008000   ; qtot -0.420397
 4350         h1    167    ccc    H11   4350 0.07335800   1.008000   ; qtot -0.347039
 4351         c3    167    ccc     C7   4351 -0.49079800  12.010000   ; qtot -0.837837
 4352         hc    167    ccc    H12   4352 0.15101200   1.008000   ; qtot -0.686825
 4353         hc    167    ccc    H13   4353 0.15101200   1.008000   ; qtot -0.535813
 4354          c    167    ccc     C8   4354 0.558828  12.010000   ; qtot 0.466386
 4355          o    167    ccc     O3   4355 -0.39142825  16.000000   ; qtot -0.197952
 4356         oh    167    ccc     O4   4356 -0.56822625  16.000000   ; qtot -0.971038
 4357         ho    167    ccc    H14   4357 0.4511195   1.008000   ; qtot -0.485520
 4358         ho    167    ccc    H15   4358 0.4511195   1.008000   ; qtot -0.000002
; residue  168 ccc rtp ccc q 0.0
 4359          n    168    ccc     N1   4359 -0.87251700  14.010000   ; qtot -0.872519
 4360         hn    168    ccc     H1   4360 0.46040000   1.008000   ; qtot -0.412119
 4361         c3    168    ccc     C1   4361 0.65477900  12.010000   ; qtot 0.242660
 4362         h1    168    ccc     H2   4362 -0.08959600   1.008000   ; qtot 0.153064
 4363         c3    168    ccc     C2   4363 0.03619700  12.010000   ; qtot 0.189261
 4364         h1    168    ccc     H3   4364 -0.08959600   1.008000   ; qtot 0.099665
 4365         h1    168    ccc     H4   4365 0.06927800   1.008000   ; qtot 0.168943
 4366         h1    168    ccc     H5   4366 0.06927800   1.008000   ; qtot 0.238221
 4367         n3    168    ccc     N2   4367 -0.61358100  14.010000   ; qtot -0.375360
 4368         c3    168    ccc     C3   4368 0.17944400  12.010000   ; qtot -0.195916
 4369         c3    168    ccc     C4   4369 0.17944400  12.010000   ; qtot -0.016472
 4370         h1    168    ccc     H6   4370 0.07335800   1.008000   ; qtot 0.056886
 4371         c3    168    ccc     C5   4371 -0.49079800  12.010000   ; qtot -0.433912
 4372         h1    168    ccc     H7   4372 0.07335800   1.008000   ; qtot -0.360554
 4373         hc    168    ccc     H8   4373 0.15101200   1.008000   ; qtot -0.209542
 4374         hc    168    ccc     H9   4374 0.15101200   1.008000   ; qtot -0.058530
 4375          c    168    ccc     C6   4375 0.558828  12.010000   ; qtot 0.943669
 4376         oh    168    ccc     O1   4376 -0.56822625  16.000000   ; qtot 0.170583
 4377          o    168    ccc     O2   4377 -0.39142825  16.000000   ; qtot -0.493755
 4378         h1    168    ccc    H10   4378 0.07335800   1.008000   ; qtot -0.420397
 4379         h1    168    ccc    H11   4379 0.07335800   1.008000   ; qtot -0.347039
 4380         c3    168    ccc     C7   4380 -0.49079800  12.010000   ; qtot -0.837837
 4381         hc    168    ccc    H12   4381 0.15101200   1.008000   ; qtot -0.686825
 4382         hc    168    ccc    H13   4382 0.15101200   1.008000   ; qtot -0.535813
 4383          c    168    ccc     C8   4383 0.558828  12.010000   ; qtot 0.466386
 4384          o    168    ccc     O3   4384 -0.39142825  16.000000   ; qtot -0.197952
 4385         oh    168    ccc     O4   4385 -0.56822625  16.000000   ; qtot -0.971038
 4386         ho    168    ccc    H14   4386 0.4511195   1.008000   ; qtot -0.485520
 4387         ho    168    ccc    H15   4387 0.4511195   1.008000   ; qtot -0.000002
; residue  169 ccc rtp ccc q 0.0
 4388          n    169    ccc     N1   4388 -0.87251700  14.010000   ; qtot -0.872519
 4389         hn    169    ccc     H1   4389 0.46040000   1.008000   ; qtot -0.412119
 4390         c3    169    ccc     C1   4390 0.65477900  12.010000   ; qtot 0.242660
 4391         h1    169    ccc     H2   4391 -0.08959600   1.008000   ; qtot 0.153064
 4392         c3    169    ccc     C2   4392 0.03619700  12.010000   ; qtot 0.189261
 4393         h1    169    ccc     H3   4393 -0.08959600   1.008000   ; qtot 0.099665
 4394         h1    169    ccc     H4   4394 0.06927800   1.008000   ; qtot 0.168943
 4395         h1    169    ccc     H5   4395 0.06927800   1.008000   ; qtot 0.238221
 4396         n3    169    ccc     N2   4396 -0.61358100  14.010000   ; qtot -0.375360
 4397         c3    169    ccc     C3   4397 0.17944400  12.010000   ; qtot -0.195916
 4398         c3    169    ccc     C4   4398 0.17944400  12.010000   ; qtot -0.016472
 4399         h1    169    ccc     H6   4399 0.07335800   1.008000   ; qtot 0.056886
 4400         c3    169    ccc     C5   4400 -0.49079800  12.010000   ; qtot -0.433912
 4401         h1    169    ccc     H7   4401 0.07335800   1.008000   ; qtot -0.360554
 4402         hc    169    ccc     H8   4402 0.15101200   1.008000   ; qtot -0.209542
 4403         hc    169    ccc     H9   4403 0.15101200   1.008000   ; qtot -0.058530
 4404          c    169    ccc     C6   4404 0.558828  12.010000   ; qtot 0.943669
 4405         oh    169    ccc     O1   4405 -0.56822625  16.000000   ; qtot 0.170583
 4406          o    169    ccc     O2   4406 -0.39142825  16.000000   ; qtot -0.493755
 4407         h1    169    ccc    H10   4407 0.07335800   1.008000   ; qtot -0.420397
 4408         h1    169    ccc    H11   4408 0.07335800   1.008000   ; qtot -0.347039
 4409         c3    169    ccc     C7   4409 -0.49079800  12.010000   ; qtot -0.837837
 4410         hc    169    ccc    H12   4410 0.15101200   1.008000   ; qtot -0.686825
 4411         hc    169    ccc    H13   4411 0.15101200   1.008000   ; qtot -0.535813
 4412          c    169    ccc     C8   4412 0.558828  12.010000   ; qtot 0.466386
 4413          o    169    ccc     O3   4413 -0.39142825  16.000000   ; qtot -0.197952
 4414         oh    169    ccc     O4   4414 -0.56822625  16.000000   ; qtot -0.971038
 4415         ho    169    ccc    H14   4415 0.4511195   1.008000   ; qtot -0.485520
 4416         ho    169    ccc    H15   4416 0.4511195   1.008000   ; qtot -0.000002
; residue  170 ccc rtp ccc q 0.0
 4417          n    170    ccc     N1   4417 -0.87251700  14.010000   ; qtot -0.872519
 4418         hn    170    ccc     H1   4418 0.46040000   1.008000   ; qtot -0.412119
 4419         c3    170    ccc     C1   4419 0.65477900  12.010000   ; qtot 0.242660
 4420         h1    170    ccc     H2   4420 -0.08959600   1.008000   ; qtot 0.153064
 4421         c3    170    ccc     C2   4421 0.03619700  12.010000   ; qtot 0.189261
 4422         h1    170    ccc     H3   4422 -0.08959600   1.008000   ; qtot 0.099665
 4423         h1    170    ccc     H4   4423 0.06927800   1.008000   ; qtot 0.168943
 4424         h1    170    ccc     H5   4424 0.06927800   1.008000   ; qtot 0.238221
 4425         n3    170    ccc     N2   4425 -0.61358100  14.010000   ; qtot -0.375360
 4426         c3    170    ccc     C3   4426 0.17944400  12.010000   ; qtot -0.195916
 4427         c3    170    ccc     C4   4427 0.17944400  12.010000   ; qtot -0.016472
 4428         h1    170    ccc     H6   4428 0.07335800   1.008000   ; qtot 0.056886
 4429         c3    170    ccc     C5   4429 -0.49079800  12.010000   ; qtot -0.433912
 4430         h1    170    ccc     H7   4430 0.07335800   1.008000   ; qtot -0.360554
 4431         hc    170    ccc     H8   4431 0.15101200   1.008000   ; qtot -0.209542
 4432         hc    170    ccc     H9   4432 0.15101200   1.008000   ; qtot -0.058530
 4433          c    170    ccc     C6   4433 0.558828  12.010000   ; qtot 0.943669
 4434         oh    170    ccc     O1   4434 -0.56822625  16.000000   ; qtot 0.170583
 4435          o    170    ccc     O2   4435 -0.39142825  16.000000   ; qtot -0.493755
 4436         h1    170    ccc    H10   4436 0.07335800   1.008000   ; qtot -0.420397
 4437         h1    170    ccc    H11   4437 0.07335800   1.008000   ; qtot -0.347039
 4438         c3    170    ccc     C7   4438 -0.49079800  12.010000   ; qtot -0.837837
 4439         hc    170    ccc    H12   4439 0.15101200   1.008000   ; qtot -0.686825
 4440         hc    170    ccc    H13   4440 0.15101200   1.008000   ; qtot -0.535813
 4441          c    170    ccc     C8   4441 0.558828  12.010000   ; qtot 0.466386
 4442          o    170    ccc     O3   4442 -0.39142825  16.000000   ; qtot -0.197952
 4443         oh    170    ccc     O4   4443 -0.56822625  16.000000   ; qtot -0.971038
 4444         ho    170    ccc    H14   4444 0.4511195   1.008000   ; qtot -0.485520
 4445         ho    170    ccc    H15   4445 0.4511195   1.008000   ; qtot -0.000002
; residue  171 ccc rtp ccc q 0.0
 4446          n    171    ccc     N1   4446 -0.87251700  14.010000   ; qtot -0.872519
 4447         hn    171    ccc     H1   4447 0.46040000   1.008000   ; qtot -0.412119
 4448         c3    171    ccc     C1   4448 0.65477900  12.010000   ; qtot 0.242660
 4449         h1    171    ccc     H2   4449 -0.08959600   1.008000   ; qtot 0.153064
 4450         c3    171    ccc     C2   4450 0.03619700  12.010000   ; qtot 0.189261
 4451         h1    171    ccc     H3   4451 -0.08959600   1.008000   ; qtot 0.099665
 4452         h1    171    ccc     H4   4452 0.06927800   1.008000   ; qtot 0.168943
 4453         h1    171    ccc     H5   4453 0.06927800   1.008000   ; qtot 0.238221
 4454         n3    171    ccc     N2   4454 -0.61358100  14.010000   ; qtot -0.375360
 4455         c3    171    ccc     C3   4455 0.17944400  12.010000   ; qtot -0.195916
 4456         c3    171    ccc     C4   4456 0.17944400  12.010000   ; qtot -0.016472
 4457         h1    171    ccc     H6   4457 0.07335800   1.008000   ; qtot 0.056886
 4458         c3    171    ccc     C5   4458 -0.49079800  12.010000   ; qtot -0.433912
 4459         h1    171    ccc     H7   4459 0.07335800   1.008000   ; qtot -0.360554
 4460         hc    171    ccc     H8   4460 0.15101200   1.008000   ; qtot -0.209542
 4461         hc    171    ccc     H9   4461 0.15101200   1.008000   ; qtot -0.058530
 4462          c    171    ccc     C6   4462 0.558828  12.010000   ; qtot 0.943669
 4463         oh    171    ccc     O1   4463 -0.56822625  16.000000   ; qtot 0.170583
 4464          o    171    ccc     O2   4464 -0.39142825  16.000000   ; qtot -0.493755
 4465         h1    171    ccc    H10   4465 0.07335800   1.008000   ; qtot -0.420397
 4466         h1    171    ccc    H11   4466 0.07335800   1.008000   ; qtot -0.347039
 4467         c3    171    ccc     C7   4467 -0.49079800  12.010000   ; qtot -0.837837
 4468         hc    171    ccc    H12   4468 0.15101200   1.008000   ; qtot -0.686825
 4469         hc    171    ccc    H13   4469 0.15101200   1.008000   ; qtot -0.535813
 4470          c    171    ccc     C8   4470 0.558828  12.010000   ; qtot 0.466386
 4471          o    171    ccc     O3   4471 -0.39142825  16.000000   ; qtot -0.197952
 4472         oh    171    ccc     O4   4472 -0.56822625  16.000000   ; qtot -0.971038
 4473         ho    171    ccc    H14   4473 0.4511195   1.008000   ; qtot -0.485520
 4474         ho    171    ccc    H15   4474 0.4511195   1.008000   ; qtot -0.000002
; residue  172 ccc rtp ccc q 0.0
 4475          n    172    ccc     N1   4475 -0.87251700  14.010000   ; qtot -0.872519
 4476         hn    172    ccc     H1   4476 0.46040000   1.008000   ; qtot -0.412119
 4477         c3    172    ccc     C1   4477 0.65477900  12.010000   ; qtot 0.242660
 4478         h1    172    ccc     H2   4478 -0.08959600   1.008000   ; qtot 0.153064
 4479         c3    172    ccc     C2   4479 0.03619700  12.010000   ; qtot 0.189261
 4480         h1    172    ccc     H3   4480 -0.08959600   1.008000   ; qtot 0.099665
 4481         h1    172    ccc     H4   4481 0.06927800   1.008000   ; qtot 0.168943
 4482         h1    172    ccc     H5   4482 0.06927800   1.008000   ; qtot 0.238221
 4483         n3    172    ccc     N2   4483 -0.61358100  14.010000   ; qtot -0.375360
 4484         c3    172    ccc     C3   4484 0.17944400  12.010000   ; qtot -0.195916
 4485         c3    172    ccc     C4   4485 0.17944400  12.010000   ; qtot -0.016472
 4486         h1    172    ccc     H6   4486 0.07335800   1.008000   ; qtot 0.056886
 4487         c3    172    ccc     C5   4487 -0.49079800  12.010000   ; qtot -0.433912
 4488         h1    172    ccc     H7   4488 0.07335800   1.008000   ; qtot -0.360554
 4489         hc    172    ccc     H8   4489 0.15101200   1.008000   ; qtot -0.209542
 4490         hc    172    ccc     H9   4490 0.15101200   1.008000   ; qtot -0.058530
 4491          c    172    ccc     C6   4491 0.558828  12.010000   ; qtot 0.943669
 4492         oh    172    ccc     O1   4492 -0.56822625  16.000000   ; qtot 0.170583
 4493          o    172    ccc     O2   4493 -0.39142825  16.000000   ; qtot -0.493755
 4494         h1    172    ccc    H10   4494 0.07335800   1.008000   ; qtot -0.420397
 4495         h1    172    ccc    H11   4495 0.07335800   1.008000   ; qtot -0.347039
 4496         c3    172    ccc     C7   4496 -0.49079800  12.010000   ; qtot -0.837837
 4497         hc    172    ccc    H12   4497 0.15101200   1.008000   ; qtot -0.686825
 4498         hc    172    ccc    H13   4498 0.15101200   1.008000   ; qtot -0.535813
 4499          c    172    ccc     C8   4499 0.558828  12.010000   ; qtot 0.466386
 4500          o    172    ccc     O3   4500 -0.39142825  16.000000   ; qtot -0.197952
 4501         oh    172    ccc     O4   4501 -0.56822625  16.000000   ; qtot -0.971038
 4502         ho    172    ccc    H14   4502 0.4511195   1.008000   ; qtot -0.485520
 4503         ho    172    ccc    H15   4503 0.4511195   1.008000   ; qtot -0.000002
; residue  173 ccc rtp ccc q 0.0
 4504          n    173    ccc     N1   4504 -0.87251700  14.010000   ; qtot -0.872519
 4505         hn    173    ccc     H1   4505 0.46040000   1.008000   ; qtot -0.412119
 4506         c3    173    ccc     C1   4506 0.65477900  12.010000   ; qtot 0.242660
 4507         h1    173    ccc     H2   4507 -0.08959600   1.008000   ; qtot 0.153064
 4508         c3    173    ccc     C2   4508 0.03619700  12.010000   ; qtot 0.189261
 4509         h1    173    ccc     H3   4509 -0.08959600   1.008000   ; qtot 0.099665
 4510         h1    173    ccc     H4   4510 0.06927800   1.008000   ; qtot 0.168943
 4511         h1    173    ccc     H5   4511 0.06927800   1.008000   ; qtot 0.238221
 4512         n3    173    ccc     N2   4512 -0.61358100  14.010000   ; qtot -0.375360
 4513         c3    173    ccc     C3   4513 0.17944400  12.010000   ; qtot -0.195916
 4514         c3    173    ccc     C4   4514 0.17944400  12.010000   ; qtot -0.016472
 4515         h1    173    ccc     H6   4515 0.07335800   1.008000   ; qtot 0.056886
 4516         c3    173    ccc     C5   4516 -0.49079800  12.010000   ; qtot -0.433912
 4517         h1    173    ccc     H7   4517 0.07335800   1.008000   ; qtot -0.360554
 4518         hc    173    ccc     H8   4518 0.15101200   1.008000   ; qtot -0.209542
 4519         hc    173    ccc     H9   4519 0.15101200   1.008000   ; qtot -0.058530
 4520          c    173    ccc     C6   4520 0.558828  12.010000   ; qtot 0.943669
 4521         oh    173    ccc     O1   4521 -0.56822625  16.000000   ; qtot 0.170583
 4522          o    173    ccc     O2   4522 -0.39142825  16.000000   ; qtot -0.493755
 4523         h1    173    ccc    H10   4523 0.07335800   1.008000   ; qtot -0.420397
 4524         h1    173    ccc    H11   4524 0.07335800   1.008000   ; qtot -0.347039
 4525         c3    173    ccc     C7   4525 -0.49079800  12.010000   ; qtot -0.837837
 4526         hc    173    ccc    H12   4526 0.15101200   1.008000   ; qtot -0.686825
 4527         hc    173    ccc    H13   4527 0.15101200   1.008000   ; qtot -0.535813
 4528          c    173    ccc     C8   4528 0.558828  12.010000   ; qtot 0.466386
 4529          o    173    ccc     O3   4529 -0.39142825  16.000000   ; qtot -0.197952
 4530         oh    173    ccc     O4   4530 -0.56822625  16.000000   ; qtot -0.971038
 4531         ho    173    ccc    H14   4531 0.4511195   1.008000   ; qtot -0.485520
 4532         ho    173    ccc    H15   4532 0.4511195   1.008000   ; qtot -0.000002
; residue  174 ccc rtp ccc q 0.0
 4533          n    174    ccc     N1   4533 -0.87251700  14.010000   ; qtot -0.872519
 4534         hn    174    ccc     H1   4534 0.46040000   1.008000   ; qtot -0.412119
 4535         c3    174    ccc     C1   4535 0.65477900  12.010000   ; qtot 0.242660
 4536         h1    174    ccc     H2   4536 -0.08959600   1.008000   ; qtot 0.153064
 4537         c3    174    ccc     C2   4537 0.03619700  12.010000   ; qtot 0.189261
 4538         h1    174    ccc     H3   4538 -0.08959600   1.008000   ; qtot 0.099665
 4539         h1    174    ccc     H4   4539 0.06927800   1.008000   ; qtot 0.168943
 4540         h1    174    ccc     H5   4540 0.06927800   1.008000   ; qtot 0.238221
 4541         n3    174    ccc     N2   4541 -0.61358100  14.010000   ; qtot -0.375360
 4542         c3    174    ccc     C3   4542 0.17944400  12.010000   ; qtot -0.195916
 4543         c3    174    ccc     C4   4543 0.17944400  12.010000   ; qtot -0.016472
 4544         h1    174    ccc     H6   4544 0.07335800   1.008000   ; qtot 0.056886
 4545         c3    174    ccc     C5   4545 -0.49079800  12.010000   ; qtot -0.433912
 4546         h1    174    ccc     H7   4546 0.07335800   1.008000   ; qtot -0.360554
 4547         hc    174    ccc     H8   4547 0.15101200   1.008000   ; qtot -0.209542
 4548         hc    174    ccc     H9   4548 0.15101200   1.008000   ; qtot -0.058530
 4549          c    174    ccc     C6   4549 0.558828  12.010000   ; qtot 0.943669
 4550         oh    174    ccc     O1   4550 -0.56822625  16.000000   ; qtot 0.170583
 4551          o    174    ccc     O2   4551 -0.39142825  16.000000   ; qtot -0.493755
 4552         h1    174    ccc    H10   4552 0.07335800   1.008000   ; qtot -0.420397
 4553         h1    174    ccc    H11   4553 0.07335800   1.008000   ; qtot -0.347039
 4554         c3    174    ccc     C7   4554 -0.49079800  12.010000   ; qtot -0.837837
 4555         hc    174    ccc    H12   4555 0.15101200   1.008000   ; qtot -0.686825
 4556         hc    174    ccc    H13   4556 0.15101200   1.008000   ; qtot -0.535813
 4557          c    174    ccc     C8   4557 0.558828  12.010000   ; qtot 0.466386
 4558          o    174    ccc     O3   4558 -0.39142825  16.000000   ; qtot -0.197952
 4559         oh    174    ccc     O4   4559 -0.56822625  16.000000   ; qtot -0.971038
 4560         ho    174    ccc    H14   4560 0.4511195   1.008000   ; qtot -0.485520
 4561         ho    174    ccc    H15   4561 0.4511195   1.008000   ; qtot -0.000002
; residue  175 ccc rtp ccc q 0.0
 4562          n    175    ccc     N1   4562 -0.87251700  14.010000   ; qtot -0.872519
 4563         hn    175    ccc     H1   4563 0.46040000   1.008000   ; qtot -0.412119
 4564         c3    175    ccc     C1   4564 0.65477900  12.010000   ; qtot 0.242660
 4565         h1    175    ccc     H2   4565 -0.08959600   1.008000   ; qtot 0.153064
 4566         c3    175    ccc     C2   4566 0.03619700  12.010000   ; qtot 0.189261
 4567         h1    175    ccc     H3   4567 -0.08959600   1.008000   ; qtot 0.099665
 4568         h1    175    ccc     H4   4568 0.06927800   1.008000   ; qtot 0.168943
 4569         h1    175    ccc     H5   4569 0.06927800   1.008000   ; qtot 0.238221
 4570         n3    175    ccc     N2   4570 -0.61358100  14.010000   ; qtot -0.375360
 4571         c3    175    ccc     C3   4571 0.17944400  12.010000   ; qtot -0.195916
 4572         c3    175    ccc     C4   4572 0.17944400  12.010000   ; qtot -0.016472
 4573         h1    175    ccc     H6   4573 0.07335800   1.008000   ; qtot 0.056886
 4574         c3    175    ccc     C5   4574 -0.49079800  12.010000   ; qtot -0.433912
 4575         h1    175    ccc     H7   4575 0.07335800   1.008000   ; qtot -0.360554
 4576         hc    175    ccc     H8   4576 0.15101200   1.008000   ; qtot -0.209542
 4577         hc    175    ccc     H9   4577 0.15101200   1.008000   ; qtot -0.058530
 4578          c    175    ccc     C6   4578 0.558828  12.010000   ; qtot 0.943669
 4579         oh    175    ccc     O1   4579 -0.56822625  16.000000   ; qtot 0.170583
 4580          o    175    ccc     O2   4580 -0.39142825  16.000000   ; qtot -0.493755
 4581         h1    175    ccc    H10   4581 0.07335800   1.008000   ; qtot -0.420397
 4582         h1    175    ccc    H11   4582 0.07335800   1.008000   ; qtot -0.347039
 4583         c3    175    ccc     C7   4583 -0.49079800  12.010000   ; qtot -0.837837
 4584         hc    175    ccc    H12   4584 0.15101200   1.008000   ; qtot -0.686825
 4585         hc    175    ccc    H13   4585 0.15101200   1.008000   ; qtot -0.535813
 4586          c    175    ccc     C8   4586 0.558828  12.010000   ; qtot 0.466386
 4587          o    175    ccc     O3   4587 -0.39142825  16.000000   ; qtot -0.197952
 4588         oh    175    ccc     O4   4588 -0.56822625  16.000000   ; qtot -0.971038
 4589         ho    175    ccc    H14   4589 0.4511195   1.008000   ; qtot -0.485520
 4590         ho    175    ccc    H15   4590 0.4511195   1.008000   ; qtot -0.000002
; residue  176 ccc rtp ccc q 0.0
 4591          n    176    ccc     N1   4591 -0.87251700  14.010000   ; qtot -0.872519
 4592         hn    176    ccc     H1   4592 0.46040000   1.008000   ; qtot -0.412119
 4593         c3    176    ccc     C1   4593 0.65477900  12.010000   ; qtot 0.242660
 4594         h1    176    ccc     H2   4594 -0.08959600   1.008000   ; qtot 0.153064
 4595         c3    176    ccc     C2   4595 0.03619700  12.010000   ; qtot 0.189261
 4596         h1    176    ccc     H3   4596 -0.08959600   1.008000   ; qtot 0.099665
 4597         h1    176    ccc     H4   4597 0.06927800   1.008000   ; qtot 0.168943
 4598         h1    176    ccc     H5   4598 0.06927800   1.008000   ; qtot 0.238221
 4599         n3    176    ccc     N2   4599 -0.61358100  14.010000   ; qtot -0.375360
 4600         c3    176    ccc     C3   4600 0.17944400  12.010000   ; qtot -0.195916
 4601         c3    176    ccc     C4   4601 0.17944400  12.010000   ; qtot -0.016472
 4602         h1    176    ccc     H6   4602 0.07335800   1.008000   ; qtot 0.056886
 4603         c3    176    ccc     C5   4603 -0.49079800  12.010000   ; qtot -0.433912
 4604         h1    176    ccc     H7   4604 0.07335800   1.008000   ; qtot -0.360554
 4605         hc    176    ccc     H8   4605 0.15101200   1.008000   ; qtot -0.209542
 4606         hc    176    ccc     H9   4606 0.15101200   1.008000   ; qtot -0.058530
 4607          c    176    ccc     C6   4607 0.558828  12.010000   ; qtot 0.943669
 4608         oh    176    ccc     O1   4608 -0.56822625  16.000000   ; qtot 0.170583
 4609          o    176    ccc     O2   4609 -0.39142825  16.000000   ; qtot -0.493755
 4610         h1    176    ccc    H10   4610 0.07335800   1.008000   ; qtot -0.420397
 4611         h1    176    ccc    H11   4611 0.07335800   1.008000   ; qtot -0.347039
 4612         c3    176    ccc     C7   4612 -0.49079800  12.010000   ; qtot -0.837837
 4613         hc    176    ccc    H12   4613 0.15101200   1.008000   ; qtot -0.686825
 4614         hc    176    ccc    H13   4614 0.15101200   1.008000   ; qtot -0.535813
 4615          c    176    ccc     C8   4615 0.558828  12.010000   ; qtot 0.466386
 4616          o    176    ccc     O3   4616 -0.39142825  16.000000   ; qtot -0.197952
 4617         oh    176    ccc     O4   4617 -0.56822625  16.000000   ; qtot -0.971038
 4618         ho    176    ccc    H14   4618 0.4511195   1.008000   ; qtot -0.485520
 4619         ho    176    ccc    H15   4619 0.4511195   1.008000   ; qtot -0.000002
; residue  177 ccc rtp ccc q 0.0
 4620          n    177    ccc     N1   4620 -0.87251700  14.010000   ; qtot -0.872519
 4621         hn    177    ccc     H1   4621 0.46040000   1.008000   ; qtot -0.412119
 4622         c3    177    ccc     C1   4622 0.65477900  12.010000   ; qtot 0.242660
 4623         h1    177    ccc     H2   4623 -0.08959600   1.008000   ; qtot 0.153064
 4624         c3    177    ccc     C2   4624 0.03619700  12.010000   ; qtot 0.189261
 4625         h1    177    ccc     H3   4625 -0.08959600   1.008000   ; qtot 0.099665
 4626         h1    177    ccc     H4   4626 0.06927800   1.008000   ; qtot 0.168943
 4627         h1    177    ccc     H5   4627 0.06927800   1.008000   ; qtot 0.238221
 4628         n3    177    ccc     N2   4628 -0.61358100  14.010000   ; qtot -0.375360
 4629         c3    177    ccc     C3   4629 0.17944400  12.010000   ; qtot -0.195916
 4630         c3    177    ccc     C4   4630 0.17944400  12.010000   ; qtot -0.016472
 4631         h1    177    ccc     H6   4631 0.07335800   1.008000   ; qtot 0.056886
 4632         c3    177    ccc     C5   4632 -0.49079800  12.010000   ; qtot -0.433912
 4633         h1    177    ccc     H7   4633 0.07335800   1.008000   ; qtot -0.360554
 4634         hc    177    ccc     H8   4634 0.15101200   1.008000   ; qtot -0.209542
 4635         hc    177    ccc     H9   4635 0.15101200   1.008000   ; qtot -0.058530
 4636          c    177    ccc     C6   4636 0.558828  12.010000   ; qtot 0.943669
 4637         oh    177    ccc     O1   4637 -0.56822625  16.000000   ; qtot 0.170583
 4638          o    177    ccc     O2   4638 -0.39142825  16.000000   ; qtot -0.493755
 4639         h1    177    ccc    H10   4639 0.07335800   1.008000   ; qtot -0.420397
 4640         h1    177    ccc    H11   4640 0.07335800   1.008000   ; qtot -0.347039
 4641         c3    177    ccc     C7   4641 -0.49079800  12.010000   ; qtot -0.837837
 4642         hc    177    ccc    H12   4642 0.15101200   1.008000   ; qtot -0.686825
 4643         hc    177    ccc    H13   4643 0.15101200   1.008000   ; qtot -0.535813
 4644          c    177    ccc     C8   4644 0.558828  12.010000   ; qtot 0.466386
 4645          o    177    ccc     O3   4645 -0.39142825  16.000000   ; qtot -0.197952
 4646         oh    177    ccc     O4   4646 -0.56822625  16.000000   ; qtot -0.971038
 4647         ho    177    ccc    H14   4647 0.4511195   1.008000   ; qtot -0.485520
 4648         ho    177    ccc    H15   4648 0.4511195   1.008000   ; qtot -0.000002
; residue  178 ccc rtp ccc q 0.0
 4649          n    178    ccc     N1   4649 -0.87251700  14.010000   ; qtot -0.872519
 4650         hn    178    ccc     H1   4650 0.46040000   1.008000   ; qtot -0.412119
 4651         c3    178    ccc     C1   4651 0.65477900  12.010000   ; qtot 0.242660
 4652         h1    178    ccc     H2   4652 -0.08959600   1.008000   ; qtot 0.153064
 4653         c3    178    ccc     C2   4653 0.03619700  12.010000   ; qtot 0.189261
 4654         h1    178    ccc     H3   4654 -0.08959600   1.008000   ; qtot 0.099665
 4655         h1    178    ccc     H4   4655 0.06927800   1.008000   ; qtot 0.168943
 4656         h1    178    ccc     H5   4656 0.06927800   1.008000   ; qtot 0.238221
 4657         n3    178    ccc     N2   4657 -0.61358100  14.010000   ; qtot -0.375360
 4658         c3    178    ccc     C3   4658 0.17944400  12.010000   ; qtot -0.195916
 4659         c3    178    ccc     C4   4659 0.17944400  12.010000   ; qtot -0.016472
 4660         h1    178    ccc     H6   4660 0.07335800   1.008000   ; qtot 0.056886
 4661         c3    178    ccc     C5   4661 -0.49079800  12.010000   ; qtot -0.433912
 4662         h1    178    ccc     H7   4662 0.07335800   1.008000   ; qtot -0.360554
 4663         hc    178    ccc     H8   4663 0.15101200   1.008000   ; qtot -0.209542
 4664         hc    178    ccc     H9   4664 0.15101200   1.008000   ; qtot -0.058530
 4665          c    178    ccc     C6   4665 0.558828  12.010000   ; qtot 0.943669
 4666         oh    178    ccc     O1   4666 -0.56822625  16.000000   ; qtot 0.170583
 4667          o    178    ccc     O2   4667 -0.39142825  16.000000   ; qtot -0.493755
 4668         h1    178    ccc    H10   4668 0.07335800   1.008000   ; qtot -0.420397
 4669         h1    178    ccc    H11   4669 0.07335800   1.008000   ; qtot -0.347039
 4670         c3    178    ccc     C7   4670 -0.49079800  12.010000   ; qtot -0.837837
 4671         hc    178    ccc    H12   4671 0.15101200   1.008000   ; qtot -0.686825
 4672         hc    178    ccc    H13   4672 0.15101200   1.008000   ; qtot -0.535813
 4673          c    178    ccc     C8   4673 0.558828  12.010000   ; qtot 0.466386
 4674          o    178    ccc     O3   4674 -0.39142825  16.000000   ; qtot -0.197952
 4675         oh    178    ccc     O4   4675 -0.56822625  16.000000   ; qtot -0.971038
 4676         ho    178    ccc    H14   4676 0.4511195   1.008000   ; qtot -0.485520
 4677         ho    178    ccc    H15   4677 0.4511195   1.008000   ; qtot -0.000002
; residue  179 ccc rtp ccc q 0.0
 4678          n    179    ccc     N1   4678 -0.87251700  14.010000   ; qtot -0.872519
 4679         hn    179    ccc     H1   4679 0.46040000   1.008000   ; qtot -0.412119
 4680         c3    179    ccc     C1   4680 0.65477900  12.010000   ; qtot 0.242660
 4681         h1    179    ccc     H2   4681 -0.08959600   1.008000   ; qtot 0.153064
 4682         c3    179    ccc     C2   4682 0.03619700  12.010000   ; qtot 0.189261
 4683         h1    179    ccc     H3   4683 -0.08959600   1.008000   ; qtot 0.099665
 4684         h1    179    ccc     H4   4684 0.06927800   1.008000   ; qtot 0.168943
 4685         h1    179    ccc     H5   4685 0.06927800   1.008000   ; qtot 0.238221
 4686         n3    179    ccc     N2   4686 -0.61358100  14.010000   ; qtot -0.375360
 4687         c3    179    ccc     C3   4687 0.17944400  12.010000   ; qtot -0.195916
 4688         c3    179    ccc     C4   4688 0.17944400  12.010000   ; qtot -0.016472
 4689         h1    179    ccc     H6   4689 0.07335800   1.008000   ; qtot 0.056886
 4690         c3    179    ccc     C5   4690 -0.49079800  12.010000   ; qtot -0.433912
 4691         h1    179    ccc     H7   4691 0.07335800   1.008000   ; qtot -0.360554
 4692         hc    179    ccc     H8   4692 0.15101200   1.008000   ; qtot -0.209542
 4693         hc    179    ccc     H9   4693 0.15101200   1.008000   ; qtot -0.058530
 4694          c    179    ccc     C6   4694 0.558828  12.010000   ; qtot 0.943669
 4695         oh    179    ccc     O1   4695 -0.56822625  16.000000   ; qtot 0.170583
 4696          o    179    ccc     O2   4696 -0.39142825  16.000000   ; qtot -0.493755
 4697         h1    179    ccc    H10   4697 0.07335800   1.008000   ; qtot -0.420397
 4698         h1    179    ccc    H11   4698 0.07335800   1.008000   ; qtot -0.347039
 4699         c3    179    ccc     C7   4699 -0.49079800  12.010000   ; qtot -0.837837
 4700         hc    179    ccc    H12   4700 0.15101200   1.008000   ; qtot -0.686825
 4701         hc    179    ccc    H13   4701 0.15101200   1.008000   ; qtot -0.535813
 4702          c    179    ccc     C8   4702 0.558828  12.010000   ; qtot 0.466386
 4703          o    179    ccc     O3   4703 -0.39142825  16.000000   ; qtot -0.197952
 4704         oh    179    ccc     O4   4704 -0.56822625  16.000000   ; qtot -0.971038
 4705         ho    179    ccc    H14   4705 0.4511195   1.008000   ; qtot -0.485520
 4706         ho    179    ccc    H15   4706 0.4511195   1.008000   ; qtot -0.000002
; residue  180 ccc rtp ccc q 0.0
 4707          n    180    ccc     N1   4707 -0.87251700  14.010000   ; qtot -0.872519
 4708         hn    180    ccc     H1   4708 0.46040000   1.008000   ; qtot -0.412119
 4709         c3    180    ccc     C1   4709 0.65477900  12.010000   ; qtot 0.242660
 4710         h1    180    ccc     H2   4710 -0.08959600   1.008000   ; qtot 0.153064
 4711         c3    180    ccc     C2   4711 0.03619700  12.010000   ; qtot 0.189261
 4712         h1    180    ccc     H3   4712 -0.08959600   1.008000   ; qtot 0.099665
 4713         h1    180    ccc     H4   4713 0.06927800   1.008000   ; qtot 0.168943
 4714         h1    180    ccc     H5   4714 0.06927800   1.008000   ; qtot 0.238221
 4715         n3    180    ccc     N2   4715 -0.61358100  14.010000   ; qtot -0.375360
 4716         c3    180    ccc     C3   4716 0.17944400  12.010000   ; qtot -0.195916
 4717         c3    180    ccc     C4   4717 0.17944400  12.010000   ; qtot -0.016472
 4718         h1    180    ccc     H6   4718 0.07335800   1.008000   ; qtot 0.056886
 4719         c3    180    ccc     C5   4719 -0.49079800  12.010000   ; qtot -0.433912
 4720         h1    180    ccc     H7   4720 0.07335800   1.008000   ; qtot -0.360554
 4721         hc    180    ccc     H8   4721 0.15101200   1.008000   ; qtot -0.209542
 4722         hc    180    ccc     H9   4722 0.15101200   1.008000   ; qtot -0.058530
 4723          c    180    ccc     C6   4723 0.558828  12.010000   ; qtot 0.943669
 4724         oh    180    ccc     O1   4724 -0.56822625  16.000000   ; qtot 0.170583
 4725          o    180    ccc     O2   4725 -0.39142825  16.000000   ; qtot -0.493755
 4726         h1    180    ccc    H10   4726 0.07335800   1.008000   ; qtot -0.420397
 4727         h1    180    ccc    H11   4727 0.07335800   1.008000   ; qtot -0.347039
 4728         c3    180    ccc     C7   4728 -0.49079800  12.010000   ; qtot -0.837837
 4729         hc    180    ccc    H12   4729 0.15101200   1.008000   ; qtot -0.686825
 4730         hc    180    ccc    H13   4730 0.15101200   1.008000   ; qtot -0.535813
 4731          c    180    ccc     C8   4731 0.558828  12.010000   ; qtot 0.466386
 4732          o    180    ccc     O3   4732 -0.39142825  16.000000   ; qtot -0.197952
 4733         oh    180    ccc     O4   4733 -0.56822625  16.000000   ; qtot -0.971038
 4734         ho    180    ccc    H14   4734 0.4511195   1.008000   ; qtot -0.485520
 4735         ho    180    ccc    H15   4735 0.4511195   1.008000   ; qtot -0.000002
; residue  181 ccc rtp ccc q 0.0
 4736          n    181    ccc     N1   4736 -0.87251700  14.010000   ; qtot -0.872519
 4737         hn    181    ccc     H1   4737 0.46040000   1.008000   ; qtot -0.412119
 4738         c3    181    ccc     C1   4738 0.65477900  12.010000   ; qtot 0.242660
 4739         h1    181    ccc     H2   4739 -0.08959600   1.008000   ; qtot 0.153064
 4740         c3    181    ccc     C2   4740 0.03619700  12.010000   ; qtot 0.189261
 4741         h1    181    ccc     H3   4741 -0.08959600   1.008000   ; qtot 0.099665
 4742         h1    181    ccc     H4   4742 0.06927800   1.008000   ; qtot 0.168943
 4743         h1    181    ccc     H5   4743 0.06927800   1.008000   ; qtot 0.238221
 4744         n3    181    ccc     N2   4744 -0.61358100  14.010000   ; qtot -0.375360
 4745         c3    181    ccc     C3   4745 0.17944400  12.010000   ; qtot -0.195916
 4746         c3    181    ccc     C4   4746 0.17944400  12.010000   ; qtot -0.016472
 4747         h1    181    ccc     H6   4747 0.07335800   1.008000   ; qtot 0.056886
 4748         c3    181    ccc     C5   4748 -0.49079800  12.010000   ; qtot -0.433912
 4749         h1    181    ccc     H7   4749 0.07335800   1.008000   ; qtot -0.360554
 4750         hc    181    ccc     H8   4750 0.15101200   1.008000   ; qtot -0.209542
 4751         hc    181    ccc     H9   4751 0.15101200   1.008000   ; qtot -0.058530
 4752          c    181    ccc     C6   4752 0.558828  12.010000   ; qtot 0.943669
 4753         oh    181    ccc     O1   4753 -0.56822625  16.000000   ; qtot 0.170583
 4754          o    181    ccc     O2   4754 -0.39142825  16.000000   ; qtot -0.493755
 4755         h1    181    ccc    H10   4755 0.07335800   1.008000   ; qtot -0.420397
 4756         h1    181    ccc    H11   4756 0.07335800   1.008000   ; qtot -0.347039
 4757         c3    181    ccc     C7   4757 -0.49079800  12.010000   ; qtot -0.837837
 4758         hc    181    ccc    H12   4758 0.15101200   1.008000   ; qtot -0.686825
 4759         hc    181    ccc    H13   4759 0.15101200   1.008000   ; qtot -0.535813
 4760          c    181    ccc     C8   4760 0.558828  12.010000   ; qtot 0.466386
 4761          o    181    ccc     O3   4761 -0.39142825  16.000000   ; qtot -0.197952
 4762         oh    181    ccc     O4   4762 -0.56822625  16.000000   ; qtot -0.971038
 4763         ho    181    ccc    H14   4763 0.4511195   1.008000   ; qtot -0.485520
 4764         ho    181    ccc    H15   4764 0.4511195   1.008000   ; qtot -0.000002
; residue  182 ccc rtp ccc q 0.0
 4765          n    182    ccc     N1   4765 -0.87251700  14.010000   ; qtot -0.872519
 4766         hn    182    ccc     H1   4766 0.46040000   1.008000   ; qtot -0.412119
 4767         c3    182    ccc     C1   4767 0.65477900  12.010000   ; qtot 0.242660
 4768         h1    182    ccc     H2   4768 -0.08959600   1.008000   ; qtot 0.153064
 4769         c3    182    ccc     C2   4769 0.03619700  12.010000   ; qtot 0.189261
 4770         h1    182    ccc     H3   4770 -0.08959600   1.008000   ; qtot 0.099665
 4771         h1    182    ccc     H4   4771 0.06927800   1.008000   ; qtot 0.168943
 4772         h1    182    ccc     H5   4772 0.06927800   1.008000   ; qtot 0.238221
 4773         n3    182    ccc     N2   4773 -0.61358100  14.010000   ; qtot -0.375360
 4774         c3    182    ccc     C3   4774 0.17944400  12.010000   ; qtot -0.195916
 4775         c3    182    ccc     C4   4775 0.17944400  12.010000   ; qtot -0.016472
 4776         h1    182    ccc     H6   4776 0.07335800   1.008000   ; qtot 0.056886
 4777         c3    182    ccc     C5   4777 -0.49079800  12.010000   ; qtot -0.433912
 4778         h1    182    ccc     H7   4778 0.07335800   1.008000   ; qtot -0.360554
 4779         hc    182    ccc     H8   4779 0.15101200   1.008000   ; qtot -0.209542
 4780         hc    182    ccc     H9   4780 0.15101200   1.008000   ; qtot -0.058530
 4781          c    182    ccc     C6   4781 0.558828  12.010000   ; qtot 0.943669
 4782         oh    182    ccc     O1   4782 -0.56822625  16.000000   ; qtot 0.170583
 4783          o    182    ccc     O2   4783 -0.39142825  16.000000   ; qtot -0.493755
 4784         h1    182    ccc    H10   4784 0.07335800   1.008000   ; qtot -0.420397
 4785         h1    182    ccc    H11   4785 0.07335800   1.008000   ; qtot -0.347039
 4786         c3    182    ccc     C7   4786 -0.49079800  12.010000   ; qtot -0.837837
 4787         hc    182    ccc    H12   4787 0.15101200   1.008000   ; qtot -0.686825
 4788         hc    182    ccc    H13   4788 0.15101200   1.008000   ; qtot -0.535813
 4789          c    182    ccc     C8   4789 0.558828  12.010000   ; qtot 0.466386
 4790          o    182    ccc     O3   4790 -0.39142825  16.000000   ; qtot -0.197952
 4791         oh    182    ccc     O4   4791 -0.56822625  16.000000   ; qtot -0.971038
 4792         ho    182    ccc    H14   4792 0.4511195   1.008000   ; qtot -0.485520
 4793         ho    182    ccc    H15   4793 0.4511195   1.008000   ; qtot -0.000002
; residue  183 ccc rtp ccc q 0.0
 4794          n    183    ccc     N1   4794 -0.87251700  14.010000   ; qtot -0.872519
 4795         hn    183    ccc     H1   4795 0.46040000   1.008000   ; qtot -0.412119
 4796         c3    183    ccc     C1   4796 0.65477900  12.010000   ; qtot 0.242660
 4797         h1    183    ccc     H2   4797 -0.08959600   1.008000   ; qtot 0.153064
 4798         c3    183    ccc     C2   4798 0.03619700  12.010000   ; qtot 0.189261
 4799         h1    183    ccc     H3   4799 -0.08959600   1.008000   ; qtot 0.099665
 4800         h1    183    ccc     H4   4800 0.06927800   1.008000   ; qtot 0.168943
 4801         h1    183    ccc     H5   4801 0.06927800   1.008000   ; qtot 0.238221
 4802         n3    183    ccc     N2   4802 -0.61358100  14.010000   ; qtot -0.375360
 4803         c3    183    ccc     C3   4803 0.17944400  12.010000   ; qtot -0.195916
 4804         c3    183    ccc     C4   4804 0.17944400  12.010000   ; qtot -0.016472
 4805         h1    183    ccc     H6   4805 0.07335800   1.008000   ; qtot 0.056886
 4806         c3    183    ccc     C5   4806 -0.49079800  12.010000   ; qtot -0.433912
 4807         h1    183    ccc     H7   4807 0.07335800   1.008000   ; qtot -0.360554
 4808         hc    183    ccc     H8   4808 0.15101200   1.008000   ; qtot -0.209542
 4809         hc    183    ccc     H9   4809 0.15101200   1.008000   ; qtot -0.058530
 4810          c    183    ccc     C6   4810 0.558828  12.010000   ; qtot 0.943669
 4811         oh    183    ccc     O1   4811 -0.56822625  16.000000   ; qtot 0.170583
 4812          o    183    ccc     O2   4812 -0.39142825  16.000000   ; qtot -0.493755
 4813         h1    183    ccc    H10   4813 0.07335800   1.008000   ; qtot -0.420397
 4814         h1    183    ccc    H11   4814 0.07335800   1.008000   ; qtot -0.347039
 4815         c3    183    ccc     C7   4815 -0.49079800  12.010000   ; qtot -0.837837
 4816         hc    183    ccc    H12   4816 0.15101200   1.008000   ; qtot -0.686825
 4817         hc    183    ccc    H13   4817 0.15101200   1.008000   ; qtot -0.535813
 4818          c    183    ccc     C8   4818 0.558828  12.010000   ; qtot 0.466386
 4819          o    183    ccc     O3   4819 -0.39142825  16.000000   ; qtot -0.197952
 4820         oh    183    ccc     O4   4820 -0.56822625  16.000000   ; qtot -0.971038
 4821         ho    183    ccc    H14   4821 0.4511195   1.008000   ; qtot -0.485520
 4822         ho    183    ccc    H15   4822 0.4511195   1.008000   ; qtot -0.000002
; residue  184 ccc rtp ccc q 0.0
 4823          n    184    ccc     N1   4823 -0.87251700  14.010000   ; qtot -0.872519
 4824         hn    184    ccc     H1   4824 0.46040000   1.008000   ; qtot -0.412119
 4825         c3    184    ccc     C1   4825 0.65477900  12.010000   ; qtot 0.242660
 4826         h1    184    ccc     H2   4826 -0.08959600   1.008000   ; qtot 0.153064
 4827         c3    184    ccc     C2   4827 0.03619700  12.010000   ; qtot 0.189261
 4828         h1    184    ccc     H3   4828 -0.08959600   1.008000   ; qtot 0.099665
 4829         h1    184    ccc     H4   4829 0.06927800   1.008000   ; qtot 0.168943
 4830         h1    184    ccc     H5   4830 0.06927800   1.008000   ; qtot 0.238221
 4831         n3    184    ccc     N2   4831 -0.61358100  14.010000   ; qtot -0.375360
 4832         c3    184    ccc     C3   4832 0.17944400  12.010000   ; qtot -0.195916
 4833         c3    184    ccc     C4   4833 0.17944400  12.010000   ; qtot -0.016472
 4834         h1    184    ccc     H6   4834 0.07335800   1.008000   ; qtot 0.056886
 4835         c3    184    ccc     C5   4835 -0.49079800  12.010000   ; qtot -0.433912
 4836         h1    184    ccc     H7   4836 0.07335800   1.008000   ; qtot -0.360554
 4837         hc    184    ccc     H8   4837 0.15101200   1.008000   ; qtot -0.209542
 4838         hc    184    ccc     H9   4838 0.15101200   1.008000   ; qtot -0.058530
 4839          c    184    ccc     C6   4839 0.558828  12.010000   ; qtot 0.943669
 4840         oh    184    ccc     O1   4840 -0.56822625  16.000000   ; qtot 0.170583
 4841          o    184    ccc     O2   4841 -0.39142825  16.000000   ; qtot -0.493755
 4842         h1    184    ccc    H10   4842 0.07335800   1.008000   ; qtot -0.420397
 4843         h1    184    ccc    H11   4843 0.07335800   1.008000   ; qtot -0.347039
 4844         c3    184    ccc     C7   4844 -0.49079800  12.010000   ; qtot -0.837837
 4845         hc    184    ccc    H12   4845 0.15101200   1.008000   ; qtot -0.686825
 4846         hc    184    ccc    H13   4846 0.15101200   1.008000   ; qtot -0.535813
 4847          c    184    ccc     C8   4847 0.558828  12.010000   ; qtot 0.466386
 4848          o    184    ccc     O3   4848 -0.39142825  16.000000   ; qtot -0.197952
 4849         oh    184    ccc     O4   4849 -0.56822625  16.000000   ; qtot -0.971038
 4850         ho    184    ccc    H14   4850 0.4511195   1.008000   ; qtot -0.485520
 4851         ho    184    ccc    H15   4851 0.4511195   1.008000   ; qtot -0.000002
; residue  185 ccc rtp ccc q 0.0
 4852          n    185    ccc     N1   4852 -0.87251700  14.010000   ; qtot -0.872519
 4853         hn    185    ccc     H1   4853 0.46040000   1.008000   ; qtot -0.412119
 4854         c3    185    ccc     C1   4854 0.65477900  12.010000   ; qtot 0.242660
 4855         h1    185    ccc     H2   4855 -0.08959600   1.008000   ; qtot 0.153064
 4856         c3    185    ccc     C2   4856 0.03619700  12.010000   ; qtot 0.189261
 4857         h1    185    ccc     H3   4857 -0.08959600   1.008000   ; qtot 0.099665
 4858         h1    185    ccc     H4   4858 0.06927800   1.008000   ; qtot 0.168943
 4859         h1    185    ccc     H5   4859 0.06927800   1.008000   ; qtot 0.238221
 4860         n3    185    ccc     N2   4860 -0.61358100  14.010000   ; qtot -0.375360
 4861         c3    185    ccc     C3   4861 0.17944400  12.010000   ; qtot -0.195916
 4862         c3    185    ccc     C4   4862 0.17944400  12.010000   ; qtot -0.016472
 4863         h1    185    ccc     H6   4863 0.07335800   1.008000   ; qtot 0.056886
 4864         c3    185    ccc     C5   4864 -0.49079800  12.010000   ; qtot -0.433912
 4865         h1    185    ccc     H7   4865 0.07335800   1.008000   ; qtot -0.360554
 4866         hc    185    ccc     H8   4866 0.15101200   1.008000   ; qtot -0.209542
 4867         hc    185    ccc     H9   4867 0.15101200   1.008000   ; qtot -0.058530
 4868          c    185    ccc     C6   4868 0.558828  12.010000   ; qtot 0.943669
 4869         oh    185    ccc     O1   4869 -0.56822625  16.000000   ; qtot 0.170583
 4870          o    185    ccc     O2   4870 -0.39142825  16.000000   ; qtot -0.493755
 4871         h1    185    ccc    H10   4871 0.07335800   1.008000   ; qtot -0.420397
 4872         h1    185    ccc    H11   4872 0.07335800   1.008000   ; qtot -0.347039
 4873         c3    185    ccc     C7   4873 -0.49079800  12.010000   ; qtot -0.837837
 4874         hc    185    ccc    H12   4874 0.15101200   1.008000   ; qtot -0.686825
 4875         hc    185    ccc    H13   4875 0.15101200   1.008000   ; qtot -0.535813
 4876          c    185    ccc     C8   4876 0.558828  12.010000   ; qtot 0.466386
 4877          o    185    ccc     O3   4877 -0.39142825  16.000000   ; qtot -0.197952
 4878         oh    185    ccc     O4   4878 -0.56822625  16.000000   ; qtot -0.971038
 4879         ho    185    ccc    H14   4879 0.4511195   1.008000   ; qtot -0.485520
 4880         ho    185    ccc    H15   4880 0.4511195   1.008000   ; qtot -0.000002
; residue  186 ccc rtp ccc q 0.0
 4881          n    186    ccc     N1   4881 -0.87251700  14.010000   ; qtot -0.872519
 4882         hn    186    ccc     H1   4882 0.46040000   1.008000   ; qtot -0.412119
 4883         c3    186    ccc     C1   4883 0.65477900  12.010000   ; qtot 0.242660
 4884         h1    186    ccc     H2   4884 -0.08959600   1.008000   ; qtot 0.153064
 4885         c3    186    ccc     C2   4885 0.03619700  12.010000   ; qtot 0.189261
 4886         h1    186    ccc     H3   4886 -0.08959600   1.008000   ; qtot 0.099665
 4887         h1    186    ccc     H4   4887 0.06927800   1.008000   ; qtot 0.168943
 4888         h1    186    ccc     H5   4888 0.06927800   1.008000   ; qtot 0.238221
 4889         n3    186    ccc     N2   4889 -0.61358100  14.010000   ; qtot -0.375360
 4890         c3    186    ccc     C3   4890 0.17944400  12.010000   ; qtot -0.195916
 4891         c3    186    ccc     C4   4891 0.17944400  12.010000   ; qtot -0.016472
 4892         h1    186    ccc     H6   4892 0.07335800   1.008000   ; qtot 0.056886
 4893         c3    186    ccc     C5   4893 -0.49079800  12.010000   ; qtot -0.433912
 4894         h1    186    ccc     H7   4894 0.07335800   1.008000   ; qtot -0.360554
 4895         hc    186    ccc     H8   4895 0.15101200   1.008000   ; qtot -0.209542
 4896         hc    186    ccc     H9   4896 0.15101200   1.008000   ; qtot -0.058530
 4897          c    186    ccc     C6   4897 0.558828  12.010000   ; qtot 0.943669
 4898         oh    186    ccc     O1   4898 -0.56822625  16.000000   ; qtot 0.170583
 4899          o    186    ccc     O2   4899 -0.39142825  16.000000   ; qtot -0.493755
 4900         h1    186    ccc    H10   4900 0.07335800   1.008000   ; qtot -0.420397
 4901         h1    186    ccc    H11   4901 0.07335800   1.008000   ; qtot -0.347039
 4902         c3    186    ccc     C7   4902 -0.49079800  12.010000   ; qtot -0.837837
 4903         hc    186    ccc    H12   4903 0.15101200   1.008000   ; qtot -0.686825
 4904         hc    186    ccc    H13   4904 0.15101200   1.008000   ; qtot -0.535813
 4905          c    186    ccc     C8   4905 0.558828  12.010000   ; qtot 0.466386
 4906          o    186    ccc     O3   4906 -0.39142825  16.000000   ; qtot -0.197952
 4907         oh    186    ccc     O4   4907 -0.56822625  16.000000   ; qtot -0.971038
 4908         ho    186    ccc    H14   4908 0.4511195   1.008000   ; qtot -0.485520
 4909         ho    186    ccc    H15   4909 0.4511195   1.008000   ; qtot -0.000002
; residue  187 ccc rtp ccc q 0.0
 4910          n    187    ccc     N1   4910 -0.87251700  14.010000   ; qtot -0.872519
 4911         hn    187    ccc     H1   4911 0.46040000   1.008000   ; qtot -0.412119
 4912         c3    187    ccc     C1   4912 0.65477900  12.010000   ; qtot 0.242660
 4913         h1    187    ccc     H2   4913 -0.08959600   1.008000   ; qtot 0.153064
 4914         c3    187    ccc     C2   4914 0.03619700  12.010000   ; qtot 0.189261
 4915         h1    187    ccc     H3   4915 -0.08959600   1.008000   ; qtot 0.099665
 4916         h1    187    ccc     H4   4916 0.06927800   1.008000   ; qtot 0.168943
 4917         h1    187    ccc     H5   4917 0.06927800   1.008000   ; qtot 0.238221
 4918         n3    187    ccc     N2   4918 -0.61358100  14.010000   ; qtot -0.375360
 4919         c3    187    ccc     C3   4919 0.17944400  12.010000   ; qtot -0.195916
 4920         c3    187    ccc     C4   4920 0.17944400  12.010000   ; qtot -0.016472
 4921         h1    187    ccc     H6   4921 0.07335800   1.008000   ; qtot 0.056886
 4922         c3    187    ccc     C5   4922 -0.49079800  12.010000   ; qtot -0.433912
 4923         h1    187    ccc     H7   4923 0.07335800   1.008000   ; qtot -0.360554
 4924         hc    187    ccc     H8   4924 0.15101200   1.008000   ; qtot -0.209542
 4925         hc    187    ccc     H9   4925 0.15101200   1.008000   ; qtot -0.058530
 4926          c    187    ccc     C6   4926 0.558828  12.010000   ; qtot 0.943669
 4927         oh    187    ccc     O1   4927 -0.56822625  16.000000   ; qtot 0.170583
 4928          o    187    ccc     O2   4928 -0.39142825  16.000000   ; qtot -0.493755
 4929         h1    187    ccc    H10   4929 0.07335800   1.008000   ; qtot -0.420397
 4930         h1    187    ccc    H11   4930 0.07335800   1.008000   ; qtot -0.347039
 4931         c3    187    ccc     C7   4931 -0.49079800  12.010000   ; qtot -0.837837
 4932         hc    187    ccc    H12   4932 0.15101200   1.008000   ; qtot -0.686825
 4933         hc    187    ccc    H13   4933 0.15101200   1.008000   ; qtot -0.535813
 4934          c    187    ccc     C8   4934 0.558828  12.010000   ; qtot 0.466386
 4935          o    187    ccc     O3   4935 -0.39142825  16.000000   ; qtot -0.197952
 4936         oh    187    ccc     O4   4936 -0.56822625  16.000000   ; qtot -0.971038
 4937         ho    187    ccc    H14   4937 0.4511195   1.008000   ; qtot -0.485520
 4938         ho    187    ccc    H15   4938 0.4511195   1.008000   ; qtot -0.000002
; residue  188 ccc rtp ccc q 0.0
 4939          n    188    ccc     N1   4939 -0.87251700  14.010000   ; qtot -0.872519
 4940         hn    188    ccc     H1   4940 0.46040000   1.008000   ; qtot -0.412119
 4941         c3    188    ccc     C1   4941 0.65477900  12.010000   ; qtot 0.242660
 4942         h1    188    ccc     H2   4942 -0.08959600   1.008000   ; qtot 0.153064
 4943         c3    188    ccc     C2   4943 0.03619700  12.010000   ; qtot 0.189261
 4944         h1    188    ccc     H3   4944 -0.08959600   1.008000   ; qtot 0.099665
 4945         h1    188    ccc     H4   4945 0.06927800   1.008000   ; qtot 0.168943
 4946         h1    188    ccc     H5   4946 0.06927800   1.008000   ; qtot 0.238221
 4947         n3    188    ccc     N2   4947 -0.61358100  14.010000   ; qtot -0.375360
 4948         c3    188    ccc     C3   4948 0.17944400  12.010000   ; qtot -0.195916
 4949         c3    188    ccc     C4   4949 0.17944400  12.010000   ; qtot -0.016472
 4950         h1    188    ccc     H6   4950 0.07335800   1.008000   ; qtot 0.056886
 4951         c3    188    ccc     C5   4951 -0.49079800  12.010000   ; qtot -0.433912
 4952         h1    188    ccc     H7   4952 0.07335800   1.008000   ; qtot -0.360554
 4953         hc    188    ccc     H8   4953 0.15101200   1.008000   ; qtot -0.209542
 4954         hc    188    ccc     H9   4954 0.15101200   1.008000   ; qtot -0.058530
 4955          c    188    ccc     C6   4955 0.558828  12.010000   ; qtot 0.943669
 4956         oh    188    ccc     O1   4956 -0.56822625  16.000000   ; qtot 0.170583
 4957          o    188    ccc     O2   4957 -0.39142825  16.000000   ; qtot -0.493755
 4958         h1    188    ccc    H10   4958 0.07335800   1.008000   ; qtot -0.420397
 4959         h1    188    ccc    H11   4959 0.07335800   1.008000   ; qtot -0.347039
 4960         c3    188    ccc     C7   4960 -0.49079800  12.010000   ; qtot -0.837837
 4961         hc    188    ccc    H12   4961 0.15101200   1.008000   ; qtot -0.686825
 4962         hc    188    ccc    H13   4962 0.15101200   1.008000   ; qtot -0.535813
 4963          c    188    ccc     C8   4963 0.558828  12.010000   ; qtot 0.466386
 4964          o    188    ccc     O3   4964 -0.39142825  16.000000   ; qtot -0.197952
 4965         oh    188    ccc     O4   4965 -0.56822625  16.000000   ; qtot -0.971038
 4966         ho    188    ccc    H14   4966 0.4511195   1.008000   ; qtot -0.485520
 4967         ho    188    ccc    H15   4967 0.4511195   1.008000   ; qtot -0.000002
; residue  189 ccc rtp ccc q 0.0
 4968          n    189    ccc     N1   4968 -0.87251700  14.010000   ; qtot -0.872519
 4969         hn    189    ccc     H1   4969 0.46040000   1.008000   ; qtot -0.412119
 4970         c3    189    ccc     C1   4970 0.65477900  12.010000   ; qtot 0.242660
 4971         h1    189    ccc     H2   4971 -0.08959600   1.008000   ; qtot 0.153064
 4972         c3    189    ccc     C2   4972 0.03619700  12.010000   ; qtot 0.189261
 4973         h1    189    ccc     H3   4973 -0.08959600   1.008000   ; qtot 0.099665
 4974         h1    189    ccc     H4   4974 0.06927800   1.008000   ; qtot 0.168943
 4975         h1    189    ccc     H5   4975 0.06927800   1.008000   ; qtot 0.238221
 4976         n3    189    ccc     N2   4976 -0.61358100  14.010000   ; qtot -0.375360
 4977         c3    189    ccc     C3   4977 0.17944400  12.010000   ; qtot -0.195916
 4978         c3    189    ccc     C4   4978 0.17944400  12.010000   ; qtot -0.016472
 4979         h1    189    ccc     H6   4979 0.07335800   1.008000   ; qtot 0.056886
 4980         c3    189    ccc     C5   4980 -0.49079800  12.010000   ; qtot -0.433912
 4981         h1    189    ccc     H7   4981 0.07335800   1.008000   ; qtot -0.360554
 4982         hc    189    ccc     H8   4982 0.15101200   1.008000   ; qtot -0.209542
 4983         hc    189    ccc     H9   4983 0.15101200   1.008000   ; qtot -0.058530
 4984          c    189    ccc     C6   4984 0.558828  12.010000   ; qtot 0.943669
 4985         oh    189    ccc     O1   4985 -0.56822625  16.000000   ; qtot 0.170583
 4986          o    189    ccc     O2   4986 -0.39142825  16.000000   ; qtot -0.493755
 4987         h1    189    ccc    H10   4987 0.07335800   1.008000   ; qtot -0.420397
 4988         h1    189    ccc    H11   4988 0.07335800   1.008000   ; qtot -0.347039
 4989         c3    189    ccc     C7   4989 -0.49079800  12.010000   ; qtot -0.837837
 4990         hc    189    ccc    H12   4990 0.15101200   1.008000   ; qtot -0.686825
 4991         hc    189    ccc    H13   4991 0.15101200   1.008000   ; qtot -0.535813
 4992          c    189    ccc     C8   4992 0.558828  12.010000   ; qtot 0.466386
 4993          o    189    ccc     O3   4993 -0.39142825  16.000000   ; qtot -0.197952
 4994         oh    189    ccc     O4   4994 -0.56822625  16.000000   ; qtot -0.971038
 4995         ho    189    ccc    H14   4995 0.4511195   1.008000   ; qtot -0.485520
 4996         ho    189    ccc    H15   4996 0.4511195   1.008000   ; qtot -0.000002
; residue  190 ccc rtp ccc q 0.0
 4997          n    190    ccc     N1   4997 -0.87251700  14.010000   ; qtot -0.872519
 4998         hn    190    ccc     H1   4998 0.46040000   1.008000   ; qtot -0.412119
 4999         c3    190    ccc     C1   4999 0.65477900  12.010000   ; qtot 0.242660
 5000         h1    190    ccc     H2   5000 -0.08959600   1.008000   ; qtot 0.153064
 5001         c3    190    ccc     C2   5001 0.03619700  12.010000   ; qtot 0.189261
 5002         h1    190    ccc     H3   5002 -0.08959600   1.008000   ; qtot 0.099665
 5003         h1    190    ccc     H4   5003 0.06927800   1.008000   ; qtot 0.168943
 5004         h1    190    ccc     H5   5004 0.06927800   1.008000   ; qtot 0.238221
 5005         n3    190    ccc     N2   5005 -0.61358100  14.010000   ; qtot -0.375360
 5006         c3    190    ccc     C3   5006 0.17944400  12.010000   ; qtot -0.195916
 5007         c3    190    ccc     C4   5007 0.17944400  12.010000   ; qtot -0.016472
 5008         h1    190    ccc     H6   5008 0.07335800   1.008000   ; qtot 0.056886
 5009         c3    190    ccc     C5   5009 -0.49079800  12.010000   ; qtot -0.433912
 5010         h1    190    ccc     H7   5010 0.07335800   1.008000   ; qtot -0.360554
 5011         hc    190    ccc     H8   5011 0.15101200   1.008000   ; qtot -0.209542
 5012         hc    190    ccc     H9   5012 0.15101200   1.008000   ; qtot -0.058530
 5013          c    190    ccc     C6   5013 0.558828  12.010000   ; qtot 0.943669
 5014         oh    190    ccc     O1   5014 -0.56822625  16.000000   ; qtot 0.170583
 5015          o    190    ccc     O2   5015 -0.39142825  16.000000   ; qtot -0.493755
 5016         h1    190    ccc    H10   5016 0.07335800   1.008000   ; qtot -0.420397
 5017         h1    190    ccc    H11   5017 0.07335800   1.008000   ; qtot -0.347039
 5018         c3    190    ccc     C7   5018 -0.49079800  12.010000   ; qtot -0.837837
 5019         hc    190    ccc    H12   5019 0.15101200   1.008000   ; qtot -0.686825
 5020         hc    190    ccc    H13   5020 0.15101200   1.008000   ; qtot -0.535813
 5021          c    190    ccc     C8   5021 0.558828  12.010000   ; qtot 0.466386
 5022          o    190    ccc     O3   5022 -0.39142825  16.000000   ; qtot -0.197952
 5023         oh    190    ccc     O4   5023 -0.56822625  16.000000   ; qtot -0.971038
 5024         ho    190    ccc    H14   5024 0.4511195   1.008000   ; qtot -0.485520
 5025         ho    190    ccc    H15   5025 0.4511195   1.008000   ; qtot -0.000002
; residue  191 ccc rtp ccc q 0.0
 5026          n    191    ccc     N1   5026 -0.87251700  14.010000   ; qtot -0.872519
 5027         hn    191    ccc     H1   5027 0.46040000   1.008000   ; qtot -0.412119
 5028         c3    191    ccc     C1   5028 0.65477900  12.010000   ; qtot 0.242660
 5029         h1    191    ccc     H2   5029 -0.08959600   1.008000   ; qtot 0.153064
 5030         c3    191    ccc     C2   5030 0.03619700  12.010000   ; qtot 0.189261
 5031         h1    191    ccc     H3   5031 -0.08959600   1.008000   ; qtot 0.099665
 5032         h1    191    ccc     H4   5032 0.06927800   1.008000   ; qtot 0.168943
 5033         h1    191    ccc     H5   5033 0.06927800   1.008000   ; qtot 0.238221
 5034         n3    191    ccc     N2   5034 -0.61358100  14.010000   ; qtot -0.375360
 5035         c3    191    ccc     C3   5035 0.17944400  12.010000   ; qtot -0.195916
 5036         c3    191    ccc     C4   5036 0.17944400  12.010000   ; qtot -0.016472
 5037         h1    191    ccc     H6   5037 0.07335800   1.008000   ; qtot 0.056886
 5038         c3    191    ccc     C5   5038 -0.49079800  12.010000   ; qtot -0.433912
 5039         h1    191    ccc     H7   5039 0.07335800   1.008000   ; qtot -0.360554
 5040         hc    191    ccc     H8   5040 0.15101200   1.008000   ; qtot -0.209542
 5041         hc    191    ccc     H9   5041 0.15101200   1.008000   ; qtot -0.058530
 5042          c    191    ccc     C6   5042 0.558828  12.010000   ; qtot 0.943669
 5043         oh    191    ccc     O1   5043 -0.56822625  16.000000   ; qtot 0.170583
 5044          o    191    ccc     O2   5044 -0.39142825  16.000000   ; qtot -0.493755
 5045         h1    191    ccc    H10   5045 0.07335800   1.008000   ; qtot -0.420397
 5046         h1    191    ccc    H11   5046 0.07335800   1.008000   ; qtot -0.347039
 5047         c3    191    ccc     C7   5047 -0.49079800  12.010000   ; qtot -0.837837
 5048         hc    191    ccc    H12   5048 0.15101200   1.008000   ; qtot -0.686825
 5049         hc    191    ccc    H13   5049 0.15101200   1.008000   ; qtot -0.535813
 5050          c    191    ccc     C8   5050 0.558828  12.010000   ; qtot 0.466386
 5051          o    191    ccc     O3   5051 -0.39142825  16.000000   ; qtot -0.197952
 5052         oh    191    ccc     O4   5052 -0.56822625  16.000000   ; qtot -0.971038
 5053         ho    191    ccc    H14   5053 0.4511195   1.008000   ; qtot -0.485520
 5054         ho    191    ccc    H15   5054 0.4511195   1.008000   ; qtot -0.000002
; residue  192 ccc rtp ccc q 0.0
 5055          n    192    ccc     N1   5055 -0.87251700  14.010000   ; qtot -0.872519
 5056         hn    192    ccc     H1   5056 0.46040000   1.008000   ; qtot -0.412119
 5057         c3    192    ccc     C1   5057 0.65477900  12.010000   ; qtot 0.242660
 5058         h1    192    ccc     H2   5058 -0.08959600   1.008000   ; qtot 0.153064
 5059         c3    192    ccc     C2   5059 0.03619700  12.010000   ; qtot 0.189261
 5060         h1    192    ccc     H3   5060 -0.08959600   1.008000   ; qtot 0.099665
 5061         h1    192    ccc     H4   5061 0.06927800   1.008000   ; qtot 0.168943
 5062         h1    192    ccc     H5   5062 0.06927800   1.008000   ; qtot 0.238221
 5063         n3    192    ccc     N2   5063 -0.61358100  14.010000   ; qtot -0.375360
 5064         c3    192    ccc     C3   5064 0.17944400  12.010000   ; qtot -0.195916
 5065         c3    192    ccc     C4   5065 0.17944400  12.010000   ; qtot -0.016472
 5066         h1    192    ccc     H6   5066 0.07335800   1.008000   ; qtot 0.056886
 5067         c3    192    ccc     C5   5067 -0.49079800  12.010000   ; qtot -0.433912
 5068         h1    192    ccc     H7   5068 0.07335800   1.008000   ; qtot -0.360554
 5069         hc    192    ccc     H8   5069 0.15101200   1.008000   ; qtot -0.209542
 5070         hc    192    ccc     H9   5070 0.15101200   1.008000   ; qtot -0.058530
 5071          c    192    ccc     C6   5071 0.558828  12.010000   ; qtot 0.943669
 5072         oh    192    ccc     O1   5072 -0.56822625  16.000000   ; qtot 0.170583
 5073          o    192    ccc     O2   5073 -0.39142825  16.000000   ; qtot -0.493755
 5074         h1    192    ccc    H10   5074 0.07335800   1.008000   ; qtot -0.420397
 5075         h1    192    ccc    H11   5075 0.07335800   1.008000   ; qtot -0.347039
 5076         c3    192    ccc     C7   5076 -0.49079800  12.010000   ; qtot -0.837837
 5077         hc    192    ccc    H12   5077 0.15101200   1.008000   ; qtot -0.686825
 5078         hc    192    ccc    H13   5078 0.15101200   1.008000   ; qtot -0.535813
 5079          c    192    ccc     C8   5079 0.558828  12.010000   ; qtot 0.466386
 5080          o    192    ccc     O3   5080 -0.39142825  16.000000   ; qtot -0.197952
 5081         oh    192    ccc     O4   5081 -0.56822625  16.000000   ; qtot -0.971038
 5082         ho    192    ccc    H14   5082 0.4511195   1.008000   ; qtot -0.485520
 5083         ho    192    ccc    H15   5083 0.4511195   1.008000   ; qtot -0.000002
; residue  193 ccc rtp ccc q 0.0
 5084          n    193    ccc     N1   5084 -0.87251700  14.010000   ; qtot -0.872519
 5085         hn    193    ccc     H1   5085 0.46040000   1.008000   ; qtot -0.412119
 5086         c3    193    ccc     C1   5086 0.65477900  12.010000   ; qtot 0.242660
 5087         h1    193    ccc     H2   5087 -0.08959600   1.008000   ; qtot 0.153064
 5088         c3    193    ccc     C2   5088 0.03619700  12.010000   ; qtot 0.189261
 5089         h1    193    ccc     H3   5089 -0.08959600   1.008000   ; qtot 0.099665
 5090         h1    193    ccc     H4   5090 0.06927800   1.008000   ; qtot 0.168943
 5091         h1    193    ccc     H5   5091 0.06927800   1.008000   ; qtot 0.238221
 5092         n3    193    ccc     N2   5092 -0.61358100  14.010000   ; qtot -0.375360
 5093         c3    193    ccc     C3   5093 0.17944400  12.010000   ; qtot -0.195916
 5094         c3    193    ccc     C4   5094 0.17944400  12.010000   ; qtot -0.016472
 5095         h1    193    ccc     H6   5095 0.07335800   1.008000   ; qtot 0.056886
 5096         c3    193    ccc     C5   5096 -0.49079800  12.010000   ; qtot -0.433912
 5097         h1    193    ccc     H7   5097 0.07335800   1.008000   ; qtot -0.360554
 5098         hc    193    ccc     H8   5098 0.15101200   1.008000   ; qtot -0.209542
 5099         hc    193    ccc     H9   5099 0.15101200   1.008000   ; qtot -0.058530
 5100          c    193    ccc     C6   5100 0.558828  12.010000   ; qtot 0.943669
 5101         oh    193    ccc     O1   5101 -0.56822625  16.000000   ; qtot 0.170583
 5102          o    193    ccc     O2   5102 -0.39142825  16.000000   ; qtot -0.493755
 5103         h1    193    ccc    H10   5103 0.07335800   1.008000   ; qtot -0.420397
 5104         h1    193    ccc    H11   5104 0.07335800   1.008000   ; qtot -0.347039
 5105         c3    193    ccc     C7   5105 -0.49079800  12.010000   ; qtot -0.837837
 5106         hc    193    ccc    H12   5106 0.15101200   1.008000   ; qtot -0.686825
 5107         hc    193    ccc    H13   5107 0.15101200   1.008000   ; qtot -0.535813
 5108          c    193    ccc     C8   5108 0.558828  12.010000   ; qtot 0.466386
 5109          o    193    ccc     O3   5109 -0.39142825  16.000000   ; qtot -0.197952
 5110         oh    193    ccc     O4   5110 -0.56822625  16.000000   ; qtot -0.971038
 5111         ho    193    ccc    H14   5111 0.4511195   1.008000   ; qtot -0.485520
 5112         ho    193    ccc    H15   5112 0.4511195   1.008000   ; qtot -0.000002
; residue  194 ccc rtp ccc q 0.0
 5113          n    194    ccc     N1   5113 -0.87251700  14.010000   ; qtot -0.872519
 5114         hn    194    ccc     H1   5114 0.46040000   1.008000   ; qtot -0.412119
 5115         c3    194    ccc     C1   5115 0.65477900  12.010000   ; qtot 0.242660
 5116         h1    194    ccc     H2   5116 -0.08959600   1.008000   ; qtot 0.153064
 5117         c3    194    ccc     C2   5117 0.03619700  12.010000   ; qtot 0.189261
 5118         h1    194    ccc     H3   5118 -0.08959600   1.008000   ; qtot 0.099665
 5119         h1    194    ccc     H4   5119 0.06927800   1.008000   ; qtot 0.168943
 5120         h1    194    ccc     H5   5120 0.06927800   1.008000   ; qtot 0.238221
 5121         n3    194    ccc     N2   5121 -0.61358100  14.010000   ; qtot -0.375360
 5122         c3    194    ccc     C3   5122 0.17944400  12.010000   ; qtot -0.195916
 5123         c3    194    ccc     C4   5123 0.17944400  12.010000   ; qtot -0.016472
 5124         h1    194    ccc     H6   5124 0.07335800   1.008000   ; qtot 0.056886
 5125         c3    194    ccc     C5   5125 -0.49079800  12.010000   ; qtot -0.433912
 5126         h1    194    ccc     H7   5126 0.07335800   1.008000   ; qtot -0.360554
 5127         hc    194    ccc     H8   5127 0.15101200   1.008000   ; qtot -0.209542
 5128         hc    194    ccc     H9   5128 0.15101200   1.008000   ; qtot -0.058530
 5129          c    194    ccc     C6   5129 0.558828  12.010000   ; qtot 0.943669
 5130         oh    194    ccc     O1   5130 -0.56822625  16.000000   ; qtot 0.170583
 5131          o    194    ccc     O2   5131 -0.39142825  16.000000   ; qtot -0.493755
 5132         h1    194    ccc    H10   5132 0.07335800   1.008000   ; qtot -0.420397
 5133         h1    194    ccc    H11   5133 0.07335800   1.008000   ; qtot -0.347039
 5134         c3    194    ccc     C7   5134 -0.49079800  12.010000   ; qtot -0.837837
 5135         hc    194    ccc    H12   5135 0.15101200   1.008000   ; qtot -0.686825
 5136         hc    194    ccc    H13   5136 0.15101200   1.008000   ; qtot -0.535813
 5137          c    194    ccc     C8   5137 0.558828  12.010000   ; qtot 0.466386
 5138          o    194    ccc     O3   5138 -0.39142825  16.000000   ; qtot -0.197952
 5139         oh    194    ccc     O4   5139 -0.56822625  16.000000   ; qtot -0.971038
 5140         ho    194    ccc    H14   5140 0.4511195   1.008000   ; qtot -0.485520
 5141         ho    194    ccc    H15   5141 0.4511195   1.008000   ; qtot -0.000002
; residue  195 ccc rtp ccc q 0.0
 5142          n    195    ccc     N1   5142 -0.87251700  14.010000   ; qtot -0.872519
 5143         hn    195    ccc     H1   5143 0.46040000   1.008000   ; qtot -0.412119
 5144         c3    195    ccc     C1   5144 0.65477900  12.010000   ; qtot 0.242660
 5145         h1    195    ccc     H2   5145 -0.08959600   1.008000   ; qtot 0.153064
 5146         c3    195    ccc     C2   5146 0.03619700  12.010000   ; qtot 0.189261
 5147         h1    195    ccc     H3   5147 -0.08959600   1.008000   ; qtot 0.099665
 5148         h1    195    ccc     H4   5148 0.06927800   1.008000   ; qtot 0.168943
 5149         h1    195    ccc     H5   5149 0.06927800   1.008000   ; qtot 0.238221
 5150         n3    195    ccc     N2   5150 -0.61358100  14.010000   ; qtot -0.375360
 5151         c3    195    ccc     C3   5151 0.17944400  12.010000   ; qtot -0.195916
 5152         c3    195    ccc     C4   5152 0.17944400  12.010000   ; qtot -0.016472
 5153         h1    195    ccc     H6   5153 0.07335800   1.008000   ; qtot 0.056886
 5154         c3    195    ccc     C5   5154 -0.49079800  12.010000   ; qtot -0.433912
 5155         h1    195    ccc     H7   5155 0.07335800   1.008000   ; qtot -0.360554
 5156         hc    195    ccc     H8   5156 0.15101200   1.008000   ; qtot -0.209542
 5157         hc    195    ccc     H9   5157 0.15101200   1.008000   ; qtot -0.058530
 5158          c    195    ccc     C6   5158 0.558828  12.010000   ; qtot 0.943669
 5159         oh    195    ccc     O1   5159 -0.56822625  16.000000   ; qtot 0.170583
 5160          o    195    ccc     O2   5160 -0.39142825  16.000000   ; qtot -0.493755
 5161         h1    195    ccc    H10   5161 0.07335800   1.008000   ; qtot -0.420397
 5162         h1    195    ccc    H11   5162 0.07335800   1.008000   ; qtot -0.347039
 5163         c3    195    ccc     C7   5163 -0.49079800  12.010000   ; qtot -0.837837
 5164         hc    195    ccc    H12   5164 0.15101200   1.008000   ; qtot -0.686825
 5165         hc    195    ccc    H13   5165 0.15101200   1.008000   ; qtot -0.535813
 5166          c    195    ccc     C8   5166 0.558828  12.010000   ; qtot 0.466386
 5167          o    195    ccc     O3   5167 -0.39142825  16.000000   ; qtot -0.197952
 5168         oh    195    ccc     O4   5168 -0.56822625  16.000000   ; qtot -0.971038
 5169         ho    195    ccc    H14   5169 0.4511195   1.008000   ; qtot -0.485520
 5170         ho    195    ccc    H15   5170 0.4511195   1.008000   ; qtot -0.000002
; residue  196 ccc rtp ccc q 0.0
 5171          n    196    ccc     N1   5171 -0.87251700  14.010000   ; qtot -0.872519
 5172         hn    196    ccc     H1   5172 0.46040000   1.008000   ; qtot -0.412119
 5173         c3    196    ccc     C1   5173 0.65477900  12.010000   ; qtot 0.242660
 5174         h1    196    ccc     H2   5174 -0.08959600   1.008000   ; qtot 0.153064
 5175         c3    196    ccc     C2   5175 0.03619700  12.010000   ; qtot 0.189261
 5176         h1    196    ccc     H3   5176 -0.08959600   1.008000   ; qtot 0.099665
 5177         h1    196    ccc     H4   5177 0.06927800   1.008000   ; qtot 0.168943
 5178         h1    196    ccc     H5   5178 0.06927800   1.008000   ; qtot 0.238221
 5179         n3    196    ccc     N2   5179 -0.61358100  14.010000   ; qtot -0.375360
 5180         c3    196    ccc     C3   5180 0.17944400  12.010000   ; qtot -0.195916
 5181         c3    196    ccc     C4   5181 0.17944400  12.010000   ; qtot -0.016472
 5182         h1    196    ccc     H6   5182 0.07335800   1.008000   ; qtot 0.056886
 5183         c3    196    ccc     C5   5183 -0.49079800  12.010000   ; qtot -0.433912
 5184         h1    196    ccc     H7   5184 0.07335800   1.008000   ; qtot -0.360554
 5185         hc    196    ccc     H8   5185 0.15101200   1.008000   ; qtot -0.209542
 5186         hc    196    ccc     H9   5186 0.15101200   1.008000   ; qtot -0.058530
 5187          c    196    ccc     C6   5187 0.558828  12.010000   ; qtot 0.943669
 5188         oh    196    ccc     O1   5188 -0.56822625  16.000000   ; qtot 0.170583
 5189          o    196    ccc     O2   5189 -0.39142825  16.000000   ; qtot -0.493755
 5190         h1    196    ccc    H10   5190 0.07335800   1.008000   ; qtot -0.420397
 5191         h1    196    ccc    H11   5191 0.07335800   1.008000   ; qtot -0.347039
 5192         c3    196    ccc     C7   5192 -0.49079800  12.010000   ; qtot -0.837837
 5193         hc    196    ccc    H12   5193 0.15101200   1.008000   ; qtot -0.686825
 5194         hc    196    ccc    H13   5194 0.15101200   1.008000   ; qtot -0.535813
 5195          c    196    ccc     C8   5195 0.558828  12.010000   ; qtot 0.466386
 5196          o    196    ccc     O3   5196 -0.39142825  16.000000   ; qtot -0.197952
 5197         oh    196    ccc     O4   5197 -0.56822625  16.000000   ; qtot -0.971038
 5198         ho    196    ccc    H14   5198 0.4511195   1.008000   ; qtot -0.485520
 5199         ho    196    ccc    H15   5199 0.4511195   1.008000   ; qtot -0.000002
; residue  197 ccc rtp ccc q 0.0
 5200          n    197    ccc     N1   5200 -0.87251700  14.010000   ; qtot -0.872519
 5201         hn    197    ccc     H1   5201 0.46040000   1.008000   ; qtot -0.412119
 5202         c3    197    ccc     C1   5202 0.65477900  12.010000   ; qtot 0.242660
 5203         h1    197    ccc     H2   5203 -0.08959600   1.008000   ; qtot 0.153064
 5204         c3    197    ccc     C2   5204 0.03619700  12.010000   ; qtot 0.189261
 5205         h1    197    ccc     H3   5205 -0.08959600   1.008000   ; qtot 0.099665
 5206         h1    197    ccc     H4   5206 0.06927800   1.008000   ; qtot 0.168943
 5207         h1    197    ccc     H5   5207 0.06927800   1.008000   ; qtot 0.238221
 5208         n3    197    ccc     N2   5208 -0.61358100  14.010000   ; qtot -0.375360
 5209         c3    197    ccc     C3   5209 0.17944400  12.010000   ; qtot -0.195916
 5210         c3    197    ccc     C4   5210 0.17944400  12.010000   ; qtot -0.016472
 5211         h1    197    ccc     H6   5211 0.07335800   1.008000   ; qtot 0.056886
 5212         c3    197    ccc     C5   5212 -0.49079800  12.010000   ; qtot -0.433912
 5213         h1    197    ccc     H7   5213 0.07335800   1.008000   ; qtot -0.360554
 5214         hc    197    ccc     H8   5214 0.15101200   1.008000   ; qtot -0.209542
 5215         hc    197    ccc     H9   5215 0.15101200   1.008000   ; qtot -0.058530
 5216          c    197    ccc     C6   5216 0.558828  12.010000   ; qtot 0.943669
 5217         oh    197    ccc     O1   5217 -0.56822625  16.000000   ; qtot 0.170583
 5218          o    197    ccc     O2   5218 -0.39142825  16.000000   ; qtot -0.493755
 5219         h1    197    ccc    H10   5219 0.07335800   1.008000   ; qtot -0.420397
 5220         h1    197    ccc    H11   5220 0.07335800   1.008000   ; qtot -0.347039
 5221         c3    197    ccc     C7   5221 -0.49079800  12.010000   ; qtot -0.837837
 5222         hc    197    ccc    H12   5222 0.15101200   1.008000   ; qtot -0.686825
 5223         hc    197    ccc    H13   5223 0.15101200   1.008000   ; qtot -0.535813
 5224          c    197    ccc     C8   5224 0.558828  12.010000   ; qtot 0.466386
 5225          o    197    ccc     O3   5225 -0.39142825  16.000000   ; qtot -0.197952
 5226         oh    197    ccc     O4   5226 -0.56822625  16.000000   ; qtot -0.971038
 5227         ho    197    ccc    H14   5227 0.4511195   1.008000   ; qtot -0.485520
 5228         ho    197    ccc    H15   5228 0.4511195   1.008000   ; qtot -0.000002
; residue  198 ccc rtp ccc q 0.0
 5229          n    198    ccc     N1   5229 -0.87251700  14.010000   ; qtot -0.872519
 5230         hn    198    ccc     H1   5230 0.46040000   1.008000   ; qtot -0.412119
 5231         c3    198    ccc     C1   5231 0.65477900  12.010000   ; qtot 0.242660
 5232         h1    198    ccc     H2   5232 -0.08959600   1.008000   ; qtot 0.153064
 5233         c3    198    ccc     C2   5233 0.03619700  12.010000   ; qtot 0.189261
 5234         h1    198    ccc     H3   5234 -0.08959600   1.008000   ; qtot 0.099665
 5235         h1    198    ccc     H4   5235 0.06927800   1.008000   ; qtot 0.168943
 5236         h1    198    ccc     H5   5236 0.06927800   1.008000   ; qtot 0.238221
 5237         n3    198    ccc     N2   5237 -0.61358100  14.010000   ; qtot -0.375360
 5238         c3    198    ccc     C3   5238 0.17944400  12.010000   ; qtot -0.195916
 5239         c3    198    ccc     C4   5239 0.17944400  12.010000   ; qtot -0.016472
 5240         h1    198    ccc     H6   5240 0.07335800   1.008000   ; qtot 0.056886
 5241         c3    198    ccc     C5   5241 -0.49079800  12.010000   ; qtot -0.433912
 5242         h1    198    ccc     H7   5242 0.07335800   1.008000   ; qtot -0.360554
 5243         hc    198    ccc     H8   5243 0.15101200   1.008000   ; qtot -0.209542
 5244         hc    198    ccc     H9   5244 0.15101200   1.008000   ; qtot -0.058530
 5245          c    198    ccc     C6   5245 0.558828  12.010000   ; qtot 0.943669
 5246         oh    198    ccc     O1   5246 -0.56822625  16.000000   ; qtot 0.170583
 5247          o    198    ccc     O2   5247 -0.39142825  16.000000   ; qtot -0.493755
 5248         h1    198    ccc    H10   5248 0.07335800   1.008000   ; qtot -0.420397
 5249         h1    198    ccc    H11   5249 0.07335800   1.008000   ; qtot -0.347039
 5250         c3    198    ccc     C7   5250 -0.49079800  12.010000   ; qtot -0.837837
 5251         hc    198    ccc    H12   5251 0.15101200   1.008000   ; qtot -0.686825
 5252         hc    198    ccc    H13   5252 0.15101200   1.008000   ; qtot -0.535813
 5253          c    198    ccc     C8   5253 0.558828  12.010000   ; qtot 0.466386
 5254          o    198    ccc     O3   5254 -0.39142825  16.000000   ; qtot -0.197952
 5255         oh    198    ccc     O4   5255 -0.56822625  16.000000   ; qtot -0.971038
 5256         ho    198    ccc    H14   5256 0.4511195   1.008000   ; qtot -0.485520
 5257         ho    198    ccc    H15   5257 0.4511195   1.008000   ; qtot -0.000002
; residue  199 ccc rtp ccc q 0.0
 5258          n    199    ccc     N1   5258 -0.87251700  14.010000   ; qtot -0.872519
 5259         hn    199    ccc     H1   5259 0.46040000   1.008000   ; qtot -0.412119
 5260         c3    199    ccc     C1   5260 0.65477900  12.010000   ; qtot 0.242660
 5261         h1    199    ccc     H2   5261 -0.08959600   1.008000   ; qtot 0.153064
 5262         c3    199    ccc     C2   5262 0.03619700  12.010000   ; qtot 0.189261
 5263         h1    199    ccc     H3   5263 -0.08959600   1.008000   ; qtot 0.099665
 5264         h1    199    ccc     H4   5264 0.06927800   1.008000   ; qtot 0.168943
 5265         h1    199    ccc     H5   5265 0.06927800   1.008000   ; qtot 0.238221
 5266         n3    199    ccc     N2   5266 -0.61358100  14.010000   ; qtot -0.375360
 5267         c3    199    ccc     C3   5267 0.17944400  12.010000   ; qtot -0.195916
 5268         c3    199    ccc     C4   5268 0.17944400  12.010000   ; qtot -0.016472
 5269         h1    199    ccc     H6   5269 0.07335800   1.008000   ; qtot 0.056886
 5270         c3    199    ccc     C5   5270 -0.49079800  12.010000   ; qtot -0.433912
 5271         h1    199    ccc     H7   5271 0.07335800   1.008000   ; qtot -0.360554
 5272         hc    199    ccc     H8   5272 0.15101200   1.008000   ; qtot -0.209542
 5273         hc    199    ccc     H9   5273 0.15101200   1.008000   ; qtot -0.058530
 5274          c    199    ccc     C6   5274 0.558828  12.010000   ; qtot 0.943669
 5275         oh    199    ccc     O1   5275 -0.56822625  16.000000   ; qtot 0.170583
 5276          o    199    ccc     O2   5276 -0.39142825  16.000000   ; qtot -0.493755
 5277         h1    199    ccc    H10   5277 0.07335800   1.008000   ; qtot -0.420397
 5278         h1    199    ccc    H11   5278 0.07335800   1.008000   ; qtot -0.347039
 5279         c3    199    ccc     C7   5279 -0.49079800  12.010000   ; qtot -0.837837
 5280         hc    199    ccc    H12   5280 0.15101200   1.008000   ; qtot -0.686825
 5281         hc    199    ccc    H13   5281 0.15101200   1.008000   ; qtot -0.535813
 5282          c    199    ccc     C8   5282 0.558828  12.010000   ; qtot 0.466386
 5283          o    199    ccc     O3   5283 -0.39142825  16.000000   ; qtot -0.197952
 5284         oh    199    ccc     O4   5284 -0.56822625  16.000000   ; qtot -0.971038
 5285         ho    199    ccc    H14   5285 0.4511195   1.008000   ; qtot -0.485520
 5286         ho    199    ccc    H15   5286 0.4511195   1.008000   ; qtot -0.000002
; residue  200 ccc rtp ccc q 0.0
 5287          n    200    ccc     N1   5287 -0.87251700  14.010000   ; qtot -0.872519
 5288         hn    200    ccc     H1   5288 0.46040000   1.008000   ; qtot -0.412119
 5289         c3    200    ccc     C1   5289 0.65477900  12.010000   ; qtot 0.242660
 5290         h1    200    ccc     H2   5290 -0.08959600   1.008000   ; qtot 0.153064
 5291         c3    200    ccc     C2   5291 0.03619700  12.010000   ; qtot 0.189261
 5292         h1    200    ccc     H3   5292 -0.08959600   1.008000   ; qtot 0.099665
 5293         h1    200    ccc     H4   5293 0.06927800   1.008000   ; qtot 0.168943
 5294         h1    200    ccc     H5   5294 0.06927800   1.008000   ; qtot 0.238221
 5295         n3    200    ccc     N2   5295 -0.61358100  14.010000   ; qtot -0.375360
 5296         c3    200    ccc     C3   5296 0.17944400  12.010000   ; qtot -0.195916
 5297         c3    200    ccc     C4   5297 0.17944400  12.010000   ; qtot -0.016472
 5298         h1    200    ccc     H6   5298 0.07335800   1.008000   ; qtot 0.056886
 5299         c3    200    ccc     C5   5299 -0.49079800  12.010000   ; qtot -0.433912
 5300         h1    200    ccc     H7   5300 0.07335800   1.008000   ; qtot -0.360554
 5301         hc    200    ccc     H8   5301 0.15101200   1.008000   ; qtot -0.209542
 5302         hc    200    ccc     H9   5302 0.15101200   1.008000   ; qtot -0.058530
 5303          c    200    ccc     C6   5303 0.558828  12.010000   ; qtot 0.943669
 5304         oh    200    ccc     O1   5304 -0.56822625  16.000000   ; qtot 0.170583
 5305          o    200    ccc     O2   5305 -0.39142825  16.000000   ; qtot -0.493755
 5306         h1    200    ccc    H10   5306 0.07335800   1.008000   ; qtot -0.420397
 5307         h1    200    ccc    H11   5307 0.07335800   1.008000   ; qtot -0.347039
 5308         c3    200    ccc     C7   5308 -0.49079800  12.010000   ; qtot -0.837837
 5309         hc    200    ccc    H12   5309 0.15101200   1.008000   ; qtot -0.686825
 5310         hc    200    ccc    H13   5310 0.15101200   1.008000   ; qtot -0.535813
 5311          c    200    ccc     C8   5311 0.558828  12.010000   ; qtot 0.466386
 5312          o    200    ccc     O3   5312 -0.39142825  16.000000   ; qtot -0.197952
 5313         oh    200    ccc     O4   5313 -0.56822625  16.000000   ; qtot -0.971038
 5314         ho    200    ccc    H14   5314 0.4511195   1.008000   ; qtot -0.485520
 5315         ho    200    ccc    H15   5315 0.4511195   1.008000   ; qtot -0.000002
; residue  201 ccc rtp ccc q 0.0
 5316          n    201    ccc     N1   5316 -0.87251700  14.010000   ; qtot -0.872519
 5317         hn    201    ccc     H1   5317 0.46040000   1.008000   ; qtot -0.412119
 5318         c3    201    ccc     C1   5318 0.65477900  12.010000   ; qtot 0.242660
 5319         h1    201    ccc     H2   5319 -0.08959600   1.008000   ; qtot 0.153064
 5320         c3    201    ccc     C2   5320 0.03619700  12.010000   ; qtot 0.189261
 5321         h1    201    ccc     H3   5321 -0.08959600   1.008000   ; qtot 0.099665
 5322         h1    201    ccc     H4   5322 0.06927800   1.008000   ; qtot 0.168943
 5323         h1    201    ccc     H5   5323 0.06927800   1.008000   ; qtot 0.238221
 5324         n3    201    ccc     N2   5324 -0.61358100  14.010000   ; qtot -0.375360
 5325         c3    201    ccc     C3   5325 0.17944400  12.010000   ; qtot -0.195916
 5326         c3    201    ccc     C4   5326 0.17944400  12.010000   ; qtot -0.016472
 5327         h1    201    ccc     H6   5327 0.07335800   1.008000   ; qtot 0.056886
 5328         c3    201    ccc     C5   5328 -0.49079800  12.010000   ; qtot -0.433912
 5329         h1    201    ccc     H7   5329 0.07335800   1.008000   ; qtot -0.360554
 5330         hc    201    ccc     H8   5330 0.15101200   1.008000   ; qtot -0.209542
 5331         hc    201    ccc     H9   5331 0.15101200   1.008000   ; qtot -0.058530
 5332          c    201    ccc     C6   5332 0.558828  12.010000   ; qtot 0.943669
 5333         oh    201    ccc     O1   5333 -0.56822625  16.000000   ; qtot 0.170583
 5334          o    201    ccc     O2   5334 -0.39142825  16.000000   ; qtot -0.493755
 5335         h1    201    ccc    H10   5335 0.07335800   1.008000   ; qtot -0.420397
 5336         h1    201    ccc    H11   5336 0.07335800   1.008000   ; qtot -0.347039
 5337         c3    201    ccc     C7   5337 -0.49079800  12.010000   ; qtot -0.837837
 5338         hc    201    ccc    H12   5338 0.15101200   1.008000   ; qtot -0.686825
 5339         hc    201    ccc    H13   5339 0.15101200   1.008000   ; qtot -0.535813
 5340          c    201    ccc     C8   5340 0.558828  12.010000   ; qtot 0.466386
 5341          o    201    ccc     O3   5341 -0.39142825  16.000000   ; qtot -0.197952
 5342         oh    201    ccc     O4   5342 -0.56822625  16.000000   ; qtot -0.971038
 5343         ho    201    ccc    H14   5343 0.4511195   1.008000   ; qtot -0.485520
 5344         ho    201    ccc    H15   5344 0.4511195   1.008000   ; qtot -0.000002
; residue  202 ccc rtp ccc q 0.0
 5345          n    202    ccc     N1   5345 -0.87251700  14.010000   ; qtot -0.872519
 5346         hn    202    ccc     H1   5346 0.46040000   1.008000   ; qtot -0.412119
 5347         c3    202    ccc     C1   5347 0.65477900  12.010000   ; qtot 0.242660
 5348         h1    202    ccc     H2   5348 -0.08959600   1.008000   ; qtot 0.153064
 5349         c3    202    ccc     C2   5349 0.03619700  12.010000   ; qtot 0.189261
 5350         h1    202    ccc     H3   5350 -0.08959600   1.008000   ; qtot 0.099665
 5351         h1    202    ccc     H4   5351 0.06927800   1.008000   ; qtot 0.168943
 5352         h1    202    ccc     H5   5352 0.06927800   1.008000   ; qtot 0.238221
 5353         n3    202    ccc     N2   5353 -0.61358100  14.010000   ; qtot -0.375360
 5354         c3    202    ccc     C3   5354 0.17944400  12.010000   ; qtot -0.195916
 5355         c3    202    ccc     C4   5355 0.17944400  12.010000   ; qtot -0.016472
 5356         h1    202    ccc     H6   5356 0.07335800   1.008000   ; qtot 0.056886
 5357         c3    202    ccc     C5   5357 -0.49079800  12.010000   ; qtot -0.433912
 5358         h1    202    ccc     H7   5358 0.07335800   1.008000   ; qtot -0.360554
 5359         hc    202    ccc     H8   5359 0.15101200   1.008000   ; qtot -0.209542
 5360         hc    202    ccc     H9   5360 0.15101200   1.008000   ; qtot -0.058530
 5361          c    202    ccc     C6   5361 0.558828  12.010000   ; qtot 0.943669
 5362         oh    202    ccc     O1   5362 -0.56822625  16.000000   ; qtot 0.170583
 5363          o    202    ccc     O2   5363 -0.39142825  16.000000   ; qtot -0.493755
 5364         h1    202    ccc    H10   5364 0.07335800   1.008000   ; qtot -0.420397
 5365         h1    202    ccc    H11   5365 0.07335800   1.008000   ; qtot -0.347039
 5366         c3    202    ccc     C7   5366 -0.49079800  12.010000   ; qtot -0.837837
 5367         hc    202    ccc    H12   5367 0.15101200   1.008000   ; qtot -0.686825
 5368         hc    202    ccc    H13   5368 0.15101200   1.008000   ; qtot -0.535813
 5369          c    202    ccc     C8   5369 0.558828  12.010000   ; qtot 0.466386
 5370          o    202    ccc     O3   5370 -0.39142825  16.000000   ; qtot -0.197952
 5371         oh    202    ccc     O4   5371 -0.56822625  16.000000   ; qtot -0.971038
 5372         ho    202    ccc    H14   5372 0.4511195   1.008000   ; qtot -0.485520
 5373         ho    202    ccc    H15   5373 0.4511195   1.008000   ; qtot -0.000002
; residue  203 ccc rtp ccc q 0.0
 5374          n    203    ccc     N1   5374 -0.87251700  14.010000   ; qtot -0.872519
 5375         hn    203    ccc     H1   5375 0.46040000   1.008000   ; qtot -0.412119
 5376         c3    203    ccc     C1   5376 0.65477900  12.010000   ; qtot 0.242660
 5377         h1    203    ccc     H2   5377 -0.08959600   1.008000   ; qtot 0.153064
 5378         c3    203    ccc     C2   5378 0.03619700  12.010000   ; qtot 0.189261
 5379         h1    203    ccc     H3   5379 -0.08959600   1.008000   ; qtot 0.099665
 5380         h1    203    ccc     H4   5380 0.06927800   1.008000   ; qtot 0.168943
 5381         h1    203    ccc     H5   5381 0.06927800   1.008000   ; qtot 0.238221
 5382         n3    203    ccc     N2   5382 -0.61358100  14.010000   ; qtot -0.375360
 5383         c3    203    ccc     C3   5383 0.17944400  12.010000   ; qtot -0.195916
 5384         c3    203    ccc     C4   5384 0.17944400  12.010000   ; qtot -0.016472
 5385         h1    203    ccc     H6   5385 0.07335800   1.008000   ; qtot 0.056886
 5386         c3    203    ccc     C5   5386 -0.49079800  12.010000   ; qtot -0.433912
 5387         h1    203    ccc     H7   5387 0.07335800   1.008000   ; qtot -0.360554
 5388         hc    203    ccc     H8   5388 0.15101200   1.008000   ; qtot -0.209542
 5389         hc    203    ccc     H9   5389 0.15101200   1.008000   ; qtot -0.058530
 5390          c    203    ccc     C6   5390 0.558828  12.010000   ; qtot 0.943669
 5391         oh    203    ccc     O1   5391 -0.56822625  16.000000   ; qtot 0.170583
 5392          o    203    ccc     O2   5392 -0.39142825  16.000000   ; qtot -0.493755
 5393         h1    203    ccc    H10   5393 0.07335800   1.008000   ; qtot -0.420397
 5394         h1    203    ccc    H11   5394 0.07335800   1.008000   ; qtot -0.347039
 5395         c3    203    ccc     C7   5395 -0.49079800  12.010000   ; qtot -0.837837
 5396         hc    203    ccc    H12   5396 0.15101200   1.008000   ; qtot -0.686825
 5397         hc    203    ccc    H13   5397 0.15101200   1.008000   ; qtot -0.535813
 5398          c    203    ccc     C8   5398 0.558828  12.010000   ; qtot 0.466386
 5399          o    203    ccc     O3   5399 -0.39142825  16.000000   ; qtot -0.197952
 5400         oh    203    ccc     O4   5400 -0.56822625  16.000000   ; qtot -0.971038
 5401         ho    203    ccc    H14   5401 0.4511195   1.008000   ; qtot -0.485520
 5402         ho    203    ccc    H15   5402 0.4511195   1.008000   ; qtot -0.000002
; residue  204 ccc rtp ccc q 0.0
 5403          n    204    ccc     N1   5403 -0.87251700  14.010000   ; qtot -0.872519
 5404         hn    204    ccc     H1   5404 0.46040000   1.008000   ; qtot -0.412119
 5405         c3    204    ccc     C1   5405 0.65477900  12.010000   ; qtot 0.242660
 5406         h1    204    ccc     H2   5406 -0.08959600   1.008000   ; qtot 0.153064
 5407         c3    204    ccc     C2   5407 0.03619700  12.010000   ; qtot 0.189261
 5408         h1    204    ccc     H3   5408 -0.08959600   1.008000   ; qtot 0.099665
 5409         h1    204    ccc     H4   5409 0.06927800   1.008000   ; qtot 0.168943
 5410         h1    204    ccc     H5   5410 0.06927800   1.008000   ; qtot 0.238221
 5411         n3    204    ccc     N2   5411 -0.61358100  14.010000   ; qtot -0.375360
 5412         c3    204    ccc     C3   5412 0.17944400  12.010000   ; qtot -0.195916
 5413         c3    204    ccc     C4   5413 0.17944400  12.010000   ; qtot -0.016472
 5414         h1    204    ccc     H6   5414 0.07335800   1.008000   ; qtot 0.056886
 5415         c3    204    ccc     C5   5415 -0.49079800  12.010000   ; qtot -0.433912
 5416         h1    204    ccc     H7   5416 0.07335800   1.008000   ; qtot -0.360554
 5417         hc    204    ccc     H8   5417 0.15101200   1.008000   ; qtot -0.209542
 5418         hc    204    ccc     H9   5418 0.15101200   1.008000   ; qtot -0.058530
 5419          c    204    ccc     C6   5419 0.558828  12.010000   ; qtot 0.943669
 5420         oh    204    ccc     O1   5420 -0.56822625  16.000000   ; qtot 0.170583
 5421          o    204    ccc     O2   5421 -0.39142825  16.000000   ; qtot -0.493755
 5422         h1    204    ccc    H10   5422 0.07335800   1.008000   ; qtot -0.420397
 5423         h1    204    ccc    H11   5423 0.07335800   1.008000   ; qtot -0.347039
 5424         c3    204    ccc     C7   5424 -0.49079800  12.010000   ; qtot -0.837837
 5425         hc    204    ccc    H12   5425 0.15101200   1.008000   ; qtot -0.686825
 5426         hc    204    ccc    H13   5426 0.15101200   1.008000   ; qtot -0.535813
 5427          c    204    ccc     C8   5427 0.558828  12.010000   ; qtot 0.466386
 5428          o    204    ccc     O3   5428 -0.39142825  16.000000   ; qtot -0.197952
 5429         oh    204    ccc     O4   5429 -0.56822625  16.000000   ; qtot -0.971038
 5430         ho    204    ccc    H14   5430 0.4511195   1.008000   ; qtot -0.485520
 5431         ho    204    ccc    H15   5431 0.4511195   1.008000   ; qtot -0.000002
; residue  205 ccc rtp ccc q 0.0
 5432          n    205    ccc     N1   5432 -0.87251700  14.010000   ; qtot -0.872519
 5433         hn    205    ccc     H1   5433 0.46040000   1.008000   ; qtot -0.412119
 5434         c3    205    ccc     C1   5434 0.65477900  12.010000   ; qtot 0.242660
 5435         h1    205    ccc     H2   5435 -0.08959600   1.008000   ; qtot 0.153064
 5436         c3    205    ccc     C2   5436 0.03619700  12.010000   ; qtot 0.189261
 5437         h1    205    ccc     H3   5437 -0.08959600   1.008000   ; qtot 0.099665
 5438         h1    205    ccc     H4   5438 0.06927800   1.008000   ; qtot 0.168943
 5439         h1    205    ccc     H5   5439 0.06927800   1.008000   ; qtot 0.238221
 5440         n3    205    ccc     N2   5440 -0.61358100  14.010000   ; qtot -0.375360
 5441         c3    205    ccc     C3   5441 0.17944400  12.010000   ; qtot -0.195916
 5442         c3    205    ccc     C4   5442 0.17944400  12.010000   ; qtot -0.016472
 5443         h1    205    ccc     H6   5443 0.07335800   1.008000   ; qtot 0.056886
 5444         c3    205    ccc     C5   5444 -0.49079800  12.010000   ; qtot -0.433912
 5445         h1    205    ccc     H7   5445 0.07335800   1.008000   ; qtot -0.360554
 5446         hc    205    ccc     H8   5446 0.15101200   1.008000   ; qtot -0.209542
 5447         hc    205    ccc     H9   5447 0.15101200   1.008000   ; qtot -0.058530
 5448          c    205    ccc     C6   5448 0.558828  12.010000   ; qtot 0.943669
 5449         oh    205    ccc     O1   5449 -0.56822625  16.000000   ; qtot 0.170583
 5450          o    205    ccc     O2   5450 -0.39142825  16.000000   ; qtot -0.493755
 5451         h1    205    ccc    H10   5451 0.07335800   1.008000   ; qtot -0.420397
 5452         h1    205    ccc    H11   5452 0.07335800   1.008000   ; qtot -0.347039
 5453         c3    205    ccc     C7   5453 -0.49079800  12.010000   ; qtot -0.837837
 5454         hc    205    ccc    H12   5454 0.15101200   1.008000   ; qtot -0.686825
 5455         hc    205    ccc    H13   5455 0.15101200   1.008000   ; qtot -0.535813
 5456          c    205    ccc     C8   5456 0.558828  12.010000   ; qtot 0.466386
 5457          o    205    ccc     O3   5457 -0.39142825  16.000000   ; qtot -0.197952
 5458         oh    205    ccc     O4   5458 -0.56822625  16.000000   ; qtot -0.971038
 5459         ho    205    ccc    H14   5459 0.4511195   1.008000   ; qtot -0.485520
 5460         ho    205    ccc    H15   5460 0.4511195   1.008000   ; qtot -0.000002
; residue  206 ccc rtp ccc q 0.0
 5461          n    206    ccc     N1   5461 -0.87251700  14.010000   ; qtot -0.872519
 5462         hn    206    ccc     H1   5462 0.46040000   1.008000   ; qtot -0.412119
 5463         c3    206    ccc     C1   5463 0.65477900  12.010000   ; qtot 0.242660
 5464         h1    206    ccc     H2   5464 -0.08959600   1.008000   ; qtot 0.153064
 5465         c3    206    ccc     C2   5465 0.03619700  12.010000   ; qtot 0.189261
 5466         h1    206    ccc     H3   5466 -0.08959600   1.008000   ; qtot 0.099665
 5467         h1    206    ccc     H4   5467 0.06927800   1.008000   ; qtot 0.168943
 5468         h1    206    ccc     H5   5468 0.06927800   1.008000   ; qtot 0.238221
 5469         n3    206    ccc     N2   5469 -0.61358100  14.010000   ; qtot -0.375360
 5470         c3    206    ccc     C3   5470 0.17944400  12.010000   ; qtot -0.195916
 5471         c3    206    ccc     C4   5471 0.17944400  12.010000   ; qtot -0.016472
 5472         h1    206    ccc     H6   5472 0.07335800   1.008000   ; qtot 0.056886
 5473         c3    206    ccc     C5   5473 -0.49079800  12.010000   ; qtot -0.433912
 5474         h1    206    ccc     H7   5474 0.07335800   1.008000   ; qtot -0.360554
 5475         hc    206    ccc     H8   5475 0.15101200   1.008000   ; qtot -0.209542
 5476         hc    206    ccc     H9   5476 0.15101200   1.008000   ; qtot -0.058530
 5477          c    206    ccc     C6   5477 0.558828  12.010000   ; qtot 0.943669
 5478         oh    206    ccc     O1   5478 -0.56822625  16.000000   ; qtot 0.170583
 5479          o    206    ccc     O2   5479 -0.39142825  16.000000   ; qtot -0.493755
 5480         h1    206    ccc    H10   5480 0.07335800   1.008000   ; qtot -0.420397
 5481         h1    206    ccc    H11   5481 0.07335800   1.008000   ; qtot -0.347039
 5482         c3    206    ccc     C7   5482 -0.49079800  12.010000   ; qtot -0.837837
 5483         hc    206    ccc    H12   5483 0.15101200   1.008000   ; qtot -0.686825
 5484         hc    206    ccc    H13   5484 0.15101200   1.008000   ; qtot -0.535813
 5485          c    206    ccc     C8   5485 0.558828  12.010000   ; qtot 0.466386
 5486          o    206    ccc     O3   5486 -0.39142825  16.000000   ; qtot -0.197952
 5487         oh    206    ccc     O4   5487 -0.56822625  16.000000   ; qtot -0.971038
 5488         ho    206    ccc    H14   5488 0.4511195   1.008000   ; qtot -0.485520
 5489         ho    206    ccc    H15   5489 0.4511195   1.008000   ; qtot -0.000002
; residue  207 ccc rtp ccc q 0.0
 5490          n    207    ccc     N1   5490 -0.87251700  14.010000   ; qtot -0.872519
 5491         hn    207    ccc     H1   5491 0.46040000   1.008000   ; qtot -0.412119
 5492         c3    207    ccc     C1   5492 0.65477900  12.010000   ; qtot 0.242660
 5493         h1    207    ccc     H2   5493 -0.08959600   1.008000   ; qtot 0.153064
 5494         c3    207    ccc     C2   5494 0.03619700  12.010000   ; qtot 0.189261
 5495         h1    207    ccc     H3   5495 -0.08959600   1.008000   ; qtot 0.099665
 5496         h1    207    ccc     H4   5496 0.06927800   1.008000   ; qtot 0.168943
 5497         h1    207    ccc     H5   5497 0.06927800   1.008000   ; qtot 0.238221
 5498         n3    207    ccc     N2   5498 -0.61358100  14.010000   ; qtot -0.375360
 5499         c3    207    ccc     C3   5499 0.17944400  12.010000   ; qtot -0.195916
 5500         c3    207    ccc     C4   5500 0.17944400  12.010000   ; qtot -0.016472
 5501         h1    207    ccc     H6   5501 0.07335800   1.008000   ; qtot 0.056886
 5502         c3    207    ccc     C5   5502 -0.49079800  12.010000   ; qtot -0.433912
 5503         h1    207    ccc     H7   5503 0.07335800   1.008000   ; qtot -0.360554
 5504         hc    207    ccc     H8   5504 0.15101200   1.008000   ; qtot -0.209542
 5505         hc    207    ccc     H9   5505 0.15101200   1.008000   ; qtot -0.058530
 5506          c    207    ccc     C6   5506 0.558828  12.010000   ; qtot 0.943669
 5507         oh    207    ccc     O1   5507 -0.56822625  16.000000   ; qtot 0.170583
 5508          o    207    ccc     O2   5508 -0.39142825  16.000000   ; qtot -0.493755
 5509         h1    207    ccc    H10   5509 0.07335800   1.008000   ; qtot -0.420397
 5510         h1    207    ccc    H11   5510 0.07335800   1.008000   ; qtot -0.347039
 5511         c3    207    ccc     C7   5511 -0.49079800  12.010000   ; qtot -0.837837
 5512         hc    207    ccc    H12   5512 0.15101200   1.008000   ; qtot -0.686825
 5513         hc    207    ccc    H13   5513 0.15101200   1.008000   ; qtot -0.535813
 5514          c    207    ccc     C8   5514 0.558828  12.010000   ; qtot 0.466386
 5515          o    207    ccc     O3   5515 -0.39142825  16.000000   ; qtot -0.197952
 5516         oh    207    ccc     O4   5516 -0.56822625  16.000000   ; qtot -0.971038
 5517         ho    207    ccc    H14   5517 0.4511195   1.008000   ; qtot -0.485520
 5518         ho    207    ccc    H15   5518 0.4511195   1.008000   ; qtot -0.000002
; residue  208 ccc rtp ccc q 0.0
 5519          n    208    ccc     N1   5519 -0.87251700  14.010000   ; qtot -0.872519
 5520         hn    208    ccc     H1   5520 0.46040000   1.008000   ; qtot -0.412119
 5521         c3    208    ccc     C1   5521 0.65477900  12.010000   ; qtot 0.242660
 5522         h1    208    ccc     H2   5522 -0.08959600   1.008000   ; qtot 0.153064
 5523         c3    208    ccc     C2   5523 0.03619700  12.010000   ; qtot 0.189261
 5524         h1    208    ccc     H3   5524 -0.08959600   1.008000   ; qtot 0.099665
 5525         h1    208    ccc     H4   5525 0.06927800   1.008000   ; qtot 0.168943
 5526         h1    208    ccc     H5   5526 0.06927800   1.008000   ; qtot 0.238221
 5527         n3    208    ccc     N2   5527 -0.61358100  14.010000   ; qtot -0.375360
 5528         c3    208    ccc     C3   5528 0.17944400  12.010000   ; qtot -0.195916
 5529         c3    208    ccc     C4   5529 0.17944400  12.010000   ; qtot -0.016472
 5530         h1    208    ccc     H6   5530 0.07335800   1.008000   ; qtot 0.056886
 5531         c3    208    ccc     C5   5531 -0.49079800  12.010000   ; qtot -0.433912
 5532         h1    208    ccc     H7   5532 0.07335800   1.008000   ; qtot -0.360554
 5533         hc    208    ccc     H8   5533 0.15101200   1.008000   ; qtot -0.209542
 5534         hc    208    ccc     H9   5534 0.15101200   1.008000   ; qtot -0.058530
 5535          c    208    ccc     C6   5535 0.558828  12.010000   ; qtot 0.943669
 5536         oh    208    ccc     O1   5536 -0.56822625  16.000000   ; qtot 0.170583
 5537          o    208    ccc     O2   5537 -0.39142825  16.000000   ; qtot -0.493755
 5538         h1    208    ccc    H10   5538 0.07335800   1.008000   ; qtot -0.420397
 5539         h1    208    ccc    H11   5539 0.07335800   1.008000   ; qtot -0.347039
 5540         c3    208    ccc     C7   5540 -0.49079800  12.010000   ; qtot -0.837837
 5541         hc    208    ccc    H12   5541 0.15101200   1.008000   ; qtot -0.686825
 5542         hc    208    ccc    H13   5542 0.15101200   1.008000   ; qtot -0.535813
 5543          c    208    ccc     C8   5543 0.558828  12.010000   ; qtot 0.466386
 5544          o    208    ccc     O3   5544 -0.39142825  16.000000   ; qtot -0.197952
 5545         oh    208    ccc     O4   5545 -0.56822625  16.000000   ; qtot -0.971038
 5546         ho    208    ccc    H14   5546 0.4511195   1.008000   ; qtot -0.485520
 5547         ho    208    ccc    H15   5547 0.4511195   1.008000   ; qtot -0.000002
; residue  209 ccc rtp ccc q 0.0
 5548          n    209    ccc     N1   5548 -0.87251700  14.010000   ; qtot -0.872519
 5549         hn    209    ccc     H1   5549 0.46040000   1.008000   ; qtot -0.412119
 5550         c3    209    ccc     C1   5550 0.65477900  12.010000   ; qtot 0.242660
 5551         h1    209    ccc     H2   5551 -0.08959600   1.008000   ; qtot 0.153064
 5552         c3    209    ccc     C2   5552 0.03619700  12.010000   ; qtot 0.189261
 5553         h1    209    ccc     H3   5553 -0.08959600   1.008000   ; qtot 0.099665
 5554         h1    209    ccc     H4   5554 0.06927800   1.008000   ; qtot 0.168943
 5555         h1    209    ccc     H5   5555 0.06927800   1.008000   ; qtot 0.238221
 5556         n3    209    ccc     N2   5556 -0.61358100  14.010000   ; qtot -0.375360
 5557         c3    209    ccc     C3   5557 0.17944400  12.010000   ; qtot -0.195916
 5558         c3    209    ccc     C4   5558 0.17944400  12.010000   ; qtot -0.016472
 5559         h1    209    ccc     H6   5559 0.07335800   1.008000   ; qtot 0.056886
 5560         c3    209    ccc     C5   5560 -0.49079800  12.010000   ; qtot -0.433912
 5561         h1    209    ccc     H7   5561 0.07335800   1.008000   ; qtot -0.360554
 5562         hc    209    ccc     H8   5562 0.15101200   1.008000   ; qtot -0.209542
 5563         hc    209    ccc     H9   5563 0.15101200   1.008000   ; qtot -0.058530
 5564          c    209    ccc     C6   5564 0.558828  12.010000   ; qtot 0.943669
 5565         oh    209    ccc     O1   5565 -0.56822625  16.000000   ; qtot 0.170583
 5566          o    209    ccc     O2   5566 -0.39142825  16.000000   ; qtot -0.493755
 5567         h1    209    ccc    H10   5567 0.07335800   1.008000   ; qtot -0.420397
 5568         h1    209    ccc    H11   5568 0.07335800   1.008000   ; qtot -0.347039
 5569         c3    209    ccc     C7   5569 -0.49079800  12.010000   ; qtot -0.837837
 5570         hc    209    ccc    H12   5570 0.15101200   1.008000   ; qtot -0.686825
 5571         hc    209    ccc    H13   5571 0.15101200   1.008000   ; qtot -0.535813
 5572          c    209    ccc     C8   5572 0.558828  12.010000   ; qtot 0.466386
 5573          o    209    ccc     O3   5573 -0.39142825  16.000000   ; qtot -0.197952
 5574         oh    209    ccc     O4   5574 -0.56822625  16.000000   ; qtot -0.971038
 5575         ho    209    ccc    H14   5575 0.4511195   1.008000   ; qtot -0.485520
 5576         ho    209    ccc    H15   5576 0.4511195   1.008000   ; qtot -0.000002
; residue  210 ccc rtp ccc q 0.0
 5577          n    210    ccc     N1   5577 -0.87251700  14.010000   ; qtot -0.872519
 5578         hn    210    ccc     H1   5578 0.46040000   1.008000   ; qtot -0.412119
 5579         c3    210    ccc     C1   5579 0.65477900  12.010000   ; qtot 0.242660
 5580         h1    210    ccc     H2   5580 -0.08959600   1.008000   ; qtot 0.153064
 5581         c3    210    ccc     C2   5581 0.03619700  12.010000   ; qtot 0.189261
 5582         h1    210    ccc     H3   5582 -0.08959600   1.008000   ; qtot 0.099665
 5583         h1    210    ccc     H4   5583 0.06927800   1.008000   ; qtot 0.168943
 5584         h1    210    ccc     H5   5584 0.06927800   1.008000   ; qtot 0.238221
 5585         n3    210    ccc     N2   5585 -0.61358100  14.010000   ; qtot -0.375360
 5586         c3    210    ccc     C3   5586 0.17944400  12.010000   ; qtot -0.195916
 5587         c3    210    ccc     C4   5587 0.17944400  12.010000   ; qtot -0.016472
 5588         h1    210    ccc     H6   5588 0.07335800   1.008000   ; qtot 0.056886
 5589         c3    210    ccc     C5   5589 -0.49079800  12.010000   ; qtot -0.433912
 5590         h1    210    ccc     H7   5590 0.07335800   1.008000   ; qtot -0.360554
 5591         hc    210    ccc     H8   5591 0.15101200   1.008000   ; qtot -0.209542
 5592         hc    210    ccc     H9   5592 0.15101200   1.008000   ; qtot -0.058530
 5593          c    210    ccc     C6   5593 0.558828  12.010000   ; qtot 0.943669
 5594         oh    210    ccc     O1   5594 -0.56822625  16.000000   ; qtot 0.170583
 5595          o    210    ccc     O2   5595 -0.39142825  16.000000   ; qtot -0.493755
 5596         h1    210    ccc    H10   5596 0.07335800   1.008000   ; qtot -0.420397
 5597         h1    210    ccc    H11   5597 0.07335800   1.008000   ; qtot -0.347039
 5598         c3    210    ccc     C7   5598 -0.49079800  12.010000   ; qtot -0.837837
 5599         hc    210    ccc    H12   5599 0.15101200   1.008000   ; qtot -0.686825
 5600         hc    210    ccc    H13   5600 0.15101200   1.008000   ; qtot -0.535813
 5601          c    210    ccc     C8   5601 0.558828  12.010000   ; qtot 0.466386
 5602          o    210    ccc     O3   5602 -0.39142825  16.000000   ; qtot -0.197952
 5603         oh    210    ccc     O4   5603 -0.56822625  16.000000   ; qtot -0.971038
 5604         ho    210    ccc    H14   5604 0.4511195   1.008000   ; qtot -0.485520
 5605         ho    210    ccc    H15   5605 0.4511195   1.008000   ; qtot -0.000002
; residue  211 ccc rtp ccc q 0.0
 5606          n    211    ccc     N1   5606 -0.87251700  14.010000   ; qtot -0.872519
 5607         hn    211    ccc     H1   5607 0.46040000   1.008000   ; qtot -0.412119
 5608         c3    211    ccc     C1   5608 0.65477900  12.010000   ; qtot 0.242660
 5609         h1    211    ccc     H2   5609 -0.08959600   1.008000   ; qtot 0.153064
 5610         c3    211    ccc     C2   5610 0.03619700  12.010000   ; qtot 0.189261
 5611         h1    211    ccc     H3   5611 -0.08959600   1.008000   ; qtot 0.099665
 5612         h1    211    ccc     H4   5612 0.06927800   1.008000   ; qtot 0.168943
 5613         h1    211    ccc     H5   5613 0.06927800   1.008000   ; qtot 0.238221
 5614         n3    211    ccc     N2   5614 -0.61358100  14.010000   ; qtot -0.375360
 5615         c3    211    ccc     C3   5615 0.17944400  12.010000   ; qtot -0.195916
 5616         c3    211    ccc     C4   5616 0.17944400  12.010000   ; qtot -0.016472
 5617         h1    211    ccc     H6   5617 0.07335800   1.008000   ; qtot 0.056886
 5618         c3    211    ccc     C5   5618 -0.49079800  12.010000   ; qtot -0.433912
 5619         h1    211    ccc     H7   5619 0.07335800   1.008000   ; qtot -0.360554
 5620         hc    211    ccc     H8   5620 0.15101200   1.008000   ; qtot -0.209542
 5621         hc    211    ccc     H9   5621 0.15101200   1.008000   ; qtot -0.058530
 5622          c    211    ccc     C6   5622 0.558828  12.010000   ; qtot 0.943669
 5623         oh    211    ccc     O1   5623 -0.56822625  16.000000   ; qtot 0.170583
 5624          o    211    ccc     O2   5624 -0.39142825  16.000000   ; qtot -0.493755
 5625         h1    211    ccc    H10   5625 0.07335800   1.008000   ; qtot -0.420397
 5626         h1    211    ccc    H11   5626 0.07335800   1.008000   ; qtot -0.347039
 5627         c3    211    ccc     C7   5627 -0.49079800  12.010000   ; qtot -0.837837
 5628         hc    211    ccc    H12   5628 0.15101200   1.008000   ; qtot -0.686825
 5629         hc    211    ccc    H13   5629 0.15101200   1.008000   ; qtot -0.535813
 5630          c    211    ccc     C8   5630 0.558828  12.010000   ; qtot 0.466386
 5631          o    211    ccc     O3   5631 -0.39142825  16.000000   ; qtot -0.197952
 5632         oh    211    ccc     O4   5632 -0.56822625  16.000000   ; qtot -0.971038
 5633         ho    211    ccc    H14   5633 0.4511195   1.008000   ; qtot -0.485520
 5634         ho    211    ccc    H15   5634 0.4511195   1.008000   ; qtot -0.000002
; residue  212 ccc rtp ccc q 0.0
 5635          n    212    ccc     N1   5635 -0.87251700  14.010000   ; qtot -0.872519
 5636         hn    212    ccc     H1   5636 0.46040000   1.008000   ; qtot -0.412119
 5637         c3    212    ccc     C1   5637 0.65477900  12.010000   ; qtot 0.242660
 5638         h1    212    ccc     H2   5638 -0.08959600   1.008000   ; qtot 0.153064
 5639         c3    212    ccc     C2   5639 0.03619700  12.010000   ; qtot 0.189261
 5640         h1    212    ccc     H3   5640 -0.08959600   1.008000   ; qtot 0.099665
 5641         h1    212    ccc     H4   5641 0.06927800   1.008000   ; qtot 0.168943
 5642         h1    212    ccc     H5   5642 0.06927800   1.008000   ; qtot 0.238221
 5643         n3    212    ccc     N2   5643 -0.61358100  14.010000   ; qtot -0.375360
 5644         c3    212    ccc     C3   5644 0.17944400  12.010000   ; qtot -0.195916
 5645         c3    212    ccc     C4   5645 0.17944400  12.010000   ; qtot -0.016472
 5646         h1    212    ccc     H6   5646 0.07335800   1.008000   ; qtot 0.056886
 5647         c3    212    ccc     C5   5647 -0.49079800  12.010000   ; qtot -0.433912
 5648         h1    212    ccc     H7   5648 0.07335800   1.008000   ; qtot -0.360554
 5649         hc    212    ccc     H8   5649 0.15101200   1.008000   ; qtot -0.209542
 5650         hc    212    ccc     H9   5650 0.15101200   1.008000   ; qtot -0.058530
 5651          c    212    ccc     C6   5651 0.558828  12.010000   ; qtot 0.943669
 5652         oh    212    ccc     O1   5652 -0.56822625  16.000000   ; qtot 0.170583
 5653          o    212    ccc     O2   5653 -0.39142825  16.000000   ; qtot -0.493755
 5654         h1    212    ccc    H10   5654 0.07335800   1.008000   ; qtot -0.420397
 5655         h1    212    ccc    H11   5655 0.07335800   1.008000   ; qtot -0.347039
 5656         c3    212    ccc     C7   5656 -0.49079800  12.010000   ; qtot -0.837837
 5657         hc    212    ccc    H12   5657 0.15101200   1.008000   ; qtot -0.686825
 5658         hc    212    ccc    H13   5658 0.15101200   1.008000   ; qtot -0.535813
 5659          c    212    ccc     C8   5659 0.558828  12.010000   ; qtot 0.466386
 5660          o    212    ccc     O3   5660 -0.39142825  16.000000   ; qtot -0.197952
 5661         oh    212    ccc     O4   5661 -0.56822625  16.000000   ; qtot -0.971038
 5662         ho    212    ccc    H14   5662 0.4511195   1.008000   ; qtot -0.485520
 5663         ho    212    ccc    H15   5663 0.4511195   1.008000   ; qtot -0.000002
; residue  213 ccc rtp ccc q 0.0
 5664          n    213    ccc     N1   5664 -0.87251700  14.010000   ; qtot -0.872519
 5665         hn    213    ccc     H1   5665 0.46040000   1.008000   ; qtot -0.412119
 5666         c3    213    ccc     C1   5666 0.65477900  12.010000   ; qtot 0.242660
 5667         h1    213    ccc     H2   5667 -0.08959600   1.008000   ; qtot 0.153064
 5668         c3    213    ccc     C2   5668 0.03619700  12.010000   ; qtot 0.189261
 5669         h1    213    ccc     H3   5669 -0.08959600   1.008000   ; qtot 0.099665
 5670         h1    213    ccc     H4   5670 0.06927800   1.008000   ; qtot 0.168943
 5671         h1    213    ccc     H5   5671 0.06927800   1.008000   ; qtot 0.238221
 5672         n3    213    ccc     N2   5672 -0.61358100  14.010000   ; qtot -0.375360
 5673         c3    213    ccc     C3   5673 0.17944400  12.010000   ; qtot -0.195916
 5674         c3    213    ccc     C4   5674 0.17944400  12.010000   ; qtot -0.016472
 5675         h1    213    ccc     H6   5675 0.07335800   1.008000   ; qtot 0.056886
 5676         c3    213    ccc     C5   5676 -0.49079800  12.010000   ; qtot -0.433912
 5677         h1    213    ccc     H7   5677 0.07335800   1.008000   ; qtot -0.360554
 5678         hc    213    ccc     H8   5678 0.15101200   1.008000   ; qtot -0.209542
 5679         hc    213    ccc     H9   5679 0.15101200   1.008000   ; qtot -0.058530
 5680          c    213    ccc     C6   5680 0.558828  12.010000   ; qtot 0.943669
 5681         oh    213    ccc     O1   5681 -0.56822625  16.000000   ; qtot 0.170583
 5682          o    213    ccc     O2   5682 -0.39142825  16.000000   ; qtot -0.493755
 5683         h1    213    ccc    H10   5683 0.07335800   1.008000   ; qtot -0.420397
 5684         h1    213    ccc    H11   5684 0.07335800   1.008000   ; qtot -0.347039
 5685         c3    213    ccc     C7   5685 -0.49079800  12.010000   ; qtot -0.837837
 5686         hc    213    ccc    H12   5686 0.15101200   1.008000   ; qtot -0.686825
 5687         hc    213    ccc    H13   5687 0.15101200   1.008000   ; qtot -0.535813
 5688          c    213    ccc     C8   5688 0.558828  12.010000   ; qtot 0.466386
 5689          o    213    ccc     O3   5689 -0.39142825  16.000000   ; qtot -0.197952
 5690         oh    213    ccc     O4   5690 -0.56822625  16.000000   ; qtot -0.971038
 5691         ho    213    ccc    H14   5691 0.4511195   1.008000   ; qtot -0.485520
 5692         ho    213    ccc    H15   5692 0.4511195   1.008000   ; qtot -0.000002
; residue  214 ccc rtp ccc q 0.0
 5693          n    214    ccc     N1   5693 -0.87251700  14.010000   ; qtot -0.872519
 5694         hn    214    ccc     H1   5694 0.46040000   1.008000   ; qtot -0.412119
 5695         c3    214    ccc     C1   5695 0.65477900  12.010000   ; qtot 0.242660
 5696         h1    214    ccc     H2   5696 -0.08959600   1.008000   ; qtot 0.153064
 5697         c3    214    ccc     C2   5697 0.03619700  12.010000   ; qtot 0.189261
 5698         h1    214    ccc     H3   5698 -0.08959600   1.008000   ; qtot 0.099665
 5699         h1    214    ccc     H4   5699 0.06927800   1.008000   ; qtot 0.168943
 5700         h1    214    ccc     H5   5700 0.06927800   1.008000   ; qtot 0.238221
 5701         n3    214    ccc     N2   5701 -0.61358100  14.010000   ; qtot -0.375360
 5702         c3    214    ccc     C3   5702 0.17944400  12.010000   ; qtot -0.195916
 5703         c3    214    ccc     C4   5703 0.17944400  12.010000   ; qtot -0.016472
 5704         h1    214    ccc     H6   5704 0.07335800   1.008000   ; qtot 0.056886
 5705         c3    214    ccc     C5   5705 -0.49079800  12.010000   ; qtot -0.433912
 5706         h1    214    ccc     H7   5706 0.07335800   1.008000   ; qtot -0.360554
 5707         hc    214    ccc     H8   5707 0.15101200   1.008000   ; qtot -0.209542
 5708         hc    214    ccc     H9   5708 0.15101200   1.008000   ; qtot -0.058530
 5709          c    214    ccc     C6   5709 0.558828  12.010000   ; qtot 0.943669
 5710         oh    214    ccc     O1   5710 -0.56822625  16.000000   ; qtot 0.170583
 5711          o    214    ccc     O2   5711 -0.39142825  16.000000   ; qtot -0.493755
 5712         h1    214    ccc    H10   5712 0.07335800   1.008000   ; qtot -0.420397
 5713         h1    214    ccc    H11   5713 0.07335800   1.008000   ; qtot -0.347039
 5714         c3    214    ccc     C7   5714 -0.49079800  12.010000   ; qtot -0.837837
 5715         hc    214    ccc    H12   5715 0.15101200   1.008000   ; qtot -0.686825
 5716         hc    214    ccc    H13   5716 0.15101200   1.008000   ; qtot -0.535813
 5717          c    214    ccc     C8   5717 0.558828  12.010000   ; qtot 0.466386
 5718          o    214    ccc     O3   5718 -0.39142825  16.000000   ; qtot -0.197952
 5719         oh    214    ccc     O4   5719 -0.56822625  16.000000   ; qtot -0.971038
 5720         ho    214    ccc    H14   5720 0.4511195   1.008000   ; qtot -0.485520
 5721         ho    214    ccc    H15   5721 0.4511195   1.008000   ; qtot -0.000002
; residue  215 ccc rtp ccc q 0.0
 5722          n    215    ccc     N1   5722 -0.87251700  14.010000   ; qtot -0.872519
 5723         hn    215    ccc     H1   5723 0.46040000   1.008000   ; qtot -0.412119
 5724         c3    215    ccc     C1   5724 0.65477900  12.010000   ; qtot 0.242660
 5725         h1    215    ccc     H2   5725 -0.08959600   1.008000   ; qtot 0.153064
 5726         c3    215    ccc     C2   5726 0.03619700  12.010000   ; qtot 0.189261
 5727         h1    215    ccc     H3   5727 -0.08959600   1.008000   ; qtot 0.099665
 5728         h1    215    ccc     H4   5728 0.06927800   1.008000   ; qtot 0.168943
 5729         h1    215    ccc     H5   5729 0.06927800   1.008000   ; qtot 0.238221
 5730         n3    215    ccc     N2   5730 -0.61358100  14.010000   ; qtot -0.375360
 5731         c3    215    ccc     C3   5731 0.17944400  12.010000   ; qtot -0.195916
 5732         c3    215    ccc     C4   5732 0.17944400  12.010000   ; qtot -0.016472
 5733         h1    215    ccc     H6   5733 0.07335800   1.008000   ; qtot 0.056886
 5734         c3    215    ccc     C5   5734 -0.49079800  12.010000   ; qtot -0.433912
 5735         h1    215    ccc     H7   5735 0.07335800   1.008000   ; qtot -0.360554
 5736         hc    215    ccc     H8   5736 0.15101200   1.008000   ; qtot -0.209542
 5737         hc    215    ccc     H9   5737 0.15101200   1.008000   ; qtot -0.058530
 5738          c    215    ccc     C6   5738 0.558828  12.010000   ; qtot 0.943669
 5739         oh    215    ccc     O1   5739 -0.56822625  16.000000   ; qtot 0.170583
 5740          o    215    ccc     O2   5740 -0.39142825  16.000000   ; qtot -0.493755
 5741         h1    215    ccc    H10   5741 0.07335800   1.008000   ; qtot -0.420397
 5742         h1    215    ccc    H11   5742 0.07335800   1.008000   ; qtot -0.347039
 5743         c3    215    ccc     C7   5743 -0.49079800  12.010000   ; qtot -0.837837
 5744         hc    215    ccc    H12   5744 0.15101200   1.008000   ; qtot -0.686825
 5745         hc    215    ccc    H13   5745 0.15101200   1.008000   ; qtot -0.535813
 5746          c    215    ccc     C8   5746 0.558828  12.010000   ; qtot 0.466386
 5747          o    215    ccc     O3   5747 -0.39142825  16.000000   ; qtot -0.197952
 5748         oh    215    ccc     O4   5748 -0.56822625  16.000000   ; qtot -0.971038
 5749         ho    215    ccc    H14   5749 0.4511195   1.008000   ; qtot -0.485520
 5750         ho    215    ccc    H15   5750 0.4511195   1.008000   ; qtot -0.000002
; residue  216 ccc rtp ccc q 0.0
 5751          n    216    ccc     N1   5751 -0.87251700  14.010000   ; qtot -0.872519
 5752         hn    216    ccc     H1   5752 0.46040000   1.008000   ; qtot -0.412119
 5753         c3    216    ccc     C1   5753 0.65477900  12.010000   ; qtot 0.242660
 5754         h1    216    ccc     H2   5754 -0.08959600   1.008000   ; qtot 0.153064
 5755         c3    216    ccc     C2   5755 0.03619700  12.010000   ; qtot 0.189261
 5756         h1    216    ccc     H3   5756 -0.08959600   1.008000   ; qtot 0.099665
 5757         h1    216    ccc     H4   5757 0.06927800   1.008000   ; qtot 0.168943
 5758         h1    216    ccc     H5   5758 0.06927800   1.008000   ; qtot 0.238221
 5759         n3    216    ccc     N2   5759 -0.61358100  14.010000   ; qtot -0.375360
 5760         c3    216    ccc     C3   5760 0.17944400  12.010000   ; qtot -0.195916
 5761         c3    216    ccc     C4   5761 0.17944400  12.010000   ; qtot -0.016472
 5762         h1    216    ccc     H6   5762 0.07335800   1.008000   ; qtot 0.056886
 5763         c3    216    ccc     C5   5763 -0.49079800  12.010000   ; qtot -0.433912
 5764         h1    216    ccc     H7   5764 0.07335800   1.008000   ; qtot -0.360554
 5765         hc    216    ccc     H8   5765 0.15101200   1.008000   ; qtot -0.209542
 5766         hc    216    ccc     H9   5766 0.15101200   1.008000   ; qtot -0.058530
 5767          c    216    ccc     C6   5767 0.558828  12.010000   ; qtot 0.943669
 5768         oh    216    ccc     O1   5768 -0.56822625  16.000000   ; qtot 0.170583
 5769          o    216    ccc     O2   5769 -0.39142825  16.000000   ; qtot -0.493755
 5770         h1    216    ccc    H10   5770 0.07335800   1.008000   ; qtot -0.420397
 5771         h1    216    ccc    H11   5771 0.07335800   1.008000   ; qtot -0.347039
 5772         c3    216    ccc     C7   5772 -0.49079800  12.010000   ; qtot -0.837837
 5773         hc    216    ccc    H12   5773 0.15101200   1.008000   ; qtot -0.686825
 5774         hc    216    ccc    H13   5774 0.15101200   1.008000   ; qtot -0.535813
 5775          c    216    ccc     C8   5775 0.558828  12.010000   ; qtot 0.466386
 5776          o    216    ccc     O3   5776 -0.39142825  16.000000   ; qtot -0.197952
 5777         oh    216    ccc     O4   5777 -0.56822625  16.000000   ; qtot -0.971038
 5778         ho    216    ccc    H14   5778 0.4511195   1.008000   ; qtot -0.485520
 5779         ho    216    ccc    H15   5779 0.4511195   1.008000   ; qtot -0.000002
; residue  217 ccc rtp ccc q 0.0
 5780          n    217    ccc     N1   5780 -0.87251700  14.010000   ; qtot -0.872519
 5781         hn    217    ccc     H1   5781 0.46040000   1.008000   ; qtot -0.412119
 5782         c3    217    ccc     C1   5782 0.65477900  12.010000   ; qtot 0.242660
 5783         h1    217    ccc     H2   5783 -0.08959600   1.008000   ; qtot 0.153064
 5784         c3    217    ccc     C2   5784 0.03619700  12.010000   ; qtot 0.189261
 5785         h1    217    ccc     H3   5785 -0.08959600   1.008000   ; qtot 0.099665
 5786         h1    217    ccc     H4   5786 0.06927800   1.008000   ; qtot 0.168943
 5787         h1    217    ccc     H5   5787 0.06927800   1.008000   ; qtot 0.238221
 5788         n3    217    ccc     N2   5788 -0.61358100  14.010000   ; qtot -0.375360
 5789         c3    217    ccc     C3   5789 0.17944400  12.010000   ; qtot -0.195916
 5790         c3    217    ccc     C4   5790 0.17944400  12.010000   ; qtot -0.016472
 5791         h1    217    ccc     H6   5791 0.07335800   1.008000   ; qtot 0.056886
 5792         c3    217    ccc     C5   5792 -0.49079800  12.010000   ; qtot -0.433912
 5793         h1    217    ccc     H7   5793 0.07335800   1.008000   ; qtot -0.360554
 5794         hc    217    ccc     H8   5794 0.15101200   1.008000   ; qtot -0.209542
 5795         hc    217    ccc     H9   5795 0.15101200   1.008000   ; qtot -0.058530
 5796          c    217    ccc     C6   5796 0.558828  12.010000   ; qtot 0.943669
 5797         oh    217    ccc     O1   5797 -0.56822625  16.000000   ; qtot 0.170583
 5798          o    217    ccc     O2   5798 -0.39142825  16.000000   ; qtot -0.493755
 5799         h1    217    ccc    H10   5799 0.07335800   1.008000   ; qtot -0.420397
 5800         h1    217    ccc    H11   5800 0.07335800   1.008000   ; qtot -0.347039
 5801         c3    217    ccc     C7   5801 -0.49079800  12.010000   ; qtot -0.837837
 5802         hc    217    ccc    H12   5802 0.15101200   1.008000   ; qtot -0.686825
 5803         hc    217    ccc    H13   5803 0.15101200   1.008000   ; qtot -0.535813
 5804          c    217    ccc     C8   5804 0.558828  12.010000   ; qtot 0.466386
 5805          o    217    ccc     O3   5805 -0.39142825  16.000000   ; qtot -0.197952
 5806         oh    217    ccc     O4   5806 -0.56822625  16.000000   ; qtot -0.971038
 5807         ho    217    ccc    H14   5807 0.4511195   1.008000   ; qtot -0.485520
 5808         ho    217    ccc    H15   5808 0.4511195   1.008000   ; qtot -0.000002
; residue  218 ccc rtp ccc q 0.0
 5809          n    218    ccc     N1   5809 -0.87251700  14.010000   ; qtot -0.872519
 5810         hn    218    ccc     H1   5810 0.46040000   1.008000   ; qtot -0.412119
 5811         c3    218    ccc     C1   5811 0.65477900  12.010000   ; qtot 0.242660
 5812         h1    218    ccc     H2   5812 -0.08959600   1.008000   ; qtot 0.153064
 5813         c3    218    ccc     C2   5813 0.03619700  12.010000   ; qtot 0.189261
 5814         h1    218    ccc     H3   5814 -0.08959600   1.008000   ; qtot 0.099665
 5815         h1    218    ccc     H4   5815 0.06927800   1.008000   ; qtot 0.168943
 5816         h1    218    ccc     H5   5816 0.06927800   1.008000   ; qtot 0.238221
 5817         n3    218    ccc     N2   5817 -0.61358100  14.010000   ; qtot -0.375360
 5818         c3    218    ccc     C3   5818 0.17944400  12.010000   ; qtot -0.195916
 5819         c3    218    ccc     C4   5819 0.17944400  12.010000   ; qtot -0.016472
 5820         h1    218    ccc     H6   5820 0.07335800   1.008000   ; qtot 0.056886
 5821         c3    218    ccc     C5   5821 -0.49079800  12.010000   ; qtot -0.433912
 5822         h1    218    ccc     H7   5822 0.07335800   1.008000   ; qtot -0.360554
 5823         hc    218    ccc     H8   5823 0.15101200   1.008000   ; qtot -0.209542
 5824         hc    218    ccc     H9   5824 0.15101200   1.008000   ; qtot -0.058530
 5825          c    218    ccc     C6   5825 0.558828  12.010000   ; qtot 0.943669
 5826         oh    218    ccc     O1   5826 -0.56822625  16.000000   ; qtot 0.170583
 5827          o    218    ccc     O2   5827 -0.39142825  16.000000   ; qtot -0.493755
 5828         h1    218    ccc    H10   5828 0.07335800   1.008000   ; qtot -0.420397
 5829         h1    218    ccc    H11   5829 0.07335800   1.008000   ; qtot -0.347039
 5830         c3    218    ccc     C7   5830 -0.49079800  12.010000   ; qtot -0.837837
 5831         hc    218    ccc    H12   5831 0.15101200   1.008000   ; qtot -0.686825
 5832         hc    218    ccc    H13   5832 0.15101200   1.008000   ; qtot -0.535813
 5833          c    218    ccc     C8   5833 0.558828  12.010000   ; qtot 0.466386
 5834          o    218    ccc     O3   5834 -0.39142825  16.000000   ; qtot -0.197952
 5835         oh    218    ccc     O4   5835 -0.56822625  16.000000   ; qtot -0.971038
 5836         ho    218    ccc    H14   5836 0.4511195   1.008000   ; qtot -0.485520
 5837         ho    218    ccc    H15   5837 0.4511195   1.008000   ; qtot -0.000002
; residue  219 ccc rtp ccc q 0.0
 5838          n    219    ccc     N1   5838 -0.87251700  14.010000   ; qtot -0.872519
 5839         hn    219    ccc     H1   5839 0.46040000   1.008000   ; qtot -0.412119
 5840         c3    219    ccc     C1   5840 0.65477900  12.010000   ; qtot 0.242660
 5841         h1    219    ccc     H2   5841 -0.08959600   1.008000   ; qtot 0.153064
 5842         c3    219    ccc     C2   5842 0.03619700  12.010000   ; qtot 0.189261
 5843         h1    219    ccc     H3   5843 -0.08959600   1.008000   ; qtot 0.099665
 5844         h1    219    ccc     H4   5844 0.06927800   1.008000   ; qtot 0.168943
 5845         h1    219    ccc     H5   5845 0.06927800   1.008000   ; qtot 0.238221
 5846         n3    219    ccc     N2   5846 -0.61358100  14.010000   ; qtot -0.375360
 5847         c3    219    ccc     C3   5847 0.17944400  12.010000   ; qtot -0.195916
 5848         c3    219    ccc     C4   5848 0.17944400  12.010000   ; qtot -0.016472
 5849         h1    219    ccc     H6   5849 0.07335800   1.008000   ; qtot 0.056886
 5850         c3    219    ccc     C5   5850 -0.49079800  12.010000   ; qtot -0.433912
 5851         h1    219    ccc     H7   5851 0.07335800   1.008000   ; qtot -0.360554
 5852         hc    219    ccc     H8   5852 0.15101200   1.008000   ; qtot -0.209542
 5853         hc    219    ccc     H9   5853 0.15101200   1.008000   ; qtot -0.058530
 5854          c    219    ccc     C6   5854 0.558828  12.010000   ; qtot 0.943669
 5855         oh    219    ccc     O1   5855 -0.56822625  16.000000   ; qtot 0.170583
 5856          o    219    ccc     O2   5856 -0.39142825  16.000000   ; qtot -0.493755
 5857         h1    219    ccc    H10   5857 0.07335800   1.008000   ; qtot -0.420397
 5858         h1    219    ccc    H11   5858 0.07335800   1.008000   ; qtot -0.347039
 5859         c3    219    ccc     C7   5859 -0.49079800  12.010000   ; qtot -0.837837
 5860         hc    219    ccc    H12   5860 0.15101200   1.008000   ; qtot -0.686825
 5861         hc    219    ccc    H13   5861 0.15101200   1.008000   ; qtot -0.535813
 5862          c    219    ccc     C8   5862 0.558828  12.010000   ; qtot 0.466386
 5863          o    219    ccc     O3   5863 -0.39142825  16.000000   ; qtot -0.197952
 5864         oh    219    ccc     O4   5864 -0.56822625  16.000000   ; qtot -0.971038
 5865         ho    219    ccc    H14   5865 0.4511195   1.008000   ; qtot -0.485520
 5866         ho    219    ccc    H15   5866 0.4511195   1.008000   ; qtot -0.000002
; residue  220 ccc rtp ccc q 0.0
 5867          n    220    ccc     N1   5867 -0.87251700  14.010000   ; qtot -0.872519
 5868         hn    220    ccc     H1   5868 0.46040000   1.008000   ; qtot -0.412119
 5869         c3    220    ccc     C1   5869 0.65477900  12.010000   ; qtot 0.242660
 5870         h1    220    ccc     H2   5870 -0.08959600   1.008000   ; qtot 0.153064
 5871         c3    220    ccc     C2   5871 0.03619700  12.010000   ; qtot 0.189261
 5872         h1    220    ccc     H3   5872 -0.08959600   1.008000   ; qtot 0.099665
 5873         h1    220    ccc     H4   5873 0.06927800   1.008000   ; qtot 0.168943
 5874         h1    220    ccc     H5   5874 0.06927800   1.008000   ; qtot 0.238221
 5875         n3    220    ccc     N2   5875 -0.61358100  14.010000   ; qtot -0.375360
 5876         c3    220    ccc     C3   5876 0.17944400  12.010000   ; qtot -0.195916
 5877         c3    220    ccc     C4   5877 0.17944400  12.010000   ; qtot -0.016472
 5878         h1    220    ccc     H6   5878 0.07335800   1.008000   ; qtot 0.056886
 5879         c3    220    ccc     C5   5879 -0.49079800  12.010000   ; qtot -0.433912
 5880         h1    220    ccc     H7   5880 0.07335800   1.008000   ; qtot -0.360554
 5881         hc    220    ccc     H8   5881 0.15101200   1.008000   ; qtot -0.209542
 5882         hc    220    ccc     H9   5882 0.15101200   1.008000   ; qtot -0.058530
 5883          c    220    ccc     C6   5883 0.558828  12.010000   ; qtot 0.943669
 5884         oh    220    ccc     O1   5884 -0.56822625  16.000000   ; qtot 0.170583
 5885          o    220    ccc     O2   5885 -0.39142825  16.000000   ; qtot -0.493755
 5886         h1    220    ccc    H10   5886 0.07335800   1.008000   ; qtot -0.420397
 5887         h1    220    ccc    H11   5887 0.07335800   1.008000   ; qtot -0.347039
 5888         c3    220    ccc     C7   5888 -0.49079800  12.010000   ; qtot -0.837837
 5889         hc    220    ccc    H12   5889 0.15101200   1.008000   ; qtot -0.686825
 5890         hc    220    ccc    H13   5890 0.15101200   1.008000   ; qtot -0.535813
 5891          c    220    ccc     C8   5891 0.558828  12.010000   ; qtot 0.466386
 5892          o    220    ccc     O3   5892 -0.39142825  16.000000   ; qtot -0.197952
 5893         oh    220    ccc     O4   5893 -0.56822625  16.000000   ; qtot -0.971038
 5894         ho    220    ccc    H14   5894 0.4511195   1.008000   ; qtot -0.485520
 5895         ho    220    ccc    H15   5895 0.4511195   1.008000   ; qtot -0.000002
; residue  221 ccc rtp ccc q 0.0
 5896          n    221    ccc     N1   5896 -0.87251700  14.010000   ; qtot -0.872519
 5897         hn    221    ccc     H1   5897 0.46040000   1.008000   ; qtot -0.412119
 5898         c3    221    ccc     C1   5898 0.65477900  12.010000   ; qtot 0.242660
 5899         h1    221    ccc     H2   5899 -0.08959600   1.008000   ; qtot 0.153064
 5900         c3    221    ccc     C2   5900 0.03619700  12.010000   ; qtot 0.189261
 5901         h1    221    ccc     H3   5901 -0.08959600   1.008000   ; qtot 0.099665
 5902         h1    221    ccc     H4   5902 0.06927800   1.008000   ; qtot 0.168943
 5903         h1    221    ccc     H5   5903 0.06927800   1.008000   ; qtot 0.238221
 5904         n3    221    ccc     N2   5904 -0.61358100  14.010000   ; qtot -0.375360
 5905         c3    221    ccc     C3   5905 0.17944400  12.010000   ; qtot -0.195916
 5906         c3    221    ccc     C4   5906 0.17944400  12.010000   ; qtot -0.016472
 5907         h1    221    ccc     H6   5907 0.07335800   1.008000   ; qtot 0.056886
 5908         c3    221    ccc     C5   5908 -0.49079800  12.010000   ; qtot -0.433912
 5909         h1    221    ccc     H7   5909 0.07335800   1.008000   ; qtot -0.360554
 5910         hc    221    ccc     H8   5910 0.15101200   1.008000   ; qtot -0.209542
 5911         hc    221    ccc     H9   5911 0.15101200   1.008000   ; qtot -0.058530
 5912          c    221    ccc     C6   5912 0.558828  12.010000   ; qtot 0.943669
 5913         oh    221    ccc     O1   5913 -0.56822625  16.000000   ; qtot 0.170583
 5914          o    221    ccc     O2   5914 -0.39142825  16.000000   ; qtot -0.493755
 5915         h1    221    ccc    H10   5915 0.07335800   1.008000   ; qtot -0.420397
 5916         h1    221    ccc    H11   5916 0.07335800   1.008000   ; qtot -0.347039
 5917         c3    221    ccc     C7   5917 -0.49079800  12.010000   ; qtot -0.837837
 5918         hc    221    ccc    H12   5918 0.15101200   1.008000   ; qtot -0.686825
 5919         hc    221    ccc    H13   5919 0.15101200   1.008000   ; qtot -0.535813
 5920          c    221    ccc     C8   5920 0.558828  12.010000   ; qtot 0.466386
 5921          o    221    ccc     O3   5921 -0.39142825  16.000000   ; qtot -0.197952
 5922         oh    221    ccc     O4   5922 -0.56822625  16.000000   ; qtot -0.971038
 5923         ho    221    ccc    H14   5923 0.4511195   1.008000   ; qtot -0.485520
 5924         ho    221    ccc    H15   5924 0.4511195   1.008000   ; qtot -0.000002
; residue  222 ccc rtp ccc q 0.0
 5925          n    222    ccc     N1   5925 -0.87251700  14.010000   ; qtot -0.872519
 5926         hn    222    ccc     H1   5926 0.46040000   1.008000   ; qtot -0.412119
 5927         c3    222    ccc     C1   5927 0.65477900  12.010000   ; qtot 0.242660
 5928         h1    222    ccc     H2   5928 -0.08959600   1.008000   ; qtot 0.153064
 5929         c3    222    ccc     C2   5929 0.03619700  12.010000   ; qtot 0.189261
 5930         h1    222    ccc     H3   5930 -0.08959600   1.008000   ; qtot 0.099665
 5931         h1    222    ccc     H4   5931 0.06927800   1.008000   ; qtot 0.168943
 5932         h1    222    ccc     H5   5932 0.06927800   1.008000   ; qtot 0.238221
 5933         n3    222    ccc     N2   5933 -0.61358100  14.010000   ; qtot -0.375360
 5934         c3    222    ccc     C3   5934 0.17944400  12.010000   ; qtot -0.195916
 5935         c3    222    ccc     C4   5935 0.17944400  12.010000   ; qtot -0.016472
 5936         h1    222    ccc     H6   5936 0.07335800   1.008000   ; qtot 0.056886
 5937         c3    222    ccc     C5   5937 -0.49079800  12.010000   ; qtot -0.433912
 5938         h1    222    ccc     H7   5938 0.07335800   1.008000   ; qtot -0.360554
 5939         hc    222    ccc     H8   5939 0.15101200   1.008000   ; qtot -0.209542
 5940         hc    222    ccc     H9   5940 0.15101200   1.008000   ; qtot -0.058530
 5941          c    222    ccc     C6   5941 0.558828  12.010000   ; qtot 0.943669
 5942         oh    222    ccc     O1   5942 -0.56822625  16.000000   ; qtot 0.170583
 5943          o    222    ccc     O2   5943 -0.39142825  16.000000   ; qtot -0.493755
 5944         h1    222    ccc    H10   5944 0.07335800   1.008000   ; qtot -0.420397
 5945         h1    222    ccc    H11   5945 0.07335800   1.008000   ; qtot -0.347039
 5946         c3    222    ccc     C7   5946 -0.49079800  12.010000   ; qtot -0.837837
 5947         hc    222    ccc    H12   5947 0.15101200   1.008000   ; qtot -0.686825
 5948         hc    222    ccc    H13   5948 0.15101200   1.008000   ; qtot -0.535813
 5949          c    222    ccc     C8   5949 0.558828  12.010000   ; qtot 0.466386
 5950          o    222    ccc     O3   5950 -0.39142825  16.000000   ; qtot -0.197952
 5951         oh    222    ccc     O4   5951 -0.56822625  16.000000   ; qtot -0.971038
 5952         ho    222    ccc    H14   5952 0.4511195   1.008000   ; qtot -0.485520
 5953         ho    222    ccc    H15   5953 0.4511195   1.008000   ; qtot -0.000002
; residue  223 ccc rtp ccc q 0.0
 5954          n    223    ccc     N1   5954 -0.87251700  14.010000   ; qtot -0.872519
 5955         hn    223    ccc     H1   5955 0.46040000   1.008000   ; qtot -0.412119
 5956         c3    223    ccc     C1   5956 0.65477900  12.010000   ; qtot 0.242660
 5957         h1    223    ccc     H2   5957 -0.08959600   1.008000   ; qtot 0.153064
 5958         c3    223    ccc     C2   5958 0.03619700  12.010000   ; qtot 0.189261
 5959         h1    223    ccc     H3   5959 -0.08959600   1.008000   ; qtot 0.099665
 5960         h1    223    ccc     H4   5960 0.06927800   1.008000   ; qtot 0.168943
 5961         h1    223    ccc     H5   5961 0.06927800   1.008000   ; qtot 0.238221
 5962         n3    223    ccc     N2   5962 -0.61358100  14.010000   ; qtot -0.375360
 5963         c3    223    ccc     C3   5963 0.17944400  12.010000   ; qtot -0.195916
 5964         c3    223    ccc     C4   5964 0.17944400  12.010000   ; qtot -0.016472
 5965         h1    223    ccc     H6   5965 0.07335800   1.008000   ; qtot 0.056886
 5966         c3    223    ccc     C5   5966 -0.49079800  12.010000   ; qtot -0.433912
 5967         h1    223    ccc     H7   5967 0.07335800   1.008000   ; qtot -0.360554
 5968         hc    223    ccc     H8   5968 0.15101200   1.008000   ; qtot -0.209542
 5969         hc    223    ccc     H9   5969 0.15101200   1.008000   ; qtot -0.058530
 5970          c    223    ccc     C6   5970 0.558828  12.010000   ; qtot 0.943669
 5971         oh    223    ccc     O1   5971 -0.56822625  16.000000   ; qtot 0.170583
 5972          o    223    ccc     O2   5972 -0.39142825  16.000000   ; qtot -0.493755
 5973         h1    223    ccc    H10   5973 0.07335800   1.008000   ; qtot -0.420397
 5974         h1    223    ccc    H11   5974 0.07335800   1.008000   ; qtot -0.347039
 5975         c3    223    ccc     C7   5975 -0.49079800  12.010000   ; qtot -0.837837
 5976         hc    223    ccc    H12   5976 0.15101200   1.008000   ; qtot -0.686825
 5977         hc    223    ccc    H13   5977 0.15101200   1.008000   ; qtot -0.535813
 5978          c    223    ccc     C8   5978 0.558828  12.010000   ; qtot 0.466386
 5979          o    223    ccc     O3   5979 -0.39142825  16.000000   ; qtot -0.197952
 5980         oh    223    ccc     O4   5980 -0.56822625  16.000000   ; qtot -0.971038
 5981         ho    223    ccc    H14   5981 0.4511195   1.008000   ; qtot -0.485520
 5982         ho    223    ccc    H15   5982 0.4511195   1.008000   ; qtot -0.000002
; residue  224 ccc rtp ccc q 0.0
 5983          n    224    ccc     N1   5983 -0.87251700  14.010000   ; qtot -0.872519
 5984         hn    224    ccc     H1   5984 0.46040000   1.008000   ; qtot -0.412119
 5985         c3    224    ccc     C1   5985 0.65477900  12.010000   ; qtot 0.242660
 5986         h1    224    ccc     H2   5986 -0.08959600   1.008000   ; qtot 0.153064
 5987         c3    224    ccc     C2   5987 0.03619700  12.010000   ; qtot 0.189261
 5988         h1    224    ccc     H3   5988 -0.08959600   1.008000   ; qtot 0.099665
 5989         h1    224    ccc     H4   5989 0.06927800   1.008000   ; qtot 0.168943
 5990         h1    224    ccc     H5   5990 0.06927800   1.008000   ; qtot 0.238221
 5991         n3    224    ccc     N2   5991 -0.61358100  14.010000   ; qtot -0.375360
 5992         c3    224    ccc     C3   5992 0.17944400  12.010000   ; qtot -0.195916
 5993         c3    224    ccc     C4   5993 0.17944400  12.010000   ; qtot -0.016472
 5994         h1    224    ccc     H6   5994 0.07335800   1.008000   ; qtot 0.056886
 5995         c3    224    ccc     C5   5995 -0.49079800  12.010000   ; qtot -0.433912
 5996         h1    224    ccc     H7   5996 0.07335800   1.008000   ; qtot -0.360554
 5997         hc    224    ccc     H8   5997 0.15101200   1.008000   ; qtot -0.209542
 5998         hc    224    ccc     H9   5998 0.15101200   1.008000   ; qtot -0.058530
 5999          c    224    ccc     C6   5999 0.558828  12.010000   ; qtot 0.943669
 6000         oh    224    ccc     O1   6000 -0.56822625  16.000000   ; qtot 0.170583
 6001          o    224    ccc     O2   6001 -0.39142825  16.000000   ; qtot -0.493755
 6002         h1    224    ccc    H10   6002 0.07335800   1.008000   ; qtot -0.420397
 6003         h1    224    ccc    H11   6003 0.07335800   1.008000   ; qtot -0.347039
 6004         c3    224    ccc     C7   6004 -0.49079800  12.010000   ; qtot -0.837837
 6005         hc    224    ccc    H12   6005 0.15101200   1.008000   ; qtot -0.686825
 6006         hc    224    ccc    H13   6006 0.15101200   1.008000   ; qtot -0.535813
 6007          c    224    ccc     C8   6007 0.558828  12.010000   ; qtot 0.466386
 6008          o    224    ccc     O3   6008 -0.39142825  16.000000   ; qtot -0.197952
 6009         oh    224    ccc     O4   6009 -0.56822625  16.000000   ; qtot -0.971038
 6010         ho    224    ccc    H14   6010 0.4511195   1.008000   ; qtot -0.485520
 6011         ho    224    ccc    H15   6011 0.4511195   1.008000   ; qtot -0.000002
; residue  225 ccc rtp ccc q 0.0
 6012          n    225    ccc     N1   6012 -0.87251700  14.010000   ; qtot -0.872519
 6013         hn    225    ccc     H1   6013 0.46040000   1.008000   ; qtot -0.412119
 6014         c3    225    ccc     C1   6014 0.65477900  12.010000   ; qtot 0.242660
 6015         h1    225    ccc     H2   6015 -0.08959600   1.008000   ; qtot 0.153064
 6016         c3    225    ccc     C2   6016 0.03619700  12.010000   ; qtot 0.189261
 6017         h1    225    ccc     H3   6017 -0.08959600   1.008000   ; qtot 0.099665
 6018         h1    225    ccc     H4   6018 0.06927800   1.008000   ; qtot 0.168943
 6019         h1    225    ccc     H5   6019 0.06927800   1.008000   ; qtot 0.238221
 6020         n3    225    ccc     N2   6020 -0.61358100  14.010000   ; qtot -0.375360
 6021         c3    225    ccc     C3   6021 0.17944400  12.010000   ; qtot -0.195916
 6022         c3    225    ccc     C4   6022 0.17944400  12.010000   ; qtot -0.016472
 6023         h1    225    ccc     H6   6023 0.07335800   1.008000   ; qtot 0.056886
 6024         c3    225    ccc     C5   6024 -0.49079800  12.010000   ; qtot -0.433912
 6025         h1    225    ccc     H7   6025 0.07335800   1.008000   ; qtot -0.360554
 6026         hc    225    ccc     H8   6026 0.15101200   1.008000   ; qtot -0.209542
 6027         hc    225    ccc     H9   6027 0.15101200   1.008000   ; qtot -0.058530
 6028          c    225    ccc     C6   6028 0.558828  12.010000   ; qtot 0.943669
 6029         oh    225    ccc     O1   6029 -0.56822625  16.000000   ; qtot 0.170583
 6030          o    225    ccc     O2   6030 -0.39142825  16.000000   ; qtot -0.493755
 6031         h1    225    ccc    H10   6031 0.07335800   1.008000   ; qtot -0.420397
 6032         h1    225    ccc    H11   6032 0.07335800   1.008000   ; qtot -0.347039
 6033         c3    225    ccc     C7   6033 -0.49079800  12.010000   ; qtot -0.837837
 6034         hc    225    ccc    H12   6034 0.15101200   1.008000   ; qtot -0.686825
 6035         hc    225    ccc    H13   6035 0.15101200   1.008000   ; qtot -0.535813
 6036          c    225    ccc     C8   6036 0.558828  12.010000   ; qtot 0.466386
 6037          o    225    ccc     O3   6037 -0.39142825  16.000000   ; qtot -0.197952
 6038         oh    225    ccc     O4   6038 -0.56822625  16.000000   ; qtot -0.971038
 6039         ho    225    ccc    H14   6039 0.4511195   1.008000   ; qtot -0.485520
 6040         ho    225    ccc    H15   6040 0.4511195   1.008000   ; qtot -0.000002
; residue  226 ccc rtp ccc q 0.0
 6041          n    226    ccc     N1   6041 -0.87251700  14.010000   ; qtot -0.872519
 6042         hn    226    ccc     H1   6042 0.46040000   1.008000   ; qtot -0.412119
 6043         c3    226    ccc     C1   6043 0.65477900  12.010000   ; qtot 0.242660
 6044         h1    226    ccc     H2   6044 -0.08959600   1.008000   ; qtot 0.153064
 6045         c3    226    ccc     C2   6045 0.03619700  12.010000   ; qtot 0.189261
 6046         h1    226    ccc     H3   6046 -0.08959600   1.008000   ; qtot 0.099665
 6047         h1    226    ccc     H4   6047 0.06927800   1.008000   ; qtot 0.168943
 6048         h1    226    ccc     H5   6048 0.06927800   1.008000   ; qtot 0.238221
 6049         n3    226    ccc     N2   6049 -0.61358100  14.010000   ; qtot -0.375360
 6050         c3    226    ccc     C3   6050 0.17944400  12.010000   ; qtot -0.195916
 6051         c3    226    ccc     C4   6051 0.17944400  12.010000   ; qtot -0.016472
 6052         h1    226    ccc     H6   6052 0.07335800   1.008000   ; qtot 0.056886
 6053         c3    226    ccc     C5   6053 -0.49079800  12.010000   ; qtot -0.433912
 6054         h1    226    ccc     H7   6054 0.07335800   1.008000   ; qtot -0.360554
 6055         hc    226    ccc     H8   6055 0.15101200   1.008000   ; qtot -0.209542
 6056         hc    226    ccc     H9   6056 0.15101200   1.008000   ; qtot -0.058530
 6057          c    226    ccc     C6   6057 0.558828  12.010000   ; qtot 0.943669
 6058         oh    226    ccc     O1   6058 -0.56822625  16.000000   ; qtot 0.170583
 6059          o    226    ccc     O2   6059 -0.39142825  16.000000   ; qtot -0.493755
 6060         h1    226    ccc    H10   6060 0.07335800   1.008000   ; qtot -0.420397
 6061         h1    226    ccc    H11   6061 0.07335800   1.008000   ; qtot -0.347039
 6062         c3    226    ccc     C7   6062 -0.49079800  12.010000   ; qtot -0.837837
 6063         hc    226    ccc    H12   6063 0.15101200   1.008000   ; qtot -0.686825
 6064         hc    226    ccc    H13   6064 0.15101200   1.008000   ; qtot -0.535813
 6065          c    226    ccc     C8   6065 0.558828  12.010000   ; qtot 0.466386
 6066          o    226    ccc     O3   6066 -0.39142825  16.000000   ; qtot -0.197952
 6067         oh    226    ccc     O4   6067 -0.56822625  16.000000   ; qtot -0.971038
 6068         ho    226    ccc    H14   6068 0.4511195   1.008000   ; qtot -0.485520
 6069         ho    226    ccc    H15   6069 0.4511195   1.008000   ; qtot -0.000002
; residue  227 ccc rtp ccc q 0.0
 6070          n    227    ccc     N1   6070 -0.87251700  14.010000   ; qtot -0.872519
 6071         hn    227    ccc     H1   6071 0.46040000   1.008000   ; qtot -0.412119
 6072         c3    227    ccc     C1   6072 0.65477900  12.010000   ; qtot 0.242660
 6073         h1    227    ccc     H2   6073 -0.08959600   1.008000   ; qtot 0.153064
 6074         c3    227    ccc     C2   6074 0.03619700  12.010000   ; qtot 0.189261
 6075         h1    227    ccc     H3   6075 -0.08959600   1.008000   ; qtot 0.099665
 6076         h1    227    ccc     H4   6076 0.06927800   1.008000   ; qtot 0.168943
 6077         h1    227    ccc     H5   6077 0.06927800   1.008000   ; qtot 0.238221
 6078         n3    227    ccc     N2   6078 -0.61358100  14.010000   ; qtot -0.375360
 6079         c3    227    ccc     C3   6079 0.17944400  12.010000   ; qtot -0.195916
 6080         c3    227    ccc     C4   6080 0.17944400  12.010000   ; qtot -0.016472
 6081         h1    227    ccc     H6   6081 0.07335800   1.008000   ; qtot 0.056886
 6082         c3    227    ccc     C5   6082 -0.49079800  12.010000   ; qtot -0.433912
 6083         h1    227    ccc     H7   6083 0.07335800   1.008000   ; qtot -0.360554
 6084         hc    227    ccc     H8   6084 0.15101200   1.008000   ; qtot -0.209542
 6085         hc    227    ccc     H9   6085 0.15101200   1.008000   ; qtot -0.058530
 6086          c    227    ccc     C6   6086 0.558828  12.010000   ; qtot 0.943669
 6087         oh    227    ccc     O1   6087 -0.56822625  16.000000   ; qtot 0.170583
 6088          o    227    ccc     O2   6088 -0.39142825  16.000000   ; qtot -0.493755
 6089         h1    227    ccc    H10   6089 0.07335800   1.008000   ; qtot -0.420397
 6090         h1    227    ccc    H11   6090 0.07335800   1.008000   ; qtot -0.347039
 6091         c3    227    ccc     C7   6091 -0.49079800  12.010000   ; qtot -0.837837
 6092         hc    227    ccc    H12   6092 0.15101200   1.008000   ; qtot -0.686825
 6093         hc    227    ccc    H13   6093 0.15101200   1.008000   ; qtot -0.535813
 6094          c    227    ccc     C8   6094 0.558828  12.010000   ; qtot 0.466386
 6095          o    227    ccc     O3   6095 -0.39142825  16.000000   ; qtot -0.197952
 6096         oh    227    ccc     O4   6096 -0.56822625  16.000000   ; qtot -0.971038
 6097         ho    227    ccc    H14   6097 0.4511195   1.008000   ; qtot -0.485520
 6098         ho    227    ccc    H15   6098 0.4511195   1.008000   ; qtot -0.000002
; residue  228 ccc rtp ccc q 0.0
 6099          n    228    ccc     N1   6099 -0.87251700  14.010000   ; qtot -0.872519
 6100         hn    228    ccc     H1   6100 0.46040000   1.008000   ; qtot -0.412119
 6101         c3    228    ccc     C1   6101 0.65477900  12.010000   ; qtot 0.242660
 6102         h1    228    ccc     H2   6102 -0.08959600   1.008000   ; qtot 0.153064
 6103         c3    228    ccc     C2   6103 0.03619700  12.010000   ; qtot 0.189261
 6104         h1    228    ccc     H3   6104 -0.08959600   1.008000   ; qtot 0.099665
 6105         h1    228    ccc     H4   6105 0.06927800   1.008000   ; qtot 0.168943
 6106         h1    228    ccc     H5   6106 0.06927800   1.008000   ; qtot 0.238221
 6107         n3    228    ccc     N2   6107 -0.61358100  14.010000   ; qtot -0.375360
 6108         c3    228    ccc     C3   6108 0.17944400  12.010000   ; qtot -0.195916
 6109         c3    228    ccc     C4   6109 0.17944400  12.010000   ; qtot -0.016472
 6110         h1    228    ccc     H6   6110 0.07335800   1.008000   ; qtot 0.056886
 6111         c3    228    ccc     C5   6111 -0.49079800  12.010000   ; qtot -0.433912
 6112         h1    228    ccc     H7   6112 0.07335800   1.008000   ; qtot -0.360554
 6113         hc    228    ccc     H8   6113 0.15101200   1.008000   ; qtot -0.209542
 6114         hc    228    ccc     H9   6114 0.15101200   1.008000   ; qtot -0.058530
 6115          c    228    ccc     C6   6115 0.558828  12.010000   ; qtot 0.943669
 6116         oh    228    ccc     O1   6116 -0.56822625  16.000000   ; qtot 0.170583
 6117          o    228    ccc     O2   6117 -0.39142825  16.000000   ; qtot -0.493755
 6118         h1    228    ccc    H10   6118 0.07335800   1.008000   ; qtot -0.420397
 6119         h1    228    ccc    H11   6119 0.07335800   1.008000   ; qtot -0.347039
 6120         c3    228    ccc     C7   6120 -0.49079800  12.010000   ; qtot -0.837837
 6121         hc    228    ccc    H12   6121 0.15101200   1.008000   ; qtot -0.686825
 6122         hc    228    ccc    H13   6122 0.15101200   1.008000   ; qtot -0.535813
 6123          c    228    ccc     C8   6123 0.558828  12.010000   ; qtot 0.466386
 6124          o    228    ccc     O3   6124 -0.39142825  16.000000   ; qtot -0.197952
 6125         oh    228    ccc     O4   6125 -0.56822625  16.000000   ; qtot -0.971038
 6126         ho    228    ccc    H14   6126 0.4511195   1.008000   ; qtot -0.485520
 6127         ho    228    ccc    H15   6127 0.4511195   1.008000   ; qtot -0.000002
; residue  229 ccc rtp ccc q 0.0
 6128          n    229    ccc     N1   6128 -0.87251700  14.010000   ; qtot -0.872519
 6129         hn    229    ccc     H1   6129 0.46040000   1.008000   ; qtot -0.412119
 6130         c3    229    ccc     C1   6130 0.65477900  12.010000   ; qtot 0.242660
 6131         h1    229    ccc     H2   6131 -0.08959600   1.008000   ; qtot 0.153064
 6132         c3    229    ccc     C2   6132 0.03619700  12.010000   ; qtot 0.189261
 6133         h1    229    ccc     H3   6133 -0.08959600   1.008000   ; qtot 0.099665
 6134         h1    229    ccc     H4   6134 0.06927800   1.008000   ; qtot 0.168943
 6135         h1    229    ccc     H5   6135 0.06927800   1.008000   ; qtot 0.238221
 6136         n3    229    ccc     N2   6136 -0.61358100  14.010000   ; qtot -0.375360
 6137         c3    229    ccc     C3   6137 0.17944400  12.010000   ; qtot -0.195916
 6138         c3    229    ccc     C4   6138 0.17944400  12.010000   ; qtot -0.016472
 6139         h1    229    ccc     H6   6139 0.07335800   1.008000   ; qtot 0.056886
 6140         c3    229    ccc     C5   6140 -0.49079800  12.010000   ; qtot -0.433912
 6141         h1    229    ccc     H7   6141 0.07335800   1.008000   ; qtot -0.360554
 6142         hc    229    ccc     H8   6142 0.15101200   1.008000   ; qtot -0.209542
 6143         hc    229    ccc     H9   6143 0.15101200   1.008000   ; qtot -0.058530
 6144          c    229    ccc     C6   6144 0.558828  12.010000   ; qtot 0.943669
 6145         oh    229    ccc     O1   6145 -0.56822625  16.000000   ; qtot 0.170583
 6146          o    229    ccc     O2   6146 -0.39142825  16.000000   ; qtot -0.493755
 6147         h1    229    ccc    H10   6147 0.07335800   1.008000   ; qtot -0.420397
 6148         h1    229    ccc    H11   6148 0.07335800   1.008000   ; qtot -0.347039
 6149         c3    229    ccc     C7   6149 -0.49079800  12.010000   ; qtot -0.837837
 6150         hc    229    ccc    H12   6150 0.15101200   1.008000   ; qtot -0.686825
 6151         hc    229    ccc    H13   6151 0.15101200   1.008000   ; qtot -0.535813
 6152          c    229    ccc     C8   6152 0.558828  12.010000   ; qtot 0.466386
 6153          o    229    ccc     O3   6153 -0.39142825  16.000000   ; qtot -0.197952
 6154         oh    229    ccc     O4   6154 -0.56822625  16.000000   ; qtot -0.971038
 6155         ho    229    ccc    H14   6155 0.4511195   1.008000   ; qtot -0.485520
 6156         ho    229    ccc    H15   6156 0.4511195   1.008000   ; qtot -0.000002
; residue  230 ccc rtp ccc q 0.0
 6157          n    230    ccc     N1   6157 -0.87251700  14.010000   ; qtot -0.872519
 6158         hn    230    ccc     H1   6158 0.46040000   1.008000   ; qtot -0.412119
 6159         c3    230    ccc     C1   6159 0.65477900  12.010000   ; qtot 0.242660
 6160         h1    230    ccc     H2   6160 -0.08959600   1.008000   ; qtot 0.153064
 6161         c3    230    ccc     C2   6161 0.03619700  12.010000   ; qtot 0.189261
 6162         h1    230    ccc     H3   6162 -0.08959600   1.008000   ; qtot 0.099665
 6163         h1    230    ccc     H4   6163 0.06927800   1.008000   ; qtot 0.168943
 6164         h1    230    ccc     H5   6164 0.06927800   1.008000   ; qtot 0.238221
 6165         n3    230    ccc     N2   6165 -0.61358100  14.010000   ; qtot -0.375360
 6166         c3    230    ccc     C3   6166 0.17944400  12.010000   ; qtot -0.195916
 6167         c3    230    ccc     C4   6167 0.17944400  12.010000   ; qtot -0.016472
 6168         h1    230    ccc     H6   6168 0.07335800   1.008000   ; qtot 0.056886
 6169         c3    230    ccc     C5   6169 -0.49079800  12.010000   ; qtot -0.433912
 6170         h1    230    ccc     H7   6170 0.07335800   1.008000   ; qtot -0.360554
 6171         hc    230    ccc     H8   6171 0.15101200   1.008000   ; qtot -0.209542
 6172         hc    230    ccc     H9   6172 0.15101200   1.008000   ; qtot -0.058530
 6173          c    230    ccc     C6   6173 0.558828  12.010000   ; qtot 0.943669
 6174         oh    230    ccc     O1   6174 -0.56822625  16.000000   ; qtot 0.170583
 6175          o    230    ccc     O2   6175 -0.39142825  16.000000   ; qtot -0.493755
 6176         h1    230    ccc    H10   6176 0.07335800   1.008000   ; qtot -0.420397
 6177         h1    230    ccc    H11   6177 0.07335800   1.008000   ; qtot -0.347039
 6178         c3    230    ccc     C7   6178 -0.49079800  12.010000   ; qtot -0.837837
 6179         hc    230    ccc    H12   6179 0.15101200   1.008000   ; qtot -0.686825
 6180         hc    230    ccc    H13   6180 0.15101200   1.008000   ; qtot -0.535813
 6181          c    230    ccc     C8   6181 0.558828  12.010000   ; qtot 0.466386
 6182          o    230    ccc     O3   6182 -0.39142825  16.000000   ; qtot -0.197952
 6183         oh    230    ccc     O4   6183 -0.56822625  16.000000   ; qtot -0.971038
 6184         ho    230    ccc    H14   6184 0.4511195   1.008000   ; qtot -0.485520
 6185         ho    230    ccc    H15   6185 0.4511195   1.008000   ; qtot -0.000002
; residue  231 ccc rtp ccc q 0.0
 6186          n    231    ccc     N1   6186 -0.87251700  14.010000   ; qtot -0.872519
 6187         hn    231    ccc     H1   6187 0.46040000   1.008000   ; qtot -0.412119
 6188         c3    231    ccc     C1   6188 0.65477900  12.010000   ; qtot 0.242660
 6189         h1    231    ccc     H2   6189 -0.08959600   1.008000   ; qtot 0.153064
 6190         c3    231    ccc     C2   6190 0.03619700  12.010000   ; qtot 0.189261
 6191         h1    231    ccc     H3   6191 -0.08959600   1.008000   ; qtot 0.099665
 6192         h1    231    ccc     H4   6192 0.06927800   1.008000   ; qtot 0.168943
 6193         h1    231    ccc     H5   6193 0.06927800   1.008000   ; qtot 0.238221
 6194         n3    231    ccc     N2   6194 -0.61358100  14.010000   ; qtot -0.375360
 6195         c3    231    ccc     C3   6195 0.17944400  12.010000   ; qtot -0.195916
 6196         c3    231    ccc     C4   6196 0.17944400  12.010000   ; qtot -0.016472
 6197         h1    231    ccc     H6   6197 0.07335800   1.008000   ; qtot 0.056886
 6198         c3    231    ccc     C5   6198 -0.49079800  12.010000   ; qtot -0.433912
 6199         h1    231    ccc     H7   6199 0.07335800   1.008000   ; qtot -0.360554
 6200         hc    231    ccc     H8   6200 0.15101200   1.008000   ; qtot -0.209542
 6201         hc    231    ccc     H9   6201 0.15101200   1.008000   ; qtot -0.058530
 6202          c    231    ccc     C6   6202 0.558828  12.010000   ; qtot 0.943669
 6203         oh    231    ccc     O1   6203 -0.56822625  16.000000   ; qtot 0.170583
 6204          o    231    ccc     O2   6204 -0.39142825  16.000000   ; qtot -0.493755
 6205         h1    231    ccc    H10   6205 0.07335800   1.008000   ; qtot -0.420397
 6206         h1    231    ccc    H11   6206 0.07335800   1.008000   ; qtot -0.347039
 6207         c3    231    ccc     C7   6207 -0.49079800  12.010000   ; qtot -0.837837
 6208         hc    231    ccc    H12   6208 0.15101200   1.008000   ; qtot -0.686825
 6209         hc    231    ccc    H13   6209 0.15101200   1.008000   ; qtot -0.535813
 6210          c    231    ccc     C8   6210 0.558828  12.010000   ; qtot 0.466386
 6211          o    231    ccc     O3   6211 -0.39142825  16.000000   ; qtot -0.197952
 6212         oh    231    ccc     O4   6212 -0.56822625  16.000000   ; qtot -0.971038
 6213         ho    231    ccc    H14   6213 0.4511195   1.008000   ; qtot -0.485520
 6214         ho    231    ccc    H15   6214 0.4511195   1.008000   ; qtot -0.000002
; residue  232 ccc rtp ccc q 0.0
 6215          n    232    ccc     N1   6215 -0.87251700  14.010000   ; qtot -0.872519
 6216         hn    232    ccc     H1   6216 0.46040000   1.008000   ; qtot -0.412119
 6217         c3    232    ccc     C1   6217 0.65477900  12.010000   ; qtot 0.242660
 6218         h1    232    ccc     H2   6218 -0.08959600   1.008000   ; qtot 0.153064
 6219         c3    232    ccc     C2   6219 0.03619700  12.010000   ; qtot 0.189261
 6220         h1    232    ccc     H3   6220 -0.08959600   1.008000   ; qtot 0.099665
 6221         h1    232    ccc     H4   6221 0.06927800   1.008000   ; qtot 0.168943
 6222         h1    232    ccc     H5   6222 0.06927800   1.008000   ; qtot 0.238221
 6223         n3    232    ccc     N2   6223 -0.61358100  14.010000   ; qtot -0.375360
 6224         c3    232    ccc     C3   6224 0.17944400  12.010000   ; qtot -0.195916
 6225         c3    232    ccc     C4   6225 0.17944400  12.010000   ; qtot -0.016472
 6226         h1    232    ccc     H6   6226 0.07335800   1.008000   ; qtot 0.056886
 6227         c3    232    ccc     C5   6227 -0.49079800  12.010000   ; qtot -0.433912
 6228         h1    232    ccc     H7   6228 0.07335800   1.008000   ; qtot -0.360554
 6229         hc    232    ccc     H8   6229 0.15101200   1.008000   ; qtot -0.209542
 6230         hc    232    ccc     H9   6230 0.15101200   1.008000   ; qtot -0.058530
 6231          c    232    ccc     C6   6231 0.558828  12.010000   ; qtot 0.943669
 6232         oh    232    ccc     O1   6232 -0.56822625  16.000000   ; qtot 0.170583
 6233          o    232    ccc     O2   6233 -0.39142825  16.000000   ; qtot -0.493755
 6234         h1    232    ccc    H10   6234 0.07335800   1.008000   ; qtot -0.420397
 6235         h1    232    ccc    H11   6235 0.07335800   1.008000   ; qtot -0.347039
 6236         c3    232    ccc     C7   6236 -0.49079800  12.010000   ; qtot -0.837837
 6237         hc    232    ccc    H12   6237 0.15101200   1.008000   ; qtot -0.686825
 6238         hc    232    ccc    H13   6238 0.15101200   1.008000   ; qtot -0.535813
 6239          c    232    ccc     C8   6239 0.558828  12.010000   ; qtot 0.466386
 6240          o    232    ccc     O3   6240 -0.39142825  16.000000   ; qtot -0.197952
 6241         oh    232    ccc     O4   6241 -0.56822625  16.000000   ; qtot -0.971038
 6242         ho    232    ccc    H14   6242 0.4511195   1.008000   ; qtot -0.485520
 6243         ho    232    ccc    H15   6243 0.4511195   1.008000   ; qtot -0.000002
; residue  233 ccc rtp ccc q 0.0
 6244          n    233    ccc     N1   6244 -0.87251700  14.010000   ; qtot -0.872519
 6245         hn    233    ccc     H1   6245 0.46040000   1.008000   ; qtot -0.412119
 6246         c3    233    ccc     C1   6246 0.65477900  12.010000   ; qtot 0.242660
 6247         h1    233    ccc     H2   6247 -0.08959600   1.008000   ; qtot 0.153064
 6248         c3    233    ccc     C2   6248 0.03619700  12.010000   ; qtot 0.189261
 6249         h1    233    ccc     H3   6249 -0.08959600   1.008000   ; qtot 0.099665
 6250         h1    233    ccc     H4   6250 0.06927800   1.008000   ; qtot 0.168943
 6251         h1    233    ccc     H5   6251 0.06927800   1.008000   ; qtot 0.238221
 6252         n3    233    ccc     N2   6252 -0.61358100  14.010000   ; qtot -0.375360
 6253         c3    233    ccc     C3   6253 0.17944400  12.010000   ; qtot -0.195916
 6254         c3    233    ccc     C4   6254 0.17944400  12.010000   ; qtot -0.016472
 6255         h1    233    ccc     H6   6255 0.07335800   1.008000   ; qtot 0.056886
 6256         c3    233    ccc     C5   6256 -0.49079800  12.010000   ; qtot -0.433912
 6257         h1    233    ccc     H7   6257 0.07335800   1.008000   ; qtot -0.360554
 6258         hc    233    ccc     H8   6258 0.15101200   1.008000   ; qtot -0.209542
 6259         hc    233    ccc     H9   6259 0.15101200   1.008000   ; qtot -0.058530
 6260          c    233    ccc     C6   6260 0.558828  12.010000   ; qtot 0.943669
 6261         oh    233    ccc     O1   6261 -0.56822625  16.000000   ; qtot 0.170583
 6262          o    233    ccc     O2   6262 -0.39142825  16.000000   ; qtot -0.493755
 6263         h1    233    ccc    H10   6263 0.07335800   1.008000   ; qtot -0.420397
 6264         h1    233    ccc    H11   6264 0.07335800   1.008000   ; qtot -0.347039
 6265         c3    233    ccc     C7   6265 -0.49079800  12.010000   ; qtot -0.837837
 6266         hc    233    ccc    H12   6266 0.15101200   1.008000   ; qtot -0.686825
 6267         hc    233    ccc    H13   6267 0.15101200   1.008000   ; qtot -0.535813
 6268          c    233    ccc     C8   6268 0.558828  12.010000   ; qtot 0.466386
 6269          o    233    ccc     O3   6269 -0.39142825  16.000000   ; qtot -0.197952
 6270         oh    233    ccc     O4   6270 -0.56822625  16.000000   ; qtot -0.971038
 6271         ho    233    ccc    H14   6271 0.4511195   1.008000   ; qtot -0.485520
 6272         ho    233    ccc    H15   6272 0.4511195   1.008000   ; qtot -0.000002
; residue  234 ccc rtp ccc q 0.0
 6273          n    234    ccc     N1   6273 -0.87251700  14.010000   ; qtot -0.872519
 6274         hn    234    ccc     H1   6274 0.46040000   1.008000   ; qtot -0.412119
 6275         c3    234    ccc     C1   6275 0.65477900  12.010000   ; qtot 0.242660
 6276         h1    234    ccc     H2   6276 -0.08959600   1.008000   ; qtot 0.153064
 6277         c3    234    ccc     C2   6277 0.03619700  12.010000   ; qtot 0.189261
 6278         h1    234    ccc     H3   6278 -0.08959600   1.008000   ; qtot 0.099665
 6279         h1    234    ccc     H4   6279 0.06927800   1.008000   ; qtot 0.168943
 6280         h1    234    ccc     H5   6280 0.06927800   1.008000   ; qtot 0.238221
 6281         n3    234    ccc     N2   6281 -0.61358100  14.010000   ; qtot -0.375360
 6282         c3    234    ccc     C3   6282 0.17944400  12.010000   ; qtot -0.195916
 6283         c3    234    ccc     C4   6283 0.17944400  12.010000   ; qtot -0.016472
 6284         h1    234    ccc     H6   6284 0.07335800   1.008000   ; qtot 0.056886
 6285         c3    234    ccc     C5   6285 -0.49079800  12.010000   ; qtot -0.433912
 6286         h1    234    ccc     H7   6286 0.07335800   1.008000   ; qtot -0.360554
 6287         hc    234    ccc     H8   6287 0.15101200   1.008000   ; qtot -0.209542
 6288         hc    234    ccc     H9   6288 0.15101200   1.008000   ; qtot -0.058530
 6289          c    234    ccc     C6   6289 0.558828  12.010000   ; qtot 0.943669
 6290         oh    234    ccc     O1   6290 -0.56822625  16.000000   ; qtot 0.170583
 6291          o    234    ccc     O2   6291 -0.39142825  16.000000   ; qtot -0.493755
 6292         h1    234    ccc    H10   6292 0.07335800   1.008000   ; qtot -0.420397
 6293         h1    234    ccc    H11   6293 0.07335800   1.008000   ; qtot -0.347039
 6294         c3    234    ccc     C7   6294 -0.49079800  12.010000   ; qtot -0.837837
 6295         hc    234    ccc    H12   6295 0.15101200   1.008000   ; qtot -0.686825
 6296         hc    234    ccc    H13   6296 0.15101200   1.008000   ; qtot -0.535813
 6297          c    234    ccc     C8   6297 0.558828  12.010000   ; qtot 0.466386
 6298          o    234    ccc     O3   6298 -0.39142825  16.000000   ; qtot -0.197952
 6299         oh    234    ccc     O4   6299 -0.56822625  16.000000   ; qtot -0.971038
 6300         ho    234    ccc    H14   6300 0.4511195   1.008000   ; qtot -0.485520
 6301         ho    234    ccc    H15   6301 0.4511195   1.008000   ; qtot -0.000002
; residue  235 ccc rtp ccc q 0.0
 6302          n    235    ccc     N1   6302 -0.87251700  14.010000   ; qtot -0.872519
 6303         hn    235    ccc     H1   6303 0.46040000   1.008000   ; qtot -0.412119
 6304         c3    235    ccc     C1   6304 0.65477900  12.010000   ; qtot 0.242660
 6305         h1    235    ccc     H2   6305 -0.08959600   1.008000   ; qtot 0.153064
 6306         c3    235    ccc     C2   6306 0.03619700  12.010000   ; qtot 0.189261
 6307         h1    235    ccc     H3   6307 -0.08959600   1.008000   ; qtot 0.099665
 6308         h1    235    ccc     H4   6308 0.06927800   1.008000   ; qtot 0.168943
 6309         h1    235    ccc     H5   6309 0.06927800   1.008000   ; qtot 0.238221
 6310         n3    235    ccc     N2   6310 -0.61358100  14.010000   ; qtot -0.375360
 6311         c3    235    ccc     C3   6311 0.17944400  12.010000   ; qtot -0.195916
 6312         c3    235    ccc     C4   6312 0.17944400  12.010000   ; qtot -0.016472
 6313         h1    235    ccc     H6   6313 0.07335800   1.008000   ; qtot 0.056886
 6314         c3    235    ccc     C5   6314 -0.49079800  12.010000   ; qtot -0.433912
 6315         h1    235    ccc     H7   6315 0.07335800   1.008000   ; qtot -0.360554
 6316         hc    235    ccc     H8   6316 0.15101200   1.008000   ; qtot -0.209542
 6317         hc    235    ccc     H9   6317 0.15101200   1.008000   ; qtot -0.058530
 6318          c    235    ccc     C6   6318 0.558828  12.010000   ; qtot 0.943669
 6319         oh    235    ccc     O1   6319 -0.56822625  16.000000   ; qtot 0.170583
 6320          o    235    ccc     O2   6320 -0.39142825  16.000000   ; qtot -0.493755
 6321         h1    235    ccc    H10   6321 0.07335800   1.008000   ; qtot -0.420397
 6322         h1    235    ccc    H11   6322 0.07335800   1.008000   ; qtot -0.347039
 6323         c3    235    ccc     C7   6323 -0.49079800  12.010000   ; qtot -0.837837
 6324         hc    235    ccc    H12   6324 0.15101200   1.008000   ; qtot -0.686825
 6325         hc    235    ccc    H13   6325 0.15101200   1.008000   ; qtot -0.535813
 6326          c    235    ccc     C8   6326 0.558828  12.010000   ; qtot 0.466386
 6327          o    235    ccc     O3   6327 -0.39142825  16.000000   ; qtot -0.197952
 6328         oh    235    ccc     O4   6328 -0.56822625  16.000000   ; qtot -0.971038
 6329         ho    235    ccc    H14   6329 0.4511195   1.008000   ; qtot -0.485520
 6330         ho    235    ccc    H15   6330 0.4511195   1.008000   ; qtot -0.000002
; residue  236 ccc rtp ccc q 0.0
 6331          n    236    ccc     N1   6331 -0.87251700  14.010000   ; qtot -0.872519
 6332         hn    236    ccc     H1   6332 0.46040000   1.008000   ; qtot -0.412119
 6333         c3    236    ccc     C1   6333 0.65477900  12.010000   ; qtot 0.242660
 6334         h1    236    ccc     H2   6334 -0.08959600   1.008000   ; qtot 0.153064
 6335         c3    236    ccc     C2   6335 0.03619700  12.010000   ; qtot 0.189261
 6336         h1    236    ccc     H3   6336 -0.08959600   1.008000   ; qtot 0.099665
 6337         h1    236    ccc     H4   6337 0.06927800   1.008000   ; qtot 0.168943
 6338         h1    236    ccc     H5   6338 0.06927800   1.008000   ; qtot 0.238221
 6339         n3    236    ccc     N2   6339 -0.61358100  14.010000   ; qtot -0.375360
 6340         c3    236    ccc     C3   6340 0.17944400  12.010000   ; qtot -0.195916
 6341         c3    236    ccc     C4   6341 0.17944400  12.010000   ; qtot -0.016472
 6342         h1    236    ccc     H6   6342 0.07335800   1.008000   ; qtot 0.056886
 6343         c3    236    ccc     C5   6343 -0.49079800  12.010000   ; qtot -0.433912
 6344         h1    236    ccc     H7   6344 0.07335800   1.008000   ; qtot -0.360554
 6345         hc    236    ccc     H8   6345 0.15101200   1.008000   ; qtot -0.209542
 6346         hc    236    ccc     H9   6346 0.15101200   1.008000   ; qtot -0.058530
 6347          c    236    ccc     C6   6347 0.558828  12.010000   ; qtot 0.943669
 6348         oh    236    ccc     O1   6348 -0.56822625  16.000000   ; qtot 0.170583
 6349          o    236    ccc     O2   6349 -0.39142825  16.000000   ; qtot -0.493755
 6350         h1    236    ccc    H10   6350 0.07335800   1.008000   ; qtot -0.420397
 6351         h1    236    ccc    H11   6351 0.07335800   1.008000   ; qtot -0.347039
 6352         c3    236    ccc     C7   6352 -0.49079800  12.010000   ; qtot -0.837837
 6353         hc    236    ccc    H12   6353 0.15101200   1.008000   ; qtot -0.686825
 6354         hc    236    ccc    H13   6354 0.15101200   1.008000   ; qtot -0.535813
 6355          c    236    ccc     C8   6355 0.558828  12.010000   ; qtot 0.466386
 6356          o    236    ccc     O3   6356 -0.39142825  16.000000   ; qtot -0.197952
 6357         oh    236    ccc     O4   6357 -0.56822625  16.000000   ; qtot -0.971038
 6358         ho    236    ccc    H14   6358 0.4511195   1.008000   ; qtot -0.485520
 6359         ho    236    ccc    H15   6359 0.4511195   1.008000   ; qtot -0.000002
; residue  237 ccc rtp ccc q 0.0
 6360          n    237    ccc     N1   6360 -0.87251700  14.010000   ; qtot -0.872519
 6361         hn    237    ccc     H1   6361 0.46040000   1.008000   ; qtot -0.412119
 6362         c3    237    ccc     C1   6362 0.65477900  12.010000   ; qtot 0.242660
 6363         h1    237    ccc     H2   6363 -0.08959600   1.008000   ; qtot 0.153064
 6364         c3    237    ccc     C2   6364 0.03619700  12.010000   ; qtot 0.189261
 6365         h1    237    ccc     H3   6365 -0.08959600   1.008000   ; qtot 0.099665
 6366         h1    237    ccc     H4   6366 0.06927800   1.008000   ; qtot 0.168943
 6367         h1    237    ccc     H5   6367 0.06927800   1.008000   ; qtot 0.238221
 6368         n3    237    ccc     N2   6368 -0.61358100  14.010000   ; qtot -0.375360
 6369         c3    237    ccc     C3   6369 0.17944400  12.010000   ; qtot -0.195916
 6370         c3    237    ccc     C4   6370 0.17944400  12.010000   ; qtot -0.016472
 6371         h1    237    ccc     H6   6371 0.07335800   1.008000   ; qtot 0.056886
 6372         c3    237    ccc     C5   6372 -0.49079800  12.010000   ; qtot -0.433912
 6373         h1    237    ccc     H7   6373 0.07335800   1.008000   ; qtot -0.360554
 6374         hc    237    ccc     H8   6374 0.15101200   1.008000   ; qtot -0.209542
 6375         hc    237    ccc     H9   6375 0.15101200   1.008000   ; qtot -0.058530
 6376          c    237    ccc     C6   6376 0.558828  12.010000   ; qtot 0.943669
 6377         oh    237    ccc     O1   6377 -0.56822625  16.000000   ; qtot 0.170583
 6378          o    237    ccc     O2   6378 -0.39142825  16.000000   ; qtot -0.493755
 6379         h1    237    ccc    H10   6379 0.07335800   1.008000   ; qtot -0.420397
 6380         h1    237    ccc    H11   6380 0.07335800   1.008000   ; qtot -0.347039
 6381         c3    237    ccc     C7   6381 -0.49079800  12.010000   ; qtot -0.837837
 6382         hc    237    ccc    H12   6382 0.15101200   1.008000   ; qtot -0.686825
 6383         hc    237    ccc    H13   6383 0.15101200   1.008000   ; qtot -0.535813
 6384          c    237    ccc     C8   6384 0.558828  12.010000   ; qtot 0.466386
 6385          o    237    ccc     O3   6385 -0.39142825  16.000000   ; qtot -0.197952
 6386         oh    237    ccc     O4   6386 -0.56822625  16.000000   ; qtot -0.971038
 6387         ho    237    ccc    H14   6387 0.4511195   1.008000   ; qtot -0.485520
 6388         ho    237    ccc    H15   6388 0.4511195   1.008000   ; qtot -0.000002
; residue  238 ccc rtp ccc q 0.0
 6389          n    238    ccc     N1   6389 -0.87251700  14.010000   ; qtot -0.872519
 6390         hn    238    ccc     H1   6390 0.46040000   1.008000   ; qtot -0.412119
 6391         c3    238    ccc     C1   6391 0.65477900  12.010000   ; qtot 0.242660
 6392         h1    238    ccc     H2   6392 -0.08959600   1.008000   ; qtot 0.153064
 6393         c3    238    ccc     C2   6393 0.03619700  12.010000   ; qtot 0.189261
 6394         h1    238    ccc     H3   6394 -0.08959600   1.008000   ; qtot 0.099665
 6395         h1    238    ccc     H4   6395 0.06927800   1.008000   ; qtot 0.168943
 6396         h1    238    ccc     H5   6396 0.06927800   1.008000   ; qtot 0.238221
 6397         n3    238    ccc     N2   6397 -0.61358100  14.010000   ; qtot -0.375360
 6398         c3    238    ccc     C3   6398 0.17944400  12.010000   ; qtot -0.195916
 6399         c3    238    ccc     C4   6399 0.17944400  12.010000   ; qtot -0.016472
 6400         h1    238    ccc     H6   6400 0.07335800   1.008000   ; qtot 0.056886
 6401         c3    238    ccc     C5   6401 -0.49079800  12.010000   ; qtot -0.433912
 6402         h1    238    ccc     H7   6402 0.07335800   1.008000   ; qtot -0.360554
 6403         hc    238    ccc     H8   6403 0.15101200   1.008000   ; qtot -0.209542
 6404         hc    238    ccc     H9   6404 0.15101200   1.008000   ; qtot -0.058530
 6405          c    238    ccc     C6   6405 0.558828  12.010000   ; qtot 0.943669
 6406         oh    238    ccc     O1   6406 -0.56822625  16.000000   ; qtot 0.170583
 6407          o    238    ccc     O2   6407 -0.39142825  16.000000   ; qtot -0.493755
 6408         h1    238    ccc    H10   6408 0.07335800   1.008000   ; qtot -0.420397
 6409         h1    238    ccc    H11   6409 0.07335800   1.008000   ; qtot -0.347039
 6410         c3    238    ccc     C7   6410 -0.49079800  12.010000   ; qtot -0.837837
 6411         hc    238    ccc    H12   6411 0.15101200   1.008000   ; qtot -0.686825
 6412         hc    238    ccc    H13   6412 0.15101200   1.008000   ; qtot -0.535813
 6413          c    238    ccc     C8   6413 0.558828  12.010000   ; qtot 0.466386
 6414          o    238    ccc     O3   6414 -0.39142825  16.000000   ; qtot -0.197952
 6415         oh    238    ccc     O4   6415 -0.56822625  16.000000   ; qtot -0.971038
 6416         ho    238    ccc    H14   6416 0.4511195   1.008000   ; qtot -0.485520
 6417         ho    238    ccc    H15   6417 0.4511195   1.008000   ; qtot -0.000002
; residue  239 ccc rtp ccc q 0.0
 6418          n    239    ccc     N1   6418 -0.87251700  14.010000   ; qtot -0.872519
 6419         hn    239    ccc     H1   6419 0.46040000   1.008000   ; qtot -0.412119
 6420         c3    239    ccc     C1   6420 0.65477900  12.010000   ; qtot 0.242661
 6421         h1    239    ccc     H2   6421 -0.08959600   1.008000   ; qtot 0.153065
 6422         c3    239    ccc     C2   6422 0.03619700  12.010000   ; qtot 0.189262
 6423         h1    239    ccc     H3   6423 -0.08959600   1.008000   ; qtot 0.099666
 6424         h1    239    ccc     H4   6424 0.06927800   1.008000   ; qtot 0.168944
 6425         h1    239    ccc     H5   6425 0.06927800   1.008000   ; qtot 0.238222
 6426         n3    239    ccc     N2   6426 -0.61358100  14.010000   ; qtot -0.375360
 6427         c3    239    ccc     C3   6427 0.17944400  12.010000   ; qtot -0.195916
 6428         c3    239    ccc     C4   6428 0.17944400  12.010000   ; qtot -0.016472
 6429         h1    239    ccc     H6   6429 0.07335800   1.008000   ; qtot 0.056886
 6430         c3    239    ccc     C5   6430 -0.49079800  12.010000   ; qtot -0.433912
 6431         h1    239    ccc     H7   6431 0.07335800   1.008000   ; qtot -0.360554
 6432         hc    239    ccc     H8   6432 0.15101200   1.008000   ; qtot -0.209542
 6433         hc    239    ccc     H9   6433 0.15101200   1.008000   ; qtot -0.058530
 6434          c    239    ccc     C6   6434 0.558828  12.010000   ; qtot 0.943669
 6435         oh    239    ccc     O1   6435 -0.56822625  16.000000   ; qtot 0.170583
 6436          o    239    ccc     O2   6436 -0.39142825  16.000000   ; qtot -0.493755
 6437         h1    239    ccc    H10   6437 0.07335800   1.008000   ; qtot -0.420397
 6438         h1    239    ccc    H11   6438 0.07335800   1.008000   ; qtot -0.347039
 6439         c3    239    ccc     C7   6439 -0.49079800  12.010000   ; qtot -0.837837
 6440         hc    239    ccc    H12   6440 0.15101200   1.008000   ; qtot -0.686825
 6441         hc    239    ccc    H13   6441 0.15101200   1.008000   ; qtot -0.535813
 6442          c    239    ccc     C8   6442 0.558828  12.010000   ; qtot 0.466386
 6443          o    239    ccc     O3   6443 -0.39142825  16.000000   ; qtot -0.197952
 6444         oh    239    ccc     O4   6444 -0.56822625  16.000000   ; qtot -0.971038
 6445         ho    239    ccc    H14   6445 0.4511195   1.008000   ; qtot -0.485520
 6446         ho    239    ccc    H15   6446 0.4511195   1.008000   ; qtot -0.000002
; residue  240 ccc rtp ccc q 0.0
 6447          n    240    ccc     N1   6447 -0.87251700  14.010000   ; qtot -0.872518
 6448         hn    240    ccc     H1   6448 0.46040000   1.008000   ; qtot -0.412118
 6449         c3    240    ccc     C1   6449 0.65477900  12.010000   ; qtot 0.242661
 6450         h1    240    ccc     H2   6450 -0.08959600   1.008000   ; qtot 0.153065
 6451         c3    240    ccc     C2   6451 0.03619700  12.010000   ; qtot 0.189262
 6452         h1    240    ccc     H3   6452 -0.08959600   1.008000   ; qtot 0.099666
 6453         h1    240    ccc     H4   6453 0.06927800   1.008000   ; qtot 0.168944
 6454         h1    240    ccc     H5   6454 0.06927800   1.008000   ; qtot 0.238222
 6455         n3    240    ccc     N2   6455 -0.61358100  14.010000   ; qtot -0.375359
 6456         c3    240    ccc     C3   6456 0.17944400  12.010000   ; qtot -0.195915
 6457         c3    240    ccc     C4   6457 0.17944400  12.010000   ; qtot -0.016471
 6458         h1    240    ccc     H6   6458 0.07335800   1.008000   ; qtot 0.056887
 6459         c3    240    ccc     C5   6459 -0.49079800  12.010000   ; qtot -0.433911
 6460         h1    240    ccc     H7   6460 0.07335800   1.008000   ; qtot -0.360554
 6461         hc    240    ccc     H8   6461 0.15101200   1.008000   ; qtot -0.209541
 6462         hc    240    ccc     H9   6462 0.15101200   1.008000   ; qtot -0.058529
 6463          c    240    ccc     C6   6463 0.558828  12.010000   ; qtot 0.943669
 6464         oh    240    ccc     O1   6464 -0.56822625  16.000000   ; qtot 0.170583
 6465          o    240    ccc     O2   6465 -0.39142825  16.000000   ; qtot -0.493754
 6466         h1    240    ccc    H10   6466 0.07335800   1.008000   ; qtot -0.420396
 6467         h1    240    ccc    H11   6467 0.07335800   1.008000   ; qtot -0.347038
 6468         c3    240    ccc     C7   6468 -0.49079800  12.010000   ; qtot -0.837836
 6469         hc    240    ccc    H12   6469 0.15101200   1.008000   ; qtot -0.686824
 6470         hc    240    ccc    H13   6470 0.15101200   1.008000   ; qtot -0.535812
 6471          c    240    ccc     C8   6471 0.558828  12.010000   ; qtot 0.466386
 6472          o    240    ccc     O3   6472 -0.39142825  16.000000   ; qtot -0.197951
 6473         oh    240    ccc     O4   6473 -0.56822625  16.000000   ; qtot -0.971037
 6474         ho    240    ccc    H14   6474 0.4511195   1.008000   ; qtot -0.485519
 6475         ho    240    ccc    H15   6475 0.4511195   1.008000   ; qtot -0.000001
; residue  241 ccc rtp ccc q 0.0
 6476          n    241    ccc     N1   6476 -0.87251700  14.010000   ; qtot -0.872518
 6477         hn    241    ccc     H1   6477 0.46040000   1.008000   ; qtot -0.412118
 6478         c3    241    ccc     C1   6478 0.65477900  12.010000   ; qtot 0.242661
 6479         h1    241    ccc     H2   6479 -0.08959600   1.008000   ; qtot 0.153065
 6480         c3    241    ccc     C2   6480 0.03619700  12.010000   ; qtot 0.189262
 6481         h1    241    ccc     H3   6481 -0.08959600   1.008000   ; qtot 0.099666
 6482         h1    241    ccc     H4   6482 0.06927800   1.008000   ; qtot 0.168944
 6483         h1    241    ccc     H5   6483 0.06927800   1.008000   ; qtot 0.238222
 6484         n3    241    ccc     N2   6484 -0.61358100  14.010000   ; qtot -0.375359
 6485         c3    241    ccc     C3   6485 0.17944400  12.010000   ; qtot -0.195915
 6486         c3    241    ccc     C4   6486 0.17944400  12.010000   ; qtot -0.016471
 6487         h1    241    ccc     H6   6487 0.07335800   1.008000   ; qtot 0.056887
 6488         c3    241    ccc     C5   6488 -0.49079800  12.010000   ; qtot -0.433911
 6489         h1    241    ccc     H7   6489 0.07335800   1.008000   ; qtot -0.360553
 6490         hc    241    ccc     H8   6490 0.15101200   1.008000   ; qtot -0.209541
 6491         hc    241    ccc     H9   6491 0.15101200   1.008000   ; qtot -0.058529
 6492          c    241    ccc     C6   6492 0.558828  12.010000   ; qtot 0.943669
 6493         oh    241    ccc     O1   6493 -0.56822625  16.000000   ; qtot 0.170584
 6494          o    241    ccc     O2   6494 -0.39142825  16.000000   ; qtot -0.493754
 6495         h1    241    ccc    H10   6495 0.07335800   1.008000   ; qtot -0.420396
 6496         h1    241    ccc    H11   6496 0.07335800   1.008000   ; qtot -0.347038
 6497         c3    241    ccc     C7   6497 -0.49079800  12.010000   ; qtot -0.837836
 6498         hc    241    ccc    H12   6498 0.15101200   1.008000   ; qtot -0.686824
 6499         hc    241    ccc    H13   6499 0.15101200   1.008000   ; qtot -0.535812
 6500          c    241    ccc     C8   6500 0.558828  12.010000   ; qtot 0.466387
 6501          o    241    ccc     O3   6501 -0.39142825  16.000000   ; qtot -0.197951
 6502         oh    241    ccc     O4   6502 -0.56822625  16.000000   ; qtot -0.971037
 6503         ho    241    ccc    H14   6503 0.4511195   1.008000   ; qtot -0.485519
 6504         ho    241    ccc    H15   6504 0.4511195   1.008000   ; qtot -0.000001
; residue  242 ccc rtp ccc q 0.0
 6505          n    242    ccc     N1   6505 -0.87251700  14.010000   ; qtot -0.872518
 6506         hn    242    ccc     H1   6506 0.46040000   1.008000   ; qtot -0.412118
 6507         c3    242    ccc     C1   6507 0.65477900  12.010000   ; qtot 0.242661
 6508         h1    242    ccc     H2   6508 -0.08959600   1.008000   ; qtot 0.153065
 6509         c3    242    ccc     C2   6509 0.03619700  12.010000   ; qtot 0.189262
 6510         h1    242    ccc     H3   6510 -0.08959600   1.008000   ; qtot 0.099666
 6511         h1    242    ccc     H4   6511 0.06927800   1.008000   ; qtot 0.168944
 6512         h1    242    ccc     H5   6512 0.06927800   1.008000   ; qtot 0.238222
 6513         n3    242    ccc     N2   6513 -0.61358100  14.010000   ; qtot -0.375359
 6514         c3    242    ccc     C3   6514 0.17944400  12.010000   ; qtot -0.195915
 6515         c3    242    ccc     C4   6515 0.17944400  12.010000   ; qtot -0.016471
 6516         h1    242    ccc     H6   6516 0.07335800   1.008000   ; qtot 0.056887
 6517         c3    242    ccc     C5   6517 -0.49079800  12.010000   ; qtot -0.433911
 6518         h1    242    ccc     H7   6518 0.07335800   1.008000   ; qtot -0.360553
 6519         hc    242    ccc     H8   6519 0.15101200   1.008000   ; qtot -0.209541
 6520         hc    242    ccc     H9   6520 0.15101200   1.008000   ; qtot -0.058529
 6521          c    242    ccc     C6   6521 0.558828  12.010000   ; qtot 0.943670
 6522         oh    242    ccc     O1   6522 -0.56822625  16.000000   ; qtot 0.170584
 6523          o    242    ccc     O2   6523 -0.39142825  16.000000   ; qtot -0.493754
 6524         h1    242    ccc    H10   6524 0.07335800   1.008000   ; qtot -0.420396
 6525         h1    242    ccc    H11   6525 0.07335800   1.008000   ; qtot -0.347038
 6526         c3    242    ccc     C7   6526 -0.49079800  12.010000   ; qtot -0.837836
 6527         hc    242    ccc    H12   6527 0.15101200   1.008000   ; qtot -0.686824
 6528         hc    242    ccc    H13   6528 0.15101200   1.008000   ; qtot -0.535812
 6529          c    242    ccc     C8   6529 0.558828  12.010000   ; qtot 0.466387
 6530          o    242    ccc     O3   6530 -0.39142825  16.000000   ; qtot -0.197951
 6531         oh    242    ccc     O4   6531 -0.56822625  16.000000   ; qtot -0.971037
 6532         ho    242    ccc    H14   6532 0.4511195   1.008000   ; qtot -0.485519
 6533         ho    242    ccc    H15   6533 0.4511195   1.008000   ; qtot -0.000001
; residue  243 ccc rtp ccc q 0.0
 6534          n    243    ccc     N1   6534 -0.87251700  14.010000   ; qtot -0.872518
 6535         hn    243    ccc     H1   6535 0.46040000   1.008000   ; qtot -0.412118
 6536         c3    243    ccc     C1   6536 0.65477900  12.010000   ; qtot 0.242661
 6537         h1    243    ccc     H2   6537 -0.08959600   1.008000   ; qtot 0.153065
 6538         c3    243    ccc     C2   6538 0.03619700  12.010000   ; qtot 0.189262
 6539         h1    243    ccc     H3   6539 -0.08959600   1.008000   ; qtot 0.099666
 6540         h1    243    ccc     H4   6540 0.06927800   1.008000   ; qtot 0.168944
 6541         h1    243    ccc     H5   6541 0.06927800   1.008000   ; qtot 0.238222
 6542         n3    243    ccc     N2   6542 -0.61358100  14.010000   ; qtot -0.375359
 6543         c3    243    ccc     C3   6543 0.17944400  12.010000   ; qtot -0.195915
 6544         c3    243    ccc     C4   6544 0.17944400  12.010000   ; qtot -0.016471
 6545         h1    243    ccc     H6   6545 0.07335800   1.008000   ; qtot 0.056887
 6546         c3    243    ccc     C5   6546 -0.49079800  12.010000   ; qtot -0.433911
 6547         h1    243    ccc     H7   6547 0.07335800   1.008000   ; qtot -0.360553
 6548         hc    243    ccc     H8   6548 0.15101200   1.008000   ; qtot -0.209541
 6549         hc    243    ccc     H9   6549 0.15101200   1.008000   ; qtot -0.058529
 6550          c    243    ccc     C6   6550 0.558828  12.010000   ; qtot 0.943670
 6551         oh    243    ccc     O1   6551 -0.56822625  16.000000   ; qtot 0.170584
 6552          o    243    ccc     O2   6552 -0.39142825  16.000000   ; qtot -0.493754
 6553         h1    243    ccc    H10   6553 0.07335800   1.008000   ; qtot -0.420396
 6554         h1    243    ccc    H11   6554 0.07335800   1.008000   ; qtot -0.347038
 6555         c3    243    ccc     C7   6555 -0.49079800  12.010000   ; qtot -0.837836
 6556         hc    243    ccc    H12   6556 0.15101200   1.008000   ; qtot -0.686824
 6557         hc    243    ccc    H13   6557 0.15101200   1.008000   ; qtot -0.535812
 6558          c    243    ccc     C8   6558 0.558828  12.010000   ; qtot 0.466387
 6559          o    243    ccc     O3   6559 -0.39142825  16.000000   ; qtot -0.197951
 6560         oh    243    ccc     O4   6560 -0.56822625  16.000000   ; qtot -0.971037
 6561         ho    243    ccc    H14   6561 0.4511195   1.008000   ; qtot -0.485519
 6562         ho    243    ccc    H15   6562 0.4511195   1.008000   ; qtot -0.000001
; residue  244 ccc rtp ccc q 0.0
 6563          n    244    ccc     N1   6563 -0.87251700  14.010000   ; qtot -0.872518
 6564         hn    244    ccc     H1   6564 0.46040000   1.008000   ; qtot -0.412118
 6565         c3    244    ccc     C1   6565 0.65477900  12.010000   ; qtot 0.242661
 6566         h1    244    ccc     H2   6566 -0.08959600   1.008000   ; qtot 0.153065
 6567         c3    244    ccc     C2   6567 0.03619700  12.010000   ; qtot 0.189262
 6568         h1    244    ccc     H3   6568 -0.08959600   1.008000   ; qtot 0.099666
 6569         h1    244    ccc     H4   6569 0.06927800   1.008000   ; qtot 0.168944
 6570         h1    244    ccc     H5   6570 0.06927800   1.008000   ; qtot 0.238222
 6571         n3    244    ccc     N2   6571 -0.61358100  14.010000   ; qtot -0.375359
 6572         c3    244    ccc     C3   6572 0.17944400  12.010000   ; qtot -0.195915
 6573         c3    244    ccc     C4   6573 0.17944400  12.010000   ; qtot -0.016471
 6574         h1    244    ccc     H6   6574 0.07335800   1.008000   ; qtot 0.056887
 6575         c3    244    ccc     C5   6575 -0.49079800  12.010000   ; qtot -0.433911
 6576         h1    244    ccc     H7   6576 0.07335800   1.008000   ; qtot -0.360553
 6577         hc    244    ccc     H8   6577 0.15101200   1.008000   ; qtot -0.209541
 6578         hc    244    ccc     H9   6578 0.15101200   1.008000   ; qtot -0.058529
 6579          c    244    ccc     C6   6579 0.558828  12.010000   ; qtot 0.943670
 6580         oh    244    ccc     O1   6580 -0.56822625  16.000000   ; qtot 0.170584
 6581          o    244    ccc     O2   6581 -0.39142825  16.000000   ; qtot -0.493754
 6582         h1    244    ccc    H10   6582 0.07335800   1.008000   ; qtot -0.420396
 6583         h1    244    ccc    H11   6583 0.07335800   1.008000   ; qtot -0.347038
 6584         c3    244    ccc     C7   6584 -0.49079800  12.010000   ; qtot -0.837836
 6585         hc    244    ccc    H12   6585 0.15101200   1.008000   ; qtot -0.686824
 6586         hc    244    ccc    H13   6586 0.15101200   1.008000   ; qtot -0.535812
 6587          c    244    ccc     C8   6587 0.558828  12.010000   ; qtot 0.466387
 6588          o    244    ccc     O3   6588 -0.39142825  16.000000   ; qtot -0.197951
 6589         oh    244    ccc     O4   6589 -0.56822625  16.000000   ; qtot -0.971037
 6590         ho    244    ccc    H14   6590 0.4511195   1.008000   ; qtot -0.485519
 6591         ho    244    ccc    H15   6591 0.4511195   1.008000   ; qtot -0.000001
; residue  245 ccc rtp ccc q 0.0
 6592          n    245    ccc     N1   6592 -0.87251700  14.010000   ; qtot -0.872518
 6593         hn    245    ccc     H1   6593 0.46040000   1.008000   ; qtot -0.412118
 6594         c3    245    ccc     C1   6594 0.65477900  12.010000   ; qtot 0.242661
 6595         h1    245    ccc     H2   6595 -0.08959600   1.008000   ; qtot 0.153065
 6596         c3    245    ccc     C2   6596 0.03619700  12.010000   ; qtot 0.189262
 6597         h1    245    ccc     H3   6597 -0.08959600   1.008000   ; qtot 0.099666
 6598         h1    245    ccc     H4   6598 0.06927800   1.008000   ; qtot 0.168944
 6599         h1    245    ccc     H5   6599 0.06927800   1.008000   ; qtot 0.238222
 6600         n3    245    ccc     N2   6600 -0.61358100  14.010000   ; qtot -0.375359
 6601         c3    245    ccc     C3   6601 0.17944400  12.010000   ; qtot -0.195915
 6602         c3    245    ccc     C4   6602 0.17944400  12.010000   ; qtot -0.016471
 6603         h1    245    ccc     H6   6603 0.07335800   1.008000   ; qtot 0.056887
 6604         c3    245    ccc     C5   6604 -0.49079800  12.010000   ; qtot -0.433911
 6605         h1    245    ccc     H7   6605 0.07335800   1.008000   ; qtot -0.360553
 6606         hc    245    ccc     H8   6606 0.15101200   1.008000   ; qtot -0.209541
 6607         hc    245    ccc     H9   6607 0.15101200   1.008000   ; qtot -0.058529
 6608          c    245    ccc     C6   6608 0.558828  12.010000   ; qtot 0.943670
 6609         oh    245    ccc     O1   6609 -0.56822625  16.000000   ; qtot 0.170584
 6610          o    245    ccc     O2   6610 -0.39142825  16.000000   ; qtot -0.493754
 6611         h1    245    ccc    H10   6611 0.07335800   1.008000   ; qtot -0.420396
 6612         h1    245    ccc    H11   6612 0.07335800   1.008000   ; qtot -0.347038
 6613         c3    245    ccc     C7   6613 -0.49079800  12.010000   ; qtot -0.837836
 6614         hc    245    ccc    H12   6614 0.15101200   1.008000   ; qtot -0.686824
 6615         hc    245    ccc    H13   6615 0.15101200   1.008000   ; qtot -0.535812
 6616          c    245    ccc     C8   6616 0.558828  12.010000   ; qtot 0.466387
 6617          o    245    ccc     O3   6617 -0.39142825  16.000000   ; qtot -0.197951
 6618         oh    245    ccc     O4   6618 -0.56822625  16.000000   ; qtot -0.971037
 6619         ho    245    ccc    H14   6619 0.4511195   1.008000   ; qtot -0.485519
 6620         ho    245    ccc    H15   6620 0.4511195   1.008000   ; qtot -0.000001
; residue  246 ccc rtp ccc q 0.0
 6621          n    246    ccc     N1   6621 -0.87251700  14.010000   ; qtot -0.872518
 6622         hn    246    ccc     H1   6622 0.46040000   1.008000   ; qtot -0.412118
 6623         c3    246    ccc     C1   6623 0.65477900  12.010000   ; qtot 0.242661
 6624         h1    246    ccc     H2   6624 -0.08959600   1.008000   ; qtot 0.153065
 6625         c3    246    ccc     C2   6625 0.03619700  12.010000   ; qtot 0.189262
 6626         h1    246    ccc     H3   6626 -0.08959600   1.008000   ; qtot 0.099666
 6627         h1    246    ccc     H4   6627 0.06927800   1.008000   ; qtot 0.168944
 6628         h1    246    ccc     H5   6628 0.06927800   1.008000   ; qtot 0.238222
 6629         n3    246    ccc     N2   6629 -0.61358100  14.010000   ; qtot -0.375359
 6630         c3    246    ccc     C3   6630 0.17944400  12.010000   ; qtot -0.195915
 6631         c3    246    ccc     C4   6631 0.17944400  12.010000   ; qtot -0.016471
 6632         h1    246    ccc     H6   6632 0.07335800   1.008000   ; qtot 0.056887
 6633         c3    246    ccc     C5   6633 -0.49079800  12.010000   ; qtot -0.433911
 6634         h1    246    ccc     H7   6634 0.07335800   1.008000   ; qtot -0.360553
 6635         hc    246    ccc     H8   6635 0.15101200   1.008000   ; qtot -0.209541
 6636         hc    246    ccc     H9   6636 0.15101200   1.008000   ; qtot -0.058529
 6637          c    246    ccc     C6   6637 0.558828  12.010000   ; qtot 0.943670
 6638         oh    246    ccc     O1   6638 -0.56822625  16.000000   ; qtot 0.170584
 6639          o    246    ccc     O2   6639 -0.39142825  16.000000   ; qtot -0.493754
 6640         h1    246    ccc    H10   6640 0.07335800   1.008000   ; qtot -0.420396
 6641         h1    246    ccc    H11   6641 0.07335800   1.008000   ; qtot -0.347038
 6642         c3    246    ccc     C7   6642 -0.49079800  12.010000   ; qtot -0.837836
 6643         hc    246    ccc    H12   6643 0.15101200   1.008000   ; qtot -0.686824
 6644         hc    246    ccc    H13   6644 0.15101200   1.008000   ; qtot -0.535812
 6645          c    246    ccc     C8   6645 0.558828  12.010000   ; qtot 0.466387
 6646          o    246    ccc     O3   6646 -0.39142825  16.000000   ; qtot -0.197951
 6647         oh    246    ccc     O4   6647 -0.56822625  16.000000   ; qtot -0.971037
 6648         ho    246    ccc    H14   6648 0.4511195   1.008000   ; qtot -0.485519
 6649         ho    246    ccc    H15   6649 0.4511195   1.008000   ; qtot -0.000001
; residue  247 ccc rtp ccc q 0.0
 6650          n    247    ccc     N1   6650 -0.87251700  14.010000   ; qtot -0.872518
 6651         hn    247    ccc     H1   6651 0.46040000   1.008000   ; qtot -0.412118
 6652         c3    247    ccc     C1   6652 0.65477900  12.010000   ; qtot 0.242661
 6653         h1    247    ccc     H2   6653 -0.08959600   1.008000   ; qtot 0.153065
 6654         c3    247    ccc     C2   6654 0.03619700  12.010000   ; qtot 0.189262
 6655         h1    247    ccc     H3   6655 -0.08959600   1.008000   ; qtot 0.099666
 6656         h1    247    ccc     H4   6656 0.06927800   1.008000   ; qtot 0.168944
 6657         h1    247    ccc     H5   6657 0.06927800   1.008000   ; qtot 0.238222
 6658         n3    247    ccc     N2   6658 -0.61358100  14.010000   ; qtot -0.375359
 6659         c3    247    ccc     C3   6659 0.17944400  12.010000   ; qtot -0.195915
 6660         c3    247    ccc     C4   6660 0.17944400  12.010000   ; qtot -0.016471
 6661         h1    247    ccc     H6   6661 0.07335800   1.008000   ; qtot 0.056887
 6662         c3    247    ccc     C5   6662 -0.49079800  12.010000   ; qtot -0.433911
 6663         h1    247    ccc     H7   6663 0.07335800   1.008000   ; qtot -0.360553
 6664         hc    247    ccc     H8   6664 0.15101200   1.008000   ; qtot -0.209541
 6665         hc    247    ccc     H9   6665 0.15101200   1.008000   ; qtot -0.058529
 6666          c    247    ccc     C6   6666 0.558828  12.010000   ; qtot 0.943670
 6667         oh    247    ccc     O1   6667 -0.56822625  16.000000   ; qtot 0.170584
 6668          o    247    ccc     O2   6668 -0.39142825  16.000000   ; qtot -0.493754
 6669         h1    247    ccc    H10   6669 0.07335800   1.008000   ; qtot -0.420396
 6670         h1    247    ccc    H11   6670 0.07335800   1.008000   ; qtot -0.347038
 6671         c3    247    ccc     C7   6671 -0.49079800  12.010000   ; qtot -0.837836
 6672         hc    247    ccc    H12   6672 0.15101200   1.008000   ; qtot -0.686824
 6673         hc    247    ccc    H13   6673 0.15101200   1.008000   ; qtot -0.535812
 6674          c    247    ccc     C8   6674 0.558828  12.010000   ; qtot 0.466387
 6675          o    247    ccc     O3   6675 -0.39142825  16.000000   ; qtot -0.197951
 6676         oh    247    ccc     O4   6676 -0.56822625  16.000000   ; qtot -0.971037
 6677         ho    247    ccc    H14   6677 0.4511195   1.008000   ; qtot -0.485519
 6678         ho    247    ccc    H15   6678 0.4511195   1.008000   ; qtot -0.000001
; residue  248 ccc rtp ccc q 0.0
 6679          n    248    ccc     N1   6679 -0.87251700  14.010000   ; qtot -0.872518
 6680         hn    248    ccc     H1   6680 0.46040000   1.008000   ; qtot -0.412118
 6681         c3    248    ccc     C1   6681 0.65477900  12.010000   ; qtot 0.242661
 6682         h1    248    ccc     H2   6682 -0.08959600   1.008000   ; qtot 0.153065
 6683         c3    248    ccc     C2   6683 0.03619700  12.010000   ; qtot 0.189262
 6684         h1    248    ccc     H3   6684 -0.08959600   1.008000   ; qtot 0.099666
 6685         h1    248    ccc     H4   6685 0.06927800   1.008000   ; qtot 0.168944
 6686         h1    248    ccc     H5   6686 0.06927800   1.008000   ; qtot 0.238222
 6687         n3    248    ccc     N2   6687 -0.61358100  14.010000   ; qtot -0.375359
 6688         c3    248    ccc     C3   6688 0.17944400  12.010000   ; qtot -0.195915
 6689         c3    248    ccc     C4   6689 0.17944400  12.010000   ; qtot -0.016471
 6690         h1    248    ccc     H6   6690 0.07335800   1.008000   ; qtot 0.056887
 6691         c3    248    ccc     C5   6691 -0.49079800  12.010000   ; qtot -0.433911
 6692         h1    248    ccc     H7   6692 0.07335800   1.008000   ; qtot -0.360553
 6693         hc    248    ccc     H8   6693 0.15101200   1.008000   ; qtot -0.209541
 6694         hc    248    ccc     H9   6694 0.15101200   1.008000   ; qtot -0.058529
 6695          c    248    ccc     C6   6695 0.558828  12.010000   ; qtot 0.943670
 6696         oh    248    ccc     O1   6696 -0.56822625  16.000000   ; qtot 0.170584
 6697          o    248    ccc     O2   6697 -0.39142825  16.000000   ; qtot -0.493754
 6698         h1    248    ccc    H10   6698 0.07335800   1.008000   ; qtot -0.420396
 6699         h1    248    ccc    H11   6699 0.07335800   1.008000   ; qtot -0.347038
 6700         c3    248    ccc     C7   6700 -0.49079800  12.010000   ; qtot -0.837836
 6701         hc    248    ccc    H12   6701 0.15101200   1.008000   ; qtot -0.686824
 6702         hc    248    ccc    H13   6702 0.15101200   1.008000   ; qtot -0.535812
 6703          c    248    ccc     C8   6703 0.558828  12.010000   ; qtot 0.466387
 6704          o    248    ccc     O3   6704 -0.39142825  16.000000   ; qtot -0.197951
 6705         oh    248    ccc     O4   6705 -0.56822625  16.000000   ; qtot -0.971037
 6706         ho    248    ccc    H14   6706 0.4511195   1.008000   ; qtot -0.485519
 6707         ho    248    ccc    H15   6707 0.4511195   1.008000   ; qtot -0.000001
; residue  249 ccc rtp ccc q 0.0
 6708          n    249    ccc     N1   6708 -0.87251700  14.010000   ; qtot -0.872518
 6709         hn    249    ccc     H1   6709 0.46040000   1.008000   ; qtot -0.412118
 6710         c3    249    ccc     C1   6710 0.65477900  12.010000   ; qtot 0.242661
 6711         h1    249    ccc     H2   6711 -0.08959600   1.008000   ; qtot 0.153065
 6712         c3    249    ccc     C2   6712 0.03619700  12.010000   ; qtot 0.189262
 6713         h1    249    ccc     H3   6713 -0.08959600   1.008000   ; qtot 0.099666
 6714         h1    249    ccc     H4   6714 0.06927800   1.008000   ; qtot 0.168944
 6715         h1    249    ccc     H5   6715 0.06927800   1.008000   ; qtot 0.238222
 6716         n3    249    ccc     N2   6716 -0.61358100  14.010000   ; qtot -0.375359
 6717         c3    249    ccc     C3   6717 0.17944400  12.010000   ; qtot -0.195915
 6718         c3    249    ccc     C4   6718 0.17944400  12.010000   ; qtot -0.016471
 6719         h1    249    ccc     H6   6719 0.07335800   1.008000   ; qtot 0.056887
 6720         c3    249    ccc     C5   6720 -0.49079800  12.010000   ; qtot -0.433911
 6721         h1    249    ccc     H7   6721 0.07335800   1.008000   ; qtot -0.360553
 6722         hc    249    ccc     H8   6722 0.15101200   1.008000   ; qtot -0.209541
 6723         hc    249    ccc     H9   6723 0.15101200   1.008000   ; qtot -0.058529
 6724          c    249    ccc     C6   6724 0.558828  12.010000   ; qtot 0.943670
 6725         oh    249    ccc     O1   6725 -0.56822625  16.000000   ; qtot 0.170584
 6726          o    249    ccc     O2   6726 -0.39142825  16.000000   ; qtot -0.493754
 6727         h1    249    ccc    H10   6727 0.07335800   1.008000   ; qtot -0.420396
 6728         h1    249    ccc    H11   6728 0.07335800   1.008000   ; qtot -0.347038
 6729         c3    249    ccc     C7   6729 -0.49079800  12.010000   ; qtot -0.837836
 6730         hc    249    ccc    H12   6730 0.15101200   1.008000   ; qtot -0.686824
 6731         hc    249    ccc    H13   6731 0.15101200   1.008000   ; qtot -0.535812
 6732          c    249    ccc     C8   6732 0.558828  12.010000   ; qtot 0.466387
 6733          o    249    ccc     O3   6733 -0.39142825  16.000000   ; qtot -0.197951
 6734         oh    249    ccc     O4   6734 -0.56822625  16.000000   ; qtot -0.971037
 6735         ho    249    ccc    H14   6735 0.4511195   1.008000   ; qtot -0.485519
 6736         ho    249    ccc    H15   6736 0.4511195   1.008000   ; qtot -0.000001
; residue  250 ccc rtp ccc q 0.0
 6737          n    250    ccc     N1   6737 -0.87251700  14.010000   ; qtot -0.872518
 6738         hn    250    ccc     H1   6738 0.46040000   1.008000   ; qtot -0.412118
 6739         c3    250    ccc     C1   6739 0.65477900  12.010000   ; qtot 0.242661
 6740         h1    250    ccc     H2   6740 -0.08959600   1.008000   ; qtot 0.153065
 6741         c3    250    ccc     C2   6741 0.03619700  12.010000   ; qtot 0.189262
 6742         h1    250    ccc     H3   6742 -0.08959600   1.008000   ; qtot 0.099666
 6743         h1    250    ccc     H4   6743 0.06927800   1.008000   ; qtot 0.168944
 6744         h1    250    ccc     H5   6744 0.06927800   1.008000   ; qtot 0.238222
 6745         n3    250    ccc     N2   6745 -0.61358100  14.010000   ; qtot -0.375359
 6746         c3    250    ccc     C3   6746 0.17944400  12.010000   ; qtot -0.195915
 6747         c3    250    ccc     C4   6747 0.17944400  12.010000   ; qtot -0.016471
 6748         h1    250    ccc     H6   6748 0.07335800   1.008000   ; qtot 0.056887
 6749         c3    250    ccc     C5   6749 -0.49079800  12.010000   ; qtot -0.433911
 6750         h1    250    ccc     H7   6750 0.07335800   1.008000   ; qtot -0.360553
 6751         hc    250    ccc     H8   6751 0.15101200   1.008000   ; qtot -0.209541
 6752         hc    250    ccc     H9   6752 0.15101200   1.008000   ; qtot -0.058529
 6753          c    250    ccc     C6   6753 0.558828  12.010000   ; qtot 0.943670
 6754         oh    250    ccc     O1   6754 -0.56822625  16.000000   ; qtot 0.170584
 6755          o    250    ccc     O2   6755 -0.39142825  16.000000   ; qtot -0.493754
 6756         h1    250    ccc    H10   6756 0.07335800   1.008000   ; qtot -0.420396
 6757         h1    250    ccc    H11   6757 0.07335800   1.008000   ; qtot -0.347038
 6758         c3    250    ccc     C7   6758 -0.49079800  12.010000   ; qtot -0.837836
 6759         hc    250    ccc    H12   6759 0.15101200   1.008000   ; qtot -0.686824
 6760         hc    250    ccc    H13   6760 0.15101200   1.008000   ; qtot -0.535812
 6761          c    250    ccc     C8   6761 0.558828  12.010000   ; qtot 0.466387
 6762          o    250    ccc     O3   6762 -0.39142825  16.000000   ; qtot -0.197951
 6763         oh    250    ccc     O4   6763 -0.56822625  16.000000   ; qtot -0.971037
 6764         ho    250    ccc    H14   6764 0.4511195   1.008000   ; qtot -0.485519
 6765         ho    250    ccc    H15   6765 0.4511195   1.008000   ; qtot -0.000001
; residue  251 ccc rtp ccc q 0.0
 6766          n    251    ccc     N1   6766 -0.87251700  14.010000   ; qtot -0.872518
 6767         hn    251    ccc     H1   6767 0.46040000   1.008000   ; qtot -0.412118
 6768         c3    251    ccc     C1   6768 0.65477900  12.010000   ; qtot 0.242661
 6769         h1    251    ccc     H2   6769 -0.08959600   1.008000   ; qtot 0.153065
 6770         c3    251    ccc     C2   6770 0.03619700  12.010000   ; qtot 0.189262
 6771         h1    251    ccc     H3   6771 -0.08959600   1.008000   ; qtot 0.099666
 6772         h1    251    ccc     H4   6772 0.06927800   1.008000   ; qtot 0.168944
 6773         h1    251    ccc     H5   6773 0.06927800   1.008000   ; qtot 0.238222
 6774         n3    251    ccc     N2   6774 -0.61358100  14.010000   ; qtot -0.375359
 6775         c3    251    ccc     C3   6775 0.17944400  12.010000   ; qtot -0.195915
 6776         c3    251    ccc     C4   6776 0.17944400  12.010000   ; qtot -0.016471
 6777         h1    251    ccc     H6   6777 0.07335800   1.008000   ; qtot 0.056887
 6778         c3    251    ccc     C5   6778 -0.49079800  12.010000   ; qtot -0.433911
 6779         h1    251    ccc     H7   6779 0.07335800   1.008000   ; qtot -0.360553
 6780         hc    251    ccc     H8   6780 0.15101200   1.008000   ; qtot -0.209541
 6781         hc    251    ccc     H9   6781 0.15101200   1.008000   ; qtot -0.058529
 6782          c    251    ccc     C6   6782 0.558828  12.010000   ; qtot 0.943670
 6783         oh    251    ccc     O1   6783 -0.56822625  16.000000   ; qtot 0.170584
 6784          o    251    ccc     O2   6784 -0.39142825  16.000000   ; qtot -0.493754
 6785         h1    251    ccc    H10   6785 0.07335800   1.008000   ; qtot -0.420396
 6786         h1    251    ccc    H11   6786 0.07335800   1.008000   ; qtot -0.347038
 6787         c3    251    ccc     C7   6787 -0.49079800  12.010000   ; qtot -0.837836
 6788         hc    251    ccc    H12   6788 0.15101200   1.008000   ; qtot -0.686824
 6789         hc    251    ccc    H13   6789 0.15101200   1.008000   ; qtot -0.535812
 6790          c    251    ccc     C8   6790 0.558828  12.010000   ; qtot 0.466387
 6791          o    251    ccc     O3   6791 -0.39142825  16.000000   ; qtot -0.197951
 6792         oh    251    ccc     O4   6792 -0.56822625  16.000000   ; qtot -0.971037
 6793         ho    251    ccc    H14   6793 0.4511195   1.008000   ; qtot -0.485519
 6794         ho    251    ccc    H15   6794 0.4511195   1.008000   ; qtot -0.000001
; residue  252 ccc rtp ccc q 0.0
 6795          n    252    ccc     N1   6795 -0.87251700  14.010000   ; qtot -0.872518
 6796         hn    252    ccc     H1   6796 0.46040000   1.008000   ; qtot -0.412118
 6797         c3    252    ccc     C1   6797 0.65477900  12.010000   ; qtot 0.242661
 6798         h1    252    ccc     H2   6798 -0.08959600   1.008000   ; qtot 0.153065
 6799         c3    252    ccc     C2   6799 0.03619700  12.010000   ; qtot 0.189262
 6800         h1    252    ccc     H3   6800 -0.08959600   1.008000   ; qtot 0.099666
 6801         h1    252    ccc     H4   6801 0.06927800   1.008000   ; qtot 0.168944
 6802         h1    252    ccc     H5   6802 0.06927800   1.008000   ; qtot 0.238222
 6803         n3    252    ccc     N2   6803 -0.61358100  14.010000   ; qtot -0.375359
 6804         c3    252    ccc     C3   6804 0.17944400  12.010000   ; qtot -0.195915
 6805         c3    252    ccc     C4   6805 0.17944400  12.010000   ; qtot -0.016471
 6806         h1    252    ccc     H6   6806 0.07335800   1.008000   ; qtot 0.056887
 6807         c3    252    ccc     C5   6807 -0.49079800  12.010000   ; qtot -0.433911
 6808         h1    252    ccc     H7   6808 0.07335800   1.008000   ; qtot -0.360553
 6809         hc    252    ccc     H8   6809 0.15101200   1.008000   ; qtot -0.209541
 6810         hc    252    ccc     H9   6810 0.15101200   1.008000   ; qtot -0.058529
 6811          c    252    ccc     C6   6811 0.558828  12.010000   ; qtot 0.943670
 6812         oh    252    ccc     O1   6812 -0.56822625  16.000000   ; qtot 0.170584
 6813          o    252    ccc     O2   6813 -0.39142825  16.000000   ; qtot -0.493754
 6814         h1    252    ccc    H10   6814 0.07335800   1.008000   ; qtot -0.420396
 6815         h1    252    ccc    H11   6815 0.07335800   1.008000   ; qtot -0.347038
 6816         c3    252    ccc     C7   6816 -0.49079800  12.010000   ; qtot -0.837836
 6817         hc    252    ccc    H12   6817 0.15101200   1.008000   ; qtot -0.686824
 6818         hc    252    ccc    H13   6818 0.15101200   1.008000   ; qtot -0.535812
 6819          c    252    ccc     C8   6819 0.558828  12.010000   ; qtot 0.466387
 6820          o    252    ccc     O3   6820 -0.39142825  16.000000   ; qtot -0.197951
 6821         oh    252    ccc     O4   6821 -0.56822625  16.000000   ; qtot -0.971037
 6822         ho    252    ccc    H14   6822 0.4511195   1.008000   ; qtot -0.485519
 6823         ho    252    ccc    H15   6823 0.4511195   1.008000   ; qtot -0.000001
; residue  253 ccc rtp ccc q 0.0
 6824          n    253    ccc     N1   6824 -0.87251700  14.010000   ; qtot -0.872518
 6825         hn    253    ccc     H1   6825 0.46040000   1.008000   ; qtot -0.412118
 6826         c3    253    ccc     C1   6826 0.65477900  12.010000   ; qtot 0.242661
 6827         h1    253    ccc     H2   6827 -0.08959600   1.008000   ; qtot 0.153065
 6828         c3    253    ccc     C2   6828 0.03619700  12.010000   ; qtot 0.189262
 6829         h1    253    ccc     H3   6829 -0.08959600   1.008000   ; qtot 0.099666
 6830         h1    253    ccc     H4   6830 0.06927800   1.008000   ; qtot 0.168944
 6831         h1    253    ccc     H5   6831 0.06927800   1.008000   ; qtot 0.238222
 6832         n3    253    ccc     N2   6832 -0.61358100  14.010000   ; qtot -0.375359
 6833         c3    253    ccc     C3   6833 0.17944400  12.010000   ; qtot -0.195915
 6834         c3    253    ccc     C4   6834 0.17944400  12.010000   ; qtot -0.016471
 6835         h1    253    ccc     H6   6835 0.07335800   1.008000   ; qtot 0.056887
 6836         c3    253    ccc     C5   6836 -0.49079800  12.010000   ; qtot -0.433911
 6837         h1    253    ccc     H7   6837 0.07335800   1.008000   ; qtot -0.360553
 6838         hc    253    ccc     H8   6838 0.15101200   1.008000   ; qtot -0.209541
 6839         hc    253    ccc     H9   6839 0.15101200   1.008000   ; qtot -0.058529
 6840          c    253    ccc     C6   6840 0.558828  12.010000   ; qtot 0.943670
 6841         oh    253    ccc     O1   6841 -0.56822625  16.000000   ; qtot 0.170584
 6842          o    253    ccc     O2   6842 -0.39142825  16.000000   ; qtot -0.493754
 6843         h1    253    ccc    H10   6843 0.07335800   1.008000   ; qtot -0.420396
 6844         h1    253    ccc    H11   6844 0.07335800   1.008000   ; qtot -0.347038
 6845         c3    253    ccc     C7   6845 -0.49079800  12.010000   ; qtot -0.837836
 6846         hc    253    ccc    H12   6846 0.15101200   1.008000   ; qtot -0.686824
 6847         hc    253    ccc    H13   6847 0.15101200   1.008000   ; qtot -0.535812
 6848          c    253    ccc     C8   6848 0.558828  12.010000   ; qtot 0.466387
 6849          o    253    ccc     O3   6849 -0.39142825  16.000000   ; qtot -0.197951
 6850         oh    253    ccc     O4   6850 -0.56822625  16.000000   ; qtot -0.971037
 6851         ho    253    ccc    H14   6851 0.4511195   1.008000   ; qtot -0.485519
 6852         ho    253    ccc    H15   6852 0.4511195   1.008000   ; qtot -0.000001

[ bonds ]
;    ai     aj funct         c0         c1         c2         c3
      1      4     1   0.15375 251793.120000
      1      8     1   0.14647 272713.120000
      4      7     1   0.14647 272713.120000
      7     15     1   0.14647 272713.120000
      7     18     1   0.14647 272713.120000
      8      9     1   0.14647 272713.120000
      8     12     1   0.14647 272713.120000
      9     30     1   0.15375 251793.120000
     12     27     1   0.15375 251793.120000
     15     21     1   0.15375 251793.120000
     18     24     1   0.15375 251793.120000
     21     35     1   0.15241 261918.400000
     24     36     1   0.15241 261918.400000
     27     33     1   0.15241 261918.400000
     30     34     1   0.15241 261918.400000
     33     37     1   0.12183 533627.360000
     33     64     1   0.13789 357815.680000
     34     40     1   0.12183 533627.360000
     34     89     1   0.13789 357815.680000
     35     38     1   0.12183 533627.360000
     35    114     1   0.13789 357815.680000
     36     39     1   0.12183 533627.360000
     36    139     1   0.13789 357815.680000
     41     44     1   0.15375 251793.120000
     41     47     1   0.14647 272713.120000
     44     64     1   0.14619 275056.160000
     47     48     1   0.14647 272713.120000
     47     51     1   0.14647 272713.120000
     48     57     1   0.15375 251793.120000
     51     54     1   0.15375 251793.120000
     54     60     1   0.15241 261918.400000
     57     61     1   0.15241 261918.400000
     60     62     1   0.12183 533627.360000
     60    164     1   0.13789 357815.680000
     61     63     1   0.12183 533627.360000
     61    189     1   0.13789 357815.680000
     66     69     1   0.15375 251793.120000
     66     72     1   0.14647 272713.120000
     69     89     1   0.14619 275056.160000
     72     73     1   0.14647 272713.120000
     72     76     1   0.14647 272713.120000
     73     82     1   0.15375 251793.120000
     76     79     1   0.15375 251793.120000
     79     85     1   0.15241 261918.400000
     82     86     1   0.15241 261918.400000
     85     87     1   0.12183 533627.360000
     85    214     1   0.13789 357815.680000
     86     88     1   0.12183 533627.360000
     86    239     1   0.13789 357815.680000
     91     94     1   0.15375 251793.120000
     91     97     1   0.14647 272713.120000
     94    114     1   0.14619 275056.160000
     97     98     1   0.14647 272713.120000
     97    101     1   0.14647 272713.120000
     98    107     1   0.15375 251793.120000
    101    104     1   0.15375 251793.120000
    104    110     1   0.15241 261918.400000
    107    111     1   0.15241 261918.400000
    110    112     1   0.12183 533627.360000
    110    264     1   0.13789 357815.680000
    111    113     1   0.12183 533627.360000
    111    289     1   0.13789 357815.680000
    116    119     1   0.15375 251793.120000
    116    122     1   0.14647 272713.120000
    119    139     1   0.14619 275056.160000
    122    123     1   0.14647 272713.120000
    122    126     1   0.14647 272713.120000
    123    132     1   0.15375 251793.120000
    126    129     1   0.15375 251793.120000
    129    135     1   0.15241 261918.400000
    132    136     1   0.15241 261918.400000
    135    137     1   0.12183 533627.360000
    135    314     1   0.13789 357815.680000
    136    138     1   0.12183 533627.360000
    136    339     1   0.13789 357815.680000
    141    144     1   0.15375 251793.120000
    141    147     1   0.14647 272713.120000
    144    164     1   0.14619 275056.160000
    147    148     1   0.14647 272713.120000
    147    151     1   0.14647 272713.120000
    148    157     1   0.15375 251793.120000
    151    154     1   0.15375 251793.120000
    154    160     1   0.15241 261918.400000
    157    161     1   0.15241 261918.400000
    160    162     1   0.12183 533627.360000
    160    364     1   0.13789 357815.680000
    161    163     1   0.12183 533627.360000
    161    389     1   0.13789 357815.680000
    166    169     1   0.15375 251793.120000
    166    172     1   0.14647 272713.120000
    169    189     1   0.14619 275056.160000
    172    173     1   0.14647 272713.120000
    172    176     1   0.14647 272713.120000
    173    182     1   0.15375 251793.120000
    176    179     1   0.15375 251793.120000
    179    185     1   0.15241 261918.400000
    182    186     1   0.15241 261918.400000
    185    187     1   0.12183 533627.360000
    185    414     1   0.13789 357815.680000
    186    188     1   0.12183 533627.360000
    186    439     1   0.13789 357815.680000
    191    194     1   0.15375 251793.120000
    191    197     1   0.14647 272713.120000
    194    214     1   0.14619 275056.160000
    197    198     1   0.14647 272713.120000
    197    201     1   0.14647 272713.120000
    198    207     1   0.15375 251793.120000
    201    204     1   0.15375 251793.120000
    204    210     1   0.15241 261918.400000
    207    211     1   0.15241 261918.400000
    210    212     1   0.12183 533627.360000
    210    464     1   0.13789 357815.680000
    211    213     1   0.12183 533627.360000
    211    489     1   0.13789 357815.680000
    216    219     1   0.15375 251793.120000
    216    222     1   0.14647 272713.120000
    219    239     1   0.14619 275056.160000
    222    223     1   0.14647 272713.120000
    222    226     1   0.14647 272713.120000
    223    232     1   0.15375 251793.120000
    226    229     1   0.15375 251793.120000
    229    235     1   0.15241 261918.400000
    232    236     1   0.15241 261918.400000
    235    237     1   0.12183 533627.360000
    235    514     1   0.13789 357815.680000
    236    238     1   0.12183 533627.360000
    236    539     1   0.13789 357815.680000
    241    244     1   0.15375 251793.120000
    241    247     1   0.14647 272713.120000
    244    264     1   0.14619 275056.160000
    247    248     1   0.14647 272713.120000
    247    251     1   0.14647 272713.120000
    248    257     1   0.15375 251793.120000
    251    254     1   0.15375 251793.120000
    254    260     1   0.15241 261918.400000
    257    261     1   0.15241 261918.400000
    260    262     1   0.12183 533627.360000
    260    564     1   0.13789 357815.680000
    261    263     1   0.12183 533627.360000
    261    589     1   0.13789 357815.680000
    266    269     1   0.15375 251793.120000
    266    272     1   0.14647 272713.120000
    269    289     1   0.14619 275056.160000
    272    273     1   0.14647 272713.120000
    272    276     1   0.14647 272713.120000
    273    282     1   0.15375 251793.120000
    276    279     1   0.15375 251793.120000
    279    285     1   0.15241 261918.400000
    282    286     1   0.15241 261918.400000
    285    287     1   0.12183 533627.360000
    285    614     1   0.13789 357815.680000
    286    288     1   0.12183 533627.360000
    286    639     1   0.13789 357815.680000
    291    294     1   0.15375 251793.120000
    291    297     1   0.14647 272713.120000
    294    314     1   0.14619 275056.160000
    297    298     1   0.14647 272713.120000
    297    301     1   0.14647 272713.120000
    298    307     1   0.15375 251793.120000
    301    304     1   0.15375 251793.120000
    304    310     1   0.15241 261918.400000
    307    311     1   0.15241 261918.400000
    310    312     1   0.12183 533627.360000
    310    664     1   0.13789 357815.680000
    311    313     1   0.12183 533627.360000
    311    689     1   0.13789 357815.680000
    316    319     1   0.15375 251793.120000
    316    322     1   0.14647 272713.120000
    319    339     1   0.14619 275056.160000
    322    323     1   0.14647 272713.120000
    322    326     1   0.14647 272713.120000
    323    332     1   0.15375 251793.120000
    326    329     1   0.15375 251793.120000
    329    335     1   0.15241 261918.400000
    332    336     1   0.15241 261918.400000
    335    337     1   0.12183 533627.360000
    335    714     1   0.13789 357815.680000
    336    338     1   0.12183 533627.360000
    336    739     1   0.13789 357815.680000
    341    344     1   0.15375 251793.120000
    341    347     1   0.14647 272713.120000
    344    364     1   0.14619 275056.160000
    347    348     1   0.14647 272713.120000
    347    351     1   0.14647 272713.120000
    348    357     1   0.15375 251793.120000
    351    354     1   0.15375 251793.120000
    354    360     1   0.15241 261918.400000
    357    361     1   0.15241 261918.400000
    360    362     1   0.12183 533627.360000
    360    764     1   0.13789 357815.680000
    361    363     1   0.12183 533627.360000
    361    789     1   0.13789 357815.680000
    366    369     1   0.15375 251793.120000
    366    372     1   0.14647 272713.120000
    369    389     1   0.14619 275056.160000
    372    373     1   0.14647 272713.120000
    372    376     1   0.14647 272713.120000
    373    382     1   0.15375 251793.120000
    376    379     1   0.15375 251793.120000
    379    385     1   0.15241 261918.400000
    382    386     1   0.15241 261918.400000
    385    387     1   0.12183 533627.360000
    385    814     1   0.13789 357815.680000
    386    388     1   0.12183 533627.360000
    386    839     1   0.13789 357815.680000
    391    394     1   0.15375 251793.120000
    391    397     1   0.14647 272713.120000
    394    414     1   0.14619 275056.160000
    397    398     1   0.14647 272713.120000
    397    401     1   0.14647 272713.120000
    398    407     1   0.15375 251793.120000
    401    404     1   0.15375 251793.120000
    404    410     1   0.15241 261918.400000
    407    411     1   0.15241 261918.400000
    410    412     1   0.12183 533627.360000
    410    864     1   0.13789 357815.680000
    411    413     1   0.12183 533627.360000
    411    889     1   0.13789 357815.680000
    416    419     1   0.15375 251793.120000
    416    422     1   0.14647 272713.120000
    419    439     1   0.14619 275056.160000
    422    423     1   0.14647 272713.120000
    422    426     1   0.14647 272713.120000
    423    432     1   0.15375 251793.120000
    426    429     1   0.15375 251793.120000
    429    435     1   0.15241 261918.400000
    432    436     1   0.15241 261918.400000
    435    437     1   0.12183 533627.360000
    435    914     1   0.13789 357815.680000
    436    438     1   0.12183 533627.360000
    436    939     1   0.13789 357815.680000
    441    444     1   0.15375 251793.120000
    441    447     1   0.14647 272713.120000
    444    464     1   0.14619 275056.160000
    447    448     1   0.14647 272713.120000
    447    451     1   0.14647 272713.120000
    448    457     1   0.15375 251793.120000
    451    454     1   0.15375 251793.120000
    454    460     1   0.15241 261918.400000
    457    461     1   0.15241 261918.400000
    460    462     1   0.12183 533627.360000
    460    964     1   0.13789 357815.680000
    461    463     1   0.12183 533627.360000
    461    989     1   0.13789 357815.680000
    466    469     1   0.15375 251793.120000
    466    472     1   0.14647 272713.120000
    469    489     1   0.14619 275056.160000
    472    473     1   0.14647 272713.120000
    472    476     1   0.14647 272713.120000
    473    482     1   0.15375 251793.120000
    476    479     1   0.15375 251793.120000
    479    485     1   0.15241 261918.400000
    482    486     1   0.15241 261918.400000
    485    487     1   0.12183 533627.360000
    485   1014     1   0.13789 357815.680000
    486    488     1   0.12183 533627.360000
    486   1039     1   0.13789 357815.680000
    491    494     1   0.15375 251793.120000
    491    497     1   0.14647 272713.120000
    494    514     1   0.14619 275056.160000
    497    498     1   0.14647 272713.120000
    497    501     1   0.14647 272713.120000
    498    507     1   0.15375 251793.120000
    501    504     1   0.15375 251793.120000
    504    510     1   0.15241 261918.400000
    507    511     1   0.15241 261918.400000
    510    512     1   0.12183 533627.360000
    510   1064     1   0.13789 357815.680000
    511    513     1   0.12183 533627.360000
    511   1089     1   0.13789 357815.680000
    516    519     1   0.15375 251793.120000
    516    522     1   0.14647 272713.120000
    519    539     1   0.14619 275056.160000
    522    523     1   0.14647 272713.120000
    522    526     1   0.14647 272713.120000
    523    532     1   0.15375 251793.120000
    526    529     1   0.15375 251793.120000
    529    535     1   0.15241 261918.400000
    532    536     1   0.15241 261918.400000
    535    537     1   0.12183 533627.360000
    535   1114     1   0.13789 357815.680000
    536    538     1   0.12183 533627.360000
    536   1139     1   0.13789 357815.680000
    541    544     1   0.15375 251793.120000
    541    547     1   0.14647 272713.120000
    544    564     1   0.14619 275056.160000
    547    548     1   0.14647 272713.120000
    547    551     1   0.14647 272713.120000
    548    557     1   0.15375 251793.120000
    551    554     1   0.15375 251793.120000
    554    560     1   0.15241 261918.400000
    557    561     1   0.15241 261918.400000
    560    562     1   0.12183 533627.360000
    560   1164     1   0.13789 357815.680000
    561    563     1   0.12183 533627.360000
    561   1189     1   0.13789 357815.680000
    566    569     1   0.15375 251793.120000
    566    572     1   0.14647 272713.120000
    569    589     1   0.14619 275056.160000
    572    573     1   0.14647 272713.120000
    572    576     1   0.14647 272713.120000
    573    582     1   0.15375 251793.120000
    576    579     1   0.15375 251793.120000
    579    585     1   0.15241 261918.400000
    582    586     1   0.15241 261918.400000
    585    587     1   0.12183 533627.360000
    585   1214     1   0.13789 357815.680000
    586    588     1   0.12183 533627.360000
    586   1239     1   0.13789 357815.680000
    591    594     1   0.15375 251793.120000
    591    597     1   0.14647 272713.120000
    594    614     1   0.14619 275056.160000
    597    598     1   0.14647 272713.120000
    597    601     1   0.14647 272713.120000
    598    607     1   0.15375 251793.120000
    601    604     1   0.15375 251793.120000
    604    610     1   0.15241 261918.400000
    607    611     1   0.15241 261918.400000
    610    612     1   0.12183 533627.360000
    610   1264     1   0.13789 357815.680000
    611    613     1   0.12183 533627.360000
    611   1289     1   0.13789 357815.680000
    616    619     1   0.15375 251793.120000
    616    622     1   0.14647 272713.120000
    619    639     1   0.14619 275056.160000
    622    623     1   0.14647 272713.120000
    622    626     1   0.14647 272713.120000
    623    632     1   0.15375 251793.120000
    626    629     1   0.15375 251793.120000
    629    635     1   0.15241 261918.400000
    632    636     1   0.15241 261918.400000
    635    637     1   0.12183 533627.360000
    635   1314     1   0.13789 357815.680000
    636    638     1   0.12183 533627.360000
    636   1339     1   0.13789 357815.680000
    641    644     1   0.15375 251793.120000
    641    647     1   0.14647 272713.120000
    644    664     1   0.14619 275056.160000
    647    648     1   0.14647 272713.120000
    647    651     1   0.14647 272713.120000
    648    657     1   0.15375 251793.120000
    651    654     1   0.15375 251793.120000
    654    660     1   0.15241 261918.400000
    657    661     1   0.15241 261918.400000
    660    662     1   0.12183 533627.360000
    660   1364     1   0.13789 357815.680000
    661    663     1   0.12183 533627.360000
    661   1389     1   0.13789 357815.680000
    666    669     1   0.15375 251793.120000
    666    672     1   0.14647 272713.120000
    669    689     1   0.14619 275056.160000
    672    673     1   0.14647 272713.120000
    672    676     1   0.14647 272713.120000
    673    682     1   0.15375 251793.120000
    676    679     1   0.15375 251793.120000
    679    685     1   0.15241 261918.400000
    682    686     1   0.15241 261918.400000
    685    687     1   0.12183 533627.360000
    685   1414     1   0.13789 357815.680000
    686    688     1   0.12183 533627.360000
    686   1439     1   0.13789 357815.680000
    691    694     1   0.15375 251793.120000
    691    697     1   0.14647 272713.120000
    694    714     1   0.14619 275056.160000
    697    698     1   0.14647 272713.120000
    697    701     1   0.14647 272713.120000
    698    707     1   0.15375 251793.120000
    701    704     1   0.15375 251793.120000
    704    710     1   0.15241 261918.400000
    707    711     1   0.15241 261918.400000
    710    712     1   0.12183 533627.360000
    710   1464     1   0.13789 357815.680000
    711    713     1   0.12183 533627.360000
    711   1489     1   0.13789 357815.680000
    716    719     1   0.15375 251793.120000
    716    722     1   0.14647 272713.120000
    719    739     1   0.14619 275056.160000
    722    723     1   0.14647 272713.120000
    722    726     1   0.14647 272713.120000
    723    732     1   0.15375 251793.120000
    726    729     1   0.15375 251793.120000
    729    735     1   0.15241 261918.400000
    732    736     1   0.15241 261918.400000
    735    737     1   0.12183 533627.360000
    735   1514     1   0.13789 357815.680000
    736    738     1   0.12183 533627.360000
    736   1539     1   0.13789 357815.680000
    741    744     1   0.15375 251793.120000
    741    747     1   0.14647 272713.120000
    744    764     1   0.14619 275056.160000
    747    748     1   0.14647 272713.120000
    747    751     1   0.14647 272713.120000
    748    757     1   0.15375 251793.120000
    751    754     1   0.15375 251793.120000
    754    760     1   0.15241 261918.400000
    757    761     1   0.15241 261918.400000
    760    762     1   0.12183 533627.360000
    760   1564     1   0.13789 357815.680000
    761    763     1   0.12183 533627.360000
    761   1589     1   0.13789 357815.680000
    766    769     1   0.15375 251793.120000
    766    772     1   0.14647 272713.120000
    769    789     1   0.14619 275056.160000
    772    773     1   0.14647 272713.120000
    772    776     1   0.14647 272713.120000
    773    782     1   0.15375 251793.120000
    776    779     1   0.15375 251793.120000
    779    785     1   0.15241 261918.400000
    782    786     1   0.15241 261918.400000
    785    787     1   0.12183 533627.360000
    785   1614     1   0.13789 357815.680000
    786    788     1   0.12183 533627.360000
    786   1639     1   0.13789 357815.680000
    791    794     1   0.15375 251793.120000
    791    797     1   0.14647 272713.120000
    794    814     1   0.14619 275056.160000
    797    798     1   0.14647 272713.120000
    797    801     1   0.14647 272713.120000
    798    807     1   0.15375 251793.120000
    801    804     1   0.15375 251793.120000
    804    810     1   0.15241 261918.400000
    807    811     1   0.15241 261918.400000
    810    812     1   0.12183 533627.360000
    810   1664     1   0.13789 357815.680000
    811    813     1   0.12183 533627.360000
    811   1689     1   0.13789 357815.680000
    816    819     1   0.15375 251793.120000
    816    822     1   0.14647 272713.120000
    819    839     1   0.14619 275056.160000
    822    823     1   0.14647 272713.120000
    822    826     1   0.14647 272713.120000
    823    832     1   0.15375 251793.120000
    826    829     1   0.15375 251793.120000
    829    835     1   0.15241 261918.400000
    832    836     1   0.15241 261918.400000
    835    837     1   0.12183 533627.360000
    835   1714     1   0.13789 357815.680000
    836    838     1   0.12183 533627.360000
    836   1739     1   0.13789 357815.680000
    841    844     1   0.15375 251793.120000
    841    847     1   0.14647 272713.120000
    844    864     1   0.14619 275056.160000
    847    848     1   0.14647 272713.120000
    847    851     1   0.14647 272713.120000
    848    857     1   0.15375 251793.120000
    851    854     1   0.15375 251793.120000
    854    860     1   0.15241 261918.400000
    857    861     1   0.15241 261918.400000
    860    862     1   0.12183 533627.360000
    860   1764     1   0.13789 357815.680000
    861    863     1   0.12183 533627.360000
    861   1789     1   0.13789 357815.680000
    866    869     1   0.15375 251793.120000
    866    872     1   0.14647 272713.120000
    869    889     1   0.14619 275056.160000
    872    873     1   0.14647 272713.120000
    872    876     1   0.14647 272713.120000
    873    882     1   0.15375 251793.120000
    876    879     1   0.15375 251793.120000
    879    885     1   0.15241 261918.400000
    882    886     1   0.15241 261918.400000
    885    887     1   0.12183 533627.360000
    885   1814     1   0.13789 357815.680000
    886    888     1   0.12183 533627.360000
    886   1839     1   0.13789 357815.680000
    891    894     1   0.15375 251793.120000
    891    897     1   0.14647 272713.120000
    894    914     1   0.14619 275056.160000
    897    898     1   0.14647 272713.120000
    897    901     1   0.14647 272713.120000
    898    907     1   0.15375 251793.120000
    901    904     1   0.15375 251793.120000
    904    910     1   0.15241 261918.400000
    907    911     1   0.15241 261918.400000
    910    912     1   0.12183 533627.360000
    910   1864     1   0.13789 357815.680000
    911    913     1   0.12183 533627.360000
    911   1889     1   0.13789 357815.680000
    916    919     1   0.15375 251793.120000
    916    922     1   0.14647 272713.120000
    919    939     1   0.14619 275056.160000
    922    923     1   0.14647 272713.120000
    922    926     1   0.14647 272713.120000
    923    932     1   0.15375 251793.120000
    926    929     1   0.15375 251793.120000
    929    935     1   0.15241 261918.400000
    932    936     1   0.15241 261918.400000
    935    937     1   0.12183 533627.360000
    935   1914     1   0.13789 357815.680000
    936    938     1   0.12183 533627.360000
    936   1939     1   0.13789 357815.680000
    941    944     1   0.15375 251793.120000
    941    947     1   0.14647 272713.120000
    944    964     1   0.14619 275056.160000
    947    948     1   0.14647 272713.120000
    947    951     1   0.14647 272713.120000
    948    957     1   0.15375 251793.120000
    951    954     1   0.15375 251793.120000
    954    960     1   0.15241 261918.400000
    957    961     1   0.15241 261918.400000
    960    962     1   0.12183 533627.360000
    960   1964     1   0.13789 357815.680000
    961    963     1   0.12183 533627.360000
    961   1989     1   0.13789 357815.680000
    966    969     1   0.15375 251793.120000
    966    972     1   0.14647 272713.120000
    969    989     1   0.14619 275056.160000
    972    973     1   0.14647 272713.120000
    972    976     1   0.14647 272713.120000
    973    982     1   0.15375 251793.120000
    976    979     1   0.15375 251793.120000
    979    985     1   0.15241 261918.400000
    982    986     1   0.15241 261918.400000
    985    987     1   0.12183 533627.360000
    985   2014     1   0.13789 357815.680000
    986    988     1   0.12183 533627.360000
    986   2039     1   0.13789 357815.680000
    991    994     1   0.15375 251793.120000
    991    997     1   0.14647 272713.120000
    994   1014     1   0.14619 275056.160000
    997    998     1   0.14647 272713.120000
    997   1001     1   0.14647 272713.120000
    998   1007     1   0.15375 251793.120000
   1001   1004     1   0.15375 251793.120000
   1004   1010     1   0.15241 261918.400000
   1007   1011     1   0.15241 261918.400000
   1010   1012     1   0.12183 533627.360000
   1010   2064     1   0.13789 357815.680000
   1011   1013     1   0.12183 533627.360000
   1011   2089     1   0.13789 357815.680000
   1016   1019     1   0.15375 251793.120000
   1016   1022     1   0.14647 272713.120000
   1019   1039     1   0.14619 275056.160000
   1022   1023     1   0.14647 272713.120000
   1022   1026     1   0.14647 272713.120000
   1023   1032     1   0.15375 251793.120000
   1026   1029     1   0.15375 251793.120000
   1029   1035     1   0.15241 261918.400000
   1032   1036     1   0.15241 261918.400000
   1035   1037     1   0.12183 533627.360000
   1035   2114     1   0.13789 357815.680000
   1036   1038     1   0.12183 533627.360000
   1036   2139     1   0.13789 357815.680000
   1041   1044     1   0.15375 251793.120000
   1041   1047     1   0.14647 272713.120000
   1044   1064     1   0.14619 275056.160000
   1047   1048     1   0.14647 272713.120000
   1047   1051     1   0.14647 272713.120000
   1048   1057     1   0.15375 251793.120000
   1051   1054     1   0.15375 251793.120000
   1054   1060     1   0.15241 261918.400000
   1057   1061     1   0.15241 261918.400000
   1060   1062     1   0.12183 533627.360000
   1060   2164     1   0.13789 357815.680000
   1061   1063     1   0.12183 533627.360000
   1061   2189     1   0.13789 357815.680000
   1066   1069     1   0.15375 251793.120000
   1066   1072     1   0.14647 272713.120000
   1069   1089     1   0.14619 275056.160000
   1072   1073     1   0.14647 272713.120000
   1072   1076     1   0.14647 272713.120000
   1073   1082     1   0.15375 251793.120000
   1076   1079     1   0.15375 251793.120000
   1079   1085     1   0.15241 261918.400000
   1082   1086     1   0.15241 261918.400000
   1085   1087     1   0.12183 533627.360000
   1085   2214     1   0.13789 357815.680000
   1086   1088     1   0.12183 533627.360000
   1086   2239     1   0.13789 357815.680000
   1091   1094     1   0.15375 251793.120000
   1091   1097     1   0.14647 272713.120000
   1094   1114     1   0.14619 275056.160000
   1097   1098     1   0.14647 272713.120000
   1097   1101     1   0.14647 272713.120000
   1098   1107     1   0.15375 251793.120000
   1101   1104     1   0.15375 251793.120000
   1104   1110     1   0.15241 261918.400000
   1107   1111     1   0.15241 261918.400000
   1110   1112     1   0.12183 533627.360000
   1110   2264     1   0.13789 357815.680000
   1111   1113     1   0.12183 533627.360000
   1111   2289     1   0.13789 357815.680000
   1116   1119     1   0.15375 251793.120000
   1116   1122     1   0.14647 272713.120000
   1119   1139     1   0.14619 275056.160000
   1122   1123     1   0.14647 272713.120000
   1122   1126     1   0.14647 272713.120000
   1123   1132     1   0.15375 251793.120000
   1126   1129     1   0.15375 251793.120000
   1129   1135     1   0.15241 261918.400000
   1132   1136     1   0.15241 261918.400000
   1135   1137     1   0.12183 533627.360000
   1135   2314     1   0.13789 357815.680000
   1136   1138     1   0.12183 533627.360000
   1136   2339     1   0.13789 357815.680000
   1141   1144     1   0.15375 251793.120000
   1141   1147     1   0.14647 272713.120000
   1144   1164     1   0.14619 275056.160000
   1147   1148     1   0.14647 272713.120000
   1147   1151     1   0.14647 272713.120000
   1148   1157     1   0.15375 251793.120000
   1151   1154     1   0.15375 251793.120000
   1154   1160     1   0.15241 261918.400000
   1157   1161     1   0.15241 261918.400000
   1160   1162     1   0.12183 533627.360000
   1160   2364     1   0.13789 357815.680000
   1161   1163     1   0.12183 533627.360000
   1161   2389     1   0.13789 357815.680000
   1166   1169     1   0.15375 251793.120000
   1166   1172     1   0.14647 272713.120000
   1169   1189     1   0.14619 275056.160000
   1172   1173     1   0.14647 272713.120000
   1172   1176     1   0.14647 272713.120000
   1173   1182     1   0.15375 251793.120000
   1176   1179     1   0.15375 251793.120000
   1179   1185     1   0.15241 261918.400000
   1182   1186     1   0.15241 261918.400000
   1185   1187     1   0.12183 533627.360000
   1185   2414     1   0.13789 357815.680000
   1186   1188     1   0.12183 533627.360000
   1186   2439     1   0.13789 357815.680000
   1191   1194     1   0.15375 251793.120000
   1191   1197     1   0.14647 272713.120000
   1194   1214     1   0.14619 275056.160000
   1197   1198     1   0.14647 272713.120000
   1197   1201     1   0.14647 272713.120000
   1198   1207     1   0.15375 251793.120000
   1201   1204     1   0.15375 251793.120000
   1204   1210     1   0.15241 261918.400000
   1207   1211     1   0.15241 261918.400000
   1210   1212     1   0.12183 533627.360000
   1210   2464     1   0.13789 357815.680000
   1211   1213     1   0.12183 533627.360000
   1211   2489     1   0.13789 357815.680000
   1216   1219     1   0.15375 251793.120000
   1216   1222     1   0.14647 272713.120000
   1219   1239     1   0.14619 275056.160000
   1222   1223     1   0.14647 272713.120000
   1222   1226     1   0.14647 272713.120000
   1223   1232     1   0.15375 251793.120000
   1226   1229     1   0.15375 251793.120000
   1229   1235     1   0.15241 261918.400000
   1232   1236     1   0.15241 261918.400000
   1235   1237     1   0.12183 533627.360000
   1235   2514     1   0.13789 357815.680000
   1236   1238     1   0.12183 533627.360000
   1236   2539     1   0.13789 357815.680000
   1241   1244     1   0.15375 251793.120000
   1241   1247     1   0.14647 272713.120000
   1244   1264     1   0.14619 275056.160000
   1247   1248     1   0.14647 272713.120000
   1247   1251     1   0.14647 272713.120000
   1248   1257     1   0.15375 251793.120000
   1251   1254     1   0.15375 251793.120000
   1254   1260     1   0.15241 261918.400000
   1257   1261     1   0.15241 261918.400000
   1260   1262     1   0.12183 533627.360000
   1260   2564     1   0.13789 357815.680000
   1261   1263     1   0.12183 533627.360000
   1261   2589     1   0.13789 357815.680000
   1266   1269     1   0.15375 251793.120000
   1266   1272     1   0.14647 272713.120000
   1269   1289     1   0.14619 275056.160000
   1272   1273     1   0.14647 272713.120000
   1272   1276     1   0.14647 272713.120000
   1273   1282     1   0.15375 251793.120000
   1276   1279     1   0.15375 251793.120000
   1279   1285     1   0.15241 261918.400000
   1282   1286     1   0.15241 261918.400000
   1285   1287     1   0.12183 533627.360000
   1285   2614     1   0.13789 357815.680000
   1286   1288     1   0.12183 533627.360000
   1286   2639     1   0.13789 357815.680000
   1291   1294     1   0.15375 251793.120000
   1291   1297     1   0.14647 272713.120000
   1294   1314     1   0.14619 275056.160000
   1297   1298     1   0.14647 272713.120000
   1297   1301     1   0.14647 272713.120000
   1298   1307     1   0.15375 251793.120000
   1301   1304     1   0.15375 251793.120000
   1304   1310     1   0.15241 261918.400000
   1307   1311     1   0.15241 261918.400000
   1310   1312     1   0.12183 533627.360000
   1310   2664     1   0.13789 357815.680000
   1311   1313     1   0.12183 533627.360000
   1311   2689     1   0.13789 357815.680000
   1316   1319     1   0.15375 251793.120000
   1316   1322     1   0.14647 272713.120000
   1319   1339     1   0.14619 275056.160000
   1322   1323     1   0.14647 272713.120000
   1322   1326     1   0.14647 272713.120000
   1323   1332     1   0.15375 251793.120000
   1326   1329     1   0.15375 251793.120000
   1329   1335     1   0.15241 261918.400000
   1332   1336     1   0.15241 261918.400000
   1335   1337     1   0.12183 533627.360000
   1335   2714     1   0.13789 357815.680000
   1336   1338     1   0.12183 533627.360000
   1336   2739     1   0.13789 357815.680000
   1341   1344     1   0.15375 251793.120000
   1341   1347     1   0.14647 272713.120000
   1344   1364     1   0.14619 275056.160000
   1347   1348     1   0.14647 272713.120000
   1347   1351     1   0.14647 272713.120000
   1348   1357     1   0.15375 251793.120000
   1351   1354     1   0.15375 251793.120000
   1354   1360     1   0.15241 261918.400000
   1357   1361     1   0.15241 261918.400000
   1360   1362     1   0.12183 533627.360000
   1360   2764     1   0.13789 357815.680000
   1361   1363     1   0.12183 533627.360000
   1361   2789     1   0.13789 357815.680000
   1366   1369     1   0.15375 251793.120000
   1366   1372     1   0.14647 272713.120000
   1369   1389     1   0.14619 275056.160000
   1372   1373     1   0.14647 272713.120000
   1372   1376     1   0.14647 272713.120000
   1373   1382     1   0.15375 251793.120000
   1376   1379     1   0.15375 251793.120000
   1379   1385     1   0.15241 261918.400000
   1382   1386     1   0.15241 261918.400000
   1385   1387     1   0.12183 533627.360000
   1385   2814     1   0.13789 357815.680000
   1386   1388     1   0.12183 533627.360000
   1386   2839     1   0.13789 357815.680000
   1391   1394     1   0.15375 251793.120000
   1391   1397     1   0.14647 272713.120000
   1394   1414     1   0.14619 275056.160000
   1397   1398     1   0.14647 272713.120000
   1397   1401     1   0.14647 272713.120000
   1398   1407     1   0.15375 251793.120000
   1401   1404     1   0.15375 251793.120000
   1404   1410     1   0.15241 261918.400000
   1407   1411     1   0.15241 261918.400000
   1410   1412     1   0.12183 533627.360000
   1410   2864     1   0.13789 357815.680000
   1411   1413     1   0.12183 533627.360000
   1411   2889     1   0.13789 357815.680000
   1416   1419     1   0.15375 251793.120000
   1416   1422     1   0.14647 272713.120000
   1419   1439     1   0.14619 275056.160000
   1422   1423     1   0.14647 272713.120000
   1422   1426     1   0.14647 272713.120000
   1423   1432     1   0.15375 251793.120000
   1426   1429     1   0.15375 251793.120000
   1429   1435     1   0.15241 261918.400000
   1432   1436     1   0.15241 261918.400000
   1435   1437     1   0.12183 533627.360000
   1435   2914     1   0.13789 357815.680000
   1436   1438     1   0.12183 533627.360000
   1436   2939     1   0.13789 357815.680000
   1441   1444     1   0.15375 251793.120000
   1441   1447     1   0.14647 272713.120000
   1444   1464     1   0.14619 275056.160000
   1447   1448     1   0.14647 272713.120000
   1447   1451     1   0.14647 272713.120000
   1448   1457     1   0.15375 251793.120000
   1451   1454     1   0.15375 251793.120000
   1454   1460     1   0.15241 261918.400000
   1457   1461     1   0.15241 261918.400000
   1460   1462     1   0.12183 533627.360000
   1460   2964     1   0.13789 357815.680000
   1461   1463     1   0.12183 533627.360000
   1461   2989     1   0.13789 357815.680000
   1466   1469     1   0.15375 251793.120000
   1466   1472     1   0.14647 272713.120000
   1469   1489     1   0.14619 275056.160000
   1472   1473     1   0.14647 272713.120000
   1472   1476     1   0.14647 272713.120000
   1473   1482     1   0.15375 251793.120000
   1476   1479     1   0.15375 251793.120000
   1479   1485     1   0.15241 261918.400000
   1482   1486     1   0.15241 261918.400000
   1485   1487     1   0.12183 533627.360000
   1485   3014     1   0.13789 357815.680000
   1486   1488     1   0.12183 533627.360000
   1486   3039     1   0.13789 357815.680000
   1491   1494     1   0.15375 251793.120000
   1491   1497     1   0.14647 272713.120000
   1494   1514     1   0.14619 275056.160000
   1497   1498     1   0.14647 272713.120000
   1497   1501     1   0.14647 272713.120000
   1498   1507     1   0.15375 251793.120000
   1501   1504     1   0.15375 251793.120000
   1504   1510     1   0.15241 261918.400000
   1507   1511     1   0.15241 261918.400000
   1510   1512     1   0.12183 533627.360000
   1510   3064     1   0.13789 357815.680000
   1511   1513     1   0.12183 533627.360000
   1511   3089     1   0.13789 357815.680000
   1516   1519     1   0.15375 251793.120000
   1516   1522     1   0.14647 272713.120000
   1519   1539     1   0.14619 275056.160000
   1522   1523     1   0.14647 272713.120000
   1522   1526     1   0.14647 272713.120000
   1523   1532     1   0.15375 251793.120000
   1526   1529     1   0.15375 251793.120000
   1529   1535     1   0.15241 261918.400000
   1532   1536     1   0.15241 261918.400000
   1535   1537     1   0.12183 533627.360000
   1535   3114     1   0.13789 357815.680000
   1536   1538     1   0.12183 533627.360000
   1536   3139     1   0.13789 357815.680000
   1541   1544     1   0.15375 251793.120000
   1541   1547     1   0.14647 272713.120000
   1544   1564     1   0.14619 275056.160000
   1547   1548     1   0.14647 272713.120000
   1547   1551     1   0.14647 272713.120000
   1548   1557     1   0.15375 251793.120000
   1551   1554     1   0.15375 251793.120000
   1554   1560     1   0.15241 261918.400000
   1557   1561     1   0.15241 261918.400000
   1560   3141     1   0.13789 357815.680000
   1560   1562     1   0.12183 533627.360000
   1561   1563     1   0.12183 533627.360000
   1561   3170     1   0.13789 357815.680000
   1566   1569     1   0.15375 251793.120000
   1566   1572     1   0.14647 272713.120000
   1569   1589     1   0.14619 275056.160000
   1572   1573     1   0.14647 272713.120000
   1572   1576     1   0.14647 272713.120000
   1573   1582     1   0.15375 251793.120000
   1576   1579     1   0.15375 251793.120000
   1579   1585     1   0.15241 261918.400000
   1582   1586     1   0.15241 261918.400000
   1585   3199     1   0.13789 357815.680000
   1585   1587     1   0.12183 533627.360000
   1586   1588     1   0.12183 533627.360000
   1586   3228     1   0.13789 357815.680000
   1591   1594     1   0.15375 251793.120000
   1591   1597     1   0.14647 272713.120000
   1594   1614     1   0.14619 275056.160000
   1597   1598     1   0.14647 272713.120000
   1597   1601     1   0.14647 272713.120000
   1598   1607     1   0.15375 251793.120000
   1601   1604     1   0.15375 251793.120000
   1604   1610     1   0.15241 261918.400000
   1607   1611     1   0.15241 261918.400000
   1610   3257     1   0.13789 357815.680000
   1610   1612     1   0.12183 533627.360000
   1611   1613     1   0.12183 533627.360000
   1611   3286     1   0.13789 357815.680000
   1616   1619     1   0.15375 251793.120000
   1616   1622     1   0.14647 272713.120000
   1619   1639     1   0.14619 275056.160000
   1622   1623     1   0.14647 272713.120000
   1622   1626     1   0.14647 272713.120000
   1623   1632     1   0.15375 251793.120000
   1626   1629     1   0.15375 251793.120000
   1629   1635     1   0.15241 261918.400000
   1632   1636     1   0.15241 261918.400000
   1635   3315     1   0.13789 357815.680000
   1635   1637     1   0.12183 533627.360000
   1636   1638     1   0.12183 533627.360000
   1636   3344     1   0.13789 357815.680000
   1641   1644     1   0.15375 251793.120000
   1641   1647     1   0.14647 272713.120000
   1644   1664     1   0.14619 275056.160000
   1647   1648     1   0.14647 272713.120000
   1647   1651     1   0.14647 272713.120000
   1648   1657     1   0.15375 251793.120000
   1651   1654     1   0.15375 251793.120000
   1654   1660     1   0.15241 261918.400000
   1657   1661     1   0.15241 261918.400000
   1660   3373     1   0.13789 357815.680000
   1660   1662     1   0.12183 533627.360000
   1661   1663     1   0.12183 533627.360000
   1661   3402     1   0.13789 357815.680000
   1666   1669     1   0.15375 251793.120000
   1666   1672     1   0.14647 272713.120000
   1669   1689     1   0.14619 275056.160000
   1672   1673     1   0.14647 272713.120000
   1672   1676     1   0.14647 272713.120000
   1673   1682     1   0.15375 251793.120000
   1676   1679     1   0.15375 251793.120000
   1679   1685     1   0.15241 261918.400000
   1682   1686     1   0.15241 261918.400000
   1685   3431     1   0.13789 357815.680000
   1685   1687     1   0.12183 533627.360000
   1686   1688     1   0.12183 533627.360000
   1686   3460     1   0.13789 357815.680000
   1691   1694     1   0.15375 251793.120000
   1691   1697     1   0.14647 272713.120000
   1694   1714     1   0.14619 275056.160000
   1697   1698     1   0.14647 272713.120000
   1697   1701     1   0.14647 272713.120000
   1698   1707     1   0.15375 251793.120000
   1701   1704     1   0.15375 251793.120000
   1704   1710     1   0.15241 261918.400000
   1707   1711     1   0.15241 261918.400000
   1710   3489     1   0.13789 357815.680000
   1710   1712     1   0.12183 533627.360000
   1711   1713     1   0.12183 533627.360000
   1711   3518     1   0.13789 357815.680000
   1716   1719     1   0.15375 251793.120000
   1716   1722     1   0.14647 272713.120000
   1719   1739     1   0.14619 275056.160000
   1722   1723     1   0.14647 272713.120000
   1722   1726     1   0.14647 272713.120000
   1723   1732     1   0.15375 251793.120000
   1726   1729     1   0.15375 251793.120000
   1729   1735     1   0.15241 261918.400000
   1732   1736     1   0.15241 261918.400000
   1735   3547     1   0.13789 357815.680000
   1735   1737     1   0.12183 533627.360000
   1736   1738     1   0.12183 533627.360000
   1736   3576     1   0.13789 357815.680000
   1741   1744     1   0.15375 251793.120000
   1741   1747     1   0.14647 272713.120000
   1744   1764     1   0.14619 275056.160000
   1747   1748     1   0.14647 272713.120000
   1747   1751     1   0.14647 272713.120000
   1748   1757     1   0.15375 251793.120000
   1751   1754     1   0.15375 251793.120000
   1754   1760     1   0.15241 261918.400000
   1757   1761     1   0.15241 261918.400000
   1760   3605     1   0.13789 357815.680000
   1760   1762     1   0.12183 533627.360000
   1761   1763     1   0.12183 533627.360000
   1761   3634     1   0.13789 357815.680000
   1766   1769     1   0.15375 251793.120000
   1766   1772     1   0.14647 272713.120000
   1769   1789     1   0.14619 275056.160000
   1772   1773     1   0.14647 272713.120000
   1772   1776     1   0.14647 272713.120000
   1773   1782     1   0.15375 251793.120000
   1776   1779     1   0.15375 251793.120000
   1779   1785     1   0.15241 261918.400000
   1782   1786     1   0.15241 261918.400000
   1785   3663     1   0.13789 357815.680000
   1785   1787     1   0.12183 533627.360000
   1786   1788     1   0.12183 533627.360000
   1786   3692     1   0.13789 357815.680000
   1791   1794     1   0.15375 251793.120000
   1791   1797     1   0.14647 272713.120000
   1794   1814     1   0.14619 275056.160000
   1797   1798     1   0.14647 272713.120000
   1797   1801     1   0.14647 272713.120000
   1798   1807     1   0.15375 251793.120000
   1801   1804     1   0.15375 251793.120000
   1804   1810     1   0.15241 261918.400000
   1807   1811     1   0.15241 261918.400000
   1810   3721     1   0.13789 357815.680000
   1810   1812     1   0.12183 533627.360000
   1811   1813     1   0.12183 533627.360000
   1811   3750     1   0.13789 357815.680000
   1816   1819     1   0.15375 251793.120000
   1816   1822     1   0.14647 272713.120000
   1819   1839     1   0.14619 275056.160000
   1822   1823     1   0.14647 272713.120000
   1822   1826     1   0.14647 272713.120000
   1823   1832     1   0.15375 251793.120000
   1826   1829     1   0.15375 251793.120000
   1829   1835     1   0.15241 261918.400000
   1832   1836     1   0.15241 261918.400000
   1835   3779     1   0.13789 357815.680000
   1835   1837     1   0.12183 533627.360000
   1836   1838     1   0.12183 533627.360000
   1836   3808     1   0.13789 357815.680000
   1841   1844     1   0.15375 251793.120000
   1841   1847     1   0.14647 272713.120000
   1844   1864     1   0.14619 275056.160000
   1847   1848     1   0.14647 272713.120000
   1847   1851     1   0.14647 272713.120000
   1848   1857     1   0.15375 251793.120000
   1851   1854     1   0.15375 251793.120000
   1854   1860     1   0.15241 261918.400000
   1857   1861     1   0.15241 261918.400000
   1860   3837     1   0.13789 357815.680000
   1860   1862     1   0.12183 533627.360000
   1861   1863     1   0.12183 533627.360000
   1861   3866     1   0.13789 357815.680000
   1866   1869     1   0.15375 251793.120000
   1866   1872     1   0.14647 272713.120000
   1869   1889     1   0.14619 275056.160000
   1872   1873     1   0.14647 272713.120000
   1872   1876     1   0.14647 272713.120000
   1873   1882     1   0.15375 251793.120000
   1876   1879     1   0.15375 251793.120000
   1879   1885     1   0.15241 261918.400000
   1882   1886     1   0.15241 261918.400000
   1885   3895     1   0.13789 357815.680000
   1885   1887     1   0.12183 533627.360000
   1886   1888     1   0.12183 533627.360000
   1886   3924     1   0.13789 357815.680000
   1891   1894     1   0.15375 251793.120000
   1891   1897     1   0.14647 272713.120000
   1894   1914     1   0.14619 275056.160000
   1897   1898     1   0.14647 272713.120000
   1897   1901     1   0.14647 272713.120000
   1898   1907     1   0.15375 251793.120000
   1901   1904     1   0.15375 251793.120000
   1904   1910     1   0.15241 261918.400000
   1907   1911     1   0.15241 261918.400000
   1910   3953     1   0.13789 357815.680000
   1910   1912     1   0.12183 533627.360000
   1911   1913     1   0.12183 533627.360000
   1911   3982     1   0.13789 357815.680000
   1916   1919     1   0.15375 251793.120000
   1916   1922     1   0.14647 272713.120000
   1919   1939     1   0.14619 275056.160000
   1922   1923     1   0.14647 272713.120000
   1922   1926     1   0.14647 272713.120000
   1923   1932     1   0.15375 251793.120000
   1926   1929     1   0.15375 251793.120000
   1929   1935     1   0.15241 261918.400000
   1932   1936     1   0.15241 261918.400000
   1935   4011     1   0.13789 357815.680000
   1935   1937     1   0.12183 533627.360000
   1936   1938     1   0.12183 533627.360000
   1936   4040     1   0.13789 357815.680000
   1941   1944     1   0.15375 251793.120000
   1941   1947     1   0.14647 272713.120000
   1944   1964     1   0.14619 275056.160000
   1947   1948     1   0.14647 272713.120000
   1947   1951     1   0.14647 272713.120000
   1948   1957     1   0.15375 251793.120000
   1951   1954     1   0.15375 251793.120000
   1954   1960     1   0.15241 261918.400000
   1957   1961     1   0.15241 261918.400000
   1960   4069     1   0.13789 357815.680000
   1960   1962     1   0.12183 533627.360000
   1961   1963     1   0.12183 533627.360000
   1961   4098     1   0.13789 357815.680000
   1966   1969     1   0.15375 251793.120000
   1966   1972     1   0.14647 272713.120000
   1969   1989     1   0.14619 275056.160000
   1972   1973     1   0.14647 272713.120000
   1972   1976     1   0.14647 272713.120000
   1973   1982     1   0.15375 251793.120000
   1976   1979     1   0.15375 251793.120000
   1979   1985     1   0.15241 261918.400000
   1982   1986     1   0.15241 261918.400000
   1985   4127     1   0.13789 357815.680000
   1985   1987     1   0.12183 533627.360000
   1986   1988     1   0.12183 533627.360000
   1986   4156     1   0.13789 357815.680000
   1991   1994     1   0.15375 251793.120000
   1991   1997     1   0.14647 272713.120000
   1994   2014     1   0.14619 275056.160000
   1997   1998     1   0.14647 272713.120000
   1997   2001     1   0.14647 272713.120000
   1998   2007     1   0.15375 251793.120000
   2001   2004     1   0.15375 251793.120000
   2004   2010     1   0.15241 261918.400000
   2007   2011     1   0.15241 261918.400000
   2010   4185     1   0.13789 357815.680000
   2010   2012     1   0.12183 533627.360000
   2011   2013     1   0.12183 533627.360000
   2011   4214     1   0.13789 357815.680000
   2016   2019     1   0.15375 251793.120000
   2016   2022     1   0.14647 272713.120000
   2019   2039     1   0.14619 275056.160000
   2022   2023     1   0.14647 272713.120000
   2022   2026     1   0.14647 272713.120000
   2023   2032     1   0.15375 251793.120000
   2026   2029     1   0.15375 251793.120000
   2029   2035     1   0.15241 261918.400000
   2032   2036     1   0.15241 261918.400000
   2035   4243     1   0.13789 357815.680000
   2035   2037     1   0.12183 533627.360000
   2036   2038     1   0.12183 533627.360000
   2036   4272     1   0.13789 357815.680000
   2041   2044     1   0.15375 251793.120000
   2041   2047     1   0.14647 272713.120000
   2044   2064     1   0.14619 275056.160000
   2047   2048     1   0.14647 272713.120000
   2047   2051     1   0.14647 272713.120000
   2048   2057     1   0.15375 251793.120000
   2051   2054     1   0.15375 251793.120000
   2054   2060     1   0.15241 261918.400000
   2057   2061     1   0.15241 261918.400000
   2060   4301     1   0.13789 357815.680000
   2060   2062     1   0.12183 533627.360000
   2061   2063     1   0.12183 533627.360000
   2061   4330     1   0.13789 357815.680000
   2066   2069     1   0.15375 251793.120000
   2066   2072     1   0.14647 272713.120000
   2069   2089     1   0.14619 275056.160000
   2072   2073     1   0.14647 272713.120000
   2072   2076     1   0.14647 272713.120000
   2073   2082     1   0.15375 251793.120000
   2076   2079     1   0.15375 251793.120000
   2079   2085     1   0.15241 261918.400000
   2082   2086     1   0.15241 261918.400000
   2085   4359     1   0.13789 357815.680000
   2085   2087     1   0.12183 533627.360000
   2086   2088     1   0.12183 533627.360000
   2086   4388     1   0.13789 357815.680000
   2091   2094     1   0.15375 251793.120000
   2091   2097     1   0.14647 272713.120000
   2094   2114     1   0.14619 275056.160000
   2097   2098     1   0.14647 272713.120000
   2097   2101     1   0.14647 272713.120000
   2098   2107     1   0.15375 251793.120000
   2101   2104     1   0.15375 251793.120000
   2104   2110     1   0.15241 261918.400000
   2107   2111     1   0.15241 261918.400000
   2110   4417     1   0.13789 357815.680000
   2110   2112     1   0.12183 533627.360000
   2111   2113     1   0.12183 533627.360000
   2111   4446     1   0.13789 357815.680000
   2116   2119     1   0.15375 251793.120000
   2116   2122     1   0.14647 272713.120000
   2119   2139     1   0.14619 275056.160000
   2122   2123     1   0.14647 272713.120000
   2122   2126     1   0.14647 272713.120000
   2123   2132     1   0.15375 251793.120000
   2126   2129     1   0.15375 251793.120000
   2129   2135     1   0.15241 261918.400000
   2132   2136     1   0.15241 261918.400000
   2135   4475     1   0.13789 357815.680000
   2135   2137     1   0.12183 533627.360000
   2136   2138     1   0.12183 533627.360000
   2136   4504     1   0.13789 357815.680000
   2141   2144     1   0.15375 251793.120000
   2141   2147     1   0.14647 272713.120000
   2144   2164     1   0.14619 275056.160000
   2147   2148     1   0.14647 272713.120000
   2147   2151     1   0.14647 272713.120000
   2148   2157     1   0.15375 251793.120000
   2151   2154     1   0.15375 251793.120000
   2154   2160     1   0.15241 261918.400000
   2157   2161     1   0.15241 261918.400000
   2160   4533     1   0.13789 357815.680000
   2160   2162     1   0.12183 533627.360000
   2161   2163     1   0.12183 533627.360000
   2161   4562     1   0.13789 357815.680000
   2166   2169     1   0.15375 251793.120000
   2166   2172     1   0.14647 272713.120000
   2169   2189     1   0.14619 275056.160000
   2172   2173     1   0.14647 272713.120000
   2172   2176     1   0.14647 272713.120000
   2173   2182     1   0.15375 251793.120000
   2176   2179     1   0.15375 251793.120000
   2179   2185     1   0.15241 261918.400000
   2182   2186     1   0.15241 261918.400000
   2185   4591     1   0.13789 357815.680000
   2185   2187     1   0.12183 533627.360000
   2186   2188     1   0.12183 533627.360000
   2186   4620     1   0.13789 357815.680000
   2191   2194     1   0.15375 251793.120000
   2191   2197     1   0.14647 272713.120000
   2194   2214     1   0.14619 275056.160000
   2197   2198     1   0.14647 272713.120000
   2197   2201     1   0.14647 272713.120000
   2198   2207     1   0.15375 251793.120000
   2201   2204     1   0.15375 251793.120000
   2204   2210     1   0.15241 261918.400000
   2207   2211     1   0.15241 261918.400000
   2210   4649     1   0.13789 357815.680000
   2210   2212     1   0.12183 533627.360000
   2211   2213     1   0.12183 533627.360000
   2211   4678     1   0.13789 357815.680000
   2216   2219     1   0.15375 251793.120000
   2216   2222     1   0.14647 272713.120000
   2219   2239     1   0.14619 275056.160000
   2222   2223     1   0.14647 272713.120000
   2222   2226     1   0.14647 272713.120000
   2223   2232     1   0.15375 251793.120000
   2226   2229     1   0.15375 251793.120000
   2229   2235     1   0.15241 261918.400000
   2232   2236     1   0.15241 261918.400000
   2235   4707     1   0.13789 357815.680000
   2235   2237     1   0.12183 533627.360000
   2236   2238     1   0.12183 533627.360000
   2236   4736     1   0.13789 357815.680000
   2241   2244     1   0.15375 251793.120000
   2241   2247     1   0.14647 272713.120000
   2244   2264     1   0.14619 275056.160000
   2247   2248     1   0.14647 272713.120000
   2247   2251     1   0.14647 272713.120000
   2248   2257     1   0.15375 251793.120000
   2251   2254     1   0.15375 251793.120000
   2254   2260     1   0.15241 261918.400000
   2257   2261     1   0.15241 261918.400000
   2260   4765     1   0.13789 357815.680000
   2260   2262     1   0.12183 533627.360000
   2261   2263     1   0.12183 533627.360000
   2261   4794     1   0.13789 357815.680000
   2266   2269     1   0.15375 251793.120000
   2266   2272     1   0.14647 272713.120000
   2269   2289     1   0.14619 275056.160000
   2272   2273     1   0.14647 272713.120000
   2272   2276     1   0.14647 272713.120000
   2273   2282     1   0.15375 251793.120000
   2276   2279     1   0.15375 251793.120000
   2279   2285     1   0.15241 261918.400000
   2282   2286     1   0.15241 261918.400000
   2285   4823     1   0.13789 357815.680000
   2285   2287     1   0.12183 533627.360000
   2286   2288     1   0.12183 533627.360000
   2286   4852     1   0.13789 357815.680000
   2291   2294     1   0.15375 251793.120000
   2291   2297     1   0.14647 272713.120000
   2294   2314     1   0.14619 275056.160000
   2297   2298     1   0.14647 272713.120000
   2297   2301     1   0.14647 272713.120000
   2298   2307     1   0.15375 251793.120000
   2301   2304     1   0.15375 251793.120000
   2304   2310     1   0.15241 261918.400000
   2307   2311     1   0.15241 261918.400000
   2310   4881     1   0.13789 357815.680000
   2310   2312     1   0.12183 533627.360000
   2311   2313     1   0.12183 533627.360000
   2311   4910     1   0.13789 357815.680000
   2316   2319     1   0.15375 251793.120000
   2316   2322     1   0.14647 272713.120000
   2319   2339     1   0.14619 275056.160000
   2322   2323     1   0.14647 272713.120000
   2322   2326     1   0.14647 272713.120000
   2323   2332     1   0.15375 251793.120000
   2326   2329     1   0.15375 251793.120000
   2329   2335     1   0.15241 261918.400000
   2332   2336     1   0.15241 261918.400000
   2335   4939     1   0.13789 357815.680000
   2335   2337     1   0.12183 533627.360000
   2336   2338     1   0.12183 533627.360000
   2336   4968     1   0.13789 357815.680000
   2341   2344     1   0.15375 251793.120000
   2341   2347     1   0.14647 272713.120000
   2344   2364     1   0.14619 275056.160000
   2347   2348     1   0.14647 272713.120000
   2347   2351     1   0.14647 272713.120000
   2348   2357     1   0.15375 251793.120000
   2351   2354     1   0.15375 251793.120000
   2354   2360     1   0.15241 261918.400000
   2357   2361     1   0.15241 261918.400000
   2360   4997     1   0.13789 357815.680000
   2360   2362     1   0.12183 533627.360000
   2361   2363     1   0.12183 533627.360000
   2361   5026     1   0.13789 357815.680000
   2366   2369     1   0.15375 251793.120000
   2366   2372     1   0.14647 272713.120000
   2369   2389     1   0.14619 275056.160000
   2372   2373     1   0.14647 272713.120000
   2372   2376     1   0.14647 272713.120000
   2373   2382     1   0.15375 251793.120000
   2376   2379     1   0.15375 251793.120000
   2379   2385     1   0.15241 261918.400000
   2382   2386     1   0.15241 261918.400000
   2385   5055     1   0.13789 357815.680000
   2385   2387     1   0.12183 533627.360000
   2386   2388     1   0.12183 533627.360000
   2386   5084     1   0.13789 357815.680000
   2391   2394     1   0.15375 251793.120000
   2391   2397     1   0.14647 272713.120000
   2394   2414     1   0.14619 275056.160000
   2397   2398     1   0.14647 272713.120000
   2397   2401     1   0.14647 272713.120000
   2398   2407     1   0.15375 251793.120000
   2401   2404     1   0.15375 251793.120000
   2404   2410     1   0.15241 261918.400000
   2407   2411     1   0.15241 261918.400000
   2410   5113     1   0.13789 357815.680000
   2410   2412     1   0.12183 533627.360000
   2411   2413     1   0.12183 533627.360000
   2411   5142     1   0.13789 357815.680000
   2416   2419     1   0.15375 251793.120000
   2416   2422     1   0.14647 272713.120000
   2419   2439     1   0.14619 275056.160000
   2422   2423     1   0.14647 272713.120000
   2422   2426     1   0.14647 272713.120000
   2423   2432     1   0.15375 251793.120000
   2426   2429     1   0.15375 251793.120000
   2429   2435     1   0.15241 261918.400000
   2432   2436     1   0.15241 261918.400000
   2435   5171     1   0.13789 357815.680000
   2435   2437     1   0.12183 533627.360000
   2436   2438     1   0.12183 533627.360000
   2436   5200     1   0.13789 357815.680000
   2441   2444     1   0.15375 251793.120000
   2441   2447     1   0.14647 272713.120000
   2444   2464     1   0.14619 275056.160000
   2447   2448     1   0.14647 272713.120000
   2447   2451     1   0.14647 272713.120000
   2448   2457     1   0.15375 251793.120000
   2451   2454     1   0.15375 251793.120000
   2454   2460     1   0.15241 261918.400000
   2457   2461     1   0.15241 261918.400000
   2460   5229     1   0.13789 357815.680000
   2460   2462     1   0.12183 533627.360000
   2461   2463     1   0.12183 533627.360000
   2461   5258     1   0.13789 357815.680000
   2466   2469     1   0.15375 251793.120000
   2466   2472     1   0.14647 272713.120000
   2469   2489     1   0.14619 275056.160000
   2472   2473     1   0.14647 272713.120000
   2472   2476     1   0.14647 272713.120000
   2473   2482     1   0.15375 251793.120000
   2476   2479     1   0.15375 251793.120000
   2479   2485     1   0.15241 261918.400000
   2482   2486     1   0.15241 261918.400000
   2485   5287     1   0.13789 357815.680000
   2485   2487     1   0.12183 533627.360000
   2486   2488     1   0.12183 533627.360000
   2486   5316     1   0.13789 357815.680000
   2491   2494     1   0.15375 251793.120000
   2491   2497     1   0.14647 272713.120000
   2494   2514     1   0.14619 275056.160000
   2497   2498     1   0.14647 272713.120000
   2497   2501     1   0.14647 272713.120000
   2498   2507     1   0.15375 251793.120000
   2501   2504     1   0.15375 251793.120000
   2504   2510     1   0.15241 261918.400000
   2507   2511     1   0.15241 261918.400000
   2510   5345     1   0.13789 357815.680000
   2510   2512     1   0.12183 533627.360000
   2511   2513     1   0.12183 533627.360000
   2511   5374     1   0.13789 357815.680000
   2516   2519     1   0.15375 251793.120000
   2516   2522     1   0.14647 272713.120000
   2519   2539     1   0.14619 275056.160000
   2522   2523     1   0.14647 272713.120000
   2522   2526     1   0.14647 272713.120000
   2523   2532     1   0.15375 251793.120000
   2526   2529     1   0.15375 251793.120000
   2529   2535     1   0.15241 261918.400000
   2532   2536     1   0.15241 261918.400000
   2535   5403     1   0.13789 357815.680000
   2535   2537     1   0.12183 533627.360000
   2536   2538     1   0.12183 533627.360000
   2536   5432     1   0.13789 357815.680000
   2541   2544     1   0.15375 251793.120000
   2541   2547     1   0.14647 272713.120000
   2544   2564     1   0.14619 275056.160000
   2547   2548     1   0.14647 272713.120000
   2547   2551     1   0.14647 272713.120000
   2548   2557     1   0.15375 251793.120000
   2551   2554     1   0.15375 251793.120000
   2554   2560     1   0.15241 261918.400000
   2557   2561     1   0.15241 261918.400000
   2560   5461     1   0.13789 357815.680000
   2560   2562     1   0.12183 533627.360000
   2561   2563     1   0.12183 533627.360000
   2561   5490     1   0.13789 357815.680000
   2566   2569     1   0.15375 251793.120000
   2566   2572     1   0.14647 272713.120000
   2569   2589     1   0.14619 275056.160000
   2572   2573     1   0.14647 272713.120000
   2572   2576     1   0.14647 272713.120000
   2573   2582     1   0.15375 251793.120000
   2576   2579     1   0.15375 251793.120000
   2579   2585     1   0.15241 261918.400000
   2582   2586     1   0.15241 261918.400000
   2585   5519     1   0.13789 357815.680000
   2585   2587     1   0.12183 533627.360000
   2586   2588     1   0.12183 533627.360000
   2586   5548     1   0.13789 357815.680000
   2591   2594     1   0.15375 251793.120000
   2591   2597     1   0.14647 272713.120000
   2594   2614     1   0.14619 275056.160000
   2597   2598     1   0.14647 272713.120000
   2597   2601     1   0.14647 272713.120000
   2598   2607     1   0.15375 251793.120000
   2601   2604     1   0.15375 251793.120000
   2604   2610     1   0.15241 261918.400000
   2607   2611     1   0.15241 261918.400000
   2610   5577     1   0.13789 357815.680000
   2610   2612     1   0.12183 533627.360000
   2611   2613     1   0.12183 533627.360000
   2611   5606     1   0.13789 357815.680000
   2616   2619     1   0.15375 251793.120000
   2616   2622     1   0.14647 272713.120000
   2619   2639     1   0.14619 275056.160000
   2622   2623     1   0.14647 272713.120000
   2622   2626     1   0.14647 272713.120000
   2623   2632     1   0.15375 251793.120000
   2626   2629     1   0.15375 251793.120000
   2629   2635     1   0.15241 261918.400000
   2632   2636     1   0.15241 261918.400000
   2635   5635     1   0.13789 357815.680000
   2635   2637     1   0.12183 533627.360000
   2636   2638     1   0.12183 533627.360000
   2636   5664     1   0.13789 357815.680000
   2641   2644     1   0.15375 251793.120000
   2641   2647     1   0.14647 272713.120000
   2644   2664     1   0.14619 275056.160000
   2647   2648     1   0.14647 272713.120000
   2647   2651     1   0.14647 272713.120000
   2648   2657     1   0.15375 251793.120000
   2651   2654     1   0.15375 251793.120000
   2654   2660     1   0.15241 261918.400000
   2657   2661     1   0.15241 261918.400000
   2660   5693     1   0.13789 357815.680000
   2660   2662     1   0.12183 533627.360000
   2661   2663     1   0.12183 533627.360000
   2661   5722     1   0.13789 357815.680000
   2666   2669     1   0.15375 251793.120000
   2666   2672     1   0.14647 272713.120000
   2669   2689     1   0.14619 275056.160000
   2672   2673     1   0.14647 272713.120000
   2672   2676     1   0.14647 272713.120000
   2673   2682     1   0.15375 251793.120000
   2676   2679     1   0.15375 251793.120000
   2679   2685     1   0.15241 261918.400000
   2682   2686     1   0.15241 261918.400000
   2685   5751     1   0.13789 357815.680000
   2685   2687     1   0.12183 533627.360000
   2686   2688     1   0.12183 533627.360000
   2686   5780     1   0.13789 357815.680000
   2691   2694     1   0.15375 251793.120000
   2691   2697     1   0.14647 272713.120000
   2694   2714     1   0.14619 275056.160000
   2697   2698     1   0.14647 272713.120000
   2697   2701     1   0.14647 272713.120000
   2698   2707     1   0.15375 251793.120000
   2701   2704     1   0.15375 251793.120000
   2704   2710     1   0.15241 261918.400000
   2707   2711     1   0.15241 261918.400000
   2710   5809     1   0.13789 357815.680000
   2710   2712     1   0.12183 533627.360000
   2711   2713     1   0.12183 533627.360000
   2711   5838     1   0.13789 357815.680000
   2716   2719     1   0.15375 251793.120000
   2716   2722     1   0.14647 272713.120000
   2719   2739     1   0.14619 275056.160000
   2722   2723     1   0.14647 272713.120000
   2722   2726     1   0.14647 272713.120000
   2723   2732     1   0.15375 251793.120000
   2726   2729     1   0.15375 251793.120000
   2729   2735     1   0.15241 261918.400000
   2732   2736     1   0.15241 261918.400000
   2735   5867     1   0.13789 357815.680000
   2735   2737     1   0.12183 533627.360000
   2736   2738     1   0.12183 533627.360000
   2736   5896     1   0.13789 357815.680000
   2741   2744     1   0.15375 251793.120000
   2741   2747     1   0.14647 272713.120000
   2744   2764     1   0.14619 275056.160000
   2747   2748     1   0.14647 272713.120000
   2747   2751     1   0.14647 272713.120000
   2748   2757     1   0.15375 251793.120000
   2751   2754     1   0.15375 251793.120000
   2754   2760     1   0.15241 261918.400000
   2757   2761     1   0.15241 261918.400000
   2760   5925     1   0.13789 357815.680000
   2760   2762     1   0.12183 533627.360000
   2761   2763     1   0.12183 533627.360000
   2761   5954     1   0.13789 357815.680000
   2766   2769     1   0.15375 251793.120000
   2766   2772     1   0.14647 272713.120000
   2769   2789     1   0.14619 275056.160000
   2772   2773     1   0.14647 272713.120000
   2772   2776     1   0.14647 272713.120000
   2773   2782     1   0.15375 251793.120000
   2776   2779     1   0.15375 251793.120000
   2779   2785     1   0.15241 261918.400000
   2782   2786     1   0.15241 261918.400000
   2785   5983     1   0.13789 357815.680000
   2785   2787     1   0.12183 533627.360000
   2786   2788     1   0.12183 533627.360000
   2786   6012     1   0.13789 357815.680000
   2791   2794     1   0.15375 251793.120000
   2791   2797     1   0.14647 272713.120000
   2794   2814     1   0.14619 275056.160000
   2797   2798     1   0.14647 272713.120000
   2797   2801     1   0.14647 272713.120000
   2798   2807     1   0.15375 251793.120000
   2801   2804     1   0.15375 251793.120000
   2804   2810     1   0.15241 261918.400000
   2807   2811     1   0.15241 261918.400000
   2810   6041     1   0.13789 357815.680000
   2810   2812     1   0.12183 533627.360000
   2811   2813     1   0.12183 533627.360000
   2811   6070     1   0.13789 357815.680000
   2816   2819     1   0.15375 251793.120000
   2816   2822     1   0.14647 272713.120000
   2819   2839     1   0.14619 275056.160000
   2822   2823     1   0.14647 272713.120000
   2822   2826     1   0.14647 272713.120000
   2823   2832     1   0.15375 251793.120000
   2826   2829     1   0.15375 251793.120000
   2829   2835     1   0.15241 261918.400000
   2832   2836     1   0.15241 261918.400000
   2835   6099     1   0.13789 357815.680000
   2835   2837     1   0.12183 533627.360000
   2836   2838     1   0.12183 533627.360000
   2836   6128     1   0.13789 357815.680000
   2841   2844     1   0.15375 251793.120000
   2841   2847     1   0.14647 272713.120000
   2844   2864     1   0.14619 275056.160000
   2847   2848     1   0.14647 272713.120000
   2847   2851     1   0.14647 272713.120000
   2848   2857     1   0.15375 251793.120000
   2851   2854     1   0.15375 251793.120000
   2854   2860     1   0.15241 261918.400000
   2857   2861     1   0.15241 261918.400000
   2860   6157     1   0.13789 357815.680000
   2860   2862     1   0.12183 533627.360000
   2861   2863     1   0.12183 533627.360000
   2861   6186     1   0.13789 357815.680000
   2866   2869     1   0.15375 251793.120000
   2866   2872     1   0.14647 272713.120000
   2869   2889     1   0.14619 275056.160000
   2872   2873     1   0.14647 272713.120000
   2872   2876     1   0.14647 272713.120000
   2873   2882     1   0.15375 251793.120000
   2876   2879     1   0.15375 251793.120000
   2879   2885     1   0.15241 261918.400000
   2882   2886     1   0.15241 261918.400000
   2885   6215     1   0.13789 357815.680000
   2885   2887     1   0.12183 533627.360000
   2886   2888     1   0.12183 533627.360000
   2886   6244     1   0.13789 357815.680000
   2891   2894     1   0.15375 251793.120000
   2891   2897     1   0.14647 272713.120000
   2894   2914     1   0.14619 275056.160000
   2897   2898     1   0.14647 272713.120000
   2897   2901     1   0.14647 272713.120000
   2898   2907     1   0.15375 251793.120000
   2901   2904     1   0.15375 251793.120000
   2904   2910     1   0.15241 261918.400000
   2907   2911     1   0.15241 261918.400000
   2910   6273     1   0.13789 357815.680000
   2910   2912     1   0.12183 533627.360000
   2911   2913     1   0.12183 533627.360000
   2911   6302     1   0.13789 357815.680000
   2916   2919     1   0.15375 251793.120000
   2916   2922     1   0.14647 272713.120000
   2919   2939     1   0.14619 275056.160000
   2922   2923     1   0.14647 272713.120000
   2922   2926     1   0.14647 272713.120000
   2923   2932     1   0.15375 251793.120000
   2926   2929     1   0.15375 251793.120000
   2929   2935     1   0.15241 261918.400000
   2932   2936     1   0.15241 261918.400000
   2935   6331     1   0.13789 357815.680000
   2935   2937     1   0.12183 533627.360000
   2936   2938     1   0.12183 533627.360000
   2936   6360     1   0.13789 357815.680000
   2941   2944     1   0.15375 251793.120000
   2941   2947     1   0.14647 272713.120000
   2944   2964     1   0.14619 275056.160000
   2947   2948     1   0.14647 272713.120000
   2947   2951     1   0.14647 272713.120000
   2948   2957     1   0.15375 251793.120000
   2951   2954     1   0.15375 251793.120000
   2954   2960     1   0.15241 261918.400000
   2957   2961     1   0.15241 261918.400000
   2960   6389     1   0.13789 357815.680000
   2960   2962     1   0.12183 533627.360000
   2961   2963     1   0.12183 533627.360000
   2961   6418     1   0.13789 357815.680000
   2966   2969     1   0.15375 251793.120000
   2966   2972     1   0.14647 272713.120000
   2969   2989     1   0.14619 275056.160000
   2972   2973     1   0.14647 272713.120000
   2972   2976     1   0.14647 272713.120000
   2973   2982     1   0.15375 251793.120000
   2976   2979     1   0.15375 251793.120000
   2979   2985     1   0.15241 261918.400000
   2982   2986     1   0.15241 261918.400000
   2985   6447     1   0.13789 357815.680000
   2985   2987     1   0.12183 533627.360000
   2986   2988     1   0.12183 533627.360000
   2986   6476     1   0.13789 357815.680000
   2991   2994     1   0.15375 251793.120000
   2991   2997     1   0.14647 272713.120000
   2994   3014     1   0.14619 275056.160000
   2997   2998     1   0.14647 272713.120000
   2997   3001     1   0.14647 272713.120000
   2998   3007     1   0.15375 251793.120000
   3001   3004     1   0.15375 251793.120000
   3004   3010     1   0.15241 261918.400000
   3007   3011     1   0.15241 261918.400000
   3010   6505     1   0.13789 357815.680000
   3010   3012     1   0.12183 533627.360000
   3011   3013     1   0.12183 533627.360000
   3011   6534     1   0.13789 357815.680000
   3016   3019     1   0.15375 251793.120000
   3016   3022     1   0.14647 272713.120000
   3019   3039     1   0.14619 275056.160000
   3022   3023     1   0.14647 272713.120000
   3022   3026     1   0.14647 272713.120000
   3023   3032     1   0.15375 251793.120000
   3026   3029     1   0.15375 251793.120000
   3029   3035     1   0.15241 261918.400000
   3032   3036     1   0.15241 261918.400000
   3035   6563     1   0.13789 357815.680000
   3035   3037     1   0.12183 533627.360000
   3036   3038     1   0.12183 533627.360000
   3036   6592     1   0.13789 357815.680000
   3041   3044     1   0.15375 251793.120000
   3041   3047     1   0.14647 272713.120000
   3044   3064     1   0.14619 275056.160000
   3047   3048     1   0.14647 272713.120000
   3047   3051     1   0.14647 272713.120000
   3048   3057     1   0.15375 251793.120000
   3051   3054     1   0.15375 251793.120000
   3054   3060     1   0.15241 261918.400000
   3057   3061     1   0.15241 261918.400000
   3060   6621     1   0.13789 357815.680000
   3060   3062     1   0.12183 533627.360000
   3061   3063     1   0.12183 533627.360000
   3061   6650     1   0.13789 357815.680000
   3066   3069     1   0.15375 251793.120000
   3066   3072     1   0.14647 272713.120000
   3069   3089     1   0.14619 275056.160000
   3072   3073     1   0.14647 272713.120000
   3072   3076     1   0.14647 272713.120000
   3073   3082     1   0.15375 251793.120000
   3076   3079     1   0.15375 251793.120000
   3079   3085     1   0.15241 261918.400000
   3082   3086     1   0.15241 261918.400000
   3085   6679     1   0.13789 357815.680000
   3085   3087     1   0.12183 533627.360000
   3086   3088     1   0.12183 533627.360000
   3086   6708     1   0.13789 357815.680000
   3091   3094     1   0.15375 251793.120000
   3091   3097     1   0.14647 272713.120000
   3094   3114     1   0.14619 275056.160000
   3097   3098     1   0.14647 272713.120000
   3097   3101     1   0.14647 272713.120000
   3098   3107     1   0.15375 251793.120000
   3101   3104     1   0.15375 251793.120000
   3104   3110     1   0.15241 261918.400000
   3107   3111     1   0.15241 261918.400000
   3110   6737     1   0.13789 357815.680000
   3110   3112     1   0.12183 533627.360000
   3111   3113     1   0.12183 533627.360000
   3111   6766     1   0.13789 357815.680000
   3116   3119     1   0.15375 251793.120000
   3116   3122     1   0.14647 272713.120000
   3119   3139     1   0.14619 275056.160000
   3122   3123     1   0.14647 272713.120000
   3122   3126     1   0.14647 272713.120000
   3123   3132     1   0.15375 251793.120000
   3126   3129     1   0.15375 251793.120000
   3129   3135     1   0.15241 261918.400000
   3132   3136     1   0.15241 261918.400000
   3135   6795     1   0.13789 357815.680000
   3135   3137     1   0.12183 533627.360000
   3136   6824     1   0.13789 357815.680000
   3136   3138     1   0.12183 533627.360000
   3141   3143     1   0.14619 275056.160000
   3143   3145     1   0.15375 251793.120000
   3145   3149     1   0.14647 272713.120000
   3149   3150     1   0.14647 272713.120000
   3149   3151     1   0.14647 272713.120000
   3150   3162     1   0.15375 251793.120000
   3151   3153     1   0.15375 251793.120000
   3153   3157     1   0.15241 261918.400000
   3157   3158     1   0.13513 334803.680000
   3157   3159     1   0.12183 533627.360000
   3162   3165     1   0.15241 261918.400000
   3165   3166     1   0.12183 533627.360000
   3165   3167     1   0.13513 334803.680000
   3170   3172     1   0.14619 275056.160000
   3172   3174     1   0.15375 251793.120000
   3174   3178     1   0.14647 272713.120000
   3178   3179     1   0.14647 272713.120000
   3178   3180     1   0.14647 272713.120000
   3179   3191     1   0.15375 251793.120000
   3180   3182     1   0.15375 251793.120000
   3182   3186     1   0.15241 261918.400000
   3186   3187     1   0.13513 334803.680000
   3186   3188     1   0.12183 533627.360000
   3191   3194     1   0.15241 261918.400000
   3194   3195     1   0.12183 533627.360000
   3194   3196     1   0.13513 334803.680000
   3199   3201     1   0.14619 275056.160000
   3201   3203     1   0.15375 251793.120000
   3203   3207     1   0.14647 272713.120000
   3207   3208     1   0.14647 272713.120000
   3207   3209     1   0.14647 272713.120000
   3208   3220     1   0.15375 251793.120000
   3209   3211     1   0.15375 251793.120000
   3211   3215     1   0.15241 261918.400000
   3215   3216     1   0.13513 334803.680000
   3215   3217     1   0.12183 533627.360000
   3220   3223     1   0.15241 261918.400000
   3223   3224     1   0.12183 533627.360000
   3223   3225     1   0.13513 334803.680000
   3228   3230     1   0.14619 275056.160000
   3230   3232     1   0.15375 251793.120000
   3232   3236     1   0.14647 272713.120000
   3236   3237     1   0.14647 272713.120000
   3236   3238     1   0.14647 272713.120000
   3237   3249     1   0.15375 251793.120000
   3238   3240     1   0.15375 251793.120000
   3240   3244     1   0.15241 261918.400000
   3244   3245     1   0.13513 334803.680000
   3244   3246     1   0.12183 533627.360000
   3249   3252     1   0.15241 261918.400000
   3252   3253     1   0.12183 533627.360000
   3252   3254     1   0.13513 334803.680000
   3257   3259     1   0.14619 275056.160000
   3259   3261     1   0.15375 251793.120000
   3261   3265     1   0.14647 272713.120000
   3265   3266     1   0.14647 272713.120000
   3265   3267     1   0.14647 272713.120000
   3266   3278     1   0.15375 251793.120000
   3267   3269     1   0.15375 251793.120000
   3269   3273     1   0.15241 261918.400000
   3273   3274     1   0.13513 334803.680000
   3273   3275     1   0.12183 533627.360000
   3278   3281     1   0.15241 261918.400000
   3281   3282     1   0.12183 533627.360000
   3281   3283     1   0.13513 334803.680000
   3286   3288     1   0.14619 275056.160000
   3288   3290     1   0.15375 251793.120000
   3290   3294     1   0.14647 272713.120000
   3294   3295     1   0.14647 272713.120000
   3294   3296     1   0.14647 272713.120000
   3295   3307     1   0.15375 251793.120000
   3296   3298     1   0.15375 251793.120000
   3298   3302     1   0.15241 261918.400000
   3302   3303     1   0.13513 334803.680000
   3302   3304     1   0.12183 533627.360000
   3307   3310     1   0.15241 261918.400000
   3310   3311     1   0.12183 533627.360000
   3310   3312     1   0.13513 334803.680000
   3315   3317     1   0.14619 275056.160000
   3317   3319     1   0.15375 251793.120000
   3319   3323     1   0.14647 272713.120000
   3323   3324     1   0.14647 272713.120000
   3323   3325     1   0.14647 272713.120000
   3324   3336     1   0.15375 251793.120000
   3325   3327     1   0.15375 251793.120000
   3327   3331     1   0.15241 261918.400000
   3331   3332     1   0.13513 334803.680000
   3331   3333     1   0.12183 533627.360000
   3336   3339     1   0.15241 261918.400000
   3339   3340     1   0.12183 533627.360000
   3339   3341     1   0.13513 334803.680000
   3344   3346     1   0.14619 275056.160000
   3346   3348     1   0.15375 251793.120000
   3348   3352     1   0.14647 272713.120000
   3352   3353     1   0.14647 272713.120000
   3352   3354     1   0.14647 272713.120000
   3353   3365     1   0.15375 251793.120000
   3354   3356     1   0.15375 251793.120000
   3356   3360     1   0.15241 261918.400000
   3360   3361     1   0.13513 334803.680000
   3360   3362     1   0.12183 533627.360000
   3365   3368     1   0.15241 261918.400000
   3368   3369     1   0.12183 533627.360000
   3368   3370     1   0.13513 334803.680000
   3373   3375     1   0.14619 275056.160000
   3375   3377     1   0.15375 251793.120000
   3377   3381     1   0.14647 272713.120000
   3381   3382     1   0.14647 272713.120000
   3381   3383     1   0.14647 272713.120000
   3382   3394     1   0.15375 251793.120000
   3383   3385     1   0.15375 251793.120000
   3385   3389     1   0.15241 261918.400000
   3389   3390     1   0.13513 334803.680000
   3389   3391     1   0.12183 533627.360000
   3394   3397     1   0.15241 261918.400000
   3397   3398     1   0.12183 533627.360000
   3397   3399     1   0.13513 334803.680000
   3402   3404     1   0.14619 275056.160000
   3404   3406     1   0.15375 251793.120000
   3406   3410     1   0.14647 272713.120000
   3410   3411     1   0.14647 272713.120000
   3410   3412     1   0.14647 272713.120000
   3411   3423     1   0.15375 251793.120000
   3412   3414     1   0.15375 251793.120000
   3414   3418     1   0.15241 261918.400000
   3418   3419     1   0.13513 334803.680000
   3418   3420     1   0.12183 533627.360000
   3423   3426     1   0.15241 261918.400000
   3426   3427     1   0.12183 533627.360000
   3426   3428     1   0.13513 334803.680000
   3431   3433     1   0.14619 275056.160000
   3433   3435     1   0.15375 251793.120000
   3435   3439     1   0.14647 272713.120000
   3439   3440     1   0.14647 272713.120000
   3439   3441     1   0.14647 272713.120000
   3440   3452     1   0.15375 251793.120000
   3441   3443     1   0.15375 251793.120000
   3443   3447     1   0.15241 261918.400000
   3447   3448     1   0.13513 334803.680000
   3447   3449     1   0.12183 533627.360000
   3452   3455     1   0.15241 261918.400000
   3455   3456     1   0.12183 533627.360000
   3455   3457     1   0.13513 334803.680000
   3460   3462     1   0.14619 275056.160000
   3462   3464     1   0.15375 251793.120000
   3464   3468     1   0.14647 272713.120000
   3468   3469     1   0.14647 272713.120000
   3468   3470     1   0.14647 272713.120000
   3469   3481     1   0.15375 251793.120000
   3470   3472     1   0.15375 251793.120000
   3472   3476     1   0.15241 261918.400000
   3476   3477     1   0.13513 334803.680000
   3476   3478     1   0.12183 533627.360000
   3481   3484     1   0.15241 261918.400000
   3484   3485     1   0.12183 533627.360000
   3484   3486     1   0.13513 334803.680000
   3489   3491     1   0.14619 275056.160000
   3491   3493     1   0.15375 251793.120000
   3493   3497     1   0.14647 272713.120000
   3497   3498     1   0.14647 272713.120000
   3497   3499     1   0.14647 272713.120000
   3498   3510     1   0.15375 251793.120000
   3499   3501     1   0.15375 251793.120000
   3501   3505     1   0.15241 261918.400000
   3505   3506     1   0.13513 334803.680000
   3505   3507     1   0.12183 533627.360000
   3510   3513     1   0.15241 261918.400000
   3513   3514     1   0.12183 533627.360000
   3513   3515     1   0.13513 334803.680000
   3518   3520     1   0.14619 275056.160000
   3520   3522     1   0.15375 251793.120000
   3522   3526     1   0.14647 272713.120000
   3526   3527     1   0.14647 272713.120000
   3526   3528     1   0.14647 272713.120000
   3527   3539     1   0.15375 251793.120000
   3528   3530     1   0.15375 251793.120000
   3530   3534     1   0.15241 261918.400000
   3534   3535     1   0.13513 334803.680000
   3534   3536     1   0.12183 533627.360000
   3539   3542     1   0.15241 261918.400000
   3542   3543     1   0.12183 533627.360000
   3542   3544     1   0.13513 334803.680000
   3547   3549     1   0.14619 275056.160000
   3549   3551     1   0.15375 251793.120000
   3551   3555     1   0.14647 272713.120000
   3555   3556     1   0.14647 272713.120000
   3555   3557     1   0.14647 272713.120000
   3556   3568     1   0.15375 251793.120000
   3557   3559     1   0.15375 251793.120000
   3559   3563     1   0.15241 261918.400000
   3563   3564     1   0.13513 334803.680000
   3563   3565     1   0.12183 533627.360000
   3568   3571     1   0.15241 261918.400000
   3571   3572     1   0.12183 533627.360000
   3571   3573     1   0.13513 334803.680000
   3576   3578     1   0.14619 275056.160000
   3578   3580     1   0.15375 251793.120000
   3580   3584     1   0.14647 272713.120000
   3584   3585     1   0.14647 272713.120000
   3584   3586     1   0.14647 272713.120000
   3585   3597     1   0.15375 251793.120000
   3586   3588     1   0.15375 251793.120000
   3588   3592     1   0.15241 261918.400000
   3592   3593     1   0.13513 334803.680000
   3592   3594     1   0.12183 533627.360000
   3597   3600     1   0.15241 261918.400000
   3600   3601     1   0.12183 533627.360000
   3600   3602     1   0.13513 334803.680000
   3605   3607     1   0.14619 275056.160000
   3607   3609     1   0.15375 251793.120000
   3609   3613     1   0.14647 272713.120000
   3613   3614     1   0.14647 272713.120000
   3613   3615     1   0.14647 272713.120000
   3614   3626     1   0.15375 251793.120000
   3615   3617     1   0.15375 251793.120000
   3617   3621     1   0.15241 261918.400000
   3621   3622     1   0.13513 334803.680000
   3621   3623     1   0.12183 533627.360000
   3626   3629     1   0.15241 261918.400000
   3629   3630     1   0.12183 533627.360000
   3629   3631     1   0.13513 334803.680000
   3634   3636     1   0.14619 275056.160000
   3636   3638     1   0.15375 251793.120000
   3638   3642     1   0.14647 272713.120000
   3642   3643     1   0.14647 272713.120000
   3642   3644     1   0.14647 272713.120000
   3643   3655     1   0.15375 251793.120000
   3644   3646     1   0.15375 251793.120000
   3646   3650     1   0.15241 261918.400000
   3650   3651     1   0.13513 334803.680000
   3650   3652     1   0.12183 533627.360000
   3655   3658     1   0.15241 261918.400000
   3658   3659     1   0.12183 533627.360000
   3658   3660     1   0.13513 334803.680000
   3663   3665     1   0.14619 275056.160000
   3665   3667     1   0.15375 251793.120000
   3667   3671     1   0.14647 272713.120000
   3671   3672     1   0.14647 272713.120000
   3671   3673     1   0.14647 272713.120000
   3672   3684     1   0.15375 251793.120000
   3673   3675     1   0.15375 251793.120000
   3675   3679     1   0.15241 261918.400000
   3679   3680     1   0.13513 334803.680000
   3679   3681     1   0.12183 533627.360000
   3684   3687     1   0.15241 261918.400000
   3687   3688     1   0.12183 533627.360000
   3687   3689     1   0.13513 334803.680000
   3692   3694     1   0.14619 275056.160000
   3694   3696     1   0.15375 251793.120000
   3696   3700     1   0.14647 272713.120000
   3700   3701     1   0.14647 272713.120000
   3700   3702     1   0.14647 272713.120000
   3701   3713     1   0.15375 251793.120000
   3702   3704     1   0.15375 251793.120000
   3704   3708     1   0.15241 261918.400000
   3708   3709     1   0.13513 334803.680000
   3708   3710     1   0.12183 533627.360000
   3713   3716     1   0.15241 261918.400000
   3716   3717     1   0.12183 533627.360000
   3716   3718     1   0.13513 334803.680000
   3721   3723     1   0.14619 275056.160000
   3723   3725     1   0.15375 251793.120000
   3725   3729     1   0.14647 272713.120000
   3729   3730     1   0.14647 272713.120000
   3729   3731     1   0.14647 272713.120000
   3730   3742     1   0.15375 251793.120000
   3731   3733     1   0.15375 251793.120000
   3733   3737     1   0.15241 261918.400000
   3737   3738     1   0.13513 334803.680000
   3737   3739     1   0.12183 533627.360000
   3742   3745     1   0.15241 261918.400000
   3745   3746     1   0.12183 533627.360000
   3745   3747     1   0.13513 334803.680000
   3750   3752     1   0.14619 275056.160000
   3752   3754     1   0.15375 251793.120000
   3754   3758     1   0.14647 272713.120000
   3758   3759     1   0.14647 272713.120000
   3758   3760     1   0.14647 272713.120000
   3759   3771     1   0.15375 251793.120000
   3760   3762     1   0.15375 251793.120000
   3762   3766     1   0.15241 261918.400000
   3766   3767     1   0.13513 334803.680000
   3766   3768     1   0.12183 533627.360000
   3771   3774     1   0.15241 261918.400000
   3774   3775     1   0.12183 533627.360000
   3774   3776     1   0.13513 334803.680000
   3779   3781     1   0.14619 275056.160000
   3781   3783     1   0.15375 251793.120000
   3783   3787     1   0.14647 272713.120000
   3787   3788     1   0.14647 272713.120000
   3787   3789     1   0.14647 272713.120000
   3788   3800     1   0.15375 251793.120000
   3789   3791     1   0.15375 251793.120000
   3791   3795     1   0.15241 261918.400000
   3795   3796     1   0.13513 334803.680000
   3795   3797     1   0.12183 533627.360000
   3800   3803     1   0.15241 261918.400000
   3803   3804     1   0.12183 533627.360000
   3803   3805     1   0.13513 334803.680000
   3808   3810     1   0.14619 275056.160000
   3810   3812     1   0.15375 251793.120000
   3812   3816     1   0.14647 272713.120000
   3816   3817     1   0.14647 272713.120000
   3816   3818     1   0.14647 272713.120000
   3817   3829     1   0.15375 251793.120000
   3818   3820     1   0.15375 251793.120000
   3820   3824     1   0.15241 261918.400000
   3824   3825     1   0.13513 334803.680000
   3824   3826     1   0.12183 533627.360000
   3829   3832     1   0.15241 261918.400000
   3832   3833     1   0.12183 533627.360000
   3832   3834     1   0.13513 334803.680000
   3837   3839     1   0.14619 275056.160000
   3839   3841     1   0.15375 251793.120000
   3841   3845     1   0.14647 272713.120000
   3845   3846     1   0.14647 272713.120000
   3845   3847     1   0.14647 272713.120000
   3846   3858     1   0.15375 251793.120000
   3847   3849     1   0.15375 251793.120000
   3849   3853     1   0.15241 261918.400000
   3853   3854     1   0.13513 334803.680000
   3853   3855     1   0.12183 533627.360000
   3858   3861     1   0.15241 261918.400000
   3861   3862     1   0.12183 533627.360000
   3861   3863     1   0.13513 334803.680000
   3866   3868     1   0.14619 275056.160000
   3868   3870     1   0.15375 251793.120000
   3870   3874     1   0.14647 272713.120000
   3874   3875     1   0.14647 272713.120000
   3874   3876     1   0.14647 272713.120000
   3875   3887     1   0.15375 251793.120000
   3876   3878     1   0.15375 251793.120000
   3878   3882     1   0.15241 261918.400000
   3882   3883     1   0.13513 334803.680000
   3882   3884     1   0.12183 533627.360000
   3887   3890     1   0.15241 261918.400000
   3890   3891     1   0.12183 533627.360000
   3890   3892     1   0.13513 334803.680000
   3895   3897     1   0.14619 275056.160000
   3897   3899     1   0.15375 251793.120000
   3899   3903     1   0.14647 272713.120000
   3903   3904     1   0.14647 272713.120000
   3903   3905     1   0.14647 272713.120000
   3904   3916     1   0.15375 251793.120000
   3905   3907     1   0.15375 251793.120000
   3907   3911     1   0.15241 261918.400000
   3911   3912     1   0.13513 334803.680000
   3911   3913     1   0.12183 533627.360000
   3916   3919     1   0.15241 261918.400000
   3919   3920     1   0.12183 533627.360000
   3919   3921     1   0.13513 334803.680000
   3924   3926     1   0.14619 275056.160000
   3926   3928     1   0.15375 251793.120000
   3928   3932     1   0.14647 272713.120000
   3932   3933     1   0.14647 272713.120000
   3932   3934     1   0.14647 272713.120000
   3933   3945     1   0.15375 251793.120000
   3934   3936     1   0.15375 251793.120000
   3936   3940     1   0.15241 261918.400000
   3940   3941     1   0.13513 334803.680000
   3940   3942     1   0.12183 533627.360000
   3945   3948     1   0.15241 261918.400000
   3948   3949     1   0.12183 533627.360000
   3948   3950     1   0.13513 334803.680000
   3953   3955     1   0.14619 275056.160000
   3955   3957     1   0.15375 251793.120000
   3957   3961     1   0.14647 272713.120000
   3961   3962     1   0.14647 272713.120000
   3961   3963     1   0.14647 272713.120000
   3962   3974     1   0.15375 251793.120000
   3963   3965     1   0.15375 251793.120000
   3965   3969     1   0.15241 261918.400000
   3969   3970     1   0.13513 334803.680000
   3969   3971     1   0.12183 533627.360000
   3974   3977     1   0.15241 261918.400000
   3977   3978     1   0.12183 533627.360000
   3977   3979     1   0.13513 334803.680000
   3982   3984     1   0.14619 275056.160000
   3984   3986     1   0.15375 251793.120000
   3986   3990     1   0.14647 272713.120000
   3990   3991     1   0.14647 272713.120000
   3990   3992     1   0.14647 272713.120000
   3991   4003     1   0.15375 251793.120000
   3992   3994     1   0.15375 251793.120000
   3994   3998     1   0.15241 261918.400000
   3998   3999     1   0.13513 334803.680000
   3998   4000     1   0.12183 533627.360000
   4003   4006     1   0.15241 261918.400000
   4006   4007     1   0.12183 533627.360000
   4006   4008     1   0.13513 334803.680000
   4011   4013     1   0.14619 275056.160000
   4013   4015     1   0.15375 251793.120000
   4015   4019     1   0.14647 272713.120000
   4019   4020     1   0.14647 272713.120000
   4019   4021     1   0.14647 272713.120000
   4020   4032     1   0.15375 251793.120000
   4021   4023     1   0.15375 251793.120000
   4023   4027     1   0.15241 261918.400000
   4027   4028     1   0.13513 334803.680000
   4027   4029     1   0.12183 533627.360000
   4032   4035     1   0.15241 261918.400000
   4035   4036     1   0.12183 533627.360000
   4035   4037     1   0.13513 334803.680000
   4040   4042     1   0.14619 275056.160000
   4042   4044     1   0.15375 251793.120000
   4044   4048     1   0.14647 272713.120000
   4048   4049     1   0.14647 272713.120000
   4048   4050     1   0.14647 272713.120000
   4049   4061     1   0.15375 251793.120000
   4050   4052     1   0.15375 251793.120000
   4052   4056     1   0.15241 261918.400000
   4056   4057     1   0.13513 334803.680000
   4056   4058     1   0.12183 533627.360000
   4061   4064     1   0.15241 261918.400000
   4064   4065     1   0.12183 533627.360000
   4064   4066     1   0.13513 334803.680000
   4069   4071     1   0.14619 275056.160000
   4071   4073     1   0.15375 251793.120000
   4073   4077     1   0.14647 272713.120000
   4077   4078     1   0.14647 272713.120000
   4077   4079     1   0.14647 272713.120000
   4078   4090     1   0.15375 251793.120000
   4079   4081     1   0.15375 251793.120000
   4081   4085     1   0.15241 261918.400000
   4085   4086     1   0.13513 334803.680000
   4085   4087     1   0.12183 533627.360000
   4090   4093     1   0.15241 261918.400000
   4093   4094     1   0.12183 533627.360000
   4093   4095     1   0.13513 334803.680000
   4098   4100     1   0.14619 275056.160000
   4100   4102     1   0.15375 251793.120000
   4102   4106     1   0.14647 272713.120000
   4106   4107     1   0.14647 272713.120000
   4106   4108     1   0.14647 272713.120000
   4107   4119     1   0.15375 251793.120000
   4108   4110     1   0.15375 251793.120000
   4110   4114     1   0.15241 261918.400000
   4114   4115     1   0.13513 334803.680000
   4114   4116     1   0.12183 533627.360000
   4119   4122     1   0.15241 261918.400000
   4122   4123     1   0.12183 533627.360000
   4122   4124     1   0.13513 334803.680000
   4127   4129     1   0.14619 275056.160000
   4129   4131     1   0.15375 251793.120000
   4131   4135     1   0.14647 272713.120000
   4135   4136     1   0.14647 272713.120000
   4135   4137     1   0.14647 272713.120000
   4136   4148     1   0.15375 251793.120000
   4137   4139     1   0.15375 251793.120000
   4139   4143     1   0.15241 261918.400000
   4143   4144     1   0.13513 334803.680000
   4143   4145     1   0.12183 533627.360000
   4148   4151     1   0.15241 261918.400000
   4151   4152     1   0.12183 533627.360000
   4151   4153     1   0.13513 334803.680000
   4156   4158     1   0.14619 275056.160000
   4158   4160     1   0.15375 251793.120000
   4160   4164     1   0.14647 272713.120000
   4164   4165     1   0.14647 272713.120000
   4164   4166     1   0.14647 272713.120000
   4165   4177     1   0.15375 251793.120000
   4166   4168     1   0.15375 251793.120000
   4168   4172     1   0.15241 261918.400000
   4172   4173     1   0.13513 334803.680000
   4172   4174     1   0.12183 533627.360000
   4177   4180     1   0.15241 261918.400000
   4180   4181     1   0.12183 533627.360000
   4180   4182     1   0.13513 334803.680000
   4185   4187     1   0.14619 275056.160000
   4187   4189     1   0.15375 251793.120000
   4189   4193     1   0.14647 272713.120000
   4193   4194     1   0.14647 272713.120000
   4193   4195     1   0.14647 272713.120000
   4194   4206     1   0.15375 251793.120000
   4195   4197     1   0.15375 251793.120000
   4197   4201     1   0.15241 261918.400000
   4201   4202     1   0.13513 334803.680000
   4201   4203     1   0.12183 533627.360000
   4206   4209     1   0.15241 261918.400000
   4209   4210     1   0.12183 533627.360000
   4209   4211     1   0.13513 334803.680000
   4214   4216     1   0.14619 275056.160000
   4216   4218     1   0.15375 251793.120000
   4218   4222     1   0.14647 272713.120000
   4222   4223     1   0.14647 272713.120000
   4222   4224     1   0.14647 272713.120000
   4223   4235     1   0.15375 251793.120000
   4224   4226     1   0.15375 251793.120000
   4226   4230     1   0.15241 261918.400000
   4230   4231     1   0.13513 334803.680000
   4230   4232     1   0.12183 533627.360000
   4235   4238     1   0.15241 261918.400000
   4238   4239     1   0.12183 533627.360000
   4238   4240     1   0.13513 334803.680000
   4243   4245     1   0.14619 275056.160000
   4245   4247     1   0.15375 251793.120000
   4247   4251     1   0.14647 272713.120000
   4251   4252     1   0.14647 272713.120000
   4251   4253     1   0.14647 272713.120000
   4252   4264     1   0.15375 251793.120000
   4253   4255     1   0.15375 251793.120000
   4255   4259     1   0.15241 261918.400000
   4259   4260     1   0.13513 334803.680000
   4259   4261     1   0.12183 533627.360000
   4264   4267     1   0.15241 261918.400000
   4267   4268     1   0.12183 533627.360000
   4267   4269     1   0.13513 334803.680000
   4272   4274     1   0.14619 275056.160000
   4274   4276     1   0.15375 251793.120000
   4276   4280     1   0.14647 272713.120000
   4280   4281     1   0.14647 272713.120000
   4280   4282     1   0.14647 272713.120000
   4281   4293     1   0.15375 251793.120000
   4282   4284     1   0.15375 251793.120000
   4284   4288     1   0.15241 261918.400000
   4288   4289     1   0.13513 334803.680000
   4288   4290     1   0.12183 533627.360000
   4293   4296     1   0.15241 261918.400000
   4296   4297     1   0.12183 533627.360000
   4296   4298     1   0.13513 334803.680000
   4301   4303     1   0.14619 275056.160000
   4303   4305     1   0.15375 251793.120000
   4305   4309     1   0.14647 272713.120000
   4309   4310     1   0.14647 272713.120000
   4309   4311     1   0.14647 272713.120000
   4310   4322     1   0.15375 251793.120000
   4311   4313     1   0.15375 251793.120000
   4313   4317     1   0.15241 261918.400000
   4317   4318     1   0.13513 334803.680000
   4317   4319     1   0.12183 533627.360000
   4322   4325     1   0.15241 261918.400000
   4325   4326     1   0.12183 533627.360000
   4325   4327     1   0.13513 334803.680000
   4330   4332     1   0.14619 275056.160000
   4332   4334     1   0.15375 251793.120000
   4334   4338     1   0.14647 272713.120000
   4338   4339     1   0.14647 272713.120000
   4338   4340     1   0.14647 272713.120000
   4339   4351     1   0.15375 251793.120000
   4340   4342     1   0.15375 251793.120000
   4342   4346     1   0.15241 261918.400000
   4346   4347     1   0.13513 334803.680000
   4346   4348     1   0.12183 533627.360000
   4351   4354     1   0.15241 261918.400000
   4354   4355     1   0.12183 533627.360000
   4354   4356     1   0.13513 334803.680000
   4359   4361     1   0.14619 275056.160000
   4361   4363     1   0.15375 251793.120000
   4363   4367     1   0.14647 272713.120000
   4367   4368     1   0.14647 272713.120000
   4367   4369     1   0.14647 272713.120000
   4368   4380     1   0.15375 251793.120000
   4369   4371     1   0.15375 251793.120000
   4371   4375     1   0.15241 261918.400000
   4375   4376     1   0.13513 334803.680000
   4375   4377     1   0.12183 533627.360000
   4380   4383     1   0.15241 261918.400000
   4383   4384     1   0.12183 533627.360000
   4383   4385     1   0.13513 334803.680000
   4388   4390     1   0.14619 275056.160000
   4390   4392     1   0.15375 251793.120000
   4392   4396     1   0.14647 272713.120000
   4396   4397     1   0.14647 272713.120000
   4396   4398     1   0.14647 272713.120000
   4397   4409     1   0.15375 251793.120000
   4398   4400     1   0.15375 251793.120000
   4400   4404     1   0.15241 261918.400000
   4404   4405     1   0.13513 334803.680000
   4404   4406     1   0.12183 533627.360000
   4409   4412     1   0.15241 261918.400000
   4412   4413     1   0.12183 533627.360000
   4412   4414     1   0.13513 334803.680000
   4417   4419     1   0.14619 275056.160000
   4419   4421     1   0.15375 251793.120000
   4421   4425     1   0.14647 272713.120000
   4425   4426     1   0.14647 272713.120000
   4425   4427     1   0.14647 272713.120000
   4426   4438     1   0.15375 251793.120000
   4427   4429     1   0.15375 251793.120000
   4429   4433     1   0.15241 261918.400000
   4433   4434     1   0.13513 334803.680000
   4433   4435     1   0.12183 533627.360000
   4438   4441     1   0.15241 261918.400000
   4441   4442     1   0.12183 533627.360000
   4441   4443     1   0.13513 334803.680000
   4446   4448     1   0.14619 275056.160000
   4448   4450     1   0.15375 251793.120000
   4450   4454     1   0.14647 272713.120000
   4454   4455     1   0.14647 272713.120000
   4454   4456     1   0.14647 272713.120000
   4455   4467     1   0.15375 251793.120000
   4456   4458     1   0.15375 251793.120000
   4458   4462     1   0.15241 261918.400000
   4462   4463     1   0.13513 334803.680000
   4462   4464     1   0.12183 533627.360000
   4467   4470     1   0.15241 261918.400000
   4470   4471     1   0.12183 533627.360000
   4470   4472     1   0.13513 334803.680000
   4475   4477     1   0.14619 275056.160000
   4477   4479     1   0.15375 251793.120000
   4479   4483     1   0.14647 272713.120000
   4483   4484     1   0.14647 272713.120000
   4483   4485     1   0.14647 272713.120000
   4484   4496     1   0.15375 251793.120000
   4485   4487     1   0.15375 251793.120000
   4487   4491     1   0.15241 261918.400000
   4491   4492     1   0.13513 334803.680000
   4491   4493     1   0.12183 533627.360000
   4496   4499     1   0.15241 261918.400000
   4499   4500     1   0.12183 533627.360000
   4499   4501     1   0.13513 334803.680000
   4504   4506     1   0.14619 275056.160000
   4506   4508     1   0.15375 251793.120000
   4508   4512     1   0.14647 272713.120000
   4512   4513     1   0.14647 272713.120000
   4512   4514     1   0.14647 272713.120000
   4513   4525     1   0.15375 251793.120000
   4514   4516     1   0.15375 251793.120000
   4516   4520     1   0.15241 261918.400000
   4520   4521     1   0.13513 334803.680000
   4520   4522     1   0.12183 533627.360000
   4525   4528     1   0.15241 261918.400000
   4528   4529     1   0.12183 533627.360000
   4528   4530     1   0.13513 334803.680000
   4533   4535     1   0.14619 275056.160000
   4535   4537     1   0.15375 251793.120000
   4537   4541     1   0.14647 272713.120000
   4541   4542     1   0.14647 272713.120000
   4541   4543     1   0.14647 272713.120000
   4542   4554     1   0.15375 251793.120000
   4543   4545     1   0.15375 251793.120000
   4545   4549     1   0.15241 261918.400000
   4549   4550     1   0.13513 334803.680000
   4549   4551     1   0.12183 533627.360000
   4554   4557     1   0.15241 261918.400000
   4557   4558     1   0.12183 533627.360000
   4557   4559     1   0.13513 334803.680000
   4562   4564     1   0.14619 275056.160000
   4564   4566     1   0.15375 251793.120000
   4566   4570     1   0.14647 272713.120000
   4570   4571     1   0.14647 272713.120000
   4570   4572     1   0.14647 272713.120000
   4571   4583     1   0.15375 251793.120000
   4572   4574     1   0.15375 251793.120000
   4574   4578     1   0.15241 261918.400000
   4578   4579     1   0.13513 334803.680000
   4578   4580     1   0.12183 533627.360000
   4583   4586     1   0.15241 261918.400000
   4586   4587     1   0.12183 533627.360000
   4586   4588     1   0.13513 334803.680000
   4591   4593     1   0.14619 275056.160000
   4593   4595     1   0.15375 251793.120000
   4595   4599     1   0.14647 272713.120000
   4599   4600     1   0.14647 272713.120000
   4599   4601     1   0.14647 272713.120000
   4600   4612     1   0.15375 251793.120000
   4601   4603     1   0.15375 251793.120000
   4603   4607     1   0.15241 261918.400000
   4607   4608     1   0.13513 334803.680000
   4607   4609     1   0.12183 533627.360000
   4612   4615     1   0.15241 261918.400000
   4615   4616     1   0.12183 533627.360000
   4615   4617     1   0.13513 334803.680000
   4620   4622     1   0.14619 275056.160000
   4622   4624     1   0.15375 251793.120000
   4624   4628     1   0.14647 272713.120000
   4628   4629     1   0.14647 272713.120000
   4628   4630     1   0.14647 272713.120000
   4629   4641     1   0.15375 251793.120000
   4630   4632     1   0.15375 251793.120000
   4632   4636     1   0.15241 261918.400000
   4636   4637     1   0.13513 334803.680000
   4636   4638     1   0.12183 533627.360000
   4641   4644     1   0.15241 261918.400000
   4644   4645     1   0.12183 533627.360000
   4644   4646     1   0.13513 334803.680000
   4649   4651     1   0.14619 275056.160000
   4651   4653     1   0.15375 251793.120000
   4653   4657     1   0.14647 272713.120000
   4657   4658     1   0.14647 272713.120000
   4657   4659     1   0.14647 272713.120000
   4658   4670     1   0.15375 251793.120000
   4659   4661     1   0.15375 251793.120000
   4661   4665     1   0.15241 261918.400000
   4665   4666     1   0.13513 334803.680000
   4665   4667     1   0.12183 533627.360000
   4670   4673     1   0.15241 261918.400000
   4673   4674     1   0.12183 533627.360000
   4673   4675     1   0.13513 334803.680000
   4678   4680     1   0.14619 275056.160000
   4680   4682     1   0.15375 251793.120000
   4682   4686     1   0.14647 272713.120000
   4686   4687     1   0.14647 272713.120000
   4686   4688     1   0.14647 272713.120000
   4687   4699     1   0.15375 251793.120000
   4688   4690     1   0.15375 251793.120000
   4690   4694     1   0.15241 261918.400000
   4694   4695     1   0.13513 334803.680000
   4694   4696     1   0.12183 533627.360000
   4699   4702     1   0.15241 261918.400000
   4702   4703     1   0.12183 533627.360000
   4702   4704     1   0.13513 334803.680000
   4707   4709     1   0.14619 275056.160000
   4709   4711     1   0.15375 251793.120000
   4711   4715     1   0.14647 272713.120000
   4715   4716     1   0.14647 272713.120000
   4715   4717     1   0.14647 272713.120000
   4716   4728     1   0.15375 251793.120000
   4717   4719     1   0.15375 251793.120000
   4719   4723     1   0.15241 261918.400000
   4723   4724     1   0.13513 334803.680000
   4723   4725     1   0.12183 533627.360000
   4728   4731     1   0.15241 261918.400000
   4731   4732     1   0.12183 533627.360000
   4731   4733     1   0.13513 334803.680000
   4736   4738     1   0.14619 275056.160000
   4738   4740     1   0.15375 251793.120000
   4740   4744     1   0.14647 272713.120000
   4744   4745     1   0.14647 272713.120000
   4744   4746     1   0.14647 272713.120000
   4745   4757     1   0.15375 251793.120000
   4746   4748     1   0.15375 251793.120000
   4748   4752     1   0.15241 261918.400000
   4752   4753     1   0.13513 334803.680000
   4752   4754     1   0.12183 533627.360000
   4757   4760     1   0.15241 261918.400000
   4760   4761     1   0.12183 533627.360000
   4760   4762     1   0.13513 334803.680000
   4765   4767     1   0.14619 275056.160000
   4767   4769     1   0.15375 251793.120000
   4769   4773     1   0.14647 272713.120000
   4773   4774     1   0.14647 272713.120000
   4773   4775     1   0.14647 272713.120000
   4774   4786     1   0.15375 251793.120000
   4775   4777     1   0.15375 251793.120000
   4777   4781     1   0.15241 261918.400000
   4781   4782     1   0.13513 334803.680000
   4781   4783     1   0.12183 533627.360000
   4786   4789     1   0.15241 261918.400000
   4789   4790     1   0.12183 533627.360000
   4789   4791     1   0.13513 334803.680000
   4794   4796     1   0.14619 275056.160000
   4796   4798     1   0.15375 251793.120000
   4798   4802     1   0.14647 272713.120000
   4802   4803     1   0.14647 272713.120000
   4802   4804     1   0.14647 272713.120000
   4803   4815     1   0.15375 251793.120000
   4804   4806     1   0.15375 251793.120000
   4806   4810     1   0.15241 261918.400000
   4810   4811     1   0.13513 334803.680000
   4810   4812     1   0.12183 533627.360000
   4815   4818     1   0.15241 261918.400000
   4818   4819     1   0.12183 533627.360000
   4818   4820     1   0.13513 334803.680000
   4823   4825     1   0.14619 275056.160000
   4825   4827     1   0.15375 251793.120000
   4827   4831     1   0.14647 272713.120000
   4831   4832     1   0.14647 272713.120000
   4831   4833     1   0.14647 272713.120000
   4832   4844     1   0.15375 251793.120000
   4833   4835     1   0.15375 251793.120000
   4835   4839     1   0.15241 261918.400000
   4839   4840     1   0.13513 334803.680000
   4839   4841     1   0.12183 533627.360000
   4844   4847     1   0.15241 261918.400000
   4847   4848     1   0.12183 533627.360000
   4847   4849     1   0.13513 334803.680000
   4852   4854     1   0.14619 275056.160000
   4854   4856     1   0.15375 251793.120000
   4856   4860     1   0.14647 272713.120000
   4860   4861     1   0.14647 272713.120000
   4860   4862     1   0.14647 272713.120000
   4861   4873     1   0.15375 251793.120000
   4862   4864     1   0.15375 251793.120000
   4864   4868     1   0.15241 261918.400000
   4868   4869     1   0.13513 334803.680000
   4868   4870     1   0.12183 533627.360000
   4873   4876     1   0.15241 261918.400000
   4876   4877     1   0.12183 533627.360000
   4876   4878     1   0.13513 334803.680000
   4881   4883     1   0.14619 275056.160000
   4883   4885     1   0.15375 251793.120000
   4885   4889     1   0.14647 272713.120000
   4889   4890     1   0.14647 272713.120000
   4889   4891     1   0.14647 272713.120000
   4890   4902     1   0.15375 251793.120000
   4891   4893     1   0.15375 251793.120000
   4893   4897     1   0.15241 261918.400000
   4897   4898     1   0.13513 334803.680000
   4897   4899     1   0.12183 533627.360000
   4902   4905     1   0.15241 261918.400000
   4905   4906     1   0.12183 533627.360000
   4905   4907     1   0.13513 334803.680000
   4910   4912     1   0.14619 275056.160000
   4912   4914     1   0.15375 251793.120000
   4914   4918     1   0.14647 272713.120000
   4918   4919     1   0.14647 272713.120000
   4918   4920     1   0.14647 272713.120000
   4919   4931     1   0.15375 251793.120000
   4920   4922     1   0.15375 251793.120000
   4922   4926     1   0.15241 261918.400000
   4926   4927     1   0.13513 334803.680000
   4926   4928     1   0.12183 533627.360000
   4931   4934     1   0.15241 261918.400000
   4934   4935     1   0.12183 533627.360000
   4934   4936     1   0.13513 334803.680000
   4939   4941     1   0.14619 275056.160000
   4941   4943     1   0.15375 251793.120000
   4943   4947     1   0.14647 272713.120000
   4947   4948     1   0.14647 272713.120000
   4947   4949     1   0.14647 272713.120000
   4948   4960     1   0.15375 251793.120000
   4949   4951     1   0.15375 251793.120000
   4951   4955     1   0.15241 261918.400000
   4955   4956     1   0.13513 334803.680000
   4955   4957     1   0.12183 533627.360000
   4960   4963     1   0.15241 261918.400000
   4963   4964     1   0.12183 533627.360000
   4963   4965     1   0.13513 334803.680000
   4968   4970     1   0.14619 275056.160000
   4970   4972     1   0.15375 251793.120000
   4972   4976     1   0.14647 272713.120000
   4976   4977     1   0.14647 272713.120000
   4976   4978     1   0.14647 272713.120000
   4977   4989     1   0.15375 251793.120000
   4978   4980     1   0.15375 251793.120000
   4980   4984     1   0.15241 261918.400000
   4984   4985     1   0.13513 334803.680000
   4984   4986     1   0.12183 533627.360000
   4989   4992     1   0.15241 261918.400000
   4992   4993     1   0.12183 533627.360000
   4992   4994     1   0.13513 334803.680000
   4997   4999     1   0.14619 275056.160000
   4999   5001     1   0.15375 251793.120000
   5001   5005     1   0.14647 272713.120000
   5005   5006     1   0.14647 272713.120000
   5005   5007     1   0.14647 272713.120000
   5006   5018     1   0.15375 251793.120000
   5007   5009     1   0.15375 251793.120000
   5009   5013     1   0.15241 261918.400000
   5013   5014     1   0.13513 334803.680000
   5013   5015     1   0.12183 533627.360000
   5018   5021     1   0.15241 261918.400000
   5021   5022     1   0.12183 533627.360000
   5021   5023     1   0.13513 334803.680000
   5026   5028     1   0.14619 275056.160000
   5028   5030     1   0.15375 251793.120000
   5030   5034     1   0.14647 272713.120000
   5034   5035     1   0.14647 272713.120000
   5034   5036     1   0.14647 272713.120000
   5035   5047     1   0.15375 251793.120000
   5036   5038     1   0.15375 251793.120000
   5038   5042     1   0.15241 261918.400000
   5042   5043     1   0.13513 334803.680000
   5042   5044     1   0.12183 533627.360000
   5047   5050     1   0.15241 261918.400000
   5050   5051     1   0.12183 533627.360000
   5050   5052     1   0.13513 334803.680000
   5055   5057     1   0.14619 275056.160000
   5057   5059     1   0.15375 251793.120000
   5059   5063     1   0.14647 272713.120000
   5063   5064     1   0.14647 272713.120000
   5063   5065     1   0.14647 272713.120000
   5064   5076     1   0.15375 251793.120000
   5065   5067     1   0.15375 251793.120000
   5067   5071     1   0.15241 261918.400000
   5071   5072     1   0.13513 334803.680000
   5071   5073     1   0.12183 533627.360000
   5076   5079     1   0.15241 261918.400000
   5079   5080     1   0.12183 533627.360000
   5079   5081     1   0.13513 334803.680000
   5084   5086     1   0.14619 275056.160000
   5086   5088     1   0.15375 251793.120000
   5088   5092     1   0.14647 272713.120000
   5092   5093     1   0.14647 272713.120000
   5092   5094     1   0.14647 272713.120000
   5093   5105     1   0.15375 251793.120000
   5094   5096     1   0.15375 251793.120000
   5096   5100     1   0.15241 261918.400000
   5100   5101     1   0.13513 334803.680000
   5100   5102     1   0.12183 533627.360000
   5105   5108     1   0.15241 261918.400000
   5108   5109     1   0.12183 533627.360000
   5108   5110     1   0.13513 334803.680000
   5113   5115     1   0.14619 275056.160000
   5115   5117     1   0.15375 251793.120000
   5117   5121     1   0.14647 272713.120000
   5121   5122     1   0.14647 272713.120000
   5121   5123     1   0.14647 272713.120000
   5122   5134     1   0.15375 251793.120000
   5123   5125     1   0.15375 251793.120000
   5125   5129     1   0.15241 261918.400000
   5129   5130     1   0.13513 334803.680000
   5129   5131     1   0.12183 533627.360000
   5134   5137     1   0.15241 261918.400000
   5137   5138     1   0.12183 533627.360000
   5137   5139     1   0.13513 334803.680000
   5142   5144     1   0.14619 275056.160000
   5144   5146     1   0.15375 251793.120000
   5146   5150     1   0.14647 272713.120000
   5150   5151     1   0.14647 272713.120000
   5150   5152     1   0.14647 272713.120000
   5151   5163     1   0.15375 251793.120000
   5152   5154     1   0.15375 251793.120000
   5154   5158     1   0.15241 261918.400000
   5158   5159     1   0.13513 334803.680000
   5158   5160     1   0.12183 533627.360000
   5163   5166     1   0.15241 261918.400000
   5166   5167     1   0.12183 533627.360000
   5166   5168     1   0.13513 334803.680000
   5171   5173     1   0.14619 275056.160000
   5173   5175     1   0.15375 251793.120000
   5175   5179     1   0.14647 272713.120000
   5179   5180     1   0.14647 272713.120000
   5179   5181     1   0.14647 272713.120000
   5180   5192     1   0.15375 251793.120000
   5181   5183     1   0.15375 251793.120000
   5183   5187     1   0.15241 261918.400000
   5187   5188     1   0.13513 334803.680000
   5187   5189     1   0.12183 533627.360000
   5192   5195     1   0.15241 261918.400000
   5195   5196     1   0.12183 533627.360000
   5195   5197     1   0.13513 334803.680000
   5200   5202     1   0.14619 275056.160000
   5202   5204     1   0.15375 251793.120000
   5204   5208     1   0.14647 272713.120000
   5208   5209     1   0.14647 272713.120000
   5208   5210     1   0.14647 272713.120000
   5209   5221     1   0.15375 251793.120000
   5210   5212     1   0.15375 251793.120000
   5212   5216     1   0.15241 261918.400000
   5216   5217     1   0.13513 334803.680000
   5216   5218     1   0.12183 533627.360000
   5221   5224     1   0.15241 261918.400000
   5224   5225     1   0.12183 533627.360000
   5224   5226     1   0.13513 334803.680000
   5229   5231     1   0.14619 275056.160000
   5231   5233     1   0.15375 251793.120000
   5233   5237     1   0.14647 272713.120000
   5237   5238     1   0.14647 272713.120000
   5237   5239     1   0.14647 272713.120000
   5238   5250     1   0.15375 251793.120000
   5239   5241     1   0.15375 251793.120000
   5241   5245     1   0.15241 261918.400000
   5245   5246     1   0.13513 334803.680000
   5245   5247     1   0.12183 533627.360000
   5250   5253     1   0.15241 261918.400000
   5253   5254     1   0.12183 533627.360000
   5253   5255     1   0.13513 334803.680000
   5258   5260     1   0.14619 275056.160000
   5260   5262     1   0.15375 251793.120000
   5262   5266     1   0.14647 272713.120000
   5266   5267     1   0.14647 272713.120000
   5266   5268     1   0.14647 272713.120000
   5267   5279     1   0.15375 251793.120000
   5268   5270     1   0.15375 251793.120000
   5270   5274     1   0.15241 261918.400000
   5274   5275     1   0.13513 334803.680000
   5274   5276     1   0.12183 533627.360000
   5279   5282     1   0.15241 261918.400000
   5282   5283     1   0.12183 533627.360000
   5282   5284     1   0.13513 334803.680000
   5287   5289     1   0.14619 275056.160000
   5289   5291     1   0.15375 251793.120000
   5291   5295     1   0.14647 272713.120000
   5295   5296     1   0.14647 272713.120000
   5295   5297     1   0.14647 272713.120000
   5296   5308     1   0.15375 251793.120000
   5297   5299     1   0.15375 251793.120000
   5299   5303     1   0.15241 261918.400000
   5303   5304     1   0.13513 334803.680000
   5303   5305     1   0.12183 533627.360000
   5308   5311     1   0.15241 261918.400000
   5311   5312     1   0.12183 533627.360000
   5311   5313     1   0.13513 334803.680000
   5316   5318     1   0.14619 275056.160000
   5318   5320     1   0.15375 251793.120000
   5320   5324     1   0.14647 272713.120000
   5324   5325     1   0.14647 272713.120000
   5324   5326     1   0.14647 272713.120000
   5325   5337     1   0.15375 251793.120000
   5326   5328     1   0.15375 251793.120000
   5328   5332     1   0.15241 261918.400000
   5332   5333     1   0.13513 334803.680000
   5332   5334     1   0.12183 533627.360000
   5337   5340     1   0.15241 261918.400000
   5340   5341     1   0.12183 533627.360000
   5340   5342     1   0.13513 334803.680000
   5345   5347     1   0.14619 275056.160000
   5347   5349     1   0.15375 251793.120000
   5349   5353     1   0.14647 272713.120000
   5353   5354     1   0.14647 272713.120000
   5353   5355     1   0.14647 272713.120000
   5354   5366     1   0.15375 251793.120000
   5355   5357     1   0.15375 251793.120000
   5357   5361     1   0.15241 261918.400000
   5361   5362     1   0.13513 334803.680000
   5361   5363     1   0.12183 533627.360000
   5366   5369     1   0.15241 261918.400000
   5369   5370     1   0.12183 533627.360000
   5369   5371     1   0.13513 334803.680000
   5374   5376     1   0.14619 275056.160000
   5376   5378     1   0.15375 251793.120000
   5378   5382     1   0.14647 272713.120000
   5382   5383     1   0.14647 272713.120000
   5382   5384     1   0.14647 272713.120000
   5383   5395     1   0.15375 251793.120000
   5384   5386     1   0.15375 251793.120000
   5386   5390     1   0.15241 261918.400000
   5390   5391     1   0.13513 334803.680000
   5390   5392     1   0.12183 533627.360000
   5395   5398     1   0.15241 261918.400000
   5398   5399     1   0.12183 533627.360000
   5398   5400     1   0.13513 334803.680000
   5403   5405     1   0.14619 275056.160000
   5405   5407     1   0.15375 251793.120000
   5407   5411     1   0.14647 272713.120000
   5411   5412     1   0.14647 272713.120000
   5411   5413     1   0.14647 272713.120000
   5412   5424     1   0.15375 251793.120000
   5413   5415     1   0.15375 251793.120000
   5415   5419     1   0.15241 261918.400000
   5419   5420     1   0.13513 334803.680000
   5419   5421     1   0.12183 533627.360000
   5424   5427     1   0.15241 261918.400000
   5427   5428     1   0.12183 533627.360000
   5427   5429     1   0.13513 334803.680000
   5432   5434     1   0.14619 275056.160000
   5434   5436     1   0.15375 251793.120000
   5436   5440     1   0.14647 272713.120000
   5440   5441     1   0.14647 272713.120000
   5440   5442     1   0.14647 272713.120000
   5441   5453     1   0.15375 251793.120000
   5442   5444     1   0.15375 251793.120000
   5444   5448     1   0.15241 261918.400000
   5448   5449     1   0.13513 334803.680000
   5448   5450     1   0.12183 533627.360000
   5453   5456     1   0.15241 261918.400000
   5456   5457     1   0.12183 533627.360000
   5456   5458     1   0.13513 334803.680000
   5461   5463     1   0.14619 275056.160000
   5463   5465     1   0.15375 251793.120000
   5465   5469     1   0.14647 272713.120000
   5469   5470     1   0.14647 272713.120000
   5469   5471     1   0.14647 272713.120000
   5470   5482     1   0.15375 251793.120000
   5471   5473     1   0.15375 251793.120000
   5473   5477     1   0.15241 261918.400000
   5477   5478     1   0.13513 334803.680000
   5477   5479     1   0.12183 533627.360000
   5482   5485     1   0.15241 261918.400000
   5485   5486     1   0.12183 533627.360000
   5485   5487     1   0.13513 334803.680000
   5490   5492     1   0.14619 275056.160000
   5492   5494     1   0.15375 251793.120000
   5494   5498     1   0.14647 272713.120000
   5498   5499     1   0.14647 272713.120000
   5498   5500     1   0.14647 272713.120000
   5499   5511     1   0.15375 251793.120000
   5500   5502     1   0.15375 251793.120000
   5502   5506     1   0.15241 261918.400000
   5506   5507     1   0.13513 334803.680000
   5506   5508     1   0.12183 533627.360000
   5511   5514     1   0.15241 261918.400000
   5514   5515     1   0.12183 533627.360000
   5514   5516     1   0.13513 334803.680000
   5519   5521     1   0.14619 275056.160000
   5521   5523     1   0.15375 251793.120000
   5523   5527     1   0.14647 272713.120000
   5527   5528     1   0.14647 272713.120000
   5527   5529     1   0.14647 272713.120000
   5528   5540     1   0.15375 251793.120000
   5529   5531     1   0.15375 251793.120000
   5531   5535     1   0.15241 261918.400000
   5535   5536     1   0.13513 334803.680000
   5535   5537     1   0.12183 533627.360000
   5540   5543     1   0.15241 261918.400000
   5543   5544     1   0.12183 533627.360000
   5543   5545     1   0.13513 334803.680000
   5548   5550     1   0.14619 275056.160000
   5550   5552     1   0.15375 251793.120000
   5552   5556     1   0.14647 272713.120000
   5556   5557     1   0.14647 272713.120000
   5556   5558     1   0.14647 272713.120000
   5557   5569     1   0.15375 251793.120000
   5558   5560     1   0.15375 251793.120000
   5560   5564     1   0.15241 261918.400000
   5564   5565     1   0.13513 334803.680000
   5564   5566     1   0.12183 533627.360000
   5569   5572     1   0.15241 261918.400000
   5572   5573     1   0.12183 533627.360000
   5572   5574     1   0.13513 334803.680000
   5577   5579     1   0.14619 275056.160000
   5579   5581     1   0.15375 251793.120000
   5581   5585     1   0.14647 272713.120000
   5585   5586     1   0.14647 272713.120000
   5585   5587     1   0.14647 272713.120000
   5586   5598     1   0.15375 251793.120000
   5587   5589     1   0.15375 251793.120000
   5589   5593     1   0.15241 261918.400000
   5593   5594     1   0.13513 334803.680000
   5593   5595     1   0.12183 533627.360000
   5598   5601     1   0.15241 261918.400000
   5601   5602     1   0.12183 533627.360000
   5601   5603     1   0.13513 334803.680000
   5606   5608     1   0.14619 275056.160000
   5608   5610     1   0.15375 251793.120000
   5610   5614     1   0.14647 272713.120000
   5614   5615     1   0.14647 272713.120000
   5614   5616     1   0.14647 272713.120000
   5615   5627     1   0.15375 251793.120000
   5616   5618     1   0.15375 251793.120000
   5618   5622     1   0.15241 261918.400000
   5622   5623     1   0.13513 334803.680000
   5622   5624     1   0.12183 533627.360000
   5627   5630     1   0.15241 261918.400000
   5630   5631     1   0.12183 533627.360000
   5630   5632     1   0.13513 334803.680000
   5635   5637     1   0.14619 275056.160000
   5637   5639     1   0.15375 251793.120000
   5639   5643     1   0.14647 272713.120000
   5643   5644     1   0.14647 272713.120000
   5643   5645     1   0.14647 272713.120000
   5644   5656     1   0.15375 251793.120000
   5645   5647     1   0.15375 251793.120000
   5647   5651     1   0.15241 261918.400000
   5651   5652     1   0.13513 334803.680000
   5651   5653     1   0.12183 533627.360000
   5656   5659     1   0.15241 261918.400000
   5659   5660     1   0.12183 533627.360000
   5659   5661     1   0.13513 334803.680000
   5664   5666     1   0.14619 275056.160000
   5666   5668     1   0.15375 251793.120000
   5668   5672     1   0.14647 272713.120000
   5672   5673     1   0.14647 272713.120000
   5672   5674     1   0.14647 272713.120000
   5673   5685     1   0.15375 251793.120000
   5674   5676     1   0.15375 251793.120000
   5676   5680     1   0.15241 261918.400000
   5680   5681     1   0.13513 334803.680000
   5680   5682     1   0.12183 533627.360000
   5685   5688     1   0.15241 261918.400000
   5688   5689     1   0.12183 533627.360000
   5688   5690     1   0.13513 334803.680000
   5693   5695     1   0.14619 275056.160000
   5695   5697     1   0.15375 251793.120000
   5697   5701     1   0.14647 272713.120000
   5701   5702     1   0.14647 272713.120000
   5701   5703     1   0.14647 272713.120000
   5702   5714     1   0.15375 251793.120000
   5703   5705     1   0.15375 251793.120000
   5705   5709     1   0.15241 261918.400000
   5709   5710     1   0.13513 334803.680000
   5709   5711     1   0.12183 533627.360000
   5714   5717     1   0.15241 261918.400000
   5717   5718     1   0.12183 533627.360000
   5717   5719     1   0.13513 334803.680000
   5722   5724     1   0.14619 275056.160000
   5724   5726     1   0.15375 251793.120000
   5726   5730     1   0.14647 272713.120000
   5730   5731     1   0.14647 272713.120000
   5730   5732     1   0.14647 272713.120000
   5731   5743     1   0.15375 251793.120000
   5732   5734     1   0.15375 251793.120000
   5734   5738     1   0.15241 261918.400000
   5738   5739     1   0.13513 334803.680000
   5738   5740     1   0.12183 533627.360000
   5743   5746     1   0.15241 261918.400000
   5746   5747     1   0.12183 533627.360000
   5746   5748     1   0.13513 334803.680000
   5751   5753     1   0.14619 275056.160000
   5753   5755     1   0.15375 251793.120000
   5755   5759     1   0.14647 272713.120000
   5759   5760     1   0.14647 272713.120000
   5759   5761     1   0.14647 272713.120000
   5760   5772     1   0.15375 251793.120000
   5761   5763     1   0.15375 251793.120000
   5763   5767     1   0.15241 261918.400000
   5767   5768     1   0.13513 334803.680000
   5767   5769     1   0.12183 533627.360000
   5772   5775     1   0.15241 261918.400000
   5775   5776     1   0.12183 533627.360000
   5775   5777     1   0.13513 334803.680000
   5780   5782     1   0.14619 275056.160000
   5782   5784     1   0.15375 251793.120000
   5784   5788     1   0.14647 272713.120000
   5788   5789     1   0.14647 272713.120000
   5788   5790     1   0.14647 272713.120000
   5789   5801     1   0.15375 251793.120000
   5790   5792     1   0.15375 251793.120000
   5792   5796     1   0.15241 261918.400000
   5796   5797     1   0.13513 334803.680000
   5796   5798     1   0.12183 533627.360000
   5801   5804     1   0.15241 261918.400000
   5804   5805     1   0.12183 533627.360000
   5804   5806     1   0.13513 334803.680000
   5809   5811     1   0.14619 275056.160000
   5811   5813     1   0.15375 251793.120000
   5813   5817     1   0.14647 272713.120000
   5817   5818     1   0.14647 272713.120000
   5817   5819     1   0.14647 272713.120000
   5818   5830     1   0.15375 251793.120000
   5819   5821     1   0.15375 251793.120000
   5821   5825     1   0.15241 261918.400000
   5825   5826     1   0.13513 334803.680000
   5825   5827     1   0.12183 533627.360000
   5830   5833     1   0.15241 261918.400000
   5833   5834     1   0.12183 533627.360000
   5833   5835     1   0.13513 334803.680000
   5838   5840     1   0.14619 275056.160000
   5840   5842     1   0.15375 251793.120000
   5842   5846     1   0.14647 272713.120000
   5846   5847     1   0.14647 272713.120000
   5846   5848     1   0.14647 272713.120000
   5847   5859     1   0.15375 251793.120000
   5848   5850     1   0.15375 251793.120000
   5850   5854     1   0.15241 261918.400000
   5854   5855     1   0.13513 334803.680000
   5854   5856     1   0.12183 533627.360000
   5859   5862     1   0.15241 261918.400000
   5862   5863     1   0.12183 533627.360000
   5862   5864     1   0.13513 334803.680000
   5867   5869     1   0.14619 275056.160000
   5869   5871     1   0.15375 251793.120000
   5871   5875     1   0.14647 272713.120000
   5875   5876     1   0.14647 272713.120000
   5875   5877     1   0.14647 272713.120000
   5876   5888     1   0.15375 251793.120000
   5877   5879     1   0.15375 251793.120000
   5879   5883     1   0.15241 261918.400000
   5883   5884     1   0.13513 334803.680000
   5883   5885     1   0.12183 533627.360000
   5888   5891     1   0.15241 261918.400000
   5891   5892     1   0.12183 533627.360000
   5891   5893     1   0.13513 334803.680000
   5896   5898     1   0.14619 275056.160000
   5898   5900     1   0.15375 251793.120000
   5900   5904     1   0.14647 272713.120000
   5904   5905     1   0.14647 272713.120000
   5904   5906     1   0.14647 272713.120000
   5905   5917     1   0.15375 251793.120000
   5906   5908     1   0.15375 251793.120000
   5908   5912     1   0.15241 261918.400000
   5912   5913     1   0.13513 334803.680000
   5912   5914     1   0.12183 533627.360000
   5917   5920     1   0.15241 261918.400000
   5920   5921     1   0.12183 533627.360000
   5920   5922     1   0.13513 334803.680000
   5925   5927     1   0.14619 275056.160000
   5927   5929     1   0.15375 251793.120000
   5929   5933     1   0.14647 272713.120000
   5933   5934     1   0.14647 272713.120000
   5933   5935     1   0.14647 272713.120000
   5934   5946     1   0.15375 251793.120000
   5935   5937     1   0.15375 251793.120000
   5937   5941     1   0.15241 261918.400000
   5941   5942     1   0.13513 334803.680000
   5941   5943     1   0.12183 533627.360000
   5946   5949     1   0.15241 261918.400000
   5949   5950     1   0.12183 533627.360000
   5949   5951     1   0.13513 334803.680000
   5954   5956     1   0.14619 275056.160000
   5956   5958     1   0.15375 251793.120000
   5958   5962     1   0.14647 272713.120000
   5962   5963     1   0.14647 272713.120000
   5962   5964     1   0.14647 272713.120000
   5963   5975     1   0.15375 251793.120000
   5964   5966     1   0.15375 251793.120000
   5966   5970     1   0.15241 261918.400000
   5970   5971     1   0.13513 334803.680000
   5970   5972     1   0.12183 533627.360000
   5975   5978     1   0.15241 261918.400000
   5978   5979     1   0.12183 533627.360000
   5978   5980     1   0.13513 334803.680000
   5983   5985     1   0.14619 275056.160000
   5985   5987     1   0.15375 251793.120000
   5987   5991     1   0.14647 272713.120000
   5991   5992     1   0.14647 272713.120000
   5991   5993     1   0.14647 272713.120000
   5992   6004     1   0.15375 251793.120000
   5993   5995     1   0.15375 251793.120000
   5995   5999     1   0.15241 261918.400000
   5999   6000     1   0.13513 334803.680000
   5999   6001     1   0.12183 533627.360000
   6004   6007     1   0.15241 261918.400000
   6007   6008     1   0.12183 533627.360000
   6007   6009     1   0.13513 334803.680000
   6012   6014     1   0.14619 275056.160000
   6014   6016     1   0.15375 251793.120000
   6016   6020     1   0.14647 272713.120000
   6020   6021     1   0.14647 272713.120000
   6020   6022     1   0.14647 272713.120000
   6021   6033     1   0.15375 251793.120000
   6022   6024     1   0.15375 251793.120000
   6024   6028     1   0.15241 261918.400000
   6028   6029     1   0.13513 334803.680000
   6028   6030     1   0.12183 533627.360000
   6033   6036     1   0.15241 261918.400000
   6036   6037     1   0.12183 533627.360000
   6036   6038     1   0.13513 334803.680000
   6041   6043     1   0.14619 275056.160000
   6043   6045     1   0.15375 251793.120000
   6045   6049     1   0.14647 272713.120000
   6049   6050     1   0.14647 272713.120000
   6049   6051     1   0.14647 272713.120000
   6050   6062     1   0.15375 251793.120000
   6051   6053     1   0.15375 251793.120000
   6053   6057     1   0.15241 261918.400000
   6057   6058     1   0.13513 334803.680000
   6057   6059     1   0.12183 533627.360000
   6062   6065     1   0.15241 261918.400000
   6065   6066     1   0.12183 533627.360000
   6065   6067     1   0.13513 334803.680000
   6070   6072     1   0.14619 275056.160000
   6072   6074     1   0.15375 251793.120000
   6074   6078     1   0.14647 272713.120000
   6078   6079     1   0.14647 272713.120000
   6078   6080     1   0.14647 272713.120000
   6079   6091     1   0.15375 251793.120000
   6080   6082     1   0.15375 251793.120000
   6082   6086     1   0.15241 261918.400000
   6086   6087     1   0.13513 334803.680000
   6086   6088     1   0.12183 533627.360000
   6091   6094     1   0.15241 261918.400000
   6094   6095     1   0.12183 533627.360000
   6094   6096     1   0.13513 334803.680000
   6099   6101     1   0.14619 275056.160000
   6101   6103     1   0.15375 251793.120000
   6103   6107     1   0.14647 272713.120000
   6107   6108     1   0.14647 272713.120000
   6107   6109     1   0.14647 272713.120000
   6108   6120     1   0.15375 251793.120000
   6109   6111     1   0.15375 251793.120000
   6111   6115     1   0.15241 261918.400000
   6115   6116     1   0.13513 334803.680000
   6115   6117     1   0.12183 533627.360000
   6120   6123     1   0.15241 261918.400000
   6123   6124     1   0.12183 533627.360000
   6123   6125     1   0.13513 334803.680000
   6128   6130     1   0.14619 275056.160000
   6130   6132     1   0.15375 251793.120000
   6132   6136     1   0.14647 272713.120000
   6136   6137     1   0.14647 272713.120000
   6136   6138     1   0.14647 272713.120000
   6137   6149     1   0.15375 251793.120000
   6138   6140     1   0.15375 251793.120000
   6140   6144     1   0.15241 261918.400000
   6144   6145     1   0.13513 334803.680000
   6144   6146     1   0.12183 533627.360000
   6149   6152     1   0.15241 261918.400000
   6152   6153     1   0.12183 533627.360000
   6152   6154     1   0.13513 334803.680000
   6157   6159     1   0.14619 275056.160000
   6159   6161     1   0.15375 251793.120000
   6161   6165     1   0.14647 272713.120000
   6165   6166     1   0.14647 272713.120000
   6165   6167     1   0.14647 272713.120000
   6166   6178     1   0.15375 251793.120000
   6167   6169     1   0.15375 251793.120000
   6169   6173     1   0.15241 261918.400000
   6173   6174     1   0.13513 334803.680000
   6173   6175     1   0.12183 533627.360000
   6178   6181     1   0.15241 261918.400000
   6181   6182     1   0.12183 533627.360000
   6181   6183     1   0.13513 334803.680000
   6186   6188     1   0.14619 275056.160000
   6188   6190     1   0.15375 251793.120000
   6190   6194     1   0.14647 272713.120000
   6194   6195     1   0.14647 272713.120000
   6194   6196     1   0.14647 272713.120000
   6195   6207     1   0.15375 251793.120000
   6196   6198     1   0.15375 251793.120000
   6198   6202     1   0.15241 261918.400000
   6202   6203     1   0.13513 334803.680000
   6202   6204     1   0.12183 533627.360000
   6207   6210     1   0.15241 261918.400000
   6210   6211     1   0.12183 533627.360000
   6210   6212     1   0.13513 334803.680000
   6215   6217     1   0.14619 275056.160000
   6217   6219     1   0.15375 251793.120000
   6219   6223     1   0.14647 272713.120000
   6223   6224     1   0.14647 272713.120000
   6223   6225     1   0.14647 272713.120000
   6224   6236     1   0.15375 251793.120000
   6225   6227     1   0.15375 251793.120000
   6227   6231     1   0.15241 261918.400000
   6231   6232     1   0.13513 334803.680000
   6231   6233     1   0.12183 533627.360000
   6236   6239     1   0.15241 261918.400000
   6239   6240     1   0.12183 533627.360000
   6239   6241     1   0.13513 334803.680000
   6244   6246     1   0.14619 275056.160000
   6246   6248     1   0.15375 251793.120000
   6248   6252     1   0.14647 272713.120000
   6252   6253     1   0.14647 272713.120000
   6252   6254     1   0.14647 272713.120000
   6253   6265     1   0.15375 251793.120000
   6254   6256     1   0.15375 251793.120000
   6256   6260     1   0.15241 261918.400000
   6260   6261     1   0.13513 334803.680000
   6260   6262     1   0.12183 533627.360000
   6265   6268     1   0.15241 261918.400000
   6268   6269     1   0.12183 533627.360000
   6268   6270     1   0.13513 334803.680000
   6273   6275     1   0.14619 275056.160000
   6275   6277     1   0.15375 251793.120000
   6277   6281     1   0.14647 272713.120000
   6281   6282     1   0.14647 272713.120000
   6281   6283     1   0.14647 272713.120000
   6282   6294     1   0.15375 251793.120000
   6283   6285     1   0.15375 251793.120000
   6285   6289     1   0.15241 261918.400000
   6289   6290     1   0.13513 334803.680000
   6289   6291     1   0.12183 533627.360000
   6294   6297     1   0.15241 261918.400000
   6297   6298     1   0.12183 533627.360000
   6297   6299     1   0.13513 334803.680000
   6302   6304     1   0.14619 275056.160000
   6304   6306     1   0.15375 251793.120000
   6306   6310     1   0.14647 272713.120000
   6310   6311     1   0.14647 272713.120000
   6310   6312     1   0.14647 272713.120000
   6311   6323     1   0.15375 251793.120000
   6312   6314     1   0.15375 251793.120000
   6314   6318     1   0.15241 261918.400000
   6318   6319     1   0.13513 334803.680000
   6318   6320     1   0.12183 533627.360000
   6323   6326     1   0.15241 261918.400000
   6326   6327     1   0.12183 533627.360000
   6326   6328     1   0.13513 334803.680000
   6331   6333     1   0.14619 275056.160000
   6333   6335     1   0.15375 251793.120000
   6335   6339     1   0.14647 272713.120000
   6339   6340     1   0.14647 272713.120000
   6339   6341     1   0.14647 272713.120000
   6340   6352     1   0.15375 251793.120000
   6341   6343     1   0.15375 251793.120000
   6343   6347     1   0.15241 261918.400000
   6347   6348     1   0.13513 334803.680000
   6347   6349     1   0.12183 533627.360000
   6352   6355     1   0.15241 261918.400000
   6355   6356     1   0.12183 533627.360000
   6355   6357     1   0.13513 334803.680000
   6360   6362     1   0.14619 275056.160000
   6362   6364     1   0.15375 251793.120000
   6364   6368     1   0.14647 272713.120000
   6368   6369     1   0.14647 272713.120000
   6368   6370     1   0.14647 272713.120000
   6369   6381     1   0.15375 251793.120000
   6370   6372     1   0.15375 251793.120000
   6372   6376     1   0.15241 261918.400000
   6376   6377     1   0.13513 334803.680000
   6376   6378     1   0.12183 533627.360000
   6381   6384     1   0.15241 261918.400000
   6384   6385     1   0.12183 533627.360000
   6384   6386     1   0.13513 334803.680000
   6389   6391     1   0.14619 275056.160000
   6391   6393     1   0.15375 251793.120000
   6393   6397     1   0.14647 272713.120000
   6397   6398     1   0.14647 272713.120000
   6397   6399     1   0.14647 272713.120000
   6398   6410     1   0.15375 251793.120000
   6399   6401     1   0.15375 251793.120000
   6401   6405     1   0.15241 261918.400000
   6405   6406     1   0.13513 334803.680000
   6405   6407     1   0.12183 533627.360000
   6410   6413     1   0.15241 261918.400000
   6413   6414     1   0.12183 533627.360000
   6413   6415     1   0.13513 334803.680000
   6418   6420     1   0.14619 275056.160000
   6420   6422     1   0.15375 251793.120000
   6422   6426     1   0.14647 272713.120000
   6426   6427     1   0.14647 272713.120000
   6426   6428     1   0.14647 272713.120000
   6427   6439     1   0.15375 251793.120000
   6428   6430     1   0.15375 251793.120000
   6430   6434     1   0.15241 261918.400000
   6434   6435     1   0.13513 334803.680000
   6434   6436     1   0.12183 533627.360000
   6439   6442     1   0.15241 261918.400000
   6442   6443     1   0.12183 533627.360000
   6442   6444     1   0.13513 334803.680000
   6447   6449     1   0.14619 275056.160000
   6449   6451     1   0.15375 251793.120000
   6451   6455     1   0.14647 272713.120000
   6455   6456     1   0.14647 272713.120000
   6455   6457     1   0.14647 272713.120000
   6456   6468     1   0.15375 251793.120000
   6457   6459     1   0.15375 251793.120000
   6459   6463     1   0.15241 261918.400000
   6463   6464     1   0.13513 334803.680000
   6463   6465     1   0.12183 533627.360000
   6468   6471     1   0.15241 261918.400000
   6471   6472     1   0.12183 533627.360000
   6471   6473     1   0.13513 334803.680000
   6476   6478     1   0.14619 275056.160000
   6478   6480     1   0.15375 251793.120000
   6480   6484     1   0.14647 272713.120000
   6484   6485     1   0.14647 272713.120000
   6484   6486     1   0.14647 272713.120000
   6485   6497     1   0.15375 251793.120000
   6486   6488     1   0.15375 251793.120000
   6488   6492     1   0.15241 261918.400000
   6492   6493     1   0.13513 334803.680000
   6492   6494     1   0.12183 533627.360000
   6497   6500     1   0.15241 261918.400000
   6500   6501     1   0.12183 533627.360000
   6500   6502     1   0.13513 334803.680000
   6505   6507     1   0.14619 275056.160000
   6507   6509     1   0.15375 251793.120000
   6509   6513     1   0.14647 272713.120000
   6513   6514     1   0.14647 272713.120000
   6513   6515     1   0.14647 272713.120000
   6514   6526     1   0.15375 251793.120000
   6515   6517     1   0.15375 251793.120000
   6517   6521     1   0.15241 261918.400000
   6521   6522     1   0.13513 334803.680000
   6521   6523     1   0.12183 533627.360000
   6526   6529     1   0.15241 261918.400000
   6529   6530     1   0.12183 533627.360000
   6529   6531     1   0.13513 334803.680000
   6534   6536     1   0.14619 275056.160000
   6536   6538     1   0.15375 251793.120000
   6538   6542     1   0.14647 272713.120000
   6542   6543     1   0.14647 272713.120000
   6542   6544     1   0.14647 272713.120000
   6543   6555     1   0.15375 251793.120000
   6544   6546     1   0.15375 251793.120000
   6546   6550     1   0.15241 261918.400000
   6550   6551     1   0.13513 334803.680000
   6550   6552     1   0.12183 533627.360000
   6555   6558     1   0.15241 261918.400000
   6558   6559     1   0.12183 533627.360000
   6558   6560     1   0.13513 334803.680000
   6563   6565     1   0.14619 275056.160000
   6565   6567     1   0.15375 251793.120000
   6567   6571     1   0.14647 272713.120000
   6571   6572     1   0.14647 272713.120000
   6571   6573     1   0.14647 272713.120000
   6572   6584     1   0.15375 251793.120000
   6573   6575     1   0.15375 251793.120000
   6575   6579     1   0.15241 261918.400000
   6579   6580     1   0.13513 334803.680000
   6579   6581     1   0.12183 533627.360000
   6584   6587     1   0.15241 261918.400000
   6587   6588     1   0.12183 533627.360000
   6587   6589     1   0.13513 334803.680000
   6592   6594     1   0.14619 275056.160000
   6594   6596     1   0.15375 251793.120000
   6596   6600     1   0.14647 272713.120000
   6600   6601     1   0.14647 272713.120000
   6600   6602     1   0.14647 272713.120000
   6601   6613     1   0.15375 251793.120000
   6602   6604     1   0.15375 251793.120000
   6604   6608     1   0.15241 261918.400000
   6608   6609     1   0.13513 334803.680000
   6608   6610     1   0.12183 533627.360000
   6613   6616     1   0.15241 261918.400000
   6616   6617     1   0.12183 533627.360000
   6616   6618     1   0.13513 334803.680000
   6621   6623     1   0.14619 275056.160000
   6623   6625     1   0.15375 251793.120000
   6625   6629     1   0.14647 272713.120000
   6629   6630     1   0.14647 272713.120000
   6629   6631     1   0.14647 272713.120000
   6630   6642     1   0.15375 251793.120000
   6631   6633     1   0.15375 251793.120000
   6633   6637     1   0.15241 261918.400000
   6637   6638     1   0.13513 334803.680000
   6637   6639     1   0.12183 533627.360000
   6642   6645     1   0.15241 261918.400000
   6645   6646     1   0.12183 533627.360000
   6645   6647     1   0.13513 334803.680000
   6650   6652     1   0.14619 275056.160000
   6652   6654     1   0.15375 251793.120000
   6654   6658     1   0.14647 272713.120000
   6658   6659     1   0.14647 272713.120000
   6658   6660     1   0.14647 272713.120000
   6659   6671     1   0.15375 251793.120000
   6660   6662     1   0.15375 251793.120000
   6662   6666     1   0.15241 261918.400000
   6666   6667     1   0.13513 334803.680000
   6666   6668     1   0.12183 533627.360000
   6671   6674     1   0.15241 261918.400000
   6674   6675     1   0.12183 533627.360000
   6674   6676     1   0.13513 334803.680000
   6679   6681     1   0.14619 275056.160000
   6681   6683     1   0.15375 251793.120000
   6683   6687     1   0.14647 272713.120000
   6687   6688     1   0.14647 272713.120000
   6687   6689     1   0.14647 272713.120000
   6688   6700     1   0.15375 251793.120000
   6689   6691     1   0.15375 251793.120000
   6691   6695     1   0.15241 261918.400000
   6695   6696     1   0.13513 334803.680000
   6695   6697     1   0.12183 533627.360000
   6700   6703     1   0.15241 261918.400000
   6703   6704     1   0.12183 533627.360000
   6703   6705     1   0.13513 334803.680000
   6708   6710     1   0.14619 275056.160000
   6710   6712     1   0.15375 251793.120000
   6712   6716     1   0.14647 272713.120000
   6716   6717     1   0.14647 272713.120000
   6716   6718     1   0.14647 272713.120000
   6717   6729     1   0.15375 251793.120000
   6718   6720     1   0.15375 251793.120000
   6720   6724     1   0.15241 261918.400000
   6724   6725     1   0.13513 334803.680000
   6724   6726     1   0.12183 533627.360000
   6729   6732     1   0.15241 261918.400000
   6732   6733     1   0.12183 533627.360000
   6732   6734     1   0.13513 334803.680000
   6737   6739     1   0.14619 275056.160000
   6739   6741     1   0.15375 251793.120000
   6741   6745     1   0.14647 272713.120000
   6745   6746     1   0.14647 272713.120000
   6745   6747     1   0.14647 272713.120000
   6746   6758     1   0.15375 251793.120000
   6747   6749     1   0.15375 251793.120000
   6749   6753     1   0.15241 261918.400000
   6753   6754     1   0.13513 334803.680000
   6753   6755     1   0.12183 533627.360000
   6758   6761     1   0.15241 261918.400000
   6761   6762     1   0.12183 533627.360000
   6761   6763     1   0.13513 334803.680000
   6766   6768     1   0.14619 275056.160000
   6768   6770     1   0.15375 251793.120000
   6770   6774     1   0.14647 272713.120000
   6774   6775     1   0.14647 272713.120000
   6774   6776     1   0.14647 272713.120000
   6775   6787     1   0.15375 251793.120000
   6776   6778     1   0.15375 251793.120000
   6778   6782     1   0.15241 261918.400000
   6782   6783     1   0.13513 334803.680000
   6782   6784     1   0.12183 533627.360000
   6787   6790     1   0.15241 261918.400000
   6790   6791     1   0.12183 533627.360000
   6790   6792     1   0.13513 334803.680000
   6795   6797     1   0.14619 275056.160000
   6797   6799     1   0.15375 251793.120000
   6799   6803     1   0.14647 272713.120000
   6803   6804     1   0.14647 272713.120000
   6803   6805     1   0.14647 272713.120000
   6804   6816     1   0.15375 251793.120000
   6805   6807     1   0.15375 251793.120000
   6807   6811     1   0.15241 261918.400000
   6811   6812     1   0.13513 334803.680000
   6811   6813     1   0.12183 533627.360000
   6816   6819     1   0.15241 261918.400000
   6819   6820     1   0.12183 533627.360000
   6819   6821     1   0.13513 334803.680000
   6824   6826     1   0.14619 275056.160000
   6826   6828     1   0.15375 251793.120000
   6828   6832     1   0.14647 272713.120000
   6832   6833     1   0.14647 272713.120000
   6832   6834     1   0.14647 272713.120000
   6833   6845     1   0.15375 251793.120000
   6834   6836     1   0.15375 251793.120000
   6836   6840     1   0.15241 261918.400000
   6840   6841     1   0.13513 334803.680000
   6840   6842     1   0.12183 533627.360000
   6845   6848     1   0.15241 261918.400000
   6848   6849     1   0.12183 533627.360000
   6848   6850     1   0.13513 334803.680000
      1      2     1   0.10969 276646.080000
      1      3     1   0.10969 276646.080000
      4      5     1   0.10969 276646.080000
      4      6     1   0.10969 276646.080000
      9     10     1   0.10969 276646.080000
      9     11     1   0.10969 276646.080000
     12     13     1   0.10969 276646.080000
     12     14     1   0.10969 276646.080000
     15     16     1   0.10969 276646.080000
     15     17     1   0.10969 276646.080000
     18     19     1   0.10969 276646.080000
     18     20     1   0.10969 276646.080000
     21     22     1   0.10969 276646.080000
     21     23     1   0.10969 276646.080000
     24     25     1   0.10969 276646.080000
     24     26     1   0.10969 276646.080000
     27     28     1   0.10969 276646.080000
     27     29     1   0.10969 276646.080000
     30     31     1   0.10969 276646.080000
     30     32     1   0.10969 276646.080000
     41     42     1   0.10969 276646.080000
     41     43     1   0.10969 276646.080000
     44     45     1   0.10969 276646.080000
     44     46     1   0.10969 276646.080000
     48     49     1   0.10969 276646.080000
     48     50     1   0.10969 276646.080000
     51     52     1   0.10969 276646.080000
     51     53     1   0.10969 276646.080000
     54     55     1   0.10969 276646.080000
     54     56     1   0.10969 276646.080000
     57     58     1   0.10969 276646.080000
     57     59     1   0.10969 276646.080000
     64     65     1   0.10129 337397.760000
     66     67     1   0.10969 276646.080000
     66     68     1   0.10969 276646.080000
     69     70     1   0.10969 276646.080000
     69     71     1   0.10969 276646.080000
     73     74     1   0.10969 276646.080000
     73     75     1   0.10969 276646.080000
     76     77     1   0.10969 276646.080000
     76     78     1   0.10969 276646.080000
     79     80     1   0.10969 276646.080000
     79     81     1   0.10969 276646.080000
     82     83     1   0.10969 276646.080000
     82     84     1   0.10969 276646.080000
     89     90     1   0.10129 337397.760000
     91     92     1   0.10969 276646.080000
     91     93     1   0.10969 276646.080000
     94     95     1   0.10969 276646.080000
     94     96     1   0.10969 276646.080000
     98     99     1   0.10969 276646.080000
     98    100     1   0.10969 276646.080000
    101    102     1   0.10969 276646.080000
    101    103     1   0.10969 276646.080000
    104    105     1   0.10969 276646.080000
    104    106     1   0.10969 276646.080000
    107    108     1   0.10969 276646.080000
    107    109     1   0.10969 276646.080000
    114    115     1   0.10129 337397.760000
    116    117     1   0.10969 276646.080000
    116    118     1   0.10969 276646.080000
    119    120     1   0.10969 276646.080000
    119    121     1   0.10969 276646.080000
    123    124     1   0.10969 276646.080000
    123    125     1   0.10969 276646.080000
    126    127     1   0.10969 276646.080000
    126    128     1   0.10969 276646.080000
    129    130     1   0.10969 276646.080000
    129    131     1   0.10969 276646.080000
    132    133     1   0.10969 276646.080000
    132    134     1   0.10969 276646.080000
    139    140     1   0.10129 337397.760000
    141    142     1   0.10969 276646.080000
    141    143     1   0.10969 276646.080000
    144    145     1   0.10969 276646.080000
    144    146     1   0.10969 276646.080000
    148    149     1   0.10969 276646.080000
    148    150     1   0.10969 276646.080000
    151    152     1   0.10969 276646.080000
    151    153     1   0.10969 276646.080000
    154    155     1   0.10969 276646.080000
    154    156     1   0.10969 276646.080000
    157    158     1   0.10969 276646.080000
    157    159     1   0.10969 276646.080000
    164    165     1   0.10129 337397.760000
    166    167     1   0.10969 276646.080000
    166    168     1   0.10969 276646.080000
    169    170     1   0.10969 276646.080000
    169    171     1   0.10969 276646.080000
    173    174     1   0.10969 276646.080000
    173    175     1   0.10969 276646.080000
    176    177     1   0.10969 276646.080000
    176    178     1   0.10969 276646.080000
    179    180     1   0.10969 276646.080000
    179    181     1   0.10969 276646.080000
    182    183     1   0.10969 276646.080000
    182    184     1   0.10969 276646.080000
    189    190     1   0.10129 337397.760000
    191    192     1   0.10969 276646.080000
    191    193     1   0.10969 276646.080000
    194    195     1   0.10969 276646.080000
    194    196     1   0.10969 276646.080000
    198    199     1   0.10969 276646.080000
    198    200     1   0.10969 276646.080000
    201    202     1   0.10969 276646.080000
    201    203     1   0.10969 276646.080000
    204    205     1   0.10969 276646.080000
    204    206     1   0.10969 276646.080000
    207    208     1   0.10969 276646.080000
    207    209     1   0.10969 276646.080000
    214    215     1   0.10129 337397.760000
    216    217     1   0.10969 276646.080000
    216    218     1   0.10969 276646.080000
    219    220     1   0.10969 276646.080000
    219    221     1   0.10969 276646.080000
    223    224     1   0.10969 276646.080000
    223    225     1   0.10969 276646.080000
    226    227     1   0.10969 276646.080000
    226    228     1   0.10969 276646.080000
    229    230     1   0.10969 276646.080000
    229    231     1   0.10969 276646.080000
    232    233     1   0.10969 276646.080000
    232    234     1   0.10969 276646.080000
    239    240     1   0.10129 337397.760000
    241    242     1   0.10969 276646.080000
    241    243     1   0.10969 276646.080000
    244    245     1   0.10969 276646.080000
    244    246     1   0.10969 276646.080000
    248    249     1   0.10969 276646.080000
    248    250     1   0.10969 276646.080000
    251    252     1   0.10969 276646.080000
    251    253     1   0.10969 276646.080000
    254    255     1   0.10969 276646.080000
    254    256     1   0.10969 276646.080000
    257    258     1   0.10969 276646.080000
    257    259     1   0.10969 276646.080000
    264    265     1   0.10129 337397.760000
    266    267     1   0.10969 276646.080000
    266    268     1   0.10969 276646.080000
    269    270     1   0.10969 276646.080000
    269    271     1   0.10969 276646.080000
    273    274     1   0.10969 276646.080000
    273    275     1   0.10969 276646.080000
    276    277     1   0.10969 276646.080000
    276    278     1   0.10969 276646.080000
    279    280     1   0.10969 276646.080000
    279    281     1   0.10969 276646.080000
    282    283     1   0.10969 276646.080000
    282    284     1   0.10969 276646.080000
    289    290     1   0.10129 337397.760000
    291    292     1   0.10969 276646.080000
    291    293     1   0.10969 276646.080000
    294    295     1   0.10969 276646.080000
    294    296     1   0.10969 276646.080000
    298    299     1   0.10969 276646.080000
    298    300     1   0.10969 276646.080000
    301    302     1   0.10969 276646.080000
    301    303     1   0.10969 276646.080000
    304    305     1   0.10969 276646.080000
    304    306     1   0.10969 276646.080000
    307    308     1   0.10969 276646.080000
    307    309     1   0.10969 276646.080000
    314    315     1   0.10129 337397.760000
    316    317     1   0.10969 276646.080000
    316    318     1   0.10969 276646.080000
    319    320     1   0.10969 276646.080000
    319    321     1   0.10969 276646.080000
    323    324     1   0.10969 276646.080000
    323    325     1   0.10969 276646.080000
    326    327     1   0.10969 276646.080000
    326    328     1   0.10969 276646.080000
    329    330     1   0.10969 276646.080000
    329    331     1   0.10969 276646.080000
    332    333     1   0.10969 276646.080000
    332    334     1   0.10969 276646.080000
    339    340     1   0.10129 337397.760000
    341    342     1   0.10969 276646.080000
    341    343     1   0.10969 276646.080000
    344    345     1   0.10969 276646.080000
    344    346     1   0.10969 276646.080000
    348    349     1   0.10969 276646.080000
    348    350     1   0.10969 276646.080000
    351    352     1   0.10969 276646.080000
    351    353     1   0.10969 276646.080000
    354    355     1   0.10969 276646.080000
    354    356     1   0.10969 276646.080000
    357    358     1   0.10969 276646.080000
    357    359     1   0.10969 276646.080000
    364    365     1   0.10129 337397.760000
    366    367     1   0.10969 276646.080000
    366    368     1   0.10969 276646.080000
    369    370     1   0.10969 276646.080000
    369    371     1   0.10969 276646.080000
    373    374     1   0.10969 276646.080000
    373    375     1   0.10969 276646.080000
    376    377     1   0.10969 276646.080000
    376    378     1   0.10969 276646.080000
    379    380     1   0.10969 276646.080000
    379    381     1   0.10969 276646.080000
    382    383     1   0.10969 276646.080000
    382    384     1   0.10969 276646.080000
    389    390     1   0.10129 337397.760000
    391    392     1   0.10969 276646.080000
    391    393     1   0.10969 276646.080000
    394    395     1   0.10969 276646.080000
    394    396     1   0.10969 276646.080000
    398    399     1   0.10969 276646.080000
    398    400     1   0.10969 276646.080000
    401    402     1   0.10969 276646.080000
    401    403     1   0.10969 276646.080000
    404    405     1   0.10969 276646.080000
    404    406     1   0.10969 276646.080000
    407    408     1   0.10969 276646.080000
    407    409     1   0.10969 276646.080000
    414    415     1   0.10129 337397.760000
    416    417     1   0.10969 276646.080000
    416    418     1   0.10969 276646.080000
    419    420     1   0.10969 276646.080000
    419    421     1   0.10969 276646.080000
    423    424     1   0.10969 276646.080000
    423    425     1   0.10969 276646.080000
    426    427     1   0.10969 276646.080000
    426    428     1   0.10969 276646.080000
    429    430     1   0.10969 276646.080000
    429    431     1   0.10969 276646.080000
    432    433     1   0.10969 276646.080000
    432    434     1   0.10969 276646.080000
    439    440     1   0.10129 337397.760000
    441    442     1   0.10969 276646.080000
    441    443     1   0.10969 276646.080000
    444    445     1   0.10969 276646.080000
    444    446     1   0.10969 276646.080000
    448    449     1   0.10969 276646.080000
    448    450     1   0.10969 276646.080000
    451    452     1   0.10969 276646.080000
    451    453     1   0.10969 276646.080000
    454    455     1   0.10969 276646.080000
    454    456     1   0.10969 276646.080000
    457    458     1   0.10969 276646.080000
    457    459     1   0.10969 276646.080000
    464    465     1   0.10129 337397.760000
    466    467     1   0.10969 276646.080000
    466    468     1   0.10969 276646.080000
    469    470     1   0.10969 276646.080000
    469    471     1   0.10969 276646.080000
    473    474     1   0.10969 276646.080000
    473    475     1   0.10969 276646.080000
    476    477     1   0.10969 276646.080000
    476    478     1   0.10969 276646.080000
    479    480     1   0.10969 276646.080000
    479    481     1   0.10969 276646.080000
    482    483     1   0.10969 276646.080000
    482    484     1   0.10969 276646.080000
    489    490     1   0.10129 337397.760000
    491    492     1   0.10969 276646.080000
    491    493     1   0.10969 276646.080000
    494    495     1   0.10969 276646.080000
    494    496     1   0.10969 276646.080000
    498    499     1   0.10969 276646.080000
    498    500     1   0.10969 276646.080000
    501    502     1   0.10969 276646.080000
    501    503     1   0.10969 276646.080000
    504    505     1   0.10969 276646.080000
    504    506     1   0.10969 276646.080000
    507    508     1   0.10969 276646.080000
    507    509     1   0.10969 276646.080000
    514    515     1   0.10129 337397.760000
    516    517     1   0.10969 276646.080000
    516    518     1   0.10969 276646.080000
    519    520     1   0.10969 276646.080000
    519    521     1   0.10969 276646.080000
    523    524     1   0.10969 276646.080000
    523    525     1   0.10969 276646.080000
    526    527     1   0.10969 276646.080000
    526    528     1   0.10969 276646.080000
    529    530     1   0.10969 276646.080000
    529    531     1   0.10969 276646.080000
    532    533     1   0.10969 276646.080000
    532    534     1   0.10969 276646.080000
    539    540     1   0.10129 337397.760000
    541    542     1   0.10969 276646.080000
    541    543     1   0.10969 276646.080000
    544    545     1   0.10969 276646.080000
    544    546     1   0.10969 276646.080000
    548    549     1   0.10969 276646.080000
    548    550     1   0.10969 276646.080000
    551    552     1   0.10969 276646.080000
    551    553     1   0.10969 276646.080000
    554    555     1   0.10969 276646.080000
    554    556     1   0.10969 276646.080000
    557    558     1   0.10969 276646.080000
    557    559     1   0.10969 276646.080000
    564    565     1   0.10129 337397.760000
    566    567     1   0.10969 276646.080000
    566    568     1   0.10969 276646.080000
    569    570     1   0.10969 276646.080000
    569    571     1   0.10969 276646.080000
    573    574     1   0.10969 276646.080000
    573    575     1   0.10969 276646.080000
    576    577     1   0.10969 276646.080000
    576    578     1   0.10969 276646.080000
    579    580     1   0.10969 276646.080000
    579    581     1   0.10969 276646.080000
    582    583     1   0.10969 276646.080000
    582    584     1   0.10969 276646.080000
    589    590     1   0.10129 337397.760000
    591    592     1   0.10969 276646.080000
    591    593     1   0.10969 276646.080000
    594    595     1   0.10969 276646.080000
    594    596     1   0.10969 276646.080000
    598    599     1   0.10969 276646.080000
    598    600     1   0.10969 276646.080000
    601    602     1   0.10969 276646.080000
    601    603     1   0.10969 276646.080000
    604    605     1   0.10969 276646.080000
    604    606     1   0.10969 276646.080000
    607    608     1   0.10969 276646.080000
    607    609     1   0.10969 276646.080000
    614    615     1   0.10129 337397.760000
    616    617     1   0.10969 276646.080000
    616    618     1   0.10969 276646.080000
    619    620     1   0.10969 276646.080000
    619    621     1   0.10969 276646.080000
    623    624     1   0.10969 276646.080000
    623    625     1   0.10969 276646.080000
    626    627     1   0.10969 276646.080000
    626    628     1   0.10969 276646.080000
    629    630     1   0.10969 276646.080000
    629    631     1   0.10969 276646.080000
    632    633     1   0.10969 276646.080000
    632    634     1   0.10969 276646.080000
    639    640     1   0.10129 337397.760000
    641    642     1   0.10969 276646.080000
    641    643     1   0.10969 276646.080000
    644    645     1   0.10969 276646.080000
    644    646     1   0.10969 276646.080000
    648    649     1   0.10969 276646.080000
    648    650     1   0.10969 276646.080000
    651    652     1   0.10969 276646.080000
    651    653     1   0.10969 276646.080000
    654    655     1   0.10969 276646.080000
    654    656     1   0.10969 276646.080000
    657    658     1   0.10969 276646.080000
    657    659     1   0.10969 276646.080000
    664    665     1   0.10129 337397.760000
    666    667     1   0.10969 276646.080000
    666    668     1   0.10969 276646.080000
    669    670     1   0.10969 276646.080000
    669    671     1   0.10969 276646.080000
    673    674     1   0.10969 276646.080000
    673    675     1   0.10969 276646.080000
    676    677     1   0.10969 276646.080000
    676    678     1   0.10969 276646.080000
    679    680     1   0.10969 276646.080000
    679    681     1   0.10969 276646.080000
    682    683     1   0.10969 276646.080000
    682    684     1   0.10969 276646.080000
    689    690     1   0.10129 337397.760000
    691    692     1   0.10969 276646.080000
    691    693     1   0.10969 276646.080000
    694    695     1   0.10969 276646.080000
    694    696     1   0.10969 276646.080000
    698    699     1   0.10969 276646.080000
    698    700     1   0.10969 276646.080000
    701    702     1   0.10969 276646.080000
    701    703     1   0.10969 276646.080000
    704    705     1   0.10969 276646.080000
    704    706     1   0.10969 276646.080000
    707    708     1   0.10969 276646.080000
    707    709     1   0.10969 276646.080000
    714    715     1   0.10129 337397.760000
    716    717     1   0.10969 276646.080000
    716    718     1   0.10969 276646.080000
    719    720     1   0.10969 276646.080000
    719    721     1   0.10969 276646.080000
    723    724     1   0.10969 276646.080000
    723    725     1   0.10969 276646.080000
    726    727     1   0.10969 276646.080000
    726    728     1   0.10969 276646.080000
    729    730     1   0.10969 276646.080000
    729    731     1   0.10969 276646.080000
    732    733     1   0.10969 276646.080000
    732    734     1   0.10969 276646.080000
    739    740     1   0.10129 337397.760000
    741    742     1   0.10969 276646.080000
    741    743     1   0.10969 276646.080000
    744    745     1   0.10969 276646.080000
    744    746     1   0.10969 276646.080000
    748    749     1   0.10969 276646.080000
    748    750     1   0.10969 276646.080000
    751    752     1   0.10969 276646.080000
    751    753     1   0.10969 276646.080000
    754    755     1   0.10969 276646.080000
    754    756     1   0.10969 276646.080000
    757    758     1   0.10969 276646.080000
    757    759     1   0.10969 276646.080000
    764    765     1   0.10129 337397.760000
    766    767     1   0.10969 276646.080000
    766    768     1   0.10969 276646.080000
    769    770     1   0.10969 276646.080000
    769    771     1   0.10969 276646.080000
    773    774     1   0.10969 276646.080000
    773    775     1   0.10969 276646.080000
    776    777     1   0.10969 276646.080000
    776    778     1   0.10969 276646.080000
    779    780     1   0.10969 276646.080000
    779    781     1   0.10969 276646.080000
    782    783     1   0.10969 276646.080000
    782    784     1   0.10969 276646.080000
    789    790     1   0.10129 337397.760000
    791    792     1   0.10969 276646.080000
    791    793     1   0.10969 276646.080000
    794    795     1   0.10969 276646.080000
    794    796     1   0.10969 276646.080000
    798    799     1   0.10969 276646.080000
    798    800     1   0.10969 276646.080000
    801    802     1   0.10969 276646.080000
    801    803     1   0.10969 276646.080000
    804    805     1   0.10969 276646.080000
    804    806     1   0.10969 276646.080000
    807    808     1   0.10969 276646.080000
    807    809     1   0.10969 276646.080000
    814    815     1   0.10129 337397.760000
    816    817     1   0.10969 276646.080000
    816    818     1   0.10969 276646.080000
    819    820     1   0.10969 276646.080000
    819    821     1   0.10969 276646.080000
    823    824     1   0.10969 276646.080000
    823    825     1   0.10969 276646.080000
    826    827     1   0.10969 276646.080000
    826    828     1   0.10969 276646.080000
    829    830     1   0.10969 276646.080000
    829    831     1   0.10969 276646.080000
    832    833     1   0.10969 276646.080000
    832    834     1   0.10969 276646.080000
    839    840     1   0.10129 337397.760000
    841    842     1   0.10969 276646.080000
    841    843     1   0.10969 276646.080000
    844    845     1   0.10969 276646.080000
    844    846     1   0.10969 276646.080000
    848    849     1   0.10969 276646.080000
    848    850     1   0.10969 276646.080000
    851    852     1   0.10969 276646.080000
    851    853     1   0.10969 276646.080000
    854    855     1   0.10969 276646.080000
    854    856     1   0.10969 276646.080000
    857    858     1   0.10969 276646.080000
    857    859     1   0.10969 276646.080000
    864    865     1   0.10129 337397.760000
    866    867     1   0.10969 276646.080000
    866    868     1   0.10969 276646.080000
    869    870     1   0.10969 276646.080000
    869    871     1   0.10969 276646.080000
    873    874     1   0.10969 276646.080000
    873    875     1   0.10969 276646.080000
    876    877     1   0.10969 276646.080000
    876    878     1   0.10969 276646.080000
    879    880     1   0.10969 276646.080000
    879    881     1   0.10969 276646.080000
    882    883     1   0.10969 276646.080000
    882    884     1   0.10969 276646.080000
    889    890     1   0.10129 337397.760000
    891    892     1   0.10969 276646.080000
    891    893     1   0.10969 276646.080000
    894    895     1   0.10969 276646.080000
    894    896     1   0.10969 276646.080000
    898    899     1   0.10969 276646.080000
    898    900     1   0.10969 276646.080000
    901    902     1   0.10969 276646.080000
    901    903     1   0.10969 276646.080000
    904    905     1   0.10969 276646.080000
    904    906     1   0.10969 276646.080000
    907    908     1   0.10969 276646.080000
    907    909     1   0.10969 276646.080000
    914    915     1   0.10129 337397.760000
    916    917     1   0.10969 276646.080000
    916    918     1   0.10969 276646.080000
    919    920     1   0.10969 276646.080000
    919    921     1   0.10969 276646.080000
    923    924     1   0.10969 276646.080000
    923    925     1   0.10969 276646.080000
    926    927     1   0.10969 276646.080000
    926    928     1   0.10969 276646.080000
    929    930     1   0.10969 276646.080000
    929    931     1   0.10969 276646.080000
    932    933     1   0.10969 276646.080000
    932    934     1   0.10969 276646.080000
    939    940     1   0.10129 337397.760000
    941    942     1   0.10969 276646.080000
    941    943     1   0.10969 276646.080000
    944    945     1   0.10969 276646.080000
    944    946     1   0.10969 276646.080000
    948    949     1   0.10969 276646.080000
    948    950     1   0.10969 276646.080000
    951    952     1   0.10969 276646.080000
    951    953     1   0.10969 276646.080000
    954    955     1   0.10969 276646.080000
    954    956     1   0.10969 276646.080000
    957    958     1   0.10969 276646.080000
    957    959     1   0.10969 276646.080000
    964    965     1   0.10129 337397.760000
    966    967     1   0.10969 276646.080000
    966    968     1   0.10969 276646.080000
    969    970     1   0.10969 276646.080000
    969    971     1   0.10969 276646.080000
    973    974     1   0.10969 276646.080000
    973    975     1   0.10969 276646.080000
    976    977     1   0.10969 276646.080000
    976    978     1   0.10969 276646.080000
    979    980     1   0.10969 276646.080000
    979    981     1   0.10969 276646.080000
    982    983     1   0.10969 276646.080000
    982    984     1   0.10969 276646.080000
    989    990     1   0.10129 337397.760000
    991    992     1   0.10969 276646.080000
    991    993     1   0.10969 276646.080000
    994    995     1   0.10969 276646.080000
    994    996     1   0.10969 276646.080000
    998    999     1   0.10969 276646.080000
    998   1000     1   0.10969 276646.080000
   1001   1002     1   0.10969 276646.080000
   1001   1003     1   0.10969 276646.080000
   1004   1005     1   0.10969 276646.080000
   1004   1006     1   0.10969 276646.080000
   1007   1008     1   0.10969 276646.080000
   1007   1009     1   0.10969 276646.080000
   1014   1015     1   0.10129 337397.760000
   1016   1017     1   0.10969 276646.080000
   1016   1018     1   0.10969 276646.080000
   1019   1020     1   0.10969 276646.080000
   1019   1021     1   0.10969 276646.080000
   1023   1024     1   0.10969 276646.080000
   1023   1025     1   0.10969 276646.080000
   1026   1027     1   0.10969 276646.080000
   1026   1028     1   0.10969 276646.080000
   1029   1030     1   0.10969 276646.080000
   1029   1031     1   0.10969 276646.080000
   1032   1033     1   0.10969 276646.080000
   1032   1034     1   0.10969 276646.080000
   1039   1040     1   0.10129 337397.760000
   1041   1042     1   0.10969 276646.080000
   1041   1043     1   0.10969 276646.080000
   1044   1045     1   0.10969 276646.080000
   1044   1046     1   0.10969 276646.080000
   1048   1049     1   0.10969 276646.080000
   1048   1050     1   0.10969 276646.080000
   1051   1052     1   0.10969 276646.080000
   1051   1053     1   0.10969 276646.080000
   1054   1055     1   0.10969 276646.080000
   1054   1056     1   0.10969 276646.080000
   1057   1058     1   0.10969 276646.080000
   1057   1059     1   0.10969 276646.080000
   1064   1065     1   0.10129 337397.760000
   1066   1067     1   0.10969 276646.080000
   1066   1068     1   0.10969 276646.080000
   1069   1070     1   0.10969 276646.080000
   1069   1071     1   0.10969 276646.080000
   1073   1074     1   0.10969 276646.080000
   1073   1075     1   0.10969 276646.080000
   1076   1077     1   0.10969 276646.080000
   1076   1078     1   0.10969 276646.080000
   1079   1080     1   0.10969 276646.080000
   1079   1081     1   0.10969 276646.080000
   1082   1083     1   0.10969 276646.080000
   1082   1084     1   0.10969 276646.080000
   1089   1090     1   0.10129 337397.760000
   1091   1092     1   0.10969 276646.080000
   1091   1093     1   0.10969 276646.080000
   1094   1095     1   0.10969 276646.080000
   1094   1096     1   0.10969 276646.080000
   1098   1099     1   0.10969 276646.080000
   1098   1100     1   0.10969 276646.080000
   1101   1102     1   0.10969 276646.080000
   1101   1103     1   0.10969 276646.080000
   1104   1105     1   0.10969 276646.080000
   1104   1106     1   0.10969 276646.080000
   1107   1108     1   0.10969 276646.080000
   1107   1109     1   0.10969 276646.080000
   1114   1115     1   0.10129 337397.760000
   1116   1117     1   0.10969 276646.080000
   1116   1118     1   0.10969 276646.080000
   1119   1120     1   0.10969 276646.080000
   1119   1121     1   0.10969 276646.080000
   1123   1124     1   0.10969 276646.080000
   1123   1125     1   0.10969 276646.080000
   1126   1127     1   0.10969 276646.080000
   1126   1128     1   0.10969 276646.080000
   1129   1130     1   0.10969 276646.080000
   1129   1131     1   0.10969 276646.080000
   1132   1133     1   0.10969 276646.080000
   1132   1134     1   0.10969 276646.080000
   1139   1140     1   0.10129 337397.760000
   1141   1142     1   0.10969 276646.080000
   1141   1143     1   0.10969 276646.080000
   1144   1145     1   0.10969 276646.080000
   1144   1146     1   0.10969 276646.080000
   1148   1149     1   0.10969 276646.080000
   1148   1150     1   0.10969 276646.080000
   1151   1152     1   0.10969 276646.080000
   1151   1153     1   0.10969 276646.080000
   1154   1155     1   0.10969 276646.080000
   1154   1156     1   0.10969 276646.080000
   1157   1158     1   0.10969 276646.080000
   1157   1159     1   0.10969 276646.080000
   1164   1165     1   0.10129 337397.760000
   1166   1167     1   0.10969 276646.080000
   1166   1168     1   0.10969 276646.080000
   1169   1170     1   0.10969 276646.080000
   1169   1171     1   0.10969 276646.080000
   1173   1174     1   0.10969 276646.080000
   1173   1175     1   0.10969 276646.080000
   1176   1177     1   0.10969 276646.080000
   1176   1178     1   0.10969 276646.080000
   1179   1180     1   0.10969 276646.080000
   1179   1181     1   0.10969 276646.080000
   1182   1183     1   0.10969 276646.080000
   1182   1184     1   0.10969 276646.080000
   1189   1190     1   0.10129 337397.760000
   1191   1192     1   0.10969 276646.080000
   1191   1193     1   0.10969 276646.080000
   1194   1195     1   0.10969 276646.080000
   1194   1196     1   0.10969 276646.080000
   1198   1199     1   0.10969 276646.080000
   1198   1200     1   0.10969 276646.080000
   1201   1202     1   0.10969 276646.080000
   1201   1203     1   0.10969 276646.080000
   1204   1205     1   0.10969 276646.080000
   1204   1206     1   0.10969 276646.080000
   1207   1208     1   0.10969 276646.080000
   1207   1209     1   0.10969 276646.080000
   1214   1215     1   0.10129 337397.760000
   1216   1217     1   0.10969 276646.080000
   1216   1218     1   0.10969 276646.080000
   1219   1220     1   0.10969 276646.080000
   1219   1221     1   0.10969 276646.080000
   1223   1224     1   0.10969 276646.080000
   1223   1225     1   0.10969 276646.080000
   1226   1227     1   0.10969 276646.080000
   1226   1228     1   0.10969 276646.080000
   1229   1230     1   0.10969 276646.080000
   1229   1231     1   0.10969 276646.080000
   1232   1233     1   0.10969 276646.080000
   1232   1234     1   0.10969 276646.080000
   1239   1240     1   0.10129 337397.760000
   1241   1242     1   0.10969 276646.080000
   1241   1243     1   0.10969 276646.080000
   1244   1245     1   0.10969 276646.080000
   1244   1246     1   0.10969 276646.080000
   1248   1249     1   0.10969 276646.080000
   1248   1250     1   0.10969 276646.080000
   1251   1252     1   0.10969 276646.080000
   1251   1253     1   0.10969 276646.080000
   1254   1255     1   0.10969 276646.080000
   1254   1256     1   0.10969 276646.080000
   1257   1258     1   0.10969 276646.080000
   1257   1259     1   0.10969 276646.080000
   1264   1265     1   0.10129 337397.760000
   1266   1267     1   0.10969 276646.080000
   1266   1268     1   0.10969 276646.080000
   1269   1270     1   0.10969 276646.080000
   1269   1271     1   0.10969 276646.080000
   1273   1274     1   0.10969 276646.080000
   1273   1275     1   0.10969 276646.080000
   1276   1277     1   0.10969 276646.080000
   1276   1278     1   0.10969 276646.080000
   1279   1280     1   0.10969 276646.080000
   1279   1281     1   0.10969 276646.080000
   1282   1283     1   0.10969 276646.080000
   1282   1284     1   0.10969 276646.080000
   1289   1290     1   0.10129 337397.760000
   1291   1292     1   0.10969 276646.080000
   1291   1293     1   0.10969 276646.080000
   1294   1295     1   0.10969 276646.080000
   1294   1296     1   0.10969 276646.080000
   1298   1299     1   0.10969 276646.080000
   1298   1300     1   0.10969 276646.080000
   1301   1302     1   0.10969 276646.080000
   1301   1303     1   0.10969 276646.080000
   1304   1305     1   0.10969 276646.080000
   1304   1306     1   0.10969 276646.080000
   1307   1308     1   0.10969 276646.080000
   1307   1309     1   0.10969 276646.080000
   1314   1315     1   0.10129 337397.760000
   1316   1317     1   0.10969 276646.080000
   1316   1318     1   0.10969 276646.080000
   1319   1320     1   0.10969 276646.080000
   1319   1321     1   0.10969 276646.080000
   1323   1324     1   0.10969 276646.080000
   1323   1325     1   0.10969 276646.080000
   1326   1327     1   0.10969 276646.080000
   1326   1328     1   0.10969 276646.080000
   1329   1330     1   0.10969 276646.080000
   1329   1331     1   0.10969 276646.080000
   1332   1333     1   0.10969 276646.080000
   1332   1334     1   0.10969 276646.080000
   1339   1340     1   0.10129 337397.760000
   1341   1342     1   0.10969 276646.080000
   1341   1343     1   0.10969 276646.080000
   1344   1345     1   0.10969 276646.080000
   1344   1346     1   0.10969 276646.080000
   1348   1349     1   0.10969 276646.080000
   1348   1350     1   0.10969 276646.080000
   1351   1352     1   0.10969 276646.080000
   1351   1353     1   0.10969 276646.080000
   1354   1355     1   0.10969 276646.080000
   1354   1356     1   0.10969 276646.080000
   1357   1358     1   0.10969 276646.080000
   1357   1359     1   0.10969 276646.080000
   1364   1365     1   0.10129 337397.760000
   1366   1367     1   0.10969 276646.080000
   1366   1368     1   0.10969 276646.080000
   1369   1370     1   0.10969 276646.080000
   1369   1371     1   0.10969 276646.080000
   1373   1374     1   0.10969 276646.080000
   1373   1375     1   0.10969 276646.080000
   1376   1377     1   0.10969 276646.080000
   1376   1378     1   0.10969 276646.080000
   1379   1380     1   0.10969 276646.080000
   1379   1381     1   0.10969 276646.080000
   1382   1383     1   0.10969 276646.080000
   1382   1384     1   0.10969 276646.080000
   1389   1390     1   0.10129 337397.760000
   1391   1392     1   0.10969 276646.080000
   1391   1393     1   0.10969 276646.080000
   1394   1395     1   0.10969 276646.080000
   1394   1396     1   0.10969 276646.080000
   1398   1399     1   0.10969 276646.080000
   1398   1400     1   0.10969 276646.080000
   1401   1402     1   0.10969 276646.080000
   1401   1403     1   0.10969 276646.080000
   1404   1405     1   0.10969 276646.080000
   1404   1406     1   0.10969 276646.080000
   1407   1408     1   0.10969 276646.080000
   1407   1409     1   0.10969 276646.080000
   1414   1415     1   0.10129 337397.760000
   1416   1417     1   0.10969 276646.080000
   1416   1418     1   0.10969 276646.080000
   1419   1420     1   0.10969 276646.080000
   1419   1421     1   0.10969 276646.080000
   1423   1424     1   0.10969 276646.080000
   1423   1425     1   0.10969 276646.080000
   1426   1427     1   0.10969 276646.080000
   1426   1428     1   0.10969 276646.080000
   1429   1430     1   0.10969 276646.080000
   1429   1431     1   0.10969 276646.080000
   1432   1433     1   0.10969 276646.080000
   1432   1434     1   0.10969 276646.080000
   1439   1440     1   0.10129 337397.760000
   1441   1442     1   0.10969 276646.080000
   1441   1443     1   0.10969 276646.080000
   1444   1445     1   0.10969 276646.080000
   1444   1446     1   0.10969 276646.080000
   1448   1449     1   0.10969 276646.080000
   1448   1450     1   0.10969 276646.080000
   1451   1452     1   0.10969 276646.080000
   1451   1453     1   0.10969 276646.080000
   1454   1455     1   0.10969 276646.080000
   1454   1456     1   0.10969 276646.080000
   1457   1458     1   0.10969 276646.080000
   1457   1459     1   0.10969 276646.080000
   1464   1465     1   0.10129 337397.760000
   1466   1467     1   0.10969 276646.080000
   1466   1468     1   0.10969 276646.080000
   1469   1470     1   0.10969 276646.080000
   1469   1471     1   0.10969 276646.080000
   1473   1474     1   0.10969 276646.080000
   1473   1475     1   0.10969 276646.080000
   1476   1477     1   0.10969 276646.080000
   1476   1478     1   0.10969 276646.080000
   1479   1480     1   0.10969 276646.080000
   1479   1481     1   0.10969 276646.080000
   1482   1483     1   0.10969 276646.080000
   1482   1484     1   0.10969 276646.080000
   1489   1490     1   0.10129 337397.760000
   1491   1492     1   0.10969 276646.080000
   1491   1493     1   0.10969 276646.080000
   1494   1495     1   0.10969 276646.080000
   1494   1496     1   0.10969 276646.080000
   1498   1499     1   0.10969 276646.080000
   1498   1500     1   0.10969 276646.080000
   1501   1502     1   0.10969 276646.080000
   1501   1503     1   0.10969 276646.080000
   1504   1505     1   0.10969 276646.080000
   1504   1506     1   0.10969 276646.080000
   1507   1508     1   0.10969 276646.080000
   1507   1509     1   0.10969 276646.080000
   1514   1515     1   0.10129 337397.760000
   1516   1517     1   0.10969 276646.080000
   1516   1518     1   0.10969 276646.080000
   1519   1520     1   0.10969 276646.080000
   1519   1521     1   0.10969 276646.080000
   1523   1524     1   0.10969 276646.080000
   1523   1525     1   0.10969 276646.080000
   1526   1527     1   0.10969 276646.080000
   1526   1528     1   0.10969 276646.080000
   1529   1530     1   0.10969 276646.080000
   1529   1531     1   0.10969 276646.080000
   1532   1533     1   0.10969 276646.080000
   1532   1534     1   0.10969 276646.080000
   1539   1540     1   0.10129 337397.760000
   1541   1542     1   0.10969 276646.080000
   1541   1543     1   0.10969 276646.080000
   1544   1545     1   0.10969 276646.080000
   1544   1546     1   0.10969 276646.080000
   1548   1549     1   0.10969 276646.080000
   1548   1550     1   0.10969 276646.080000
   1551   1552     1   0.10969 276646.080000
   1551   1553     1   0.10969 276646.080000
   1554   1555     1   0.10969 276646.080000
   1554   1556     1   0.10969 276646.080000
   1557   1558     1   0.10969 276646.080000
   1557   1559     1   0.10969 276646.080000
   1564   1565     1   0.10129 337397.760000
   1566   1567     1   0.10969 276646.080000
   1566   1568     1   0.10969 276646.080000
   1569   1570     1   0.10969 276646.080000
   1569   1571     1   0.10969 276646.080000
   1573   1574     1   0.10969 276646.080000
   1573   1575     1   0.10969 276646.080000
   1576   1577     1   0.10969 276646.080000
   1576   1578     1   0.10969 276646.080000
   1579   1580     1   0.10969 276646.080000
   1579   1581     1   0.10969 276646.080000
   1582   1583     1   0.10969 276646.080000
   1582   1584     1   0.10969 276646.080000
   1589   1590     1   0.10129 337397.760000
   1591   1592     1   0.10969 276646.080000
   1591   1593     1   0.10969 276646.080000
   1594   1595     1   0.10969 276646.080000
   1594   1596     1   0.10969 276646.080000
   1598   1599     1   0.10969 276646.080000
   1598   1600     1   0.10969 276646.080000
   1601   1602     1   0.10969 276646.080000
   1601   1603     1   0.10969 276646.080000
   1604   1605     1   0.10969 276646.080000
   1604   1606     1   0.10969 276646.080000
   1607   1608     1   0.10969 276646.080000
   1607   1609     1   0.10969 276646.080000
   1614   1615     1   0.10129 337397.760000
   1616   1617     1   0.10969 276646.080000
   1616   1618     1   0.10969 276646.080000
   1619   1620     1   0.10969 276646.080000
   1619   1621     1   0.10969 276646.080000
   1623   1624     1   0.10969 276646.080000
   1623   1625     1   0.10969 276646.080000
   1626   1627     1   0.10969 276646.080000
   1626   1628     1   0.10969 276646.080000
   1629   1630     1   0.10969 276646.080000
   1629   1631     1   0.10969 276646.080000
   1632   1633     1   0.10969 276646.080000
   1632   1634     1   0.10969 276646.080000
   1639   1640     1   0.10129 337397.760000
   1641   1642     1   0.10969 276646.080000
   1641   1643     1   0.10969 276646.080000
   1644   1645     1   0.10969 276646.080000
   1644   1646     1   0.10969 276646.080000
   1648   1649     1   0.10969 276646.080000
   1648   1650     1   0.10969 276646.080000
   1651   1652     1   0.10969 276646.080000
   1651   1653     1   0.10969 276646.080000
   1654   1655     1   0.10969 276646.080000
   1654   1656     1   0.10969 276646.080000
   1657   1658     1   0.10969 276646.080000
   1657   1659     1   0.10969 276646.080000
   1664   1665     1   0.10129 337397.760000
   1666   1667     1   0.10969 276646.080000
   1666   1668     1   0.10969 276646.080000
   1669   1670     1   0.10969 276646.080000
   1669   1671     1   0.10969 276646.080000
   1673   1674     1   0.10969 276646.080000
   1673   1675     1   0.10969 276646.080000
   1676   1677     1   0.10969 276646.080000
   1676   1678     1   0.10969 276646.080000
   1679   1680     1   0.10969 276646.080000
   1679   1681     1   0.10969 276646.080000
   1682   1683     1   0.10969 276646.080000
   1682   1684     1   0.10969 276646.080000
   1689   1690     1   0.10129 337397.760000
   1691   1692     1   0.10969 276646.080000
   1691   1693     1   0.10969 276646.080000
   1694   1695     1   0.10969 276646.080000
   1694   1696     1   0.10969 276646.080000
   1698   1699     1   0.10969 276646.080000
   1698   1700     1   0.10969 276646.080000
   1701   1702     1   0.10969 276646.080000
   1701   1703     1   0.10969 276646.080000
   1704   1705     1   0.10969 276646.080000
   1704   1706     1   0.10969 276646.080000
   1707   1708     1   0.10969 276646.080000
   1707   1709     1   0.10969 276646.080000
   1714   1715     1   0.10129 337397.760000
   1716   1717     1   0.10969 276646.080000
   1716   1718     1   0.10969 276646.080000
   1719   1720     1   0.10969 276646.080000
   1719   1721     1   0.10969 276646.080000
   1723   1724     1   0.10969 276646.080000
   1723   1725     1   0.10969 276646.080000
   1726   1727     1   0.10969 276646.080000
   1726   1728     1   0.10969 276646.080000
   1729   1730     1   0.10969 276646.080000
   1729   1731     1   0.10969 276646.080000
   1732   1733     1   0.10969 276646.080000
   1732   1734     1   0.10969 276646.080000
   1739   1740     1   0.10129 337397.760000
   1741   1742     1   0.10969 276646.080000
   1741   1743     1   0.10969 276646.080000
   1744   1745     1   0.10969 276646.080000
   1744   1746     1   0.10969 276646.080000
   1748   1749     1   0.10969 276646.080000
   1748   1750     1   0.10969 276646.080000
   1751   1752     1   0.10969 276646.080000
   1751   1753     1   0.10969 276646.080000
   1754   1755     1   0.10969 276646.080000
   1754   1756     1   0.10969 276646.080000
   1757   1758     1   0.10969 276646.080000
   1757   1759     1   0.10969 276646.080000
   1764   1765     1   0.10129 337397.760000
   1766   1767     1   0.10969 276646.080000
   1766   1768     1   0.10969 276646.080000
   1769   1770     1   0.10969 276646.080000
   1769   1771     1   0.10969 276646.080000
   1773   1774     1   0.10969 276646.080000
   1773   1775     1   0.10969 276646.080000
   1776   1777     1   0.10969 276646.080000
   1776   1778     1   0.10969 276646.080000
   1779   1780     1   0.10969 276646.080000
   1779   1781     1   0.10969 276646.080000
   1782   1783     1   0.10969 276646.080000
   1782   1784     1   0.10969 276646.080000
   1789   1790     1   0.10129 337397.760000
   1791   1792     1   0.10969 276646.080000
   1791   1793     1   0.10969 276646.080000
   1794   1795     1   0.10969 276646.080000
   1794   1796     1   0.10969 276646.080000
   1798   1799     1   0.10969 276646.080000
   1798   1800     1   0.10969 276646.080000
   1801   1802     1   0.10969 276646.080000
   1801   1803     1   0.10969 276646.080000
   1804   1805     1   0.10969 276646.080000
   1804   1806     1   0.10969 276646.080000
   1807   1808     1   0.10969 276646.080000
   1807   1809     1   0.10969 276646.080000
   1814   1815     1   0.10129 337397.760000
   1816   1817     1   0.10969 276646.080000
   1816   1818     1   0.10969 276646.080000
   1819   1820     1   0.10969 276646.080000
   1819   1821     1   0.10969 276646.080000
   1823   1824     1   0.10969 276646.080000
   1823   1825     1   0.10969 276646.080000
   1826   1827     1   0.10969 276646.080000
   1826   1828     1   0.10969 276646.080000
   1829   1830     1   0.10969 276646.080000
   1829   1831     1   0.10969 276646.080000
   1832   1833     1   0.10969 276646.080000
   1832   1834     1   0.10969 276646.080000
   1839   1840     1   0.10129 337397.760000
   1841   1842     1   0.10969 276646.080000
   1841   1843     1   0.10969 276646.080000
   1844   1845     1   0.10969 276646.080000
   1844   1846     1   0.10969 276646.080000
   1848   1849     1   0.10969 276646.080000
   1848   1850     1   0.10969 276646.080000
   1851   1852     1   0.10969 276646.080000
   1851   1853     1   0.10969 276646.080000
   1854   1855     1   0.10969 276646.080000
   1854   1856     1   0.10969 276646.080000
   1857   1858     1   0.10969 276646.080000
   1857   1859     1   0.10969 276646.080000
   1864   1865     1   0.10129 337397.760000
   1866   1867     1   0.10969 276646.080000
   1866   1868     1   0.10969 276646.080000
   1869   1870     1   0.10969 276646.080000
   1869   1871     1   0.10969 276646.080000
   1873   1874     1   0.10969 276646.080000
   1873   1875     1   0.10969 276646.080000
   1876   1877     1   0.10969 276646.080000
   1876   1878     1   0.10969 276646.080000
   1879   1880     1   0.10969 276646.080000
   1879   1881     1   0.10969 276646.080000
   1882   1883     1   0.10969 276646.080000
   1882   1884     1   0.10969 276646.080000
   1889   1890     1   0.10129 337397.760000
   1891   1892     1   0.10969 276646.080000
   1891   1893     1   0.10969 276646.080000
   1894   1895     1   0.10969 276646.080000
   1894   1896     1   0.10969 276646.080000
   1898   1899     1   0.10969 276646.080000
   1898   1900     1   0.10969 276646.080000
   1901   1902     1   0.10969 276646.080000
   1901   1903     1   0.10969 276646.080000
   1904   1905     1   0.10969 276646.080000
   1904   1906     1   0.10969 276646.080000
   1907   1908     1   0.10969 276646.080000
   1907   1909     1   0.10969 276646.080000
   1914   1915     1   0.10129 337397.760000
   1916   1917     1   0.10969 276646.080000
   1916   1918     1   0.10969 276646.080000
   1919   1920     1   0.10969 276646.080000
   1919   1921     1   0.10969 276646.080000
   1923   1924     1   0.10969 276646.080000
   1923   1925     1   0.10969 276646.080000
   1926   1927     1   0.10969 276646.080000
   1926   1928     1   0.10969 276646.080000
   1929   1930     1   0.10969 276646.080000
   1929   1931     1   0.10969 276646.080000
   1932   1933     1   0.10969 276646.080000
   1932   1934     1   0.10969 276646.080000
   1939   1940     1   0.10129 337397.760000
   1941   1942     1   0.10969 276646.080000
   1941   1943     1   0.10969 276646.080000
   1944   1945     1   0.10969 276646.080000
   1944   1946     1   0.10969 276646.080000
   1948   1949     1   0.10969 276646.080000
   1948   1950     1   0.10969 276646.080000
   1951   1952     1   0.10969 276646.080000
   1951   1953     1   0.10969 276646.080000
   1954   1955     1   0.10969 276646.080000
   1954   1956     1   0.10969 276646.080000
   1957   1958     1   0.10969 276646.080000
   1957   1959     1   0.10969 276646.080000
   1964   1965     1   0.10129 337397.760000
   1966   1967     1   0.10969 276646.080000
   1966   1968     1   0.10969 276646.080000
   1969   1970     1   0.10969 276646.080000
   1969   1971     1   0.10969 276646.080000
   1973   1974     1   0.10969 276646.080000
   1973   1975     1   0.10969 276646.080000
   1976   1977     1   0.10969 276646.080000
   1976   1978     1   0.10969 276646.080000
   1979   1980     1   0.10969 276646.080000
   1979   1981     1   0.10969 276646.080000
   1982   1983     1   0.10969 276646.080000
   1982   1984     1   0.10969 276646.080000
   1989   1990     1   0.10129 337397.760000
   1991   1992     1   0.10969 276646.080000
   1991   1993     1   0.10969 276646.080000
   1994   1995     1   0.10969 276646.080000
   1994   1996     1   0.10969 276646.080000
   1998   1999     1   0.10969 276646.080000
   1998   2000     1   0.10969 276646.080000
   2001   2002     1   0.10969 276646.080000
   2001   2003     1   0.10969 276646.080000
   2004   2005     1   0.10969 276646.080000
   2004   2006     1   0.10969 276646.080000
   2007   2008     1   0.10969 276646.080000
   2007   2009     1   0.10969 276646.080000
   2014   2015     1   0.10129 337397.760000
   2016   2017     1   0.10969 276646.080000
   2016   2018     1   0.10969 276646.080000
   2019   2020     1   0.10969 276646.080000
   2019   2021     1   0.10969 276646.080000
   2023   2024     1   0.10969 276646.080000
   2023   2025     1   0.10969 276646.080000
   2026   2027     1   0.10969 276646.080000
   2026   2028     1   0.10969 276646.080000
   2029   2030     1   0.10969 276646.080000
   2029   2031     1   0.10969 276646.080000
   2032   2033     1   0.10969 276646.080000
   2032   2034     1   0.10969 276646.080000
   2039   2040     1   0.10129 337397.760000
   2041   2042     1   0.10969 276646.080000
   2041   2043     1   0.10969 276646.080000
   2044   2045     1   0.10969 276646.080000
   2044   2046     1   0.10969 276646.080000
   2048   2049     1   0.10969 276646.080000
   2048   2050     1   0.10969 276646.080000
   2051   2052     1   0.10969 276646.080000
   2051   2053     1   0.10969 276646.080000
   2054   2055     1   0.10969 276646.080000
   2054   2056     1   0.10969 276646.080000
   2057   2058     1   0.10969 276646.080000
   2057   2059     1   0.10969 276646.080000
   2064   2065     1   0.10129 337397.760000
   2066   2067     1   0.10969 276646.080000
   2066   2068     1   0.10969 276646.080000
   2069   2070     1   0.10969 276646.080000
   2069   2071     1   0.10969 276646.080000
   2073   2074     1   0.10969 276646.080000
   2073   2075     1   0.10969 276646.080000
   2076   2077     1   0.10969 276646.080000
   2076   2078     1   0.10969 276646.080000
   2079   2080     1   0.10969 276646.080000
   2079   2081     1   0.10969 276646.080000
   2082   2083     1   0.10969 276646.080000
   2082   2084     1   0.10969 276646.080000
   2089   2090     1   0.10129 337397.760000
   2091   2092     1   0.10969 276646.080000
   2091   2093     1   0.10969 276646.080000
   2094   2095     1   0.10969 276646.080000
   2094   2096     1   0.10969 276646.080000
   2098   2099     1   0.10969 276646.080000
   2098   2100     1   0.10969 276646.080000
   2101   2102     1   0.10969 276646.080000
   2101   2103     1   0.10969 276646.080000
   2104   2105     1   0.10969 276646.080000
   2104   2106     1   0.10969 276646.080000
   2107   2108     1   0.10969 276646.080000
   2107   2109     1   0.10969 276646.080000
   2114   2115     1   0.10129 337397.760000
   2116   2117     1   0.10969 276646.080000
   2116   2118     1   0.10969 276646.080000
   2119   2120     1   0.10969 276646.080000
   2119   2121     1   0.10969 276646.080000
   2123   2124     1   0.10969 276646.080000
   2123   2125     1   0.10969 276646.080000
   2126   2127     1   0.10969 276646.080000
   2126   2128     1   0.10969 276646.080000
   2129   2130     1   0.10969 276646.080000
   2129   2131     1   0.10969 276646.080000
   2132   2133     1   0.10969 276646.080000
   2132   2134     1   0.10969 276646.080000
   2139   2140     1   0.10129 337397.760000
   2141   2142     1   0.10969 276646.080000
   2141   2143     1   0.10969 276646.080000
   2144   2145     1   0.10969 276646.080000
   2144   2146     1   0.10969 276646.080000
   2148   2149     1   0.10969 276646.080000
   2148   2150     1   0.10969 276646.080000
   2151   2152     1   0.10969 276646.080000
   2151   2153     1   0.10969 276646.080000
   2154   2155     1   0.10969 276646.080000
   2154   2156     1   0.10969 276646.080000
   2157   2158     1   0.10969 276646.080000
   2157   2159     1   0.10969 276646.080000
   2164   2165     1   0.10129 337397.760000
   2166   2167     1   0.10969 276646.080000
   2166   2168     1   0.10969 276646.080000
   2169   2170     1   0.10969 276646.080000
   2169   2171     1   0.10969 276646.080000
   2173   2174     1   0.10969 276646.080000
   2173   2175     1   0.10969 276646.080000
   2176   2177     1   0.10969 276646.080000
   2176   2178     1   0.10969 276646.080000
   2179   2180     1   0.10969 276646.080000
   2179   2181     1   0.10969 276646.080000
   2182   2183     1   0.10969 276646.080000
   2182   2184     1   0.10969 276646.080000
   2189   2190     1   0.10129 337397.760000
   2191   2192     1   0.10969 276646.080000
   2191   2193     1   0.10969 276646.080000
   2194   2195     1   0.10969 276646.080000
   2194   2196     1   0.10969 276646.080000
   2198   2199     1   0.10969 276646.080000
   2198   2200     1   0.10969 276646.080000
   2201   2202     1   0.10969 276646.080000
   2201   2203     1   0.10969 276646.080000
   2204   2205     1   0.10969 276646.080000
   2204   2206     1   0.10969 276646.080000
   2207   2208     1   0.10969 276646.080000
   2207   2209     1   0.10969 276646.080000
   2214   2215     1   0.10129 337397.760000
   2216   2217     1   0.10969 276646.080000
   2216   2218     1   0.10969 276646.080000
   2219   2220     1   0.10969 276646.080000
   2219   2221     1   0.10969 276646.080000
   2223   2224     1   0.10969 276646.080000
   2223   2225     1   0.10969 276646.080000
   2226   2227     1   0.10969 276646.080000
   2226   2228     1   0.10969 276646.080000
   2229   2230     1   0.10969 276646.080000
   2229   2231     1   0.10969 276646.080000
   2232   2233     1   0.10969 276646.080000
   2232   2234     1   0.10969 276646.080000
   2239   2240     1   0.10129 337397.760000
   2241   2242     1   0.10969 276646.080000
   2241   2243     1   0.10969 276646.080000
   2244   2245     1   0.10969 276646.080000
   2244   2246     1   0.10969 276646.080000
   2248   2249     1   0.10969 276646.080000
   2248   2250     1   0.10969 276646.080000
   2251   2252     1   0.10969 276646.080000
   2251   2253     1   0.10969 276646.080000
   2254   2255     1   0.10969 276646.080000
   2254   2256     1   0.10969 276646.080000
   2257   2258     1   0.10969 276646.080000
   2257   2259     1   0.10969 276646.080000
   2264   2265     1   0.10129 337397.760000
   2266   2267     1   0.10969 276646.080000
   2266   2268     1   0.10969 276646.080000
   2269   2270     1   0.10969 276646.080000
   2269   2271     1   0.10969 276646.080000
   2273   2274     1   0.10969 276646.080000
   2273   2275     1   0.10969 276646.080000
   2276   2277     1   0.10969 276646.080000
   2276   2278     1   0.10969 276646.080000
   2279   2280     1   0.10969 276646.080000
   2279   2281     1   0.10969 276646.080000
   2282   2283     1   0.10969 276646.080000
   2282   2284     1   0.10969 276646.080000
   2289   2290     1   0.10129 337397.760000
   2291   2292     1   0.10969 276646.080000
   2291   2293     1   0.10969 276646.080000
   2294   2295     1   0.10969 276646.080000
   2294   2296     1   0.10969 276646.080000
   2298   2299     1   0.10969 276646.080000
   2298   2300     1   0.10969 276646.080000
   2301   2302     1   0.10969 276646.080000
   2301   2303     1   0.10969 276646.080000
   2304   2305     1   0.10969 276646.080000
   2304   2306     1   0.10969 276646.080000
   2307   2308     1   0.10969 276646.080000
   2307   2309     1   0.10969 276646.080000
   2314   2315     1   0.10129 337397.760000
   2316   2317     1   0.10969 276646.080000
   2316   2318     1   0.10969 276646.080000
   2319   2320     1   0.10969 276646.080000
   2319   2321     1   0.10969 276646.080000
   2323   2324     1   0.10969 276646.080000
   2323   2325     1   0.10969 276646.080000
   2326   2327     1   0.10969 276646.080000
   2326   2328     1   0.10969 276646.080000
   2329   2330     1   0.10969 276646.080000
   2329   2331     1   0.10969 276646.080000
   2332   2333     1   0.10969 276646.080000
   2332   2334     1   0.10969 276646.080000
   2339   2340     1   0.10129 337397.760000
   2341   2342     1   0.10969 276646.080000
   2341   2343     1   0.10969 276646.080000
   2344   2345     1   0.10969 276646.080000
   2344   2346     1   0.10969 276646.080000
   2348   2349     1   0.10969 276646.080000
   2348   2350     1   0.10969 276646.080000
   2351   2352     1   0.10969 276646.080000
   2351   2353     1   0.10969 276646.080000
   2354   2355     1   0.10969 276646.080000
   2354   2356     1   0.10969 276646.080000
   2357   2358     1   0.10969 276646.080000
   2357   2359     1   0.10969 276646.080000
   2364   2365     1   0.10129 337397.760000
   2366   2367     1   0.10969 276646.080000
   2366   2368     1   0.10969 276646.080000
   2369   2370     1   0.10969 276646.080000
   2369   2371     1   0.10969 276646.080000
   2373   2374     1   0.10969 276646.080000
   2373   2375     1   0.10969 276646.080000
   2376   2377     1   0.10969 276646.080000
   2376   2378     1   0.10969 276646.080000
   2379   2380     1   0.10969 276646.080000
   2379   2381     1   0.10969 276646.080000
   2382   2383     1   0.10969 276646.080000
   2382   2384     1   0.10969 276646.080000
   2389   2390     1   0.10129 337397.760000
   2391   2392     1   0.10969 276646.080000
   2391   2393     1   0.10969 276646.080000
   2394   2395     1   0.10969 276646.080000
   2394   2396     1   0.10969 276646.080000
   2398   2399     1   0.10969 276646.080000
   2398   2400     1   0.10969 276646.080000
   2401   2402     1   0.10969 276646.080000
   2401   2403     1   0.10969 276646.080000
   2404   2405     1   0.10969 276646.080000
   2404   2406     1   0.10969 276646.080000
   2407   2408     1   0.10969 276646.080000
   2407   2409     1   0.10969 276646.080000
   2414   2415     1   0.10129 337397.760000
   2416   2417     1   0.10969 276646.080000
   2416   2418     1   0.10969 276646.080000
   2419   2420     1   0.10969 276646.080000
   2419   2421     1   0.10969 276646.080000
   2423   2424     1   0.10969 276646.080000
   2423   2425     1   0.10969 276646.080000
   2426   2427     1   0.10969 276646.080000
   2426   2428     1   0.10969 276646.080000
   2429   2430     1   0.10969 276646.080000
   2429   2431     1   0.10969 276646.080000
   2432   2433     1   0.10969 276646.080000
   2432   2434     1   0.10969 276646.080000
   2439   2440     1   0.10129 337397.760000
   2441   2442     1   0.10969 276646.080000
   2441   2443     1   0.10969 276646.080000
   2444   2445     1   0.10969 276646.080000
   2444   2446     1   0.10969 276646.080000
   2448   2449     1   0.10969 276646.080000
   2448   2450     1   0.10969 276646.080000
   2451   2452     1   0.10969 276646.080000
   2451   2453     1   0.10969 276646.080000
   2454   2455     1   0.10969 276646.080000
   2454   2456     1   0.10969 276646.080000
   2457   2458     1   0.10969 276646.080000
   2457   2459     1   0.10969 276646.080000
   2464   2465     1   0.10129 337397.760000
   2466   2467     1   0.10969 276646.080000
   2466   2468     1   0.10969 276646.080000
   2469   2470     1   0.10969 276646.080000
   2469   2471     1   0.10969 276646.080000
   2473   2474     1   0.10969 276646.080000
   2473   2475     1   0.10969 276646.080000
   2476   2477     1   0.10969 276646.080000
   2476   2478     1   0.10969 276646.080000
   2479   2480     1   0.10969 276646.080000
   2479   2481     1   0.10969 276646.080000
   2482   2483     1   0.10969 276646.080000
   2482   2484     1   0.10969 276646.080000
   2489   2490     1   0.10129 337397.760000
   2491   2492     1   0.10969 276646.080000
   2491   2493     1   0.10969 276646.080000
   2494   2495     1   0.10969 276646.080000
   2494   2496     1   0.10969 276646.080000
   2498   2499     1   0.10969 276646.080000
   2498   2500     1   0.10969 276646.080000
   2501   2502     1   0.10969 276646.080000
   2501   2503     1   0.10969 276646.080000
   2504   2505     1   0.10969 276646.080000
   2504   2506     1   0.10969 276646.080000
   2507   2508     1   0.10969 276646.080000
   2507   2509     1   0.10969 276646.080000
   2514   2515     1   0.10129 337397.760000
   2516   2517     1   0.10969 276646.080000
   2516   2518     1   0.10969 276646.080000
   2519   2520     1   0.10969 276646.080000
   2519   2521     1   0.10969 276646.080000
   2523   2524     1   0.10969 276646.080000
   2523   2525     1   0.10969 276646.080000
   2526   2527     1   0.10969 276646.080000
   2526   2528     1   0.10969 276646.080000
   2529   2530     1   0.10969 276646.080000
   2529   2531     1   0.10969 276646.080000
   2532   2533     1   0.10969 276646.080000
   2532   2534     1   0.10969 276646.080000
   2539   2540     1   0.10129 337397.760000
   2541   2542     1   0.10969 276646.080000
   2541   2543     1   0.10969 276646.080000
   2544   2545     1   0.10969 276646.080000
   2544   2546     1   0.10969 276646.080000
   2548   2549     1   0.10969 276646.080000
   2548   2550     1   0.10969 276646.080000
   2551   2552     1   0.10969 276646.080000
   2551   2553     1   0.10969 276646.080000
   2554   2555     1   0.10969 276646.080000
   2554   2556     1   0.10969 276646.080000
   2557   2558     1   0.10969 276646.080000
   2557   2559     1   0.10969 276646.080000
   2564   2565     1   0.10129 337397.760000
   2566   2567     1   0.10969 276646.080000
   2566   2568     1   0.10969 276646.080000
   2569   2570     1   0.10969 276646.080000
   2569   2571     1   0.10969 276646.080000
   2573   2574     1   0.10969 276646.080000
   2573   2575     1   0.10969 276646.080000
   2576   2577     1   0.10969 276646.080000
   2576   2578     1   0.10969 276646.080000
   2579   2580     1   0.10969 276646.080000
   2579   2581     1   0.10969 276646.080000
   2582   2583     1   0.10969 276646.080000
   2582   2584     1   0.10969 276646.080000
   2589   2590     1   0.10129 337397.760000
   2591   2592     1   0.10969 276646.080000
   2591   2593     1   0.10969 276646.080000
   2594   2595     1   0.10969 276646.080000
   2594   2596     1   0.10969 276646.080000
   2598   2599     1   0.10969 276646.080000
   2598   2600     1   0.10969 276646.080000
   2601   2602     1   0.10969 276646.080000
   2601   2603     1   0.10969 276646.080000
   2604   2605     1   0.10969 276646.080000
   2604   2606     1   0.10969 276646.080000
   2607   2608     1   0.10969 276646.080000
   2607   2609     1   0.10969 276646.080000
   2614   2615     1   0.10129 337397.760000
   2616   2617     1   0.10969 276646.080000
   2616   2618     1   0.10969 276646.080000
   2619   2620     1   0.10969 276646.080000
   2619   2621     1   0.10969 276646.080000
   2623   2624     1   0.10969 276646.080000
   2623   2625     1   0.10969 276646.080000
   2626   2627     1   0.10969 276646.080000
   2626   2628     1   0.10969 276646.080000
   2629   2630     1   0.10969 276646.080000
   2629   2631     1   0.10969 276646.080000
   2632   2633     1   0.10969 276646.080000
   2632   2634     1   0.10969 276646.080000
   2639   2640     1   0.10129 337397.760000
   2641   2642     1   0.10969 276646.080000
   2641   2643     1   0.10969 276646.080000
   2644   2645     1   0.10969 276646.080000
   2644   2646     1   0.10969 276646.080000
   2648   2649     1   0.10969 276646.080000
   2648   2650     1   0.10969 276646.080000
   2651   2652     1   0.10969 276646.080000
   2651   2653     1   0.10969 276646.080000
   2654   2655     1   0.10969 276646.080000
   2654   2656     1   0.10969 276646.080000
   2657   2658     1   0.10969 276646.080000
   2657   2659     1   0.10969 276646.080000
   2664   2665     1   0.10129 337397.760000
   2666   2667     1   0.10969 276646.080000
   2666   2668     1   0.10969 276646.080000
   2669   2670     1   0.10969 276646.080000
   2669   2671     1   0.10969 276646.080000
   2673   2674     1   0.10969 276646.080000
   2673   2675     1   0.10969 276646.080000
   2676   2677     1   0.10969 276646.080000
   2676   2678     1   0.10969 276646.080000
   2679   2680     1   0.10969 276646.080000
   2679   2681     1   0.10969 276646.080000
   2682   2683     1   0.10969 276646.080000
   2682   2684     1   0.10969 276646.080000
   2689   2690     1   0.10129 337397.760000
   2691   2692     1   0.10969 276646.080000
   2691   2693     1   0.10969 276646.080000
   2694   2695     1   0.10969 276646.080000
   2694   2696     1   0.10969 276646.080000
   2698   2699     1   0.10969 276646.080000
   2698   2700     1   0.10969 276646.080000
   2701   2702     1   0.10969 276646.080000
   2701   2703     1   0.10969 276646.080000
   2704   2705     1   0.10969 276646.080000
   2704   2706     1   0.10969 276646.080000
   2707   2708     1   0.10969 276646.080000
   2707   2709     1   0.10969 276646.080000
   2714   2715     1   0.10129 337397.760000
   2716   2717     1   0.10969 276646.080000
   2716   2718     1   0.10969 276646.080000
   2719   2720     1   0.10969 276646.080000
   2719   2721     1   0.10969 276646.080000
   2723   2724     1   0.10969 276646.080000
   2723   2725     1   0.10969 276646.080000
   2726   2727     1   0.10969 276646.080000
   2726   2728     1   0.10969 276646.080000
   2729   2730     1   0.10969 276646.080000
   2729   2731     1   0.10969 276646.080000
   2732   2733     1   0.10969 276646.080000
   2732   2734     1   0.10969 276646.080000
   2739   2740     1   0.10129 337397.760000
   2741   2742     1   0.10969 276646.080000
   2741   2743     1   0.10969 276646.080000
   2744   2745     1   0.10969 276646.080000
   2744   2746     1   0.10969 276646.080000
   2748   2749     1   0.10969 276646.080000
   2748   2750     1   0.10969 276646.080000
   2751   2752     1   0.10969 276646.080000
   2751   2753     1   0.10969 276646.080000
   2754   2755     1   0.10969 276646.080000
   2754   2756     1   0.10969 276646.080000
   2757   2758     1   0.10969 276646.080000
   2757   2759     1   0.10969 276646.080000
   2764   2765     1   0.10129 337397.760000
   2766   2767     1   0.10969 276646.080000
   2766   2768     1   0.10969 276646.080000
   2769   2770     1   0.10969 276646.080000
   2769   2771     1   0.10969 276646.080000
   2773   2774     1   0.10969 276646.080000
   2773   2775     1   0.10969 276646.080000
   2776   2777     1   0.10969 276646.080000
   2776   2778     1   0.10969 276646.080000
   2779   2780     1   0.10969 276646.080000
   2779   2781     1   0.10969 276646.080000
   2782   2783     1   0.10969 276646.080000
   2782   2784     1   0.10969 276646.080000
   2789   2790     1   0.10129 337397.760000
   2791   2792     1   0.10969 276646.080000
   2791   2793     1   0.10969 276646.080000
   2794   2795     1   0.10969 276646.080000
   2794   2796     1   0.10969 276646.080000
   2798   2799     1   0.10969 276646.080000
   2798   2800     1   0.10969 276646.080000
   2801   2802     1   0.10969 276646.080000
   2801   2803     1   0.10969 276646.080000
   2804   2805     1   0.10969 276646.080000
   2804   2806     1   0.10969 276646.080000
   2807   2808     1   0.10969 276646.080000
   2807   2809     1   0.10969 276646.080000
   2814   2815     1   0.10129 337397.760000
   2816   2817     1   0.10969 276646.080000
   2816   2818     1   0.10969 276646.080000
   2819   2820     1   0.10969 276646.080000
   2819   2821     1   0.10969 276646.080000
   2823   2824     1   0.10969 276646.080000
   2823   2825     1   0.10969 276646.080000
   2826   2827     1   0.10969 276646.080000
   2826   2828     1   0.10969 276646.080000
   2829   2830     1   0.10969 276646.080000
   2829   2831     1   0.10969 276646.080000
   2832   2833     1   0.10969 276646.080000
   2832   2834     1   0.10969 276646.080000
   2839   2840     1   0.10129 337397.760000
   2841   2842     1   0.10969 276646.080000
   2841   2843     1   0.10969 276646.080000
   2844   2845     1   0.10969 276646.080000
   2844   2846     1   0.10969 276646.080000
   2848   2849     1   0.10969 276646.080000
   2848   2850     1   0.10969 276646.080000
   2851   2852     1   0.10969 276646.080000
   2851   2853     1   0.10969 276646.080000
   2854   2855     1   0.10969 276646.080000
   2854   2856     1   0.10969 276646.080000
   2857   2858     1   0.10969 276646.080000
   2857   2859     1   0.10969 276646.080000
   2864   2865     1   0.10129 337397.760000
   2866   2867     1   0.10969 276646.080000
   2866   2868     1   0.10969 276646.080000
   2869   2870     1   0.10969 276646.080000
   2869   2871     1   0.10969 276646.080000
   2873   2874     1   0.10969 276646.080000
   2873   2875     1   0.10969 276646.080000
   2876   2877     1   0.10969 276646.080000
   2876   2878     1   0.10969 276646.080000
   2879   2880     1   0.10969 276646.080000
   2879   2881     1   0.10969 276646.080000
   2882   2883     1   0.10969 276646.080000
   2882   2884     1   0.10969 276646.080000
   2889   2890     1   0.10129 337397.760000
   2891   2892     1   0.10969 276646.080000
   2891   2893     1   0.10969 276646.080000
   2894   2895     1   0.10969 276646.080000
   2894   2896     1   0.10969 276646.080000
   2898   2899     1   0.10969 276646.080000
   2898   2900     1   0.10969 276646.080000
   2901   2902     1   0.10969 276646.080000
   2901   2903     1   0.10969 276646.080000
   2904   2905     1   0.10969 276646.080000
   2904   2906     1   0.10969 276646.080000
   2907   2908     1   0.10969 276646.080000
   2907   2909     1   0.10969 276646.080000
   2914   2915     1   0.10129 337397.760000
   2916   2917     1   0.10969 276646.080000
   2916   2918     1   0.10969 276646.080000
   2919   2920     1   0.10969 276646.080000
   2919   2921     1   0.10969 276646.080000
   2923   2924     1   0.10969 276646.080000
   2923   2925     1   0.10969 276646.080000
   2926   2927     1   0.10969 276646.080000
   2926   2928     1   0.10969 276646.080000
   2929   2930     1   0.10969 276646.080000
   2929   2931     1   0.10969 276646.080000
   2932   2933     1   0.10969 276646.080000
   2932   2934     1   0.10969 276646.080000
   2939   2940     1   0.10129 337397.760000
   2941   2942     1   0.10969 276646.080000
   2941   2943     1   0.10969 276646.080000
   2944   2945     1   0.10969 276646.080000
   2944   2946     1   0.10969 276646.080000
   2948   2949     1   0.10969 276646.080000
   2948   2950     1   0.10969 276646.080000
   2951   2952     1   0.10969 276646.080000
   2951   2953     1   0.10969 276646.080000
   2954   2955     1   0.10969 276646.080000
   2954   2956     1   0.10969 276646.080000
   2957   2958     1   0.10969 276646.080000
   2957   2959     1   0.10969 276646.080000
   2964   2965     1   0.10129 337397.760000
   2966   2967     1   0.10969 276646.080000
   2966   2968     1   0.10969 276646.080000
   2969   2970     1   0.10969 276646.080000
   2969   2971     1   0.10969 276646.080000
   2973   2974     1   0.10969 276646.080000
   2973   2975     1   0.10969 276646.080000
   2976   2977     1   0.10969 276646.080000
   2976   2978     1   0.10969 276646.080000
   2979   2980     1   0.10969 276646.080000
   2979   2981     1   0.10969 276646.080000
   2982   2983     1   0.10969 276646.080000
   2982   2984     1   0.10969 276646.080000
   2989   2990     1   0.10129 337397.760000
   2991   2992     1   0.10969 276646.080000
   2991   2993     1   0.10969 276646.080000
   2994   2995     1   0.10969 276646.080000
   2994   2996     1   0.10969 276646.080000
   2998   2999     1   0.10969 276646.080000
   2998   3000     1   0.10969 276646.080000
   3001   3002     1   0.10969 276646.080000
   3001   3003     1   0.10969 276646.080000
   3004   3005     1   0.10969 276646.080000
   3004   3006     1   0.10969 276646.080000
   3007   3008     1   0.10969 276646.080000
   3007   3009     1   0.10969 276646.080000
   3014   3015     1   0.10129 337397.760000
   3016   3017     1   0.10969 276646.080000
   3016   3018     1   0.10969 276646.080000
   3019   3020     1   0.10969 276646.080000
   3019   3021     1   0.10969 276646.080000
   3023   3024     1   0.10969 276646.080000
   3023   3025     1   0.10969 276646.080000
   3026   3027     1   0.10969 276646.080000
   3026   3028     1   0.10969 276646.080000
   3029   3030     1   0.10969 276646.080000
   3029   3031     1   0.10969 276646.080000
   3032   3033     1   0.10969 276646.080000
   3032   3034     1   0.10969 276646.080000
   3039   3040     1   0.10129 337397.760000
   3041   3042     1   0.10969 276646.080000
   3041   3043     1   0.10969 276646.080000
   3044   3045     1   0.10969 276646.080000
   3044   3046     1   0.10969 276646.080000
   3048   3049     1   0.10969 276646.080000
   3048   3050     1   0.10969 276646.080000
   3051   3052     1   0.10969 276646.080000
   3051   3053     1   0.10969 276646.080000
   3054   3055     1   0.10969 276646.080000
   3054   3056     1   0.10969 276646.080000
   3057   3058     1   0.10969 276646.080000
   3057   3059     1   0.10969 276646.080000
   3064   3065     1   0.10129 337397.760000
   3066   3067     1   0.10969 276646.080000
   3066   3068     1   0.10969 276646.080000
   3069   3070     1   0.10969 276646.080000
   3069   3071     1   0.10969 276646.080000
   3073   3074     1   0.10969 276646.080000
   3073   3075     1   0.10969 276646.080000
   3076   3077     1   0.10969 276646.080000
   3076   3078     1   0.10969 276646.080000
   3079   3080     1   0.10969 276646.080000
   3079   3081     1   0.10969 276646.080000
   3082   3083     1   0.10969 276646.080000
   3082   3084     1   0.10969 276646.080000
   3089   3090     1   0.10129 337397.760000
   3091   3092     1   0.10969 276646.080000
   3091   3093     1   0.10969 276646.080000
   3094   3095     1   0.10969 276646.080000
   3094   3096     1   0.10969 276646.080000
   3098   3099     1   0.10969 276646.080000
   3098   3100     1   0.10969 276646.080000
   3101   3102     1   0.10969 276646.080000
   3101   3103     1   0.10969 276646.080000
   3104   3105     1   0.10969 276646.080000
   3104   3106     1   0.10969 276646.080000
   3107   3108     1   0.10969 276646.080000
   3107   3109     1   0.10969 276646.080000
   3114   3115     1   0.10129 337397.760000
   3116   3117     1   0.10969 276646.080000
   3116   3118     1   0.10969 276646.080000
   3119   3120     1   0.10969 276646.080000
   3119   3121     1   0.10969 276646.080000
   3123   3124     1   0.10969 276646.080000
   3123   3125     1   0.10969 276646.080000
   3126   3127     1   0.10969 276646.080000
   3126   3128     1   0.10969 276646.080000
   3129   3130     1   0.10969 276646.080000
   3129   3131     1   0.10969 276646.080000
   3132   3133     1   0.10969 276646.080000
   3132   3134     1   0.10969 276646.080000
   3139   3140     1   0.10129 337397.760000
   3141   3142     1   0.10129 337397.760000
   3143   3144     1   0.10969 276646.080000
   3143   3146     1   0.10969 276646.080000
   3145   3147     1   0.10969 276646.080000
   3145   3148     1   0.10969 276646.080000
   3150   3160     1   0.10969 276646.080000
   3150   3161     1   0.10969 276646.080000
   3151   3152     1   0.10969 276646.080000
   3151   3154     1   0.10969 276646.080000
   3153   3155     1   0.10969 276646.080000
   3153   3156     1   0.10969 276646.080000
   3158   3168     1   0.09730 310787.520000
   3162   3163     1   0.10969 276646.080000
   3162   3164     1   0.10969 276646.080000
   3167   3169     1   0.09730 310787.520000
   3170   3171     1   0.10129 337397.760000
   3172   3173     1   0.10969 276646.080000
   3172   3175     1   0.10969 276646.080000
   3174   3176     1   0.10969 276646.080000
   3174   3177     1   0.10969 276646.080000
   3179   3189     1   0.10969 276646.080000
   3179   3190     1   0.10969 276646.080000
   3180   3181     1   0.10969 276646.080000
   3180   3183     1   0.10969 276646.080000
   3182   3184     1   0.10969 276646.080000
   3182   3185     1   0.10969 276646.080000
   3187   3197     1   0.09730 310787.520000
   3191   3192     1   0.10969 276646.080000
   3191   3193     1   0.10969 276646.080000
   3196   3198     1   0.09730 310787.520000
   3199   3200     1   0.10129 337397.760000
   3201   3202     1   0.10969 276646.080000
   3201   3204     1   0.10969 276646.080000
   3203   3205     1   0.10969 276646.080000
   3203   3206     1   0.10969 276646.080000
   3208   3218     1   0.10969 276646.080000
   3208   3219     1   0.10969 276646.080000
   3209   3210     1   0.10969 276646.080000
   3209   3212     1   0.10969 276646.080000
   3211   3213     1   0.10969 276646.080000
   3211   3214     1   0.10969 276646.080000
   3216   3226     1   0.09730 310787.520000
   3220   3221     1   0.10969 276646.080000
   3220   3222     1   0.10969 276646.080000
   3225   3227     1   0.09730 310787.520000
   3228   3229     1   0.10129 337397.760000
   3230   3231     1   0.10969 276646.080000
   3230   3233     1   0.10969 276646.080000
   3232   3234     1   0.10969 276646.080000
   3232   3235     1   0.10969 276646.080000
   3237   3247     1   0.10969 276646.080000
   3237   3248     1   0.10969 276646.080000
   3238   3239     1   0.10969 276646.080000
   3238   3241     1   0.10969 276646.080000
   3240   3242     1   0.10969 276646.080000
   3240   3243     1   0.10969 276646.080000
   3245   3255     1   0.09730 310787.520000
   3249   3250     1   0.10969 276646.080000
   3249   3251     1   0.10969 276646.080000
   3254   3256     1   0.09730 310787.520000
   3257   3258     1   0.10129 337397.760000
   3259   3260     1   0.10969 276646.080000
   3259   3262     1   0.10969 276646.080000
   3261   3263     1   0.10969 276646.080000
   3261   3264     1   0.10969 276646.080000
   3266   3276     1   0.10969 276646.080000
   3266   3277     1   0.10969 276646.080000
   3267   3268     1   0.10969 276646.080000
   3267   3270     1   0.10969 276646.080000
   3269   3271     1   0.10969 276646.080000
   3269   3272     1   0.10969 276646.080000
   3274   3284     1   0.09730 310787.520000
   3278   3279     1   0.10969 276646.080000
   3278   3280     1   0.10969 276646.080000
   3283   3285     1   0.09730 310787.520000
   3286   3287     1   0.10129 337397.760000
   3288   3289     1   0.10969 276646.080000
   3288   3291     1   0.10969 276646.080000
   3290   3292     1   0.10969 276646.080000
   3290   3293     1   0.10969 276646.080000
   3295   3305     1   0.10969 276646.080000
   3295   3306     1   0.10969 276646.080000
   3296   3297     1   0.10969 276646.080000
   3296   3299     1   0.10969 276646.080000
   3298   3300     1   0.10969 276646.080000
   3298   3301     1   0.10969 276646.080000
   3303   3313     1   0.09730 310787.520000
   3307   3308     1   0.10969 276646.080000
   3307   3309     1   0.10969 276646.080000
   3312   3314     1   0.09730 310787.520000
   3315   3316     1   0.10129 337397.760000
   3317   3318     1   0.10969 276646.080000
   3317   3320     1   0.10969 276646.080000
   3319   3321     1   0.10969 276646.080000
   3319   3322     1   0.10969 276646.080000
   3324   3334     1   0.10969 276646.080000
   3324   3335     1   0.10969 276646.080000
   3325   3326     1   0.10969 276646.080000
   3325   3328     1   0.10969 276646.080000
   3327   3329     1   0.10969 276646.080000
   3327   3330     1   0.10969 276646.080000
   3332   3342     1   0.09730 310787.520000
   3336   3337     1   0.10969 276646.080000
   3336   3338     1   0.10969 276646.080000
   3341   3343     1   0.09730 310787.520000
   3344   3345     1   0.10129 337397.760000
   3346   3347     1   0.10969 276646.080000
   3346   3349     1   0.10969 276646.080000
   3348   3350     1   0.10969 276646.080000
   3348   3351     1   0.10969 276646.080000
   3353   3363     1   0.10969 276646.080000
   3353   3364     1   0.10969 276646.080000
   3354   3355     1   0.10969 276646.080000
   3354   3357     1   0.10969 276646.080000
   3356   3358     1   0.10969 276646.080000
   3356   3359     1   0.10969 276646.080000
   3361   3371     1   0.09730 310787.520000
   3365   3366     1   0.10969 276646.080000
   3365   3367     1   0.10969 276646.080000
   3370   3372     1   0.09730 310787.520000
   3373   3374     1   0.10129 337397.760000
   3375   3376     1   0.10969 276646.080000
   3375   3378     1   0.10969 276646.080000
   3377   3379     1   0.10969 276646.080000
   3377   3380     1   0.10969 276646.080000
   3382   3392     1   0.10969 276646.080000
   3382   3393     1   0.10969 276646.080000
   3383   3384     1   0.10969 276646.080000
   3383   3386     1   0.10969 276646.080000
   3385   3387     1   0.10969 276646.080000
   3385   3388     1   0.10969 276646.080000
   3390   3400     1   0.09730 310787.520000
   3394   3395     1   0.10969 276646.080000
   3394   3396     1   0.10969 276646.080000
   3399   3401     1   0.09730 310787.520000
   3402   3403     1   0.10129 337397.760000
   3404   3405     1   0.10969 276646.080000
   3404   3407     1   0.10969 276646.080000
   3406   3408     1   0.10969 276646.080000
   3406   3409     1   0.10969 276646.080000
   3411   3421     1   0.10969 276646.080000
   3411   3422     1   0.10969 276646.080000
   3412   3413     1   0.10969 276646.080000
   3412   3415     1   0.10969 276646.080000
   3414   3416     1   0.10969 276646.080000
   3414   3417     1   0.10969 276646.080000
   3419   3429     1   0.09730 310787.520000
   3423   3424     1   0.10969 276646.080000
   3423   3425     1   0.10969 276646.080000
   3428   3430     1   0.09730 310787.520000
   3431   3432     1   0.10129 337397.760000
   3433   3434     1   0.10969 276646.080000
   3433   3436     1   0.10969 276646.080000
   3435   3437     1   0.10969 276646.080000
   3435   3438     1   0.10969 276646.080000
   3440   3450     1   0.10969 276646.080000
   3440   3451     1   0.10969 276646.080000
   3441   3442     1   0.10969 276646.080000
   3441   3444     1   0.10969 276646.080000
   3443   3445     1   0.10969 276646.080000
   3443   3446     1   0.10969 276646.080000
   3448   3458     1   0.09730 310787.520000
   3452   3453     1   0.10969 276646.080000
   3452   3454     1   0.10969 276646.080000
   3457   3459     1   0.09730 310787.520000
   3460   3461     1   0.10129 337397.760000
   3462   3463     1   0.10969 276646.080000
   3462   3465     1   0.10969 276646.080000
   3464   3466     1   0.10969 276646.080000
   3464   3467     1   0.10969 276646.080000
   3469   3479     1   0.10969 276646.080000
   3469   3480     1   0.10969 276646.080000
   3470   3471     1   0.10969 276646.080000
   3470   3473     1   0.10969 276646.080000
   3472   3474     1   0.10969 276646.080000
   3472   3475     1   0.10969 276646.080000
   3477   3487     1   0.09730 310787.520000
   3481   3482     1   0.10969 276646.080000
   3481   3483     1   0.10969 276646.080000
   3486   3488     1   0.09730 310787.520000
   3489   3490     1   0.10129 337397.760000
   3491   3492     1   0.10969 276646.080000
   3491   3494     1   0.10969 276646.080000
   3493   3495     1   0.10969 276646.080000
   3493   3496     1   0.10969 276646.080000
   3498   3508     1   0.10969 276646.080000
   3498   3509     1   0.10969 276646.080000
   3499   3500     1   0.10969 276646.080000
   3499   3502     1   0.10969 276646.080000
   3501   3503     1   0.10969 276646.080000
   3501   3504     1   0.10969 276646.080000
   3506   3516     1   0.09730 310787.520000
   3510   3511     1   0.10969 276646.080000
   3510   3512     1   0.10969 276646.080000
   3515   3517     1   0.09730 310787.520000
   3518   3519     1   0.10129 337397.760000
   3520   3521     1   0.10969 276646.080000
   3520   3523     1   0.10969 276646.080000
   3522   3524     1   0.10969 276646.080000
   3522   3525     1   0.10969 276646.080000
   3527   3537     1   0.10969 276646.080000
   3527   3538     1   0.10969 276646.080000
   3528   3529     1   0.10969 276646.080000
   3528   3531     1   0.10969 276646.080000
   3530   3532     1   0.10969 276646.080000
   3530   3533     1   0.10969 276646.080000
   3535   3545     1   0.09730 310787.520000
   3539   3540     1   0.10969 276646.080000
   3539   3541     1   0.10969 276646.080000
   3544   3546     1   0.09730 310787.520000
   3547   3548     1   0.10129 337397.760000
   3549   3550     1   0.10969 276646.080000
   3549   3552     1   0.10969 276646.080000
   3551   3553     1   0.10969 276646.080000
   3551   3554     1   0.10969 276646.080000
   3556   3566     1   0.10969 276646.080000
   3556   3567     1   0.10969 276646.080000
   3557   3558     1   0.10969 276646.080000
   3557   3560     1   0.10969 276646.080000
   3559   3561     1   0.10969 276646.080000
   3559   3562     1   0.10969 276646.080000
   3564   3574     1   0.09730 310787.520000
   3568   3569     1   0.10969 276646.080000
   3568   3570     1   0.10969 276646.080000
   3573   3575     1   0.09730 310787.520000
   3576   3577     1   0.10129 337397.760000
   3578   3579     1   0.10969 276646.080000
   3578   3581     1   0.10969 276646.080000
   3580   3582     1   0.10969 276646.080000
   3580   3583     1   0.10969 276646.080000
   3585   3595     1   0.10969 276646.080000
   3585   3596     1   0.10969 276646.080000
   3586   3587     1   0.10969 276646.080000
   3586   3589     1   0.10969 276646.080000
   3588   3590     1   0.10969 276646.080000
   3588   3591     1   0.10969 276646.080000
   3593   3603     1   0.09730 310787.520000
   3597   3598     1   0.10969 276646.080000
   3597   3599     1   0.10969 276646.080000
   3602   3604     1   0.09730 310787.520000
   3605   3606     1   0.10129 337397.760000
   3607   3608     1   0.10969 276646.080000
   3607   3610     1   0.10969 276646.080000
   3609   3611     1   0.10969 276646.080000
   3609   3612     1   0.10969 276646.080000
   3614   3624     1   0.10969 276646.080000
   3614   3625     1   0.10969 276646.080000
   3615   3616     1   0.10969 276646.080000
   3615   3618     1   0.10969 276646.080000
   3617   3619     1   0.10969 276646.080000
   3617   3620     1   0.10969 276646.080000
   3622   3632     1   0.09730 310787.520000
   3626   3627     1   0.10969 276646.080000
   3626   3628     1   0.10969 276646.080000
   3631   3633     1   0.09730 310787.520000
   3634   3635     1   0.10129 337397.760000
   3636   3637     1   0.10969 276646.080000
   3636   3639     1   0.10969 276646.080000
   3638   3640     1   0.10969 276646.080000
   3638   3641     1   0.10969 276646.080000
   3643   3653     1   0.10969 276646.080000
   3643   3654     1   0.10969 276646.080000
   3644   3645     1   0.10969 276646.080000
   3644   3647     1   0.10969 276646.080000
   3646   3648     1   0.10969 276646.080000
   3646   3649     1   0.10969 276646.080000
   3651   3661     1   0.09730 310787.520000
   3655   3656     1   0.10969 276646.080000
   3655   3657     1   0.10969 276646.080000
   3660   3662     1   0.09730 310787.520000
   3663   3664     1   0.10129 337397.760000
   3665   3666     1   0.10969 276646.080000
   3665   3668     1   0.10969 276646.080000
   3667   3669     1   0.10969 276646.080000
   3667   3670     1   0.10969 276646.080000
   3672   3682     1   0.10969 276646.080000
   3672   3683     1   0.10969 276646.080000
   3673   3674     1   0.10969 276646.080000
   3673   3676     1   0.10969 276646.080000
   3675   3677     1   0.10969 276646.080000
   3675   3678     1   0.10969 276646.080000
   3680   3690     1   0.09730 310787.520000
   3684   3685     1   0.10969 276646.080000
   3684   3686     1   0.10969 276646.080000
   3689   3691     1   0.09730 310787.520000
   3692   3693     1   0.10129 337397.760000
   3694   3695     1   0.10969 276646.080000
   3694   3697     1   0.10969 276646.080000
   3696   3698     1   0.10969 276646.080000
   3696   3699     1   0.10969 276646.080000
   3701   3711     1   0.10969 276646.080000
   3701   3712     1   0.10969 276646.080000
   3702   3703     1   0.10969 276646.080000
   3702   3705     1   0.10969 276646.080000
   3704   3706     1   0.10969 276646.080000
   3704   3707     1   0.10969 276646.080000
   3709   3719     1   0.09730 310787.520000
   3713   3714     1   0.10969 276646.080000
   3713   3715     1   0.10969 276646.080000
   3718   3720     1   0.09730 310787.520000
   3721   3722     1   0.10129 337397.760000
   3723   3724     1   0.10969 276646.080000
   3723   3726     1   0.10969 276646.080000
   3725   3727     1   0.10969 276646.080000
   3725   3728     1   0.10969 276646.080000
   3730   3740     1   0.10969 276646.080000
   3730   3741     1   0.10969 276646.080000
   3731   3732     1   0.10969 276646.080000
   3731   3734     1   0.10969 276646.080000
   3733   3735     1   0.10969 276646.080000
   3733   3736     1   0.10969 276646.080000
   3738   3748     1   0.09730 310787.520000
   3742   3743     1   0.10969 276646.080000
   3742   3744     1   0.10969 276646.080000
   3747   3749     1   0.09730 310787.520000
   3750   3751     1   0.10129 337397.760000
   3752   3753     1   0.10969 276646.080000
   3752   3755     1   0.10969 276646.080000
   3754   3756     1   0.10969 276646.080000
   3754   3757     1   0.10969 276646.080000
   3759   3769     1   0.10969 276646.080000
   3759   3770     1   0.10969 276646.080000
   3760   3761     1   0.10969 276646.080000
   3760   3763     1   0.10969 276646.080000
   3762   3764     1   0.10969 276646.080000
   3762   3765     1   0.10969 276646.080000
   3767   3777     1   0.09730 310787.520000
   3771   3772     1   0.10969 276646.080000
   3771   3773     1   0.10969 276646.080000
   3776   3778     1   0.09730 310787.520000
   3779   3780     1   0.10129 337397.760000
   3781   3782     1   0.10969 276646.080000
   3781   3784     1   0.10969 276646.080000
   3783   3785     1   0.10969 276646.080000
   3783   3786     1   0.10969 276646.080000
   3788   3798     1   0.10969 276646.080000
   3788   3799     1   0.10969 276646.080000
   3789   3790     1   0.10969 276646.080000
   3789   3792     1   0.10969 276646.080000
   3791   3793     1   0.10969 276646.080000
   3791   3794     1   0.10969 276646.080000
   3796   3806     1   0.09730 310787.520000
   3800   3801     1   0.10969 276646.080000
   3800   3802     1   0.10969 276646.080000
   3805   3807     1   0.09730 310787.520000
   3808   3809     1   0.10129 337397.760000
   3810   3811     1   0.10969 276646.080000
   3810   3813     1   0.10969 276646.080000
   3812   3814     1   0.10969 276646.080000
   3812   3815     1   0.10969 276646.080000
   3817   3827     1   0.10969 276646.080000
   3817   3828     1   0.10969 276646.080000
   3818   3819     1   0.10969 276646.080000
   3818   3821     1   0.10969 276646.080000
   3820   3822     1   0.10969 276646.080000
   3820   3823     1   0.10969 276646.080000
   3825   3835     1   0.09730 310787.520000
   3829   3830     1   0.10969 276646.080000
   3829   3831     1   0.10969 276646.080000
   3834   3836     1   0.09730 310787.520000
   3837   3838     1   0.10129 337397.760000
   3839   3840     1   0.10969 276646.080000
   3839   3842     1   0.10969 276646.080000
   3841   3843     1   0.10969 276646.080000
   3841   3844     1   0.10969 276646.080000
   3846   3856     1   0.10969 276646.080000
   3846   3857     1   0.10969 276646.080000
   3847   3848     1   0.10969 276646.080000
   3847   3850     1   0.10969 276646.080000
   3849   3851     1   0.10969 276646.080000
   3849   3852     1   0.10969 276646.080000
   3854   3864     1   0.09730 310787.520000
   3858   3859     1   0.10969 276646.080000
   3858   3860     1   0.10969 276646.080000
   3863   3865     1   0.09730 310787.520000
   3866   3867     1   0.10129 337397.760000
   3868   3869     1   0.10969 276646.080000
   3868   3871     1   0.10969 276646.080000
   3870   3872     1   0.10969 276646.080000
   3870   3873     1   0.10969 276646.080000
   3875   3885     1   0.10969 276646.080000
   3875   3886     1   0.10969 276646.080000
   3876   3877     1   0.10969 276646.080000
   3876   3879     1   0.10969 276646.080000
   3878   3880     1   0.10969 276646.080000
   3878   3881     1   0.10969 276646.080000
   3883   3893     1   0.09730 310787.520000
   3887   3888     1   0.10969 276646.080000
   3887   3889     1   0.10969 276646.080000
   3892   3894     1   0.09730 310787.520000
   3895   3896     1   0.10129 337397.760000
   3897   3898     1   0.10969 276646.080000
   3897   3900     1   0.10969 276646.080000
   3899   3901     1   0.10969 276646.080000
   3899   3902     1   0.10969 276646.080000
   3904   3914     1   0.10969 276646.080000
   3904   3915     1   0.10969 276646.080000
   3905   3906     1   0.10969 276646.080000
   3905   3908     1   0.10969 276646.080000
   3907   3909     1   0.10969 276646.080000
   3907   3910     1   0.10969 276646.080000
   3912   3922     1   0.09730 310787.520000
   3916   3917     1   0.10969 276646.080000
   3916   3918     1   0.10969 276646.080000
   3921   3923     1   0.09730 310787.520000
   3924   3925     1   0.10129 337397.760000
   3926   3927     1   0.10969 276646.080000
   3926   3929     1   0.10969 276646.080000
   3928   3930     1   0.10969 276646.080000
   3928   3931     1   0.10969 276646.080000
   3933   3943     1   0.10969 276646.080000
   3933   3944     1   0.10969 276646.080000
   3934   3935     1   0.10969 276646.080000
   3934   3937     1   0.10969 276646.080000
   3936   3938     1   0.10969 276646.080000
   3936   3939     1   0.10969 276646.080000
   3941   3951     1   0.09730 310787.520000
   3945   3946     1   0.10969 276646.080000
   3945   3947     1   0.10969 276646.080000
   3950   3952     1   0.09730 310787.520000
   3953   3954     1   0.10129 337397.760000
   3955   3956     1   0.10969 276646.080000
   3955   3958     1   0.10969 276646.080000
   3957   3959     1   0.10969 276646.080000
   3957   3960     1   0.10969 276646.080000
   3962   3972     1   0.10969 276646.080000
   3962   3973     1   0.10969 276646.080000
   3963   3964     1   0.10969 276646.080000
   3963   3966     1   0.10969 276646.080000
   3965   3967     1   0.10969 276646.080000
   3965   3968     1   0.10969 276646.080000
   3970   3980     1   0.09730 310787.520000
   3974   3975     1   0.10969 276646.080000
   3974   3976     1   0.10969 276646.080000
   3979   3981     1   0.09730 310787.520000
   3982   3983     1   0.10129 337397.760000
   3984   3985     1   0.10969 276646.080000
   3984   3987     1   0.10969 276646.080000
   3986   3988     1   0.10969 276646.080000
   3986   3989     1   0.10969 276646.080000
   3991   4001     1   0.10969 276646.080000
   3991   4002     1   0.10969 276646.080000
   3992   3993     1   0.10969 276646.080000
   3992   3995     1   0.10969 276646.080000
   3994   3996     1   0.10969 276646.080000
   3994   3997     1   0.10969 276646.080000
   3999   4009     1   0.09730 310787.520000
   4003   4004     1   0.10969 276646.080000
   4003   4005     1   0.10969 276646.080000
   4008   4010     1   0.09730 310787.520000
   4011   4012     1   0.10129 337397.760000
   4013   4014     1   0.10969 276646.080000
   4013   4016     1   0.10969 276646.080000
   4015   4017     1   0.10969 276646.080000
   4015   4018     1   0.10969 276646.080000
   4020   4030     1   0.10969 276646.080000
   4020   4031     1   0.10969 276646.080000
   4021   4022     1   0.10969 276646.080000
   4021   4024     1   0.10969 276646.080000
   4023   4025     1   0.10969 276646.080000
   4023   4026     1   0.10969 276646.080000
   4028   4038     1   0.09730 310787.520000
   4032   4033     1   0.10969 276646.080000
   4032   4034     1   0.10969 276646.080000
   4037   4039     1   0.09730 310787.520000
   4040   4041     1   0.10129 337397.760000
   4042   4043     1   0.10969 276646.080000
   4042   4045     1   0.10969 276646.080000
   4044   4046     1   0.10969 276646.080000
   4044   4047     1   0.10969 276646.080000
   4049   4059     1   0.10969 276646.080000
   4049   4060     1   0.10969 276646.080000
   4050   4051     1   0.10969 276646.080000
   4050   4053     1   0.10969 276646.080000
   4052   4054     1   0.10969 276646.080000
   4052   4055     1   0.10969 276646.080000
   4057   4067     1   0.09730 310787.520000
   4061   4062     1   0.10969 276646.080000
   4061   4063     1   0.10969 276646.080000
   4066   4068     1   0.09730 310787.520000
   4069   4070     1   0.10129 337397.760000
   4071   4072     1   0.10969 276646.080000
   4071   4074     1   0.10969 276646.080000
   4073   4075     1   0.10969 276646.080000
   4073   4076     1   0.10969 276646.080000
   4078   4088     1   0.10969 276646.080000
   4078   4089     1   0.10969 276646.080000
   4079   4080     1   0.10969 276646.080000
   4079   4082     1   0.10969 276646.080000
   4081   4083     1   0.10969 276646.080000
   4081   4084     1   0.10969 276646.080000
   4086   4096     1   0.09730 310787.520000
   4090   4091     1   0.10969 276646.080000
   4090   4092     1   0.10969 276646.080000
   4095   4097     1   0.09730 310787.520000
   4098   4099     1   0.10129 337397.760000
   4100   4101     1   0.10969 276646.080000
   4100   4103     1   0.10969 276646.080000
   4102   4104     1   0.10969 276646.080000
   4102   4105     1   0.10969 276646.080000
   4107   4117     1   0.10969 276646.080000
   4107   4118     1   0.10969 276646.080000
   4108   4109     1   0.10969 276646.080000
   4108   4111     1   0.10969 276646.080000
   4110   4112     1   0.10969 276646.080000
   4110   4113     1   0.10969 276646.080000
   4115   4125     1   0.09730 310787.520000
   4119   4120     1   0.10969 276646.080000
   4119   4121     1   0.10969 276646.080000
   4124   4126     1   0.09730 310787.520000
   4127   4128     1   0.10129 337397.760000
   4129   4130     1   0.10969 276646.080000
   4129   4132     1   0.10969 276646.080000
   4131   4133     1   0.10969 276646.080000
   4131   4134     1   0.10969 276646.080000
   4136   4146     1   0.10969 276646.080000
   4136   4147     1   0.10969 276646.080000
   4137   4138     1   0.10969 276646.080000
   4137   4140     1   0.10969 276646.080000
   4139   4141     1   0.10969 276646.080000
   4139   4142     1   0.10969 276646.080000
   4144   4154     1   0.09730 310787.520000
   4148   4149     1   0.10969 276646.080000
   4148   4150     1   0.10969 276646.080000
   4153   4155     1   0.09730 310787.520000
   4156   4157     1   0.10129 337397.760000
   4158   4159     1   0.10969 276646.080000
   4158   4161     1   0.10969 276646.080000
   4160   4162     1   0.10969 276646.080000
   4160   4163     1   0.10969 276646.080000
   4165   4175     1   0.10969 276646.080000
   4165   4176     1   0.10969 276646.080000
   4166   4167     1   0.10969 276646.080000
   4166   4169     1   0.10969 276646.080000
   4168   4170     1   0.10969 276646.080000
   4168   4171     1   0.10969 276646.080000
   4173   4183     1   0.09730 310787.520000
   4177   4178     1   0.10969 276646.080000
   4177   4179     1   0.10969 276646.080000
   4182   4184     1   0.09730 310787.520000
   4185   4186     1   0.10129 337397.760000
   4187   4188     1   0.10969 276646.080000
   4187   4190     1   0.10969 276646.080000
   4189   4191     1   0.10969 276646.080000
   4189   4192     1   0.10969 276646.080000
   4194   4204     1   0.10969 276646.080000
   4194   4205     1   0.10969 276646.080000
   4195   4196     1   0.10969 276646.080000
   4195   4198     1   0.10969 276646.080000
   4197   4199     1   0.10969 276646.080000
   4197   4200     1   0.10969 276646.080000
   4202   4212     1   0.09730 310787.520000
   4206   4207     1   0.10969 276646.080000
   4206   4208     1   0.10969 276646.080000
   4211   4213     1   0.09730 310787.520000
   4214   4215     1   0.10129 337397.760000
   4216   4217     1   0.10969 276646.080000
   4216   4219     1   0.10969 276646.080000
   4218   4220     1   0.10969 276646.080000
   4218   4221     1   0.10969 276646.080000
   4223   4233     1   0.10969 276646.080000
   4223   4234     1   0.10969 276646.080000
   4224   4225     1   0.10969 276646.080000
   4224   4227     1   0.10969 276646.080000
   4226   4228     1   0.10969 276646.080000
   4226   4229     1   0.10969 276646.080000
   4231   4241     1   0.09730 310787.520000
   4235   4236     1   0.10969 276646.080000
   4235   4237     1   0.10969 276646.080000
   4240   4242     1   0.09730 310787.520000
   4243   4244     1   0.10129 337397.760000
   4245   4246     1   0.10969 276646.080000
   4245   4248     1   0.10969 276646.080000
   4247   4249     1   0.10969 276646.080000
   4247   4250     1   0.10969 276646.080000
   4252   4262     1   0.10969 276646.080000
   4252   4263     1   0.10969 276646.080000
   4253   4254     1   0.10969 276646.080000
   4253   4256     1   0.10969 276646.080000
   4255   4257     1   0.10969 276646.080000
   4255   4258     1   0.10969 276646.080000
   4260   4270     1   0.09730 310787.520000
   4264   4265     1   0.10969 276646.080000
   4264   4266     1   0.10969 276646.080000
   4269   4271     1   0.09730 310787.520000
   4272   4273     1   0.10129 337397.760000
   4274   4275     1   0.10969 276646.080000
   4274   4277     1   0.10969 276646.080000
   4276   4278     1   0.10969 276646.080000
   4276   4279     1   0.10969 276646.080000
   4281   4291     1   0.10969 276646.080000
   4281   4292     1   0.10969 276646.080000
   4282   4283     1   0.10969 276646.080000
   4282   4285     1   0.10969 276646.080000
   4284   4286     1   0.10969 276646.080000
   4284   4287     1   0.10969 276646.080000
   4289   4299     1   0.09730 310787.520000
   4293   4294     1   0.10969 276646.080000
   4293   4295     1   0.10969 276646.080000
   4298   4300     1   0.09730 310787.520000
   4301   4302     1   0.10129 337397.760000
   4303   4304     1   0.10969 276646.080000
   4303   4306     1   0.10969 276646.080000
   4305   4307     1   0.10969 276646.080000
   4305   4308     1   0.10969 276646.080000
   4310   4320     1   0.10969 276646.080000
   4310   4321     1   0.10969 276646.080000
   4311   4312     1   0.10969 276646.080000
   4311   4314     1   0.10969 276646.080000
   4313   4315     1   0.10969 276646.080000
   4313   4316     1   0.10969 276646.080000
   4318   4328     1   0.09730 310787.520000
   4322   4323     1   0.10969 276646.080000
   4322   4324     1   0.10969 276646.080000
   4327   4329     1   0.09730 310787.520000
   4330   4331     1   0.10129 337397.760000
   4332   4333     1   0.10969 276646.080000
   4332   4335     1   0.10969 276646.080000
   4334   4336     1   0.10969 276646.080000
   4334   4337     1   0.10969 276646.080000
   4339   4349     1   0.10969 276646.080000
   4339   4350     1   0.10969 276646.080000
   4340   4341     1   0.10969 276646.080000
   4340   4343     1   0.10969 276646.080000
   4342   4344     1   0.10969 276646.080000
   4342   4345     1   0.10969 276646.080000
   4347   4357     1   0.09730 310787.520000
   4351   4352     1   0.10969 276646.080000
   4351   4353     1   0.10969 276646.080000
   4356   4358     1   0.09730 310787.520000
   4359   4360     1   0.10129 337397.760000
   4361   4362     1   0.10969 276646.080000
   4361   4364     1   0.10969 276646.080000
   4363   4365     1   0.10969 276646.080000
   4363   4366     1   0.10969 276646.080000
   4368   4378     1   0.10969 276646.080000
   4368   4379     1   0.10969 276646.080000
   4369   4370     1   0.10969 276646.080000
   4369   4372     1   0.10969 276646.080000
   4371   4373     1   0.10969 276646.080000
   4371   4374     1   0.10969 276646.080000
   4376   4386     1   0.09730 310787.520000
   4380   4381     1   0.10969 276646.080000
   4380   4382     1   0.10969 276646.080000
   4385   4387     1   0.09730 310787.520000
   4388   4389     1   0.10129 337397.760000
   4390   4391     1   0.10969 276646.080000
   4390   4393     1   0.10969 276646.080000
   4392   4394     1   0.10969 276646.080000
   4392   4395     1   0.10969 276646.080000
   4397   4407     1   0.10969 276646.080000
   4397   4408     1   0.10969 276646.080000
   4398   4399     1   0.10969 276646.080000
   4398   4401     1   0.10969 276646.080000
   4400   4402     1   0.10969 276646.080000
   4400   4403     1   0.10969 276646.080000
   4405   4415     1   0.09730 310787.520000
   4409   4410     1   0.10969 276646.080000
   4409   4411     1   0.10969 276646.080000
   4414   4416     1   0.09730 310787.520000
   4417   4418     1   0.10129 337397.760000
   4419   4420     1   0.10969 276646.080000
   4419   4422     1   0.10969 276646.080000
   4421   4423     1   0.10969 276646.080000
   4421   4424     1   0.10969 276646.080000
   4426   4436     1   0.10969 276646.080000
   4426   4437     1   0.10969 276646.080000
   4427   4428     1   0.10969 276646.080000
   4427   4430     1   0.10969 276646.080000
   4429   4431     1   0.10969 276646.080000
   4429   4432     1   0.10969 276646.080000
   4434   4444     1   0.09730 310787.520000
   4438   4439     1   0.10969 276646.080000
   4438   4440     1   0.10969 276646.080000
   4443   4445     1   0.09730 310787.520000
   4446   4447     1   0.10129 337397.760000
   4448   4449     1   0.10969 276646.080000
   4448   4451     1   0.10969 276646.080000
   4450   4452     1   0.10969 276646.080000
   4450   4453     1   0.10969 276646.080000
   4455   4465     1   0.10969 276646.080000
   4455   4466     1   0.10969 276646.080000
   4456   4457     1   0.10969 276646.080000
   4456   4459     1   0.10969 276646.080000
   4458   4460     1   0.10969 276646.080000
   4458   4461     1   0.10969 276646.080000
   4463   4473     1   0.09730 310787.520000
   4467   4468     1   0.10969 276646.080000
   4467   4469     1   0.10969 276646.080000
   4472   4474     1   0.09730 310787.520000
   4475   4476     1   0.10129 337397.760000
   4477   4478     1   0.10969 276646.080000
   4477   4480     1   0.10969 276646.080000
   4479   4481     1   0.10969 276646.080000
   4479   4482     1   0.10969 276646.080000
   4484   4494     1   0.10969 276646.080000
   4484   4495     1   0.10969 276646.080000
   4485   4486     1   0.10969 276646.080000
   4485   4488     1   0.10969 276646.080000
   4487   4489     1   0.10969 276646.080000
   4487   4490     1   0.10969 276646.080000
   4492   4502     1   0.09730 310787.520000
   4496   4497     1   0.10969 276646.080000
   4496   4498     1   0.10969 276646.080000
   4501   4503     1   0.09730 310787.520000
   4504   4505     1   0.10129 337397.760000
   4506   4507     1   0.10969 276646.080000
   4506   4509     1   0.10969 276646.080000
   4508   4510     1   0.10969 276646.080000
   4508   4511     1   0.10969 276646.080000
   4513   4523     1   0.10969 276646.080000
   4513   4524     1   0.10969 276646.080000
   4514   4515     1   0.10969 276646.080000
   4514   4517     1   0.10969 276646.080000
   4516   4518     1   0.10969 276646.080000
   4516   4519     1   0.10969 276646.080000
   4521   4531     1   0.09730 310787.520000
   4525   4526     1   0.10969 276646.080000
   4525   4527     1   0.10969 276646.080000
   4530   4532     1   0.09730 310787.520000
   4533   4534     1   0.10129 337397.760000
   4535   4536     1   0.10969 276646.080000
   4535   4538     1   0.10969 276646.080000
   4537   4539     1   0.10969 276646.080000
   4537   4540     1   0.10969 276646.080000
   4542   4552     1   0.10969 276646.080000
   4542   4553     1   0.10969 276646.080000
   4543   4544     1   0.10969 276646.080000
   4543   4546     1   0.10969 276646.080000
   4545   4547     1   0.10969 276646.080000
   4545   4548     1   0.10969 276646.080000
   4550   4560     1   0.09730 310787.520000
   4554   4555     1   0.10969 276646.080000
   4554   4556     1   0.10969 276646.080000
   4559   4561     1   0.09730 310787.520000
   4562   4563     1   0.10129 337397.760000
   4564   4565     1   0.10969 276646.080000
   4564   4567     1   0.10969 276646.080000
   4566   4568     1   0.10969 276646.080000
   4566   4569     1   0.10969 276646.080000
   4571   4581     1   0.10969 276646.080000
   4571   4582     1   0.10969 276646.080000
   4572   4573     1   0.10969 276646.080000
   4572   4575     1   0.10969 276646.080000
   4574   4576     1   0.10969 276646.080000
   4574   4577     1   0.10969 276646.080000
   4579   4589     1   0.09730 310787.520000
   4583   4584     1   0.10969 276646.080000
   4583   4585     1   0.10969 276646.080000
   4588   4590     1   0.09730 310787.520000
   4591   4592     1   0.10129 337397.760000
   4593   4594     1   0.10969 276646.080000
   4593   4596     1   0.10969 276646.080000
   4595   4597     1   0.10969 276646.080000
   4595   4598     1   0.10969 276646.080000
   4600   4610     1   0.10969 276646.080000
   4600   4611     1   0.10969 276646.080000
   4601   4602     1   0.10969 276646.080000
   4601   4604     1   0.10969 276646.080000
   4603   4605     1   0.10969 276646.080000
   4603   4606     1   0.10969 276646.080000
   4608   4618     1   0.09730 310787.520000
   4612   4613     1   0.10969 276646.080000
   4612   4614     1   0.10969 276646.080000
   4617   4619     1   0.09730 310787.520000
   4620   4621     1   0.10129 337397.760000
   4622   4623     1   0.10969 276646.080000
   4622   4625     1   0.10969 276646.080000
   4624   4626     1   0.10969 276646.080000
   4624   4627     1   0.10969 276646.080000
   4629   4639     1   0.10969 276646.080000
   4629   4640     1   0.10969 276646.080000
   4630   4631     1   0.10969 276646.080000
   4630   4633     1   0.10969 276646.080000
   4632   4634     1   0.10969 276646.080000
   4632   4635     1   0.10969 276646.080000
   4637   4647     1   0.09730 310787.520000
   4641   4642     1   0.10969 276646.080000
   4641   4643     1   0.10969 276646.080000
   4646   4648     1   0.09730 310787.520000
   4649   4650     1   0.10129 337397.760000
   4651   4652     1   0.10969 276646.080000
   4651   4654     1   0.10969 276646.080000
   4653   4655     1   0.10969 276646.080000
   4653   4656     1   0.10969 276646.080000
   4658   4668     1   0.10969 276646.080000
   4658   4669     1   0.10969 276646.080000
   4659   4660     1   0.10969 276646.080000
   4659   4662     1   0.10969 276646.080000
   4661   4663     1   0.10969 276646.080000
   4661   4664     1   0.10969 276646.080000
   4666   4676     1   0.09730 310787.520000
   4670   4671     1   0.10969 276646.080000
   4670   4672     1   0.10969 276646.080000
   4675   4677     1   0.09730 310787.520000
   4678   4679     1   0.10129 337397.760000
   4680   4681     1   0.10969 276646.080000
   4680   4683     1   0.10969 276646.080000
   4682   4684     1   0.10969 276646.080000
   4682   4685     1   0.10969 276646.080000
   4687   4697     1   0.10969 276646.080000
   4687   4698     1   0.10969 276646.080000
   4688   4689     1   0.10969 276646.080000
   4688   4691     1   0.10969 276646.080000
   4690   4692     1   0.10969 276646.080000
   4690   4693     1   0.10969 276646.080000
   4695   4705     1   0.09730 310787.520000
   4699   4700     1   0.10969 276646.080000
   4699   4701     1   0.10969 276646.080000
   4704   4706     1   0.09730 310787.520000
   4707   4708     1   0.10129 337397.760000
   4709   4710     1   0.10969 276646.080000
   4709   4712     1   0.10969 276646.080000
   4711   4713     1   0.10969 276646.080000
   4711   4714     1   0.10969 276646.080000
   4716   4726     1   0.10969 276646.080000
   4716   4727     1   0.10969 276646.080000
   4717   4718     1   0.10969 276646.080000
   4717   4720     1   0.10969 276646.080000
   4719   4721     1   0.10969 276646.080000
   4719   4722     1   0.10969 276646.080000
   4724   4734     1   0.09730 310787.520000
   4728   4729     1   0.10969 276646.080000
   4728   4730     1   0.10969 276646.080000
   4733   4735     1   0.09730 310787.520000
   4736   4737     1   0.10129 337397.760000
   4738   4739     1   0.10969 276646.080000
   4738   4741     1   0.10969 276646.080000
   4740   4742     1   0.10969 276646.080000
   4740   4743     1   0.10969 276646.080000
   4745   4755     1   0.10969 276646.080000
   4745   4756     1   0.10969 276646.080000
   4746   4747     1   0.10969 276646.080000
   4746   4749     1   0.10969 276646.080000
   4748   4750     1   0.10969 276646.080000
   4748   4751     1   0.10969 276646.080000
   4753   4763     1   0.09730 310787.520000
   4757   4758     1   0.10969 276646.080000
   4757   4759     1   0.10969 276646.080000
   4762   4764     1   0.09730 310787.520000
   4765   4766     1   0.10129 337397.760000
   4767   4768     1   0.10969 276646.080000
   4767   4770     1   0.10969 276646.080000
   4769   4771     1   0.10969 276646.080000
   4769   4772     1   0.10969 276646.080000
   4774   4784     1   0.10969 276646.080000
   4774   4785     1   0.10969 276646.080000
   4775   4776     1   0.10969 276646.080000
   4775   4778     1   0.10969 276646.080000
   4777   4779     1   0.10969 276646.080000
   4777   4780     1   0.10969 276646.080000
   4782   4792     1   0.09730 310787.520000
   4786   4787     1   0.10969 276646.080000
   4786   4788     1   0.10969 276646.080000
   4791   4793     1   0.09730 310787.520000
   4794   4795     1   0.10129 337397.760000
   4796   4797     1   0.10969 276646.080000
   4796   4799     1   0.10969 276646.080000
   4798   4800     1   0.10969 276646.080000
   4798   4801     1   0.10969 276646.080000
   4803   4813     1   0.10969 276646.080000
   4803   4814     1   0.10969 276646.080000
   4804   4805     1   0.10969 276646.080000
   4804   4807     1   0.10969 276646.080000
   4806   4808     1   0.10969 276646.080000
   4806   4809     1   0.10969 276646.080000
   4811   4821     1   0.09730 310787.520000
   4815   4816     1   0.10969 276646.080000
   4815   4817     1   0.10969 276646.080000
   4820   4822     1   0.09730 310787.520000
   4823   4824     1   0.10129 337397.760000
   4825   4826     1   0.10969 276646.080000
   4825   4828     1   0.10969 276646.080000
   4827   4829     1   0.10969 276646.080000
   4827   4830     1   0.10969 276646.080000
   4832   4842     1   0.10969 276646.080000
   4832   4843     1   0.10969 276646.080000
   4833   4834     1   0.10969 276646.080000
   4833   4836     1   0.10969 276646.080000
   4835   4837     1   0.10969 276646.080000
   4835   4838     1   0.10969 276646.080000
   4840   4850     1   0.09730 310787.520000
   4844   4845     1   0.10969 276646.080000
   4844   4846     1   0.10969 276646.080000
   4849   4851     1   0.09730 310787.520000
   4852   4853     1   0.10129 337397.760000
   4854   4855     1   0.10969 276646.080000
   4854   4857     1   0.10969 276646.080000
   4856   4858     1   0.10969 276646.080000
   4856   4859     1   0.10969 276646.080000
   4861   4871     1   0.10969 276646.080000
   4861   4872     1   0.10969 276646.080000
   4862   4863     1   0.10969 276646.080000
   4862   4865     1   0.10969 276646.080000
   4864   4866     1   0.10969 276646.080000
   4864   4867     1   0.10969 276646.080000
   4869   4879     1   0.09730 310787.520000
   4873   4874     1   0.10969 276646.080000
   4873   4875     1   0.10969 276646.080000
   4878   4880     1   0.09730 310787.520000
   4881   4882     1   0.10129 337397.760000
   4883   4884     1   0.10969 276646.080000
   4883   4886     1   0.10969 276646.080000
   4885   4887     1   0.10969 276646.080000
   4885   4888     1   0.10969 276646.080000
   4890   4900     1   0.10969 276646.080000
   4890   4901     1   0.10969 276646.080000
   4891   4892     1   0.10969 276646.080000
   4891   4894     1   0.10969 276646.080000
   4893   4895     1   0.10969 276646.080000
   4893   4896     1   0.10969 276646.080000
   4898   4908     1   0.09730 310787.520000
   4902   4903     1   0.10969 276646.080000
   4902   4904     1   0.10969 276646.080000
   4907   4909     1   0.09730 310787.520000
   4910   4911     1   0.10129 337397.760000
   4912   4913     1   0.10969 276646.080000
   4912   4915     1   0.10969 276646.080000
   4914   4916     1   0.10969 276646.080000
   4914   4917     1   0.10969 276646.080000
   4919   4929     1   0.10969 276646.080000
   4919   4930     1   0.10969 276646.080000
   4920   4921     1   0.10969 276646.080000
   4920   4923     1   0.10969 276646.080000
   4922   4924     1   0.10969 276646.080000
   4922   4925     1   0.10969 276646.080000
   4927   4937     1   0.09730 310787.520000
   4931   4932     1   0.10969 276646.080000
   4931   4933     1   0.10969 276646.080000
   4936   4938     1   0.09730 310787.520000
   4939   4940     1   0.10129 337397.760000
   4941   4942     1   0.10969 276646.080000
   4941   4944     1   0.10969 276646.080000
   4943   4945     1   0.10969 276646.080000
   4943   4946     1   0.10969 276646.080000
   4948   4958     1   0.10969 276646.080000
   4948   4959     1   0.10969 276646.080000
   4949   4950     1   0.10969 276646.080000
   4949   4952     1   0.10969 276646.080000
   4951   4953     1   0.10969 276646.080000
   4951   4954     1   0.10969 276646.080000
   4956   4966     1   0.09730 310787.520000
   4960   4961     1   0.10969 276646.080000
   4960   4962     1   0.10969 276646.080000
   4965   4967     1   0.09730 310787.520000
   4968   4969     1   0.10129 337397.760000
   4970   4971     1   0.10969 276646.080000
   4970   4973     1   0.10969 276646.080000
   4972   4974     1   0.10969 276646.080000
   4972   4975     1   0.10969 276646.080000
   4977   4987     1   0.10969 276646.080000
   4977   4988     1   0.10969 276646.080000
   4978   4979     1   0.10969 276646.080000
   4978   4981     1   0.10969 276646.080000
   4980   4982     1   0.10969 276646.080000
   4980   4983     1   0.10969 276646.080000
   4985   4995     1   0.09730 310787.520000
   4989   4990     1   0.10969 276646.080000
   4989   4991     1   0.10969 276646.080000
   4994   4996     1   0.09730 310787.520000
   4997   4998     1   0.10129 337397.760000
   4999   5000     1   0.10969 276646.080000
   4999   5002     1   0.10969 276646.080000
   5001   5003     1   0.10969 276646.080000
   5001   5004     1   0.10969 276646.080000
   5006   5016     1   0.10969 276646.080000
   5006   5017     1   0.10969 276646.080000
   5007   5008     1   0.10969 276646.080000
   5007   5010     1   0.10969 276646.080000
   5009   5011     1   0.10969 276646.080000
   5009   5012     1   0.10969 276646.080000
   5014   5024     1   0.09730 310787.520000
   5018   5019     1   0.10969 276646.080000
   5018   5020     1   0.10969 276646.080000
   5023   5025     1   0.09730 310787.520000
   5026   5027     1   0.10129 337397.760000
   5028   5029     1   0.10969 276646.080000
   5028   5031     1   0.10969 276646.080000
   5030   5032     1   0.10969 276646.080000
   5030   5033     1   0.10969 276646.080000
   5035   5045     1   0.10969 276646.080000
   5035   5046     1   0.10969 276646.080000
   5036   5037     1   0.10969 276646.080000
   5036   5039     1   0.10969 276646.080000
   5038   5040     1   0.10969 276646.080000
   5038   5041     1   0.10969 276646.080000
   5043   5053     1   0.09730 310787.520000
   5047   5048     1   0.10969 276646.080000
   5047   5049     1   0.10969 276646.080000
   5052   5054     1   0.09730 310787.520000
   5055   5056     1   0.10129 337397.760000
   5057   5058     1   0.10969 276646.080000
   5057   5060     1   0.10969 276646.080000
   5059   5061     1   0.10969 276646.080000
   5059   5062     1   0.10969 276646.080000
   5064   5074     1   0.10969 276646.080000
   5064   5075     1   0.10969 276646.080000
   5065   5066     1   0.10969 276646.080000
   5065   5068     1   0.10969 276646.080000
   5067   5069     1   0.10969 276646.080000
   5067   5070     1   0.10969 276646.080000
   5072   5082     1   0.09730 310787.520000
   5076   5077     1   0.10969 276646.080000
   5076   5078     1   0.10969 276646.080000
   5081   5083     1   0.09730 310787.520000
   5084   5085     1   0.10129 337397.760000
   5086   5087     1   0.10969 276646.080000
   5086   5089     1   0.10969 276646.080000
   5088   5090     1   0.10969 276646.080000
   5088   5091     1   0.10969 276646.080000
   5093   5103     1   0.10969 276646.080000
   5093   5104     1   0.10969 276646.080000
   5094   5095     1   0.10969 276646.080000
   5094   5097     1   0.10969 276646.080000
   5096   5098     1   0.10969 276646.080000
   5096   5099     1   0.10969 276646.080000
   5101   5111     1   0.09730 310787.520000
   5105   5106     1   0.10969 276646.080000
   5105   5107     1   0.10969 276646.080000
   5110   5112     1   0.09730 310787.520000
   5113   5114     1   0.10129 337397.760000
   5115   5116     1   0.10969 276646.080000
   5115   5118     1   0.10969 276646.080000
   5117   5119     1   0.10969 276646.080000
   5117   5120     1   0.10969 276646.080000
   5122   5132     1   0.10969 276646.080000
   5122   5133     1   0.10969 276646.080000
   5123   5124     1   0.10969 276646.080000
   5123   5126     1   0.10969 276646.080000
   5125   5127     1   0.10969 276646.080000
   5125   5128     1   0.10969 276646.080000
   5130   5140     1   0.09730 310787.520000
   5134   5135     1   0.10969 276646.080000
   5134   5136     1   0.10969 276646.080000
   5139   5141     1   0.09730 310787.520000
   5142   5143     1   0.10129 337397.760000
   5144   5145     1   0.10969 276646.080000
   5144   5147     1   0.10969 276646.080000
   5146   5148     1   0.10969 276646.080000
   5146   5149     1   0.10969 276646.080000
   5151   5161     1   0.10969 276646.080000
   5151   5162     1   0.10969 276646.080000
   5152   5153     1   0.10969 276646.080000
   5152   5155     1   0.10969 276646.080000
   5154   5156     1   0.10969 276646.080000
   5154   5157     1   0.10969 276646.080000
   5159   5169     1   0.09730 310787.520000
   5163   5164     1   0.10969 276646.080000
   5163   5165     1   0.10969 276646.080000
   5168   5170     1   0.09730 310787.520000
   5171   5172     1   0.10129 337397.760000
   5173   5174     1   0.10969 276646.080000
   5173   5176     1   0.10969 276646.080000
   5175   5177     1   0.10969 276646.080000
   5175   5178     1   0.10969 276646.080000
   5180   5190     1   0.10969 276646.080000
   5180   5191     1   0.10969 276646.080000
   5181   5182     1   0.10969 276646.080000
   5181   5184     1   0.10969 276646.080000
   5183   5185     1   0.10969 276646.080000
   5183   5186     1   0.10969 276646.080000
   5188   5198     1   0.09730 310787.520000
   5192   5193     1   0.10969 276646.080000
   5192   5194     1   0.10969 276646.080000
   5197   5199     1   0.09730 310787.520000
   5200   5201     1   0.10129 337397.760000
   5202   5203     1   0.10969 276646.080000
   5202   5205     1   0.10969 276646.080000
   5204   5206     1   0.10969 276646.080000
   5204   5207     1   0.10969 276646.080000
   5209   5219     1   0.10969 276646.080000
   5209   5220     1   0.10969 276646.080000
   5210   5211     1   0.10969 276646.080000
   5210   5213     1   0.10969 276646.080000
   5212   5214     1   0.10969 276646.080000
   5212   5215     1   0.10969 276646.080000
   5217   5227     1   0.09730 310787.520000
   5221   5222     1   0.10969 276646.080000
   5221   5223     1   0.10969 276646.080000
   5226   5228     1   0.09730 310787.520000
   5229   5230     1   0.10129 337397.760000
   5231   5232     1   0.10969 276646.080000
   5231   5234     1   0.10969 276646.080000
   5233   5235     1   0.10969 276646.080000
   5233   5236     1   0.10969 276646.080000
   5238   5248     1   0.10969 276646.080000
   5238   5249     1   0.10969 276646.080000
   5239   5240     1   0.10969 276646.080000
   5239   5242     1   0.10969 276646.080000
   5241   5243     1   0.10969 276646.080000
   5241   5244     1   0.10969 276646.080000
   5246   5256     1   0.09730 310787.520000
   5250   5251     1   0.10969 276646.080000
   5250   5252     1   0.10969 276646.080000
   5255   5257     1   0.09730 310787.520000
   5258   5259     1   0.10129 337397.760000
   5260   5261     1   0.10969 276646.080000
   5260   5263     1   0.10969 276646.080000
   5262   5264     1   0.10969 276646.080000
   5262   5265     1   0.10969 276646.080000
   5267   5277     1   0.10969 276646.080000
   5267   5278     1   0.10969 276646.080000
   5268   5269     1   0.10969 276646.080000
   5268   5271     1   0.10969 276646.080000
   5270   5272     1   0.10969 276646.080000
   5270   5273     1   0.10969 276646.080000
   5275   5285     1   0.09730 310787.520000
   5279   5280     1   0.10969 276646.080000
   5279   5281     1   0.10969 276646.080000
   5284   5286     1   0.09730 310787.520000
   5287   5288     1   0.10129 337397.760000
   5289   5290     1   0.10969 276646.080000
   5289   5292     1   0.10969 276646.080000
   5291   5293     1   0.10969 276646.080000
   5291   5294     1   0.10969 276646.080000
   5296   5306     1   0.10969 276646.080000
   5296   5307     1   0.10969 276646.080000
   5297   5298     1   0.10969 276646.080000
   5297   5300     1   0.10969 276646.080000
   5299   5301     1   0.10969 276646.080000
   5299   5302     1   0.10969 276646.080000
   5304   5314     1   0.09730 310787.520000
   5308   5309     1   0.10969 276646.080000
   5308   5310     1   0.10969 276646.080000
   5313   5315     1   0.09730 310787.520000
   5316   5317     1   0.10129 337397.760000
   5318   5319     1   0.10969 276646.080000
   5318   5321     1   0.10969 276646.080000
   5320   5322     1   0.10969 276646.080000
   5320   5323     1   0.10969 276646.080000
   5325   5335     1   0.10969 276646.080000
   5325   5336     1   0.10969 276646.080000
   5326   5327     1   0.10969 276646.080000
   5326   5329     1   0.10969 276646.080000
   5328   5330     1   0.10969 276646.080000
   5328   5331     1   0.10969 276646.080000
   5333   5343     1   0.09730 310787.520000
   5337   5338     1   0.10969 276646.080000
   5337   5339     1   0.10969 276646.080000
   5342   5344     1   0.09730 310787.520000
   5345   5346     1   0.10129 337397.760000
   5347   5348     1   0.10969 276646.080000
   5347   5350     1   0.10969 276646.080000
   5349   5351     1   0.10969 276646.080000
   5349   5352     1   0.10969 276646.080000
   5354   5364     1   0.10969 276646.080000
   5354   5365     1   0.10969 276646.080000
   5355   5356     1   0.10969 276646.080000
   5355   5358     1   0.10969 276646.080000
   5357   5359     1   0.10969 276646.080000
   5357   5360     1   0.10969 276646.080000
   5362   5372     1   0.09730 310787.520000
   5366   5367     1   0.10969 276646.080000
   5366   5368     1   0.10969 276646.080000
   5371   5373     1   0.09730 310787.520000
   5374   5375     1   0.10129 337397.760000
   5376   5377     1   0.10969 276646.080000
   5376   5379     1   0.10969 276646.080000
   5378   5380     1   0.10969 276646.080000
   5378   5381     1   0.10969 276646.080000
   5383   5393     1   0.10969 276646.080000
   5383   5394     1   0.10969 276646.080000
   5384   5385     1   0.10969 276646.080000
   5384   5387     1   0.10969 276646.080000
   5386   5388     1   0.10969 276646.080000
   5386   5389     1   0.10969 276646.080000
   5391   5401     1   0.09730 310787.520000
   5395   5396     1   0.10969 276646.080000
   5395   5397     1   0.10969 276646.080000
   5400   5402     1   0.09730 310787.520000
   5403   5404     1   0.10129 337397.760000
   5405   5406     1   0.10969 276646.080000
   5405   5408     1   0.10969 276646.080000
   5407   5409     1   0.10969 276646.080000
   5407   5410     1   0.10969 276646.080000
   5412   5422     1   0.10969 276646.080000
   5412   5423     1   0.10969 276646.080000
   5413   5414     1   0.10969 276646.080000
   5413   5416     1   0.10969 276646.080000
   5415   5417     1   0.10969 276646.080000
   5415   5418     1   0.10969 276646.080000
   5420   5430     1   0.09730 310787.520000
   5424   5425     1   0.10969 276646.080000
   5424   5426     1   0.10969 276646.080000
   5429   5431     1   0.09730 310787.520000
   5432   5433     1   0.10129 337397.760000
   5434   5435     1   0.10969 276646.080000
   5434   5437     1   0.10969 276646.080000
   5436   5438     1   0.10969 276646.080000
   5436   5439     1   0.10969 276646.080000
   5441   5451     1   0.10969 276646.080000
   5441   5452     1   0.10969 276646.080000
   5442   5443     1   0.10969 276646.080000
   5442   5445     1   0.10969 276646.080000
   5444   5446     1   0.10969 276646.080000
   5444   5447     1   0.10969 276646.080000
   5449   5459     1   0.09730 310787.520000
   5453   5454     1   0.10969 276646.080000
   5453   5455     1   0.10969 276646.080000
   5458   5460     1   0.09730 310787.520000
   5461   5462     1   0.10129 337397.760000
   5463   5464     1   0.10969 276646.080000
   5463   5466     1   0.10969 276646.080000
   5465   5467     1   0.10969 276646.080000
   5465   5468     1   0.10969 276646.080000
   5470   5480     1   0.10969 276646.080000
   5470   5481     1   0.10969 276646.080000
   5471   5472     1   0.10969 276646.080000
   5471   5474     1   0.10969 276646.080000
   5473   5475     1   0.10969 276646.080000
   5473   5476     1   0.10969 276646.080000
   5478   5488     1   0.09730 310787.520000
   5482   5483     1   0.10969 276646.080000
   5482   5484     1   0.10969 276646.080000
   5487   5489     1   0.09730 310787.520000
   5490   5491     1   0.10129 337397.760000
   5492   5493     1   0.10969 276646.080000
   5492   5495     1   0.10969 276646.080000
   5494   5496     1   0.10969 276646.080000
   5494   5497     1   0.10969 276646.080000
   5499   5509     1   0.10969 276646.080000
   5499   5510     1   0.10969 276646.080000
   5500   5501     1   0.10969 276646.080000
   5500   5503     1   0.10969 276646.080000
   5502   5504     1   0.10969 276646.080000
   5502   5505     1   0.10969 276646.080000
   5507   5517     1   0.09730 310787.520000
   5511   5512     1   0.10969 276646.080000
   5511   5513     1   0.10969 276646.080000
   5516   5518     1   0.09730 310787.520000
   5519   5520     1   0.10129 337397.760000
   5521   5522     1   0.10969 276646.080000
   5521   5524     1   0.10969 276646.080000
   5523   5525     1   0.10969 276646.080000
   5523   5526     1   0.10969 276646.080000
   5528   5538     1   0.10969 276646.080000
   5528   5539     1   0.10969 276646.080000
   5529   5530     1   0.10969 276646.080000
   5529   5532     1   0.10969 276646.080000
   5531   5533     1   0.10969 276646.080000
   5531   5534     1   0.10969 276646.080000
   5536   5546     1   0.09730 310787.520000
   5540   5541     1   0.10969 276646.080000
   5540   5542     1   0.10969 276646.080000
   5545   5547     1   0.09730 310787.520000
   5548   5549     1   0.10129 337397.760000
   5550   5551     1   0.10969 276646.080000
   5550   5553     1   0.10969 276646.080000
   5552   5554     1   0.10969 276646.080000
   5552   5555     1   0.10969 276646.080000
   5557   5567     1   0.10969 276646.080000
   5557   5568     1   0.10969 276646.080000
   5558   5559     1   0.10969 276646.080000
   5558   5561     1   0.10969 276646.080000
   5560   5562     1   0.10969 276646.080000
   5560   5563     1   0.10969 276646.080000
   5565   5575     1   0.09730 310787.520000
   5569   5570     1   0.10969 276646.080000
   5569   5571     1   0.10969 276646.080000
   5574   5576     1   0.09730 310787.520000
   5577   5578     1   0.10129 337397.760000
   5579   5580     1   0.10969 276646.080000
   5579   5582     1   0.10969 276646.080000
   5581   5583     1   0.10969 276646.080000
   5581   5584     1   0.10969 276646.080000
   5586   5596     1   0.10969 276646.080000
   5586   5597     1   0.10969 276646.080000
   5587   5588     1   0.10969 276646.080000
   5587   5590     1   0.10969 276646.080000
   5589   5591     1   0.10969 276646.080000
   5589   5592     1   0.10969 276646.080000
   5594   5604     1   0.09730 310787.520000
   5598   5599     1   0.10969 276646.080000
   5598   5600     1   0.10969 276646.080000
   5603   5605     1   0.09730 310787.520000
   5606   5607     1   0.10129 337397.760000
   5608   5609     1   0.10969 276646.080000
   5608   5611     1   0.10969 276646.080000
   5610   5612     1   0.10969 276646.080000
   5610   5613     1   0.10969 276646.080000
   5615   5625     1   0.10969 276646.080000
   5615   5626     1   0.10969 276646.080000
   5616   5617     1   0.10969 276646.080000
   5616   5619     1   0.10969 276646.080000
   5618   5620     1   0.10969 276646.080000
   5618   5621     1   0.10969 276646.080000
   5623   5633     1   0.09730 310787.520000
   5627   5628     1   0.10969 276646.080000
   5627   5629     1   0.10969 276646.080000
   5632   5634     1   0.09730 310787.520000
   5635   5636     1   0.10129 337397.760000
   5637   5638     1   0.10969 276646.080000
   5637   5640     1   0.10969 276646.080000
   5639   5641     1   0.10969 276646.080000
   5639   5642     1   0.10969 276646.080000
   5644   5654     1   0.10969 276646.080000
   5644   5655     1   0.10969 276646.080000
   5645   5646     1   0.10969 276646.080000
   5645   5648     1   0.10969 276646.080000
   5647   5649     1   0.10969 276646.080000
   5647   5650     1   0.10969 276646.080000
   5652   5662     1   0.09730 310787.520000
   5656   5657     1   0.10969 276646.080000
   5656   5658     1   0.10969 276646.080000
   5661   5663     1   0.09730 310787.520000
   5664   5665     1   0.10129 337397.760000
   5666   5667     1   0.10969 276646.080000
   5666   5669     1   0.10969 276646.080000
   5668   5670     1   0.10969 276646.080000
   5668   5671     1   0.10969 276646.080000
   5673   5683     1   0.10969 276646.080000
   5673   5684     1   0.10969 276646.080000
   5674   5675     1   0.10969 276646.080000
   5674   5677     1   0.10969 276646.080000
   5676   5678     1   0.10969 276646.080000
   5676   5679     1   0.10969 276646.080000
   5681   5691     1   0.09730 310787.520000
   5685   5686     1   0.10969 276646.080000
   5685   5687     1   0.10969 276646.080000
   5690   5692     1   0.09730 310787.520000
   5693   5694     1   0.10129 337397.760000
   5695   5696     1   0.10969 276646.080000
   5695   5698     1   0.10969 276646.080000
   5697   5699     1   0.10969 276646.080000
   5697   5700     1   0.10969 276646.080000
   5702   5712     1   0.10969 276646.080000
   5702   5713     1   0.10969 276646.080000
   5703   5704     1   0.10969 276646.080000
   5703   5706     1   0.10969 276646.080000
   5705   5707     1   0.10969 276646.080000
   5705   5708     1   0.10969 276646.080000
   5710   5720     1   0.09730 310787.520000
   5714   5715     1   0.10969 276646.080000
   5714   5716     1   0.10969 276646.080000
   5719   5721     1   0.09730 310787.520000
   5722   5723     1   0.10129 337397.760000
   5724   5725     1   0.10969 276646.080000
   5724   5727     1   0.10969 276646.080000
   5726   5728     1   0.10969 276646.080000
   5726   5729     1   0.10969 276646.080000
   5731   5741     1   0.10969 276646.080000
   5731   5742     1   0.10969 276646.080000
   5732   5733     1   0.10969 276646.080000
   5732   5735     1   0.10969 276646.080000
   5734   5736     1   0.10969 276646.080000
   5734   5737     1   0.10969 276646.080000
   5739   5749     1   0.09730 310787.520000
   5743   5744     1   0.10969 276646.080000
   5743   5745     1   0.10969 276646.080000
   5748   5750     1   0.09730 310787.520000
   5751   5752     1   0.10129 337397.760000
   5753   5754     1   0.10969 276646.080000
   5753   5756     1   0.10969 276646.080000
   5755   5757     1   0.10969 276646.080000
   5755   5758     1   0.10969 276646.080000
   5760   5770     1   0.10969 276646.080000
   5760   5771     1   0.10969 276646.080000
   5761   5762     1   0.10969 276646.080000
   5761   5764     1   0.10969 276646.080000
   5763   5765     1   0.10969 276646.080000
   5763   5766     1   0.10969 276646.080000
   5768   5778     1   0.09730 310787.520000
   5772   5773     1   0.10969 276646.080000
   5772   5774     1   0.10969 276646.080000
   5777   5779     1   0.09730 310787.520000
   5780   5781     1   0.10129 337397.760000
   5782   5783     1   0.10969 276646.080000
   5782   5785     1   0.10969 276646.080000
   5784   5786     1   0.10969 276646.080000
   5784   5787     1   0.10969 276646.080000
   5789   5799     1   0.10969 276646.080000
   5789   5800     1   0.10969 276646.080000
   5790   5791     1   0.10969 276646.080000
   5790   5793     1   0.10969 276646.080000
   5792   5794     1   0.10969 276646.080000
   5792   5795     1   0.10969 276646.080000
   5797   5807     1   0.09730 310787.520000
   5801   5802     1   0.10969 276646.080000
   5801   5803     1   0.10969 276646.080000
   5806   5808     1   0.09730 310787.520000
   5809   5810     1   0.10129 337397.760000
   5811   5812     1   0.10969 276646.080000
   5811   5814     1   0.10969 276646.080000
   5813   5815     1   0.10969 276646.080000
   5813   5816     1   0.10969 276646.080000
   5818   5828     1   0.10969 276646.080000
   5818   5829     1   0.10969 276646.080000
   5819   5820     1   0.10969 276646.080000
   5819   5822     1   0.10969 276646.080000
   5821   5823     1   0.10969 276646.080000
   5821   5824     1   0.10969 276646.080000
   5826   5836     1   0.09730 310787.520000
   5830   5831     1   0.10969 276646.080000
   5830   5832     1   0.10969 276646.080000
   5835   5837     1   0.09730 310787.520000
   5838   5839     1   0.10129 337397.760000
   5840   5841     1   0.10969 276646.080000
   5840   5843     1   0.10969 276646.080000
   5842   5844     1   0.10969 276646.080000
   5842   5845     1   0.10969 276646.080000
   5847   5857     1   0.10969 276646.080000
   5847   5858     1   0.10969 276646.080000
   5848   5849     1   0.10969 276646.080000
   5848   5851     1   0.10969 276646.080000
   5850   5852     1   0.10969 276646.080000
   5850   5853     1   0.10969 276646.080000
   5855   5865     1   0.09730 310787.520000
   5859   5860     1   0.10969 276646.080000
   5859   5861     1   0.10969 276646.080000
   5864   5866     1   0.09730 310787.520000
   5867   5868     1   0.10129 337397.760000
   5869   5870     1   0.10969 276646.080000
   5869   5872     1   0.10969 276646.080000
   5871   5873     1   0.10969 276646.080000
   5871   5874     1   0.10969 276646.080000
   5876   5886     1   0.10969 276646.080000
   5876   5887     1   0.10969 276646.080000
   5877   5878     1   0.10969 276646.080000
   5877   5880     1   0.10969 276646.080000
   5879   5881     1   0.10969 276646.080000
   5879   5882     1   0.10969 276646.080000
   5884   5894     1   0.09730 310787.520000
   5888   5889     1   0.10969 276646.080000
   5888   5890     1   0.10969 276646.080000
   5893   5895     1   0.09730 310787.520000
   5896   5897     1   0.10129 337397.760000
   5898   5899     1   0.10969 276646.080000
   5898   5901     1   0.10969 276646.080000
   5900   5902     1   0.10969 276646.080000
   5900   5903     1   0.10969 276646.080000
   5905   5915     1   0.10969 276646.080000
   5905   5916     1   0.10969 276646.080000
   5906   5907     1   0.10969 276646.080000
   5906   5909     1   0.10969 276646.080000
   5908   5910     1   0.10969 276646.080000
   5908   5911     1   0.10969 276646.080000
   5913   5923     1   0.09730 310787.520000
   5917   5918     1   0.10969 276646.080000
   5917   5919     1   0.10969 276646.080000
   5922   5924     1   0.09730 310787.520000
   5925   5926     1   0.10129 337397.760000
   5927   5928     1   0.10969 276646.080000
   5927   5930     1   0.10969 276646.080000
   5929   5931     1   0.10969 276646.080000
   5929   5932     1   0.10969 276646.080000
   5934   5944     1   0.10969 276646.080000
   5934   5945     1   0.10969 276646.080000
   5935   5936     1   0.10969 276646.080000
   5935   5938     1   0.10969 276646.080000
   5937   5939     1   0.10969 276646.080000
   5937   5940     1   0.10969 276646.080000
   5942   5952     1   0.09730 310787.520000
   5946   5947     1   0.10969 276646.080000
   5946   5948     1   0.10969 276646.080000
   5951   5953     1   0.09730 310787.520000
   5954   5955     1   0.10129 337397.760000
   5956   5957     1   0.10969 276646.080000
   5956   5959     1   0.10969 276646.080000
   5958   5960     1   0.10969 276646.080000
   5958   5961     1   0.10969 276646.080000
   5963   5973     1   0.10969 276646.080000
   5963   5974     1   0.10969 276646.080000
   5964   5965     1   0.10969 276646.080000
   5964   5967     1   0.10969 276646.080000
   5966   5968     1   0.10969 276646.080000
   5966   5969     1   0.10969 276646.080000
   5971   5981     1   0.09730 310787.520000
   5975   5976     1   0.10969 276646.080000
   5975   5977     1   0.10969 276646.080000
   5980   5982     1   0.09730 310787.520000
   5983   5984     1   0.10129 337397.760000
   5985   5986     1   0.10969 276646.080000
   5985   5988     1   0.10969 276646.080000
   5987   5989     1   0.10969 276646.080000
   5987   5990     1   0.10969 276646.080000
   5992   6002     1   0.10969 276646.080000
   5992   6003     1   0.10969 276646.080000
   5993   5994     1   0.10969 276646.080000
   5993   5996     1   0.10969 276646.080000
   5995   5997     1   0.10969 276646.080000
   5995   5998     1   0.10969 276646.080000
   6000   6010     1   0.09730 310787.520000
   6004   6005     1   0.10969 276646.080000
   6004   6006     1   0.10969 276646.080000
   6009   6011     1   0.09730 310787.520000
   6012   6013     1   0.10129 337397.760000
   6014   6015     1   0.10969 276646.080000
   6014   6017     1   0.10969 276646.080000
   6016   6018     1   0.10969 276646.080000
   6016   6019     1   0.10969 276646.080000
   6021   6031     1   0.10969 276646.080000
   6021   6032     1   0.10969 276646.080000
   6022   6023     1   0.10969 276646.080000
   6022   6025     1   0.10969 276646.080000
   6024   6026     1   0.10969 276646.080000
   6024   6027     1   0.10969 276646.080000
   6029   6039     1   0.09730 310787.520000
   6033   6034     1   0.10969 276646.080000
   6033   6035     1   0.10969 276646.080000
   6038   6040     1   0.09730 310787.520000
   6041   6042     1   0.10129 337397.760000
   6043   6044     1   0.10969 276646.080000
   6043   6046     1   0.10969 276646.080000
   6045   6047     1   0.10969 276646.080000
   6045   6048     1   0.10969 276646.080000
   6050   6060     1   0.10969 276646.080000
   6050   6061     1   0.10969 276646.080000
   6051   6052     1   0.10969 276646.080000
   6051   6054     1   0.10969 276646.080000
   6053   6055     1   0.10969 276646.080000
   6053   6056     1   0.10969 276646.080000
   6058   6068     1   0.09730 310787.520000
   6062   6063     1   0.10969 276646.080000
   6062   6064     1   0.10969 276646.080000
   6067   6069     1   0.09730 310787.520000
   6070   6071     1   0.10129 337397.760000
   6072   6073     1   0.10969 276646.080000
   6072   6075     1   0.10969 276646.080000
   6074   6076     1   0.10969 276646.080000
   6074   6077     1   0.10969 276646.080000
   6079   6089     1   0.10969 276646.080000
   6079   6090     1   0.10969 276646.080000
   6080   6081     1   0.10969 276646.080000
   6080   6083     1   0.10969 276646.080000
   6082   6084     1   0.10969 276646.080000
   6082   6085     1   0.10969 276646.080000
   6087   6097     1   0.09730 310787.520000
   6091   6092     1   0.10969 276646.080000
   6091   6093     1   0.10969 276646.080000
   6096   6098     1   0.09730 310787.520000
   6099   6100     1   0.10129 337397.760000
   6101   6102     1   0.10969 276646.080000
   6101   6104     1   0.10969 276646.080000
   6103   6105     1   0.10969 276646.080000
   6103   6106     1   0.10969 276646.080000
   6108   6118     1   0.10969 276646.080000
   6108   6119     1   0.10969 276646.080000
   6109   6110     1   0.10969 276646.080000
   6109   6112     1   0.10969 276646.080000
   6111   6113     1   0.10969 276646.080000
   6111   6114     1   0.10969 276646.080000
   6116   6126     1   0.09730 310787.520000
   6120   6121     1   0.10969 276646.080000
   6120   6122     1   0.10969 276646.080000
   6125   6127     1   0.09730 310787.520000
   6128   6129     1   0.10129 337397.760000
   6130   6131     1   0.10969 276646.080000
   6130   6133     1   0.10969 276646.080000
   6132   6134     1   0.10969 276646.080000
   6132   6135     1   0.10969 276646.080000
   6137   6147     1   0.10969 276646.080000
   6137   6148     1   0.10969 276646.080000
   6138   6139     1   0.10969 276646.080000
   6138   6141     1   0.10969 276646.080000
   6140   6142     1   0.10969 276646.080000
   6140   6143     1   0.10969 276646.080000
   6145   6155     1   0.09730 310787.520000
   6149   6150     1   0.10969 276646.080000
   6149   6151     1   0.10969 276646.080000
   6154   6156     1   0.09730 310787.520000
   6157   6158     1   0.10129 337397.760000
   6159   6160     1   0.10969 276646.080000
   6159   6162     1   0.10969 276646.080000
   6161   6163     1   0.10969 276646.080000
   6161   6164     1   0.10969 276646.080000
   6166   6176     1   0.10969 276646.080000
   6166   6177     1   0.10969 276646.080000
   6167   6168     1   0.10969 276646.080000
   6167   6170     1   0.10969 276646.080000
   6169   6171     1   0.10969 276646.080000
   6169   6172     1   0.10969 276646.080000
   6174   6184     1   0.09730 310787.520000
   6178   6179     1   0.10969 276646.080000
   6178   6180     1   0.10969 276646.080000
   6183   6185     1   0.09730 310787.520000
   6186   6187     1   0.10129 337397.760000
   6188   6189     1   0.10969 276646.080000
   6188   6191     1   0.10969 276646.080000
   6190   6192     1   0.10969 276646.080000
   6190   6193     1   0.10969 276646.080000
   6195   6205     1   0.10969 276646.080000
   6195   6206     1   0.10969 276646.080000
   6196   6197     1   0.10969 276646.080000
   6196   6199     1   0.10969 276646.080000
   6198   6200     1   0.10969 276646.080000
   6198   6201     1   0.10969 276646.080000
   6203   6213     1   0.09730 310787.520000
   6207   6208     1   0.10969 276646.080000
   6207   6209     1   0.10969 276646.080000
   6212   6214     1   0.09730 310787.520000
   6215   6216     1   0.10129 337397.760000
   6217   6218     1   0.10969 276646.080000
   6217   6220     1   0.10969 276646.080000
   6219   6221     1   0.10969 276646.080000
   6219   6222     1   0.10969 276646.080000
   6224   6234     1   0.10969 276646.080000
   6224   6235     1   0.10969 276646.080000
   6225   6226     1   0.10969 276646.080000
   6225   6228     1   0.10969 276646.080000
   6227   6229     1   0.10969 276646.080000
   6227   6230     1   0.10969 276646.080000
   6232   6242     1   0.09730 310787.520000
   6236   6237     1   0.10969 276646.080000
   6236   6238     1   0.10969 276646.080000
   6241   6243     1   0.09730 310787.520000
   6244   6245     1   0.10129 337397.760000
   6246   6247     1   0.10969 276646.080000
   6246   6249     1   0.10969 276646.080000
   6248   6250     1   0.10969 276646.080000
   6248   6251     1   0.10969 276646.080000
   6253   6263     1   0.10969 276646.080000
   6253   6264     1   0.10969 276646.080000
   6254   6255     1   0.10969 276646.080000
   6254   6257     1   0.10969 276646.080000
   6256   6258     1   0.10969 276646.080000
   6256   6259     1   0.10969 276646.080000
   6261   6271     1   0.09730 310787.520000
   6265   6266     1   0.10969 276646.080000
   6265   6267     1   0.10969 276646.080000
   6270   6272     1   0.09730 310787.520000
   6273   6274     1   0.10129 337397.760000
   6275   6276     1   0.10969 276646.080000
   6275   6278     1   0.10969 276646.080000
   6277   6279     1   0.10969 276646.080000
   6277   6280     1   0.10969 276646.080000
   6282   6292     1   0.10969 276646.080000
   6282   6293     1   0.10969 276646.080000
   6283   6284     1   0.10969 276646.080000
   6283   6286     1   0.10969 276646.080000
   6285   6287     1   0.10969 276646.080000
   6285   6288     1   0.10969 276646.080000
   6290   6300     1   0.09730 310787.520000
   6294   6295     1   0.10969 276646.080000
   6294   6296     1   0.10969 276646.080000
   6299   6301     1   0.09730 310787.520000
   6302   6303     1   0.10129 337397.760000
   6304   6305     1   0.10969 276646.080000
   6304   6307     1   0.10969 276646.080000
   6306   6308     1   0.10969 276646.080000
   6306   6309     1   0.10969 276646.080000
   6311   6321     1   0.10969 276646.080000
   6311   6322     1   0.10969 276646.080000
   6312   6313     1   0.10969 276646.080000
   6312   6315     1   0.10969 276646.080000
   6314   6316     1   0.10969 276646.080000
   6314   6317     1   0.10969 276646.080000
   6319   6329     1   0.09730 310787.520000
   6323   6324     1   0.10969 276646.080000
   6323   6325     1   0.10969 276646.080000
   6328   6330     1   0.09730 310787.520000
   6331   6332     1   0.10129 337397.760000
   6333   6334     1   0.10969 276646.080000
   6333   6336     1   0.10969 276646.080000
   6335   6337     1   0.10969 276646.080000
   6335   6338     1   0.10969 276646.080000
   6340   6350     1   0.10969 276646.080000
   6340   6351     1   0.10969 276646.080000
   6341   6342     1   0.10969 276646.080000
   6341   6344     1   0.10969 276646.080000
   6343   6345     1   0.10969 276646.080000
   6343   6346     1   0.10969 276646.080000
   6348   6358     1   0.09730 310787.520000
   6352   6353     1   0.10969 276646.080000
   6352   6354     1   0.10969 276646.080000
   6357   6359     1   0.09730 310787.520000
   6360   6361     1   0.10129 337397.760000
   6362   6363     1   0.10969 276646.080000
   6362   6365     1   0.10969 276646.080000
   6364   6366     1   0.10969 276646.080000
   6364   6367     1   0.10969 276646.080000
   6369   6379     1   0.10969 276646.080000
   6369   6380     1   0.10969 276646.080000
   6370   6371     1   0.10969 276646.080000
   6370   6373     1   0.10969 276646.080000
   6372   6374     1   0.10969 276646.080000
   6372   6375     1   0.10969 276646.080000
   6377   6387     1   0.09730 310787.520000
   6381   6382     1   0.10969 276646.080000
   6381   6383     1   0.10969 276646.080000
   6386   6388     1   0.09730 310787.520000
   6389   6390     1   0.10129 337397.760000
   6391   6392     1   0.10969 276646.080000
   6391   6394     1   0.10969 276646.080000
   6393   6395     1   0.10969 276646.080000
   6393   6396     1   0.10969 276646.080000
   6398   6408     1   0.10969 276646.080000
   6398   6409     1   0.10969 276646.080000
   6399   6400     1   0.10969 276646.080000
   6399   6402     1   0.10969 276646.080000
   6401   6403     1   0.10969 276646.080000
   6401   6404     1   0.10969 276646.080000
   6406   6416     1   0.09730 310787.520000
   6410   6411     1   0.10969 276646.080000
   6410   6412     1   0.10969 276646.080000
   6415   6417     1   0.09730 310787.520000
   6418   6419     1   0.10129 337397.760000
   6420   6421     1   0.10969 276646.080000
   6420   6423     1   0.10969 276646.080000
   6422   6424     1   0.10969 276646.080000
   6422   6425     1   0.10969 276646.080000
   6427   6437     1   0.10969 276646.080000
   6427   6438     1   0.10969 276646.080000
   6428   6429     1   0.10969 276646.080000
   6428   6431     1   0.10969 276646.080000
   6430   6432     1   0.10969 276646.080000
   6430   6433     1   0.10969 276646.080000
   6435   6445     1   0.09730 310787.520000
   6439   6440     1   0.10969 276646.080000
   6439   6441     1   0.10969 276646.080000
   6444   6446     1   0.09730 310787.520000
   6447   6448     1   0.10129 337397.760000
   6449   6450     1   0.10969 276646.080000
   6449   6452     1   0.10969 276646.080000
   6451   6453     1   0.10969 276646.080000
   6451   6454     1   0.10969 276646.080000
   6456   6466     1   0.10969 276646.080000
   6456   6467     1   0.10969 276646.080000
   6457   6458     1   0.10969 276646.080000
   6457   6460     1   0.10969 276646.080000
   6459   6461     1   0.10969 276646.080000
   6459   6462     1   0.10969 276646.080000
   6464   6474     1   0.09730 310787.520000
   6468   6469     1   0.10969 276646.080000
   6468   6470     1   0.10969 276646.080000
   6473   6475     1   0.09730 310787.520000
   6476   6477     1   0.10129 337397.760000
   6478   6479     1   0.10969 276646.080000
   6478   6481     1   0.10969 276646.080000
   6480   6482     1   0.10969 276646.080000
   6480   6483     1   0.10969 276646.080000
   6485   6495     1   0.10969 276646.080000
   6485   6496     1   0.10969 276646.080000
   6486   6487     1   0.10969 276646.080000
   6486   6489     1   0.10969 276646.080000
   6488   6490     1   0.10969 276646.080000
   6488   6491     1   0.10969 276646.080000
   6493   6503     1   0.09730 310787.520000
   6497   6498     1   0.10969 276646.080000
   6497   6499     1   0.10969 276646.080000
   6502   6504     1   0.09730 310787.520000
   6505   6506     1   0.10129 337397.760000
   6507   6508     1   0.10969 276646.080000
   6507   6510     1   0.10969 276646.080000
   6509   6511     1   0.10969 276646.080000
   6509   6512     1   0.10969 276646.080000
   6514   6524     1   0.10969 276646.080000
   6514   6525     1   0.10969 276646.080000
   6515   6516     1   0.10969 276646.080000
   6515   6518     1   0.10969 276646.080000
   6517   6519     1   0.10969 276646.080000
   6517   6520     1   0.10969 276646.080000
   6522   6532     1   0.09730 310787.520000
   6526   6527     1   0.10969 276646.080000
   6526   6528     1   0.10969 276646.080000
   6531   6533     1   0.09730 310787.520000
   6534   6535     1   0.10129 337397.760000
   6536   6537     1   0.10969 276646.080000
   6536   6539     1   0.10969 276646.080000
   6538   6540     1   0.10969 276646.080000
   6538   6541     1   0.10969 276646.080000
   6543   6553     1   0.10969 276646.080000
   6543   6554     1   0.10969 276646.080000
   6544   6545     1   0.10969 276646.080000
   6544   6547     1   0.10969 276646.080000
   6546   6548     1   0.10969 276646.080000
   6546   6549     1   0.10969 276646.080000
   6551   6561     1   0.09730 310787.520000
   6555   6556     1   0.10969 276646.080000
   6555   6557     1   0.10969 276646.080000
   6560   6562     1   0.09730 310787.520000
   6563   6564     1   0.10129 337397.760000
   6565   6566     1   0.10969 276646.080000
   6565   6568     1   0.10969 276646.080000
   6567   6569     1   0.10969 276646.080000
   6567   6570     1   0.10969 276646.080000
   6572   6582     1   0.10969 276646.080000
   6572   6583     1   0.10969 276646.080000
   6573   6574     1   0.10969 276646.080000
   6573   6576     1   0.10969 276646.080000
   6575   6577     1   0.10969 276646.080000
   6575   6578     1   0.10969 276646.080000
   6580   6590     1   0.09730 310787.520000
   6584   6585     1   0.10969 276646.080000
   6584   6586     1   0.10969 276646.080000
   6589   6591     1   0.09730 310787.520000
   6592   6593     1   0.10129 337397.760000
   6594   6595     1   0.10969 276646.080000
   6594   6597     1   0.10969 276646.080000
   6596   6598     1   0.10969 276646.080000
   6596   6599     1   0.10969 276646.080000
   6601   6611     1   0.10969 276646.080000
   6601   6612     1   0.10969 276646.080000
   6602   6603     1   0.10969 276646.080000
   6602   6605     1   0.10969 276646.080000
   6604   6606     1   0.10969 276646.080000
   6604   6607     1   0.10969 276646.080000
   6609   6619     1   0.09730 310787.520000
   6613   6614     1   0.10969 276646.080000
   6613   6615     1   0.10969 276646.080000
   6618   6620     1   0.09730 310787.520000
   6621   6622     1   0.10129 337397.760000
   6623   6624     1   0.10969 276646.080000
   6623   6626     1   0.10969 276646.080000
   6625   6627     1   0.10969 276646.080000
   6625   6628     1   0.10969 276646.080000
   6630   6640     1   0.10969 276646.080000
   6630   6641     1   0.10969 276646.080000
   6631   6632     1   0.10969 276646.080000
   6631   6634     1   0.10969 276646.080000
   6633   6635     1   0.10969 276646.080000
   6633   6636     1   0.10969 276646.080000
   6638   6648     1   0.09730 310787.520000
   6642   6643     1   0.10969 276646.080000
   6642   6644     1   0.10969 276646.080000
   6647   6649     1   0.09730 310787.520000
   6650   6651     1   0.10129 337397.760000
   6652   6653     1   0.10969 276646.080000
   6652   6655     1   0.10969 276646.080000
   6654   6656     1   0.10969 276646.080000
   6654   6657     1   0.10969 276646.080000
   6659   6669     1   0.10969 276646.080000
   6659   6670     1   0.10969 276646.080000
   6660   6661     1   0.10969 276646.080000
   6660   6663     1   0.10969 276646.080000
   6662   6664     1   0.10969 276646.080000
   6662   6665     1   0.10969 276646.080000
   6667   6677     1   0.09730 310787.520000
   6671   6672     1   0.10969 276646.080000
   6671   6673     1   0.10969 276646.080000
   6676   6678     1   0.09730 310787.520000
   6679   6680     1   0.10129 337397.760000
   6681   6682     1   0.10969 276646.080000
   6681   6684     1   0.10969 276646.080000
   6683   6685     1   0.10969 276646.080000
   6683   6686     1   0.10969 276646.080000
   6688   6698     1   0.10969 276646.080000
   6688   6699     1   0.10969 276646.080000
   6689   6690     1   0.10969 276646.080000
   6689   6692     1   0.10969 276646.080000
   6691   6693     1   0.10969 276646.080000
   6691   6694     1   0.10969 276646.080000
   6696   6706     1   0.09730 310787.520000
   6700   6701     1   0.10969 276646.080000
   6700   6702     1   0.10969 276646.080000
   6705   6707     1   0.09730 310787.520000
   6708   6709     1   0.10129 337397.760000
   6710   6711     1   0.10969 276646.080000
   6710   6713     1   0.10969 276646.080000
   6712   6714     1   0.10969 276646.080000
   6712   6715     1   0.10969 276646.080000
   6717   6727     1   0.10969 276646.080000
   6717   6728     1   0.10969 276646.080000
   6718   6719     1   0.10969 276646.080000
   6718   6721     1   0.10969 276646.080000
   6720   6722     1   0.10969 276646.080000
   6720   6723     1   0.10969 276646.080000
   6725   6735     1   0.09730 310787.520000
   6729   6730     1   0.10969 276646.080000
   6729   6731     1   0.10969 276646.080000
   6734   6736     1   0.09730 310787.520000
   6737   6738     1   0.10129 337397.760000
   6739   6740     1   0.10969 276646.080000
   6739   6742     1   0.10969 276646.080000
   6741   6743     1   0.10969 276646.080000
   6741   6744     1   0.10969 276646.080000
   6746   6756     1   0.10969 276646.080000
   6746   6757     1   0.10969 276646.080000
   6747   6748     1   0.10969 276646.080000
   6747   6750     1   0.10969 276646.080000
   6749   6751     1   0.10969 276646.080000
   6749   6752     1   0.10969 276646.080000
   6754   6764     1   0.09730 310787.520000
   6758   6759     1   0.10969 276646.080000
   6758   6760     1   0.10969 276646.080000
   6763   6765     1   0.09730 310787.520000
   6766   6767     1   0.10129 337397.760000
   6768   6769     1   0.10969 276646.080000
   6768   6771     1   0.10969 276646.080000
   6770   6772     1   0.10969 276646.080000
   6770   6773     1   0.10969 276646.080000
   6775   6785     1   0.10969 276646.080000
   6775   6786     1   0.10969 276646.080000
   6776   6777     1   0.10969 276646.080000
   6776   6779     1   0.10969 276646.080000
   6778   6780     1   0.10969 276646.080000
   6778   6781     1   0.10969 276646.080000
   6783   6793     1   0.09730 310787.520000
   6787   6788     1   0.10969 276646.080000
   6787   6789     1   0.10969 276646.080000
   6792   6794     1   0.09730 310787.520000
   6795   6796     1   0.10129 337397.760000
   6797   6798     1   0.10969 276646.080000
   6797   6800     1   0.10969 276646.080000
   6799   6801     1   0.10969 276646.080000
   6799   6802     1   0.10969 276646.080000
   6804   6814     1   0.10969 276646.080000
   6804   6815     1   0.10969 276646.080000
   6805   6806     1   0.10969 276646.080000
   6805   6808     1   0.10969 276646.080000
   6807   6809     1   0.10969 276646.080000
   6807   6810     1   0.10969 276646.080000
   6812   6822     1   0.09730 310787.520000
   6816   6817     1   0.10969 276646.080000
   6816   6818     1   0.10969 276646.080000
   6821   6823     1   0.09730 310787.520000
   6824   6825     1   0.10129 337397.760000
   6826   6827     1   0.10969 276646.080000
   6826   6829     1   0.10969 276646.080000
   6828   6830     1   0.10969 276646.080000
   6828   6831     1   0.10969 276646.080000
   6833   6843     1   0.10969 276646.080000
   6833   6844     1   0.10969 276646.080000
   6834   6835     1   0.10969 276646.080000
   6834   6837     1   0.10969 276646.080000
   6836   6838     1   0.10969 276646.080000
   6836   6839     1   0.10969 276646.080000
   6841   6851     1   0.09730 310787.520000
   6845   6846     1   0.10969 276646.080000
   6845   6847     1   0.10969 276646.080000
   6850   6852     1   0.09730 310787.520000

[ pairs ]
;    ai     aj funct         c0         c1         c2         c3
      1     15     1
      1     18     1
      1     30     1
      1     27     1
      4      9     1
      4     12     1
      4     21     1
      4     24     1
      8      7     1
      7     35     1
      7     36     1
      8     34     1
      8     33     1
      9     27     1
      9     40     1
      9     89     1
     12     30     1
     12     37     1
     12     64     1
     15     24     1
     15     38     1
     15    114     1
     18     21     1
     18     39     1
     18    139     1
     21     94     1
     24    119     1
     27     44     1
     30     69     1
     33     41     1
     34     66     1
     35     91     1
     36    116     1
     37     44     1
     38     94     1
     39    119     1
     40     69     1
     41     57     1
     41     54     1
     44     48     1
     44     51     1
     47     64     1
     47     61     1
     47     60     1
     48     54     1
     48     63     1
     48    189     1
     51     57     1
     51     62     1
     51    164     1
     54    144     1
     57    169     1
     60    141     1
     61    166     1
     62    144     1
     63    169     1
     66     82     1
     66     79     1
     69     73     1
     69     76     1
     72     89     1
     72     86     1
     72     85     1
     73     79     1
     73     88     1
     73    239     1
     76     82     1
     76     87     1
     76    214     1
     79    194     1
     82    219     1
     85    191     1
     86    216     1
     87    194     1
     88    219     1
     91    107     1
     91    104     1
     94     98     1
     94    101     1
     97    114     1
     97    111     1
     97    110     1
     98    104     1
     98    113     1
     98    289     1
    101    107     1
    101    112     1
    101    264     1
    104    244     1
    107    269     1
    110    241     1
    111    266     1
    112    244     1
    113    269     1
    116    132     1
    116    129     1
    119    123     1
    119    126     1
    122    139     1
    122    136     1
    122    135     1
    123    129     1
    123    138     1
    123    339     1
    126    132     1
    126    137     1
    126    314     1
    129    294     1
    132    319     1
    135    291     1
    136    316     1
    137    294     1
    138    319     1
    141    157     1
    141    154     1
    144    148     1
    144    151     1
    147    164     1
    147    161     1
    147    160     1
    148    154     1
    148    163     1
    148    389     1
    151    157     1
    151    162     1
    151    364     1
    154    344     1
    157    369     1
    160    341     1
    161    366     1
    162    344     1
    163    369     1
    166    182     1
    166    179     1
    169    173     1
    169    176     1
    172    189     1
    172    186     1
    172    185     1
    173    179     1
    173    188     1
    173    439     1
    176    182     1
    176    187     1
    176    414     1
    179    394     1
    182    419     1
    185    391     1
    186    416     1
    187    394     1
    188    419     1
    191    207     1
    191    204     1
    194    198     1
    194    201     1
    197    214     1
    197    211     1
    197    210     1
    198    204     1
    198    213     1
    198    489     1
    201    207     1
    201    212     1
    201    464     1
    204    444     1
    207    469     1
    210    441     1
    211    466     1
    212    444     1
    213    469     1
    216    232     1
    216    229     1
    219    223     1
    219    226     1
    222    239     1
    222    236     1
    222    235     1
    223    229     1
    223    238     1
    223    539     1
    226    232     1
    226    237     1
    226    514     1
    229    494     1
    232    519     1
    235    491     1
    236    516     1
    237    494     1
    238    519     1
    241    257     1
    241    254     1
    244    248     1
    244    251     1
    247    264     1
    247    261     1
    247    260     1
    248    254     1
    248    263     1
    248    589     1
    251    257     1
    251    262     1
    251    564     1
    254    544     1
    257    569     1
    260    541     1
    261    566     1
    262    544     1
    263    569     1
    266    282     1
    266    279     1
    269    273     1
    269    276     1
    272    289     1
    272    286     1
    272    285     1
    273    279     1
    273    288     1
    273    639     1
    276    282     1
    276    287     1
    276    614     1
    279    594     1
    282    619     1
    285    591     1
    286    616     1
    287    594     1
    288    619     1
    291    307     1
    291    304     1
    294    298     1
    294    301     1
    297    314     1
    297    311     1
    297    310     1
    298    304     1
    298    313     1
    298    689     1
    301    307     1
    301    312     1
    301    664     1
    304    644     1
    307    669     1
    310    641     1
    311    666     1
    312    644     1
    313    669     1
    316    332     1
    316    329     1
    319    323     1
    319    326     1
    322    339     1
    322    336     1
    322    335     1
    323    329     1
    323    338     1
    323    739     1
    326    332     1
    326    337     1
    326    714     1
    329    694     1
    332    719     1
    335    691     1
    336    716     1
    337    694     1
    338    719     1
    341    357     1
    341    354     1
    344    348     1
    344    351     1
    347    364     1
    347    361     1
    347    360     1
    348    354     1
    348    363     1
    348    789     1
    351    357     1
    351    362     1
    351    764     1
    354    744     1
    357    769     1
    360    741     1
    361    766     1
    362    744     1
    363    769     1
    366    382     1
    366    379     1
    369    373     1
    369    376     1
    372    389     1
    372    386     1
    372    385     1
    373    379     1
    373    388     1
    373    839     1
    376    382     1
    376    387     1
    376    814     1
    379    794     1
    382    819     1
    385    791     1
    386    816     1
    387    794     1
    388    819     1
    391    407     1
    391    404     1
    394    398     1
    394    401     1
    397    414     1
    397    411     1
    397    410     1
    398    404     1
    398    413     1
    398    889     1
    401    407     1
    401    412     1
    401    864     1
    404    844     1
    407    869     1
    410    841     1
    411    866     1
    412    844     1
    413    869     1
    416    432     1
    416    429     1
    419    423     1
    419    426     1
    422    439     1
    422    436     1
    422    435     1
    423    429     1
    423    438     1
    423    939     1
    426    432     1
    426    437     1
    426    914     1
    429    894     1
    432    919     1
    435    891     1
    436    916     1
    437    894     1
    438    919     1
    441    457     1
    441    454     1
    444    448     1
    444    451     1
    447    464     1
    447    461     1
    447    460     1
    448    454     1
    448    463     1
    448    989     1
    451    457     1
    451    462     1
    451    964     1
    454    944     1
    457    969     1
    460    941     1
    461    966     1
    462    944     1
    463    969     1
    466    482     1
    466    479     1
    469    473     1
    469    476     1
    472    489     1
    472    486     1
    472    485     1
    473    479     1
    473    488     1
    473   1039     1
    476    482     1
    476    487     1
    476   1014     1
    479    994     1
    482   1019     1
    485    991     1
    486   1016     1
    487    994     1
    488   1019     1
    491    507     1
    491    504     1
    494    498     1
    494    501     1
    497    514     1
    497    511     1
    497    510     1
    498    504     1
    498    513     1
    498   1089     1
    501    507     1
    501    512     1
    501   1064     1
    504   1044     1
    507   1069     1
    510   1041     1
    511   1066     1
    512   1044     1
    513   1069     1
    516    532     1
    516    529     1
    519    523     1
    519    526     1
    522    539     1
    522    536     1
    522    535     1
    523    529     1
    523    538     1
    523   1139     1
    526    532     1
    526    537     1
    526   1114     1
    529   1094     1
    532   1119     1
    535   1091     1
    536   1116     1
    537   1094     1
    538   1119     1
    541    557     1
    541    554     1
    544    548     1
    544    551     1
    547    564     1
    547    561     1
    547    560     1
    548    554     1
    548    563     1
    548   1189     1
    551    557     1
    551    562     1
    551   1164     1
    554   1144     1
    557   1169     1
    560   1141     1
    561   1166     1
    562   1144     1
    563   1169     1
    566    582     1
    566    579     1
    569    573     1
    569    576     1
    572    589     1
    572    586     1
    572    585     1
    573    579     1
    573    588     1
    573   1239     1
    576    582     1
    576    587     1
    576   1214     1
    579   1194     1
    582   1219     1
    585   1191     1
    586   1216     1
    587   1194     1
    588   1219     1
    591    607     1
    591    604     1
    594    598     1
    594    601     1
    597    614     1
    597    611     1
    597    610     1
    598    604     1
    598    613     1
    598   1289     1
    601    607     1
    601    612     1
    601   1264     1
    604   1244     1
    607   1269     1
    610   1241     1
    611   1266     1
    612   1244     1
    613   1269     1
    616    632     1
    616    629     1
    619    623     1
    619    626     1
    622    639     1
    622    636     1
    622    635     1
    623    629     1
    623    638     1
    623   1339     1
    626    632     1
    626    637     1
    626   1314     1
    629   1294     1
    632   1319     1
    635   1291     1
    636   1316     1
    637   1294     1
    638   1319     1
    641    657     1
    641    654     1
    644    648     1
    644    651     1
    647    664     1
    647    661     1
    647    660     1
    648    654     1
    648    663     1
    648   1389     1
    651    657     1
    651    662     1
    651   1364     1
    654   1344     1
    657   1369     1
    660   1341     1
    661   1366     1
    662   1344     1
    663   1369     1
    666    682     1
    666    679     1
    669    673     1
    669    676     1
    672    689     1
    672    686     1
    672    685     1
    673    679     1
    673    688     1
    673   1439     1
    676    682     1
    676    687     1
    676   1414     1
    679   1394     1
    682   1419     1
    685   1391     1
    686   1416     1
    687   1394     1
    688   1419     1
    691    707     1
    691    704     1
    694    698     1
    694    701     1
    697    714     1
    697    711     1
    697    710     1
    698    704     1
    698    713     1
    698   1489     1
    701    707     1
    701    712     1
    701   1464     1
    704   1444     1
    707   1469     1
    710   1441     1
    711   1466     1
    712   1444     1
    713   1469     1
    716    732     1
    716    729     1
    719    723     1
    719    726     1
    722    739     1
    722    736     1
    722    735     1
    723    729     1
    723    738     1
    723   1539     1
    726    732     1
    726    737     1
    726   1514     1
    729   1494     1
    732   1519     1
    735   1491     1
    736   1516     1
    737   1494     1
    738   1519     1
    741    757     1
    741    754     1
    744    748     1
    744    751     1
    747    764     1
    747    761     1
    747    760     1
    748    754     1
    748    763     1
    748   1589     1
    751    757     1
    751    762     1
    751   1564     1
    754   1544     1
    757   1569     1
    760   1541     1
    761   1566     1
    762   1544     1
    763   1569     1
    766    782     1
    766    779     1
    769    773     1
    769    776     1
    772    789     1
    772    786     1
    772    785     1
    773    779     1
    773    788     1
    773   1639     1
    776    782     1
    776    787     1
    776   1614     1
    779   1594     1
    782   1619     1
    785   1591     1
    786   1616     1
    787   1594     1
    788   1619     1
    791    807     1
    791    804     1
    794    798     1
    794    801     1
    797    814     1
    797    811     1
    797    810     1
    798    804     1
    798    813     1
    798   1689     1
    801    807     1
    801    812     1
    801   1664     1
    804   1644     1
    807   1669     1
    810   1641     1
    811   1666     1
    812   1644     1
    813   1669     1
    816    832     1
    816    829     1
    819    823     1
    819    826     1
    822    839     1
    822    836     1
    822    835     1
    823    829     1
    823    838     1
    823   1739     1
    826    832     1
    826    837     1
    826   1714     1
    829   1694     1
    832   1719     1
    835   1691     1
    836   1716     1
    837   1694     1
    838   1719     1
    841    857     1
    841    854     1
    844    848     1
    844    851     1
    847    864     1
    847    861     1
    847    860     1
    848    854     1
    848    863     1
    848   1789     1
    851    857     1
    851    862     1
    851   1764     1
    854   1744     1
    857   1769     1
    860   1741     1
    861   1766     1
    862   1744     1
    863   1769     1
    866    882     1
    866    879     1
    869    873     1
    869    876     1
    872    889     1
    872    886     1
    872    885     1
    873    879     1
    873    888     1
    873   1839     1
    876    882     1
    876    887     1
    876   1814     1
    879   1794     1
    882   1819     1
    885   1791     1
    886   1816     1
    887   1794     1
    888   1819     1
    891    907     1
    891    904     1
    894    898     1
    894    901     1
    897    914     1
    897    911     1
    897    910     1
    898    904     1
    898    913     1
    898   1889     1
    901    907     1
    901    912     1
    901   1864     1
    904   1844     1
    907   1869     1
    910   1841     1
    911   1866     1
    912   1844     1
    913   1869     1
    916    932     1
    916    929     1
    919    923     1
    919    926     1
    922    939     1
    922    936     1
    922    935     1
    923    929     1
    923    938     1
    923   1939     1
    926    932     1
    926    937     1
    926   1914     1
    929   1894     1
    932   1919     1
    935   1891     1
    936   1916     1
    937   1894     1
    938   1919     1
    941    957     1
    941    954     1
    944    948     1
    944    951     1
    947    964     1
    947    961     1
    947    960     1
    948    954     1
    948    963     1
    948   1989     1
    951    957     1
    951    962     1
    951   1964     1
    954   1944     1
    957   1969     1
    960   1941     1
    961   1966     1
    962   1944     1
    963   1969     1
    966    982     1
    966    979     1
    969    973     1
    969    976     1
    972    989     1
    972    986     1
    972    985     1
    973    979     1
    973    988     1
    973   2039     1
    976    982     1
    976    987     1
    976   2014     1
    979   1994     1
    982   2019     1
    985   1991     1
    986   2016     1
    987   1994     1
    988   2019     1
    991   1007     1
    991   1004     1
    994    998     1
    994   1001     1
    997   1014     1
    997   1011     1
    997   1010     1
    998   1004     1
    998   1013     1
    998   2089     1
   1001   1007     1
   1001   1012     1
   1001   2064     1
   1004   2044     1
   1007   2069     1
   1010   2041     1
   1011   2066     1
   1012   2044     1
   1013   2069     1
   1016   1032     1
   1016   1029     1
   1019   1023     1
   1019   1026     1
   1022   1039     1
   1022   1036     1
   1022   1035     1
   1023   1029     1
   1023   1038     1
   1023   2139     1
   1026   1032     1
   1026   1037     1
   1026   2114     1
   1029   2094     1
   1032   2119     1
   1035   2091     1
   1036   2116     1
   1037   2094     1
   1038   2119     1
   1041   1057     1
   1041   1054     1
   1044   1048     1
   1044   1051     1
   1047   1064     1
   1047   1061     1
   1047   1060     1
   1048   1054     1
   1048   1063     1
   1048   2189     1
   1051   1057     1
   1051   1062     1
   1051   2164     1
   1054   2144     1
   1057   2169     1
   1060   2141     1
   1061   2166     1
   1062   2144     1
   1063   2169     1
   1066   1082     1
   1066   1079     1
   1069   1073     1
   1069   1076     1
   1072   1089     1
   1072   1086     1
   1072   1085     1
   1073   1079     1
   1073   1088     1
   1073   2239     1
   1076   1082     1
   1076   1087     1
   1076   2214     1
   1079   2194     1
   1082   2219     1
   1085   2191     1
   1086   2216     1
   1087   2194     1
   1088   2219     1
   1091   1107     1
   1091   1104     1
   1094   1098     1
   1094   1101     1
   1097   1114     1
   1097   1111     1
   1097   1110     1
   1098   1104     1
   1098   1113     1
   1098   2289     1
   1101   1107     1
   1101   1112     1
   1101   2264     1
   1104   2244     1
   1107   2269     1
   1110   2241     1
   1111   2266     1
   1112   2244     1
   1113   2269     1
   1116   1132     1
   1116   1129     1
   1119   1123     1
   1119   1126     1
   1122   1139     1
   1122   1136     1
   1122   1135     1
   1123   1129     1
   1123   1138     1
   1123   2339     1
   1126   1132     1
   1126   1137     1
   1126   2314     1
   1129   2294     1
   1132   2319     1
   1135   2291     1
   1136   2316     1
   1137   2294     1
   1138   2319     1
   1141   1157     1
   1141   1154     1
   1144   1148     1
   1144   1151     1
   1147   1164     1
   1147   1161     1
   1147   1160     1
   1148   1154     1
   1148   1163     1
   1148   2389     1
   1151   1157     1
   1151   1162     1
   1151   2364     1
   1154   2344     1
   1157   2369     1
   1160   2341     1
   1161   2366     1
   1162   2344     1
   1163   2369     1
   1166   1182     1
   1166   1179     1
   1169   1173     1
   1169   1176     1
   1172   1189     1
   1172   1186     1
   1172   1185     1
   1173   1179     1
   1173   1188     1
   1173   2439     1
   1176   1182     1
   1176   1187     1
   1176   2414     1
   1179   2394     1
   1182   2419     1
   1185   2391     1
   1186   2416     1
   1187   2394     1
   1188   2419     1
   1191   1207     1
   1191   1204     1
   1194   1198     1
   1194   1201     1
   1197   1214     1
   1197   1211     1
   1197   1210     1
   1198   1204     1
   1198   1213     1
   1198   2489     1
   1201   1207     1
   1201   1212     1
   1201   2464     1
   1204   2444     1
   1207   2469     1
   1210   2441     1
   1211   2466     1
   1212   2444     1
   1213   2469     1
   1216   1232     1
   1216   1229     1
   1219   1223     1
   1219   1226     1
   1222   1239     1
   1222   1236     1
   1222   1235     1
   1223   1229     1
   1223   1238     1
   1223   2539     1
   1226   1232     1
   1226   1237     1
   1226   2514     1
   1229   2494     1
   1232   2519     1
   1235   2491     1
   1236   2516     1
   1237   2494     1
   1238   2519     1
   1241   1257     1
   1241   1254     1
   1244   1248     1
   1244   1251     1
   1247   1264     1
   1247   1261     1
   1247   1260     1
   1248   1254     1
   1248   1263     1
   1248   2589     1
   1251   1257     1
   1251   1262     1
   1251   2564     1
   1254   2544     1
   1257   2569     1
   1260   2541     1
   1261   2566     1
   1262   2544     1
   1263   2569     1
   1266   1282     1
   1266   1279     1
   1269   1273     1
   1269   1276     1
   1272   1289     1
   1272   1286     1
   1272   1285     1
   1273   1279     1
   1273   1288     1
   1273   2639     1
   1276   1282     1
   1276   1287     1
   1276   2614     1
   1279   2594     1
   1282   2619     1
   1285   2591     1
   1286   2616     1
   1287   2594     1
   1288   2619     1
   1291   1307     1
   1291   1304     1
   1294   1298     1
   1294   1301     1
   1297   1314     1
   1297   1311     1
   1297   1310     1
   1298   1304     1
   1298   1313     1
   1298   2689     1
   1301   1307     1
   1301   1312     1
   1301   2664     1
   1304   2644     1
   1307   2669     1
   1310   2641     1
   1311   2666     1
   1312   2644     1
   1313   2669     1
   1316   1332     1
   1316   1329     1
   1319   1323     1
   1319   1326     1
   1322   1339     1
   1322   1336     1
   1322   1335     1
   1323   1329     1
   1323   1338     1
   1323   2739     1
   1326   1332     1
   1326   1337     1
   1326   2714     1
   1329   2694     1
   1332   2719     1
   1335   2691     1
   1336   2716     1
   1337   2694     1
   1338   2719     1
   1341   1357     1
   1341   1354     1
   1344   1348     1
   1344   1351     1
   1347   1364     1
   1347   1361     1
   1347   1360     1
   1348   1354     1
   1348   1363     1
   1348   2789     1
   1351   1357     1
   1351   1362     1
   1351   2764     1
   1354   2744     1
   1357   2769     1
   1360   2741     1
   1361   2766     1
   1362   2744     1
   1363   2769     1
   1366   1382     1
   1366   1379     1
   1369   1373     1
   1369   1376     1
   1372   1389     1
   1372   1386     1
   1372   1385     1
   1373   1379     1
   1373   1388     1
   1373   2839     1
   1376   1382     1
   1376   1387     1
   1376   2814     1
   1379   2794     1
   1382   2819     1
   1385   2791     1
   1386   2816     1
   1387   2794     1
   1388   2819     1
   1391   1407     1
   1391   1404     1
   1394   1398     1
   1394   1401     1
   1397   1414     1
   1397   1411     1
   1397   1410     1
   1398   1404     1
   1398   1413     1
   1398   2889     1
   1401   1407     1
   1401   1412     1
   1401   2864     1
   1404   2844     1
   1407   2869     1
   1410   2841     1
   1411   2866     1
   1412   2844     1
   1413   2869     1
   1416   1432     1
   1416   1429     1
   1419   1423     1
   1419   1426     1
   1422   1439     1
   1422   1436     1
   1422   1435     1
   1423   1429     1
   1423   1438     1
   1423   2939     1
   1426   1432     1
   1426   1437     1
   1426   2914     1
   1429   2894     1
   1432   2919     1
   1435   2891     1
   1436   2916     1
   1437   2894     1
   1438   2919     1
   1441   1457     1
   1441   1454     1
   1444   1448     1
   1444   1451     1
   1447   1464     1
   1447   1461     1
   1447   1460     1
   1448   1454     1
   1448   1463     1
   1448   2989     1
   1451   1457     1
   1451   1462     1
   1451   2964     1
   1454   2944     1
   1457   2969     1
   1460   2941     1
   1461   2966     1
   1462   2944     1
   1463   2969     1
   1466   1482     1
   1466   1479     1
   1469   1473     1
   1469   1476     1
   1472   1489     1
   1472   1486     1
   1472   1485     1
   1473   1479     1
   1473   1488     1
   1473   3039     1
   1476   1482     1
   1476   1487     1
   1476   3014     1
   1479   2994     1
   1482   3019     1
   1485   2991     1
   1486   3016     1
   1487   2994     1
   1488   3019     1
   1491   1507     1
   1491   1504     1
   1494   1498     1
   1494   1501     1
   1497   1514     1
   1497   1511     1
   1497   1510     1
   1498   1504     1
   1498   1513     1
   1498   3089     1
   1501   1507     1
   1501   1512     1
   1501   3064     1
   1504   3044     1
   1507   3069     1
   1510   3041     1
   1511   3066     1
   1512   3044     1
   1513   3069     1
   1516   1532     1
   1516   1529     1
   1519   1523     1
   1519   1526     1
   1522   1539     1
   1522   1536     1
   1522   1535     1
   1523   1529     1
   1523   1538     1
   1523   3139     1
   1526   1532     1
   1526   1537     1
   1526   3114     1
   1529   3094     1
   1532   3119     1
   1535   3091     1
   1536   3116     1
   1537   3094     1
   1538   3119     1
   1541   1557     1
   1541   1554     1
   1544   1548     1
   1544   1551     1
   1547   1564     1
   1547   1561     1
   1547   1560     1
   1548   1554     1
   1548   1563     1
   1548   3170     1
   1551   1557     1
   1551   3141     1
   1551   1562     1
   1554   3143     1
   1557   3172     1
   1560   3145     1
   1561   3174     1
   1562   3143     1
   1563   3172     1
   1566   1582     1
   1566   1579     1
   1569   1573     1
   1569   1576     1
   1572   1589     1
   1572   1586     1
   1572   1585     1
   1573   1579     1
   1573   1588     1
   1573   3228     1
   1576   1582     1
   1576   3199     1
   1576   1587     1
   1579   3201     1
   1582   3230     1
   1585   3203     1
   1586   3232     1
   1587   3201     1
   1588   3230     1
   1591   1607     1
   1591   1604     1
   1594   1598     1
   1594   1601     1
   1597   1614     1
   1597   1611     1
   1597   1610     1
   1598   1604     1
   1598   1613     1
   1598   3286     1
   1601   1607     1
   1601   3257     1
   1601   1612     1
   1604   3259     1
   1607   3288     1
   1610   3261     1
   1611   3290     1
   1612   3259     1
   1613   3288     1
   1616   1632     1
   1616   1629     1
   1619   1623     1
   1619   1626     1
   1622   1639     1
   1622   1636     1
   1622   1635     1
   1623   1629     1
   1623   1638     1
   1623   3344     1
   1626   1632     1
   1626   3315     1
   1626   1637     1
   1629   3317     1
   1632   3346     1
   1635   3319     1
   1636   3348     1
   1637   3317     1
   1638   3346     1
   1641   1657     1
   1641   1654     1
   1644   1648     1
   1644   1651     1
   1647   1664     1
   1647   1661     1
   1647   1660     1
   1648   1654     1
   1648   1663     1
   1648   3402     1
   1651   1657     1
   1651   3373     1
   1651   1662     1
   1654   3375     1
   1657   3404     1
   1660   3377     1
   1661   3406     1
   1662   3375     1
   1663   3404     1
   1666   1682     1
   1666   1679     1
   1669   1673     1
   1669   1676     1
   1672   1689     1
   1672   1686     1
   1672   1685     1
   1673   1679     1
   1673   1688     1
   1673   3460     1
   1676   1682     1
   1676   3431     1
   1676   1687     1
   1679   3433     1
   1682   3462     1
   1685   3435     1
   1686   3464     1
   1687   3433     1
   1688   3462     1
   1691   1707     1
   1691   1704     1
   1694   1698     1
   1694   1701     1
   1697   1714     1
   1697   1711     1
   1697   1710     1
   1698   1704     1
   1698   1713     1
   1698   3518     1
   1701   1707     1
   1701   3489     1
   1701   1712     1
   1704   3491     1
   1707   3520     1
   1710   3493     1
   1711   3522     1
   1712   3491     1
   1713   3520     1
   1716   1732     1
   1716   1729     1
   1719   1723     1
   1719   1726     1
   1722   1739     1
   1722   1736     1
   1722   1735     1
   1723   1729     1
   1723   1738     1
   1723   3576     1
   1726   1732     1
   1726   3547     1
   1726   1737     1
   1729   3549     1
   1732   3578     1
   1735   3551     1
   1736   3580     1
   1737   3549     1
   1738   3578     1
   1741   1757     1
   1741   1754     1
   1744   1748     1
   1744   1751     1
   1747   1764     1
   1747   1761     1
   1747   1760     1
   1748   1754     1
   1748   1763     1
   1748   3634     1
   1751   1757     1
   1751   3605     1
   1751   1762     1
   1754   3607     1
   1757   3636     1
   1760   3609     1
   1761   3638     1
   1762   3607     1
   1763   3636     1
   1766   1782     1
   1766   1779     1
   1769   1773     1
   1769   1776     1
   1772   1789     1
   1772   1786     1
   1772   1785     1
   1773   1779     1
   1773   1788     1
   1773   3692     1
   1776   1782     1
   1776   3663     1
   1776   1787     1
   1779   3665     1
   1782   3694     1
   1785   3667     1
   1786   3696     1
   1787   3665     1
   1788   3694     1
   1791   1807     1
   1791   1804     1
   1794   1798     1
   1794   1801     1
   1797   1814     1
   1797   1811     1
   1797   1810     1
   1798   1804     1
   1798   1813     1
   1798   3750     1
   1801   1807     1
   1801   3721     1
   1801   1812     1
   1804   3723     1
   1807   3752     1
   1810   3725     1
   1811   3754     1
   1812   3723     1
   1813   3752     1
   1816   1832     1
   1816   1829     1
   1819   1823     1
   1819   1826     1
   1822   1839     1
   1822   1836     1
   1822   1835     1
   1823   1829     1
   1823   1838     1
   1823   3808     1
   1826   1832     1
   1826   3779     1
   1826   1837     1
   1829   3781     1
   1832   3810     1
   1835   3783     1
   1836   3812     1
   1837   3781     1
   1838   3810     1
   1841   1857     1
   1841   1854     1
   1844   1848     1
   1844   1851     1
   1847   1864     1
   1847   1861     1
   1847   1860     1
   1848   1854     1
   1848   1863     1
   1848   3866     1
   1851   1857     1
   1851   3837     1
   1851   1862     1
   1854   3839     1
   1857   3868     1
   1860   3841     1
   1861   3870     1
   1862   3839     1
   1863   3868     1
   1866   1882     1
   1866   1879     1
   1869   1873     1
   1869   1876     1
   1872   1889     1
   1872   1886     1
   1872   1885     1
   1873   1879     1
   1873   1888     1
   1873   3924     1
   1876   1882     1
   1876   3895     1
   1876   1887     1
   1879   3897     1
   1882   3926     1
   1885   3899     1
   1886   3928     1
   1887   3897     1
   1888   3926     1
   1891   1907     1
   1891   1904     1
   1894   1898     1
   1894   1901     1
   1897   1914     1
   1897   1911     1
   1897   1910     1
   1898   1904     1
   1898   1913     1
   1898   3982     1
   1901   1907     1
   1901   3953     1
   1901   1912     1
   1904   3955     1
   1907   3984     1
   1910   3957     1
   1911   3986     1
   1912   3955     1
   1913   3984     1
   1916   1932     1
   1916   1929     1
   1919   1923     1
   1919   1926     1
   1922   1939     1
   1922   1936     1
   1922   1935     1
   1923   1929     1
   1923   1938     1
   1923   4040     1
   1926   1932     1
   1926   4011     1
   1926   1937     1
   1929   4013     1
   1932   4042     1
   1935   4015     1
   1936   4044     1
   1937   4013     1
   1938   4042     1
   1941   1957     1
   1941   1954     1
   1944   1948     1
   1944   1951     1
   1947   1964     1
   1947   1961     1
   1947   1960     1
   1948   1954     1
   1948   1963     1
   1948   4098     1
   1951   1957     1
   1951   4069     1
   1951   1962     1
   1954   4071     1
   1957   4100     1
   1960   4073     1
   1961   4102     1
   1962   4071     1
   1963   4100     1
   1966   1982     1
   1966   1979     1
   1969   1973     1
   1969   1976     1
   1972   1989     1
   1972   1986     1
   1972   1985     1
   1973   1979     1
   1973   1988     1
   1973   4156     1
   1976   1982     1
   1976   4127     1
   1976   1987     1
   1979   4129     1
   1982   4158     1
   1985   4131     1
   1986   4160     1
   1987   4129     1
   1988   4158     1
   1991   2007     1
   1991   2004     1
   1994   1998     1
   1994   2001     1
   1997   2014     1
   1997   2011     1
   1997   2010     1
   1998   2004     1
   1998   2013     1
   1998   4214     1
   2001   2007     1
   2001   4185     1
   2001   2012     1
   2004   4187     1
   2007   4216     1
   2010   4189     1
   2011   4218     1
   2012   4187     1
   2013   4216     1
   2016   2032     1
   2016   2029     1
   2019   2023     1
   2019   2026     1
   2022   2039     1
   2022   2036     1
   2022   2035     1
   2023   2029     1
   2023   2038     1
   2023   4272     1
   2026   2032     1
   2026   4243     1
   2026   2037     1
   2029   4245     1
   2032   4274     1
   2035   4247     1
   2036   4276     1
   2037   4245     1
   2038   4274     1
   2041   2057     1
   2041   2054     1
   2044   2048     1
   2044   2051     1
   2047   2064     1
   2047   2061     1
   2047   2060     1
   2048   2054     1
   2048   2063     1
   2048   4330     1
   2051   2057     1
   2051   4301     1
   2051   2062     1
   2054   4303     1
   2057   4332     1
   2060   4305     1
   2061   4334     1
   2062   4303     1
   2063   4332     1
   2066   2082     1
   2066   2079     1
   2069   2073     1
   2069   2076     1
   2072   2089     1
   2072   2086     1
   2072   2085     1
   2073   2079     1
   2073   2088     1
   2073   4388     1
   2076   2082     1
   2076   4359     1
   2076   2087     1
   2079   4361     1
   2082   4390     1
   2085   4363     1
   2086   4392     1
   2087   4361     1
   2088   4390     1
   2091   2107     1
   2091   2104     1
   2094   2098     1
   2094   2101     1
   2097   2114     1
   2097   2111     1
   2097   2110     1
   2098   2104     1
   2098   2113     1
   2098   4446     1
   2101   2107     1
   2101   4417     1
   2101   2112     1
   2104   4419     1
   2107   4448     1
   2110   4421     1
   2111   4450     1
   2112   4419     1
   2113   4448     1
   2116   2132     1
   2116   2129     1
   2119   2123     1
   2119   2126     1
   2122   2139     1
   2122   2136     1
   2122   2135     1
   2123   2129     1
   2123   2138     1
   2123   4504     1
   2126   2132     1
   2126   4475     1
   2126   2137     1
   2129   4477     1
   2132   4506     1
   2135   4479     1
   2136   4508     1
   2137   4477     1
   2138   4506     1
   2141   2157     1
   2141   2154     1
   2144   2148     1
   2144   2151     1
   2147   2164     1
   2147   2161     1
   2147   2160     1
   2148   2154     1
   2148   2163     1
   2148   4562     1
   2151   2157     1
   2151   4533     1
   2151   2162     1
   2154   4535     1
   2157   4564     1
   2160   4537     1
   2161   4566     1
   2162   4535     1
   2163   4564     1
   2166   2182     1
   2166   2179     1
   2169   2173     1
   2169   2176     1
   2172   2189     1
   2172   2186     1
   2172   2185     1
   2173   2179     1
   2173   2188     1
   2173   4620     1
   2176   2182     1
   2176   4591     1
   2176   2187     1
   2179   4593     1
   2182   4622     1
   2185   4595     1
   2186   4624     1
   2187   4593     1
   2188   4622     1
   2191   2207     1
   2191   2204     1
   2194   2198     1
   2194   2201     1
   2197   2214     1
   2197   2211     1
   2197   2210     1
   2198   2204     1
   2198   2213     1
   2198   4678     1
   2201   2207     1
   2201   4649     1
   2201   2212     1
   2204   4651     1
   2207   4680     1
   2210   4653     1
   2211   4682     1
   2212   4651     1
   2213   4680     1
   2216   2232     1
   2216   2229     1
   2219   2223     1
   2219   2226     1
   2222   2239     1
   2222   2236     1
   2222   2235     1
   2223   2229     1
   2223   2238     1
   2223   4736     1
   2226   2232     1
   2226   4707     1
   2226   2237     1
   2229   4709     1
   2232   4738     1
   2235   4711     1
   2236   4740     1
   2237   4709     1
   2238   4738     1
   2241   2257     1
   2241   2254     1
   2244   2248     1
   2244   2251     1
   2247   2264     1
   2247   2261     1
   2247   2260     1
   2248   2254     1
   2248   2263     1
   2248   4794     1
   2251   2257     1
   2251   4765     1
   2251   2262     1
   2254   4767     1
   2257   4796     1
   2260   4769     1
   2261   4798     1
   2262   4767     1
   2263   4796     1
   2266   2282     1
   2266   2279     1
   2269   2273     1
   2269   2276     1
   2272   2289     1
   2272   2286     1
   2272   2285     1
   2273   2279     1
   2273   2288     1
   2273   4852     1
   2276   2282     1
   2276   4823     1
   2276   2287     1
   2279   4825     1
   2282   4854     1
   2285   4827     1
   2286   4856     1
   2287   4825     1
   2288   4854     1
   2291   2307     1
   2291   2304     1
   2294   2298     1
   2294   2301     1
   2297   2314     1
   2297   2311     1
   2297   2310     1
   2298   2304     1
   2298   2313     1
   2298   4910     1
   2301   2307     1
   2301   4881     1
   2301   2312     1
   2304   4883     1
   2307   4912     1
   2310   4885     1
   2311   4914     1
   2312   4883     1
   2313   4912     1
   2316   2332     1
   2316   2329     1
   2319   2323     1
   2319   2326     1
   2322   2339     1
   2322   2336     1
   2322   2335     1
   2323   2329     1
   2323   2338     1
   2323   4968     1
   2326   2332     1
   2326   4939     1
   2326   2337     1
   2329   4941     1
   2332   4970     1
   2335   4943     1
   2336   4972     1
   2337   4941     1
   2338   4970     1
   2341   2357     1
   2341   2354     1
   2344   2348     1
   2344   2351     1
   2347   2364     1
   2347   2361     1
   2347   2360     1
   2348   2354     1
   2348   2363     1
   2348   5026     1
   2351   2357     1
   2351   4997     1
   2351   2362     1
   2354   4999     1
   2357   5028     1
   2360   5001     1
   2361   5030     1
   2362   4999     1
   2363   5028     1
   2366   2382     1
   2366   2379     1
   2369   2373     1
   2369   2376     1
   2372   2389     1
   2372   2386     1
   2372   2385     1
   2373   2379     1
   2373   2388     1
   2373   5084     1
   2376   2382     1
   2376   5055     1
   2376   2387     1
   2379   5057     1
   2382   5086     1
   2385   5059     1
   2386   5088     1
   2387   5057     1
   2388   5086     1
   2391   2407     1
   2391   2404     1
   2394   2398     1
   2394   2401     1
   2397   2414     1
   2397   2411     1
   2397   2410     1
   2398   2404     1
   2398   2413     1
   2398   5142     1
   2401   2407     1
   2401   5113     1
   2401   2412     1
   2404   5115     1
   2407   5144     1
   2410   5117     1
   2411   5146     1
   2412   5115     1
   2413   5144     1
   2416   2432     1
   2416   2429     1
   2419   2423     1
   2419   2426     1
   2422   2439     1
   2422   2436     1
   2422   2435     1
   2423   2429     1
   2423   2438     1
   2423   5200     1
   2426   2432     1
   2426   5171     1
   2426   2437     1
   2429   5173     1
   2432   5202     1
   2435   5175     1
   2436   5204     1
   2437   5173     1
   2438   5202     1
   2441   2457     1
   2441   2454     1
   2444   2448     1
   2444   2451     1
   2447   2464     1
   2447   2461     1
   2447   2460     1
   2448   2454     1
   2448   2463     1
   2448   5258     1
   2451   2457     1
   2451   5229     1
   2451   2462     1
   2454   5231     1
   2457   5260     1
   2460   5233     1
   2461   5262     1
   2462   5231     1
   2463   5260     1
   2466   2482     1
   2466   2479     1
   2469   2473     1
   2469   2476     1
   2472   2489     1
   2472   2486     1
   2472   2485     1
   2473   2479     1
   2473   2488     1
   2473   5316     1
   2476   2482     1
   2476   5287     1
   2476   2487     1
   2479   5289     1
   2482   5318     1
   2485   5291     1
   2486   5320     1
   2487   5289     1
   2488   5318     1
   2491   2507     1
   2491   2504     1
   2494   2498     1
   2494   2501     1
   2497   2514     1
   2497   2511     1
   2497   2510     1
   2498   2504     1
   2498   2513     1
   2498   5374     1
   2501   2507     1
   2501   5345     1
   2501   2512     1
   2504   5347     1
   2507   5376     1
   2510   5349     1
   2511   5378     1
   2512   5347     1
   2513   5376     1
   2516   2532     1
   2516   2529     1
   2519   2523     1
   2519   2526     1
   2522   2539     1
   2522   2536     1
   2522   2535     1
   2523   2529     1
   2523   2538     1
   2523   5432     1
   2526   2532     1
   2526   5403     1
   2526   2537     1
   2529   5405     1
   2532   5434     1
   2535   5407     1
   2536   5436     1
   2537   5405     1
   2538   5434     1
   2541   2557     1
   2541   2554     1
   2544   2548     1
   2544   2551     1
   2547   2564     1
   2547   2561     1
   2547   2560     1
   2548   2554     1
   2548   2563     1
   2548   5490     1
   2551   2557     1
   2551   5461     1
   2551   2562     1
   2554   5463     1
   2557   5492     1
   2560   5465     1
   2561   5494     1
   2562   5463     1
   2563   5492     1
   2566   2582     1
   2566   2579     1
   2569   2573     1
   2569   2576     1
   2572   2589     1
   2572   2586     1
   2572   2585     1
   2573   2579     1
   2573   2588     1
   2573   5548     1
   2576   2582     1
   2576   5519     1
   2576   2587     1
   2579   5521     1
   2582   5550     1
   2585   5523     1
   2586   5552     1
   2587   5521     1
   2588   5550     1
   2591   2607     1
   2591   2604     1
   2594   2598     1
   2594   2601     1
   2597   2614     1
   2597   2611     1
   2597   2610     1
   2598   2604     1
   2598   2613     1
   2598   5606     1
   2601   2607     1
   2601   5577     1
   2601   2612     1
   2604   5579     1
   2607   5608     1
   2610   5581     1
   2611   5610     1
   2612   5579     1
   2613   5608     1
   2616   2632     1
   2616   2629     1
   2619   2623     1
   2619   2626     1
   2622   2639     1
   2622   2636     1
   2622   2635     1
   2623   2629     1
   2623   2638     1
   2623   5664     1
   2626   2632     1
   2626   5635     1
   2626   2637     1
   2629   5637     1
   2632   5666     1
   2635   5639     1
   2636   5668     1
   2637   5637     1
   2638   5666     1
   2641   2657     1
   2641   2654     1
   2644   2648     1
   2644   2651     1
   2647   2664     1
   2647   2661     1
   2647   2660     1
   2648   2654     1
   2648   2663     1
   2648   5722     1
   2651   2657     1
   2651   5693     1
   2651   2662     1
   2654   5695     1
   2657   5724     1
   2660   5697     1
   2661   5726     1
   2662   5695     1
   2663   5724     1
   2666   2682     1
   2666   2679     1
   2669   2673     1
   2669   2676     1
   2672   2689     1
   2672   2686     1
   2672   2685     1
   2673   2679     1
   2673   2688     1
   2673   5780     1
   2676   2682     1
   2676   5751     1
   2676   2687     1
   2679   5753     1
   2682   5782     1
   2685   5755     1
   2686   5784     1
   2687   5753     1
   2688   5782     1
   2691   2707     1
   2691   2704     1
   2694   2698     1
   2694   2701     1
   2697   2714     1
   2697   2711     1
   2697   2710     1
   2698   2704     1
   2698   2713     1
   2698   5838     1
   2701   2707     1
   2701   5809     1
   2701   2712     1
   2704   5811     1
   2707   5840     1
   2710   5813     1
   2711   5842     1
   2712   5811     1
   2713   5840     1
   2716   2732     1
   2716   2729     1
   2719   2723     1
   2719   2726     1
   2722   2739     1
   2722   2736     1
   2722   2735     1
   2723   2729     1
   2723   2738     1
   2723   5896     1
   2726   2732     1
   2726   5867     1
   2726   2737     1
   2729   5869     1
   2732   5898     1
   2735   5871     1
   2736   5900     1
   2737   5869     1
   2738   5898     1
   2741   2757     1
   2741   2754     1
   2744   2748     1
   2744   2751     1
   2747   2764     1
   2747   2761     1
   2747   2760     1
   2748   2754     1
   2748   2763     1
   2748   5954     1
   2751   2757     1
   2751   5925     1
   2751   2762     1
   2754   5927     1
   2757   5956     1
   2760   5929     1
   2761   5958     1
   2762   5927     1
   2763   5956     1
   2766   2782     1
   2766   2779     1
   2769   2773     1
   2769   2776     1
   2772   2789     1
   2772   2786     1
   2772   2785     1
   2773   2779     1
   2773   2788     1
   2773   6012     1
   2776   2782     1
   2776   5983     1
   2776   2787     1
   2779   5985     1
   2782   6014     1
   2785   5987     1
   2786   6016     1
   2787   5985     1
   2788   6014     1
   2791   2807     1
   2791   2804     1
   2794   2798     1
   2794   2801     1
   2797   2814     1
   2797   2811     1
   2797   2810     1
   2798   2804     1
   2798   2813     1
   2798   6070     1
   2801   2807     1
   2801   6041     1
   2801   2812     1
   2804   6043     1
   2807   6072     1
   2810   6045     1
   2811   6074     1
   2812   6043     1
   2813   6072     1
   2816   2832     1
   2816   2829     1
   2819   2823     1
   2819   2826     1
   2822   2839     1
   2822   2836     1
   2822   2835     1
   2823   2829     1
   2823   2838     1
   2823   6128     1
   2826   2832     1
   2826   6099     1
   2826   2837     1
   2829   6101     1
   2832   6130     1
   2835   6103     1
   2836   6132     1
   2837   6101     1
   2838   6130     1
   2841   2857     1
   2841   2854     1
   2844   2848     1
   2844   2851     1
   2847   2864     1
   2847   2861     1
   2847   2860     1
   2848   2854     1
   2848   2863     1
   2848   6186     1
   2851   2857     1
   2851   6157     1
   2851   2862     1
   2854   6159     1
   2857   6188     1
   2860   6161     1
   2861   6190     1
   2862   6159     1
   2863   6188     1
   2866   2882     1
   2866   2879     1
   2869   2873     1
   2869   2876     1
   2872   2889     1
   2872   2886     1
   2872   2885     1
   2873   2879     1
   2873   2888     1
   2873   6244     1
   2876   2882     1
   2876   6215     1
   2876   2887     1
   2879   6217     1
   2882   6246     1
   2885   6219     1
   2886   6248     1
   2887   6217     1
   2888   6246     1
   2891   2907     1
   2891   2904     1
   2894   2898     1
   2894   2901     1
   2897   2914     1
   2897   2911     1
   2897   2910     1
   2898   2904     1
   2898   2913     1
   2898   6302     1
   2901   2907     1
   2901   6273     1
   2901   2912     1
   2904   6275     1
   2907   6304     1
   2910   6277     1
   2911   6306     1
   2912   6275     1
   2913   6304     1
   2916   2932     1
   2916   2929     1
   2919   2923     1
   2919   2926     1
   2922   2939     1
   2922   2936     1
   2922   2935     1
   2923   2929     1
   2923   2938     1
   2923   6360     1
   2926   2932     1
   2926   6331     1
   2926   2937     1
   2929   6333     1
   2932   6362     1
   2935   6335     1
   2936   6364     1
   2937   6333     1
   2938   6362     1
   2941   2957     1
   2941   2954     1
   2944   2948     1
   2944   2951     1
   2947   2964     1
   2947   2961     1
   2947   2960     1
   2948   2954     1
   2948   2963     1
   2948   6418     1
   2951   2957     1
   2951   6389     1
   2951   2962     1
   2954   6391     1
   2957   6420     1
   2960   6393     1
   2961   6422     1
   2962   6391     1
   2963   6420     1
   2966   2982     1
   2966   2979     1
   2969   2973     1
   2969   2976     1
   2972   2989     1
   2972   2986     1
   2972   2985     1
   2973   2979     1
   2973   2988     1
   2973   6476     1
   2976   2982     1
   2976   6447     1
   2976   2987     1
   2979   6449     1
   2982   6478     1
   2985   6451     1
   2986   6480     1
   2987   6449     1
   2988   6478     1
   2991   3007     1
   2991   3004     1
   2994   2998     1
   2994   3001     1
   2997   3014     1
   2997   3011     1
   2997   3010     1
   2998   3004     1
   2998   3013     1
   2998   6534     1
   3001   3007     1
   3001   6505     1
   3001   3012     1
   3004   6507     1
   3007   6536     1
   3010   6509     1
   3011   6538     1
   3012   6507     1
   3013   6536     1
   3016   3032     1
   3016   3029     1
   3019   3023     1
   3019   3026     1
   3022   3039     1
   3022   3036     1
   3022   3035     1
   3023   3029     1
   3023   3038     1
   3023   6592     1
   3026   3032     1
   3026   6563     1
   3026   3037     1
   3029   6565     1
   3032   6594     1
   3035   6567     1
   3036   6596     1
   3037   6565     1
   3038   6594     1
   3041   3057     1
   3041   3054     1
   3044   3048     1
   3044   3051     1
   3047   3064     1
   3047   3061     1
   3047   3060     1
   3048   3054     1
   3048   3063     1
   3048   6650     1
   3051   3057     1
   3051   6621     1
   3051   3062     1
   3054   6623     1
   3057   6652     1
   3060   6625     1
   3061   6654     1
   3062   6623     1
   3063   6652     1
   3066   3082     1
   3066   3079     1
   3069   3073     1
   3069   3076     1
   3072   3089     1
   3072   3086     1
   3072   3085     1
   3073   3079     1
   3073   3088     1
   3073   6708     1
   3076   3082     1
   3076   6679     1
   3076   3087     1
   3079   6681     1
   3082   6710     1
   3085   6683     1
   3086   6712     1
   3087   6681     1
   3088   6710     1
   3091   3107     1
   3091   3104     1
   3094   3098     1
   3094   3101     1
   3097   3114     1
   3097   3111     1
   3097   3110     1
   3098   3104     1
   3098   3113     1
   3098   6766     1
   3101   3107     1
   3101   6737     1
   3101   3112     1
   3104   6739     1
   3107   6768     1
   3110   6741     1
   3111   6770     1
   3112   6739     1
   3113   6768     1
   3116   3132     1
   3116   3129     1
   3119   3123     1
   3119   3126     1
   3122   3139     1
   3122   3136     1
   3122   3135     1
   3123   3129     1
   3123   6824     1
   3123   3138     1
   3126   3132     1
   3126   6795     1
   3126   3137     1
   3129   6797     1
   3132   6826     1
   3135   6799     1
   3136   6828     1
   3137   6797     1
   3138   6826     1
   3141   3149     1
   3143   3150     1
   3143   3151     1
   3145   3162     1
   3145   3153     1
   3149   3165     1
   3149   3157     1
   3150   3153     1
   3150   3166     1
   3150   3167     1
   3151   3162     1
   3151   3158     1
   3151   3159     1
   3170   3178     1
   3172   3179     1
   3172   3180     1
   3174   3191     1
   3174   3182     1
   3178   3194     1
   3178   3186     1
   3179   3195     1
   3179   3196     1
   3179   3182     1
   3180   3187     1
   3180   3188     1
   3180   3191     1
   3199   3207     1
   3201   3208     1
   3201   3209     1
   3203   3220     1
   3203   3211     1
   3207   3223     1
   3207   3215     1
   3208   3211     1
   3208   3224     1
   3208   3225     1
   3209   3220     1
   3209   3216     1
   3209   3217     1
   3228   3236     1
   3230   3237     1
   3230   3238     1
   3232   3249     1
   3232   3240     1
   3236   3252     1
   3236   3244     1
   3237   3253     1
   3237   3254     1
   3237   3240     1
   3238   3245     1
   3238   3246     1
   3238   3249     1
   3257   3265     1
   3259   3266     1
   3259   3267     1
   3261   3278     1
   3261   3269     1
   3265   3281     1
   3265   3273     1
   3266   3269     1
   3266   3282     1
   3266   3283     1
   3267   3278     1
   3267   3274     1
   3267   3275     1
   3286   3294     1
   3288   3295     1
   3288   3296     1
   3290   3307     1
   3290   3298     1
   3294   3310     1
   3294   3302     1
   3295   3311     1
   3295   3312     1
   3295   3298     1
   3296   3303     1
   3296   3304     1
   3296   3307     1
   3315   3323     1
   3317   3324     1
   3317   3325     1
   3319   3336     1
   3319   3327     1
   3323   3339     1
   3323   3331     1
   3324   3327     1
   3324   3340     1
   3324   3341     1
   3325   3336     1
   3325   3332     1
   3325   3333     1
   3344   3352     1
   3346   3353     1
   3346   3354     1
   3348   3365     1
   3348   3356     1
   3352   3368     1
   3352   3360     1
   3353   3369     1
   3353   3370     1
   3353   3356     1
   3354   3361     1
   3354   3362     1
   3354   3365     1
   3373   3381     1
   3375   3382     1
   3375   3383     1
   3377   3394     1
   3377   3385     1
   3381   3397     1
   3381   3389     1
   3382   3385     1
   3382   3398     1
   3382   3399     1
   3383   3394     1
   3383   3390     1
   3383   3391     1
   3402   3410     1
   3404   3411     1
   3404   3412     1
   3406   3423     1
   3406   3414     1
   3410   3426     1
   3410   3418     1
   3411   3427     1
   3411   3428     1
   3411   3414     1
   3412   3419     1
   3412   3420     1
   3412   3423     1
   3431   3439     1
   3433   3440     1
   3433   3441     1
   3435   3452     1
   3435   3443     1
   3439   3455     1
   3439   3447     1
   3440   3443     1
   3440   3456     1
   3440   3457     1
   3441   3452     1
   3441   3448     1
   3441   3449     1
   3460   3468     1
   3462   3469     1
   3462   3470     1
   3464   3481     1
   3464   3472     1
   3468   3484     1
   3468   3476     1
   3469   3485     1
   3469   3486     1
   3469   3472     1
   3470   3477     1
   3470   3478     1
   3470   3481     1
   3489   3497     1
   3491   3498     1
   3491   3499     1
   3493   3510     1
   3493   3501     1
   3497   3513     1
   3497   3505     1
   3498   3501     1
   3498   3514     1
   3498   3515     1
   3499   3510     1
   3499   3506     1
   3499   3507     1
   3518   3526     1
   3520   3527     1
   3520   3528     1
   3522   3539     1
   3522   3530     1
   3526   3542     1
   3526   3534     1
   3527   3543     1
   3527   3544     1
   3527   3530     1
   3528   3535     1
   3528   3536     1
   3528   3539     1
   3547   3555     1
   3549   3556     1
   3549   3557     1
   3551   3568     1
   3551   3559     1
   3555   3571     1
   3555   3563     1
   3556   3559     1
   3556   3572     1
   3556   3573     1
   3557   3568     1
   3557   3564     1
   3557   3565     1
   3576   3584     1
   3578   3585     1
   3578   3586     1
   3580   3597     1
   3580   3588     1
   3584   3600     1
   3584   3592     1
   3585   3601     1
   3585   3602     1
   3585   3588     1
   3586   3593     1
   3586   3594     1
   3586   3597     1
   3605   3613     1
   3607   3614     1
   3607   3615     1
   3609   3626     1
   3609   3617     1
   3613   3629     1
   3613   3621     1
   3614   3617     1
   3614   3630     1
   3614   3631     1
   3615   3626     1
   3615   3622     1
   3615   3623     1
   3634   3642     1
   3636   3643     1
   3636   3644     1
   3638   3655     1
   3638   3646     1
   3642   3658     1
   3642   3650     1
   3643   3659     1
   3643   3660     1
   3643   3646     1
   3644   3651     1
   3644   3652     1
   3644   3655     1
   3663   3671     1
   3665   3672     1
   3665   3673     1
   3667   3684     1
   3667   3675     1
   3671   3687     1
   3671   3679     1
   3672   3675     1
   3672   3688     1
   3672   3689     1
   3673   3684     1
   3673   3680     1
   3673   3681     1
   3692   3700     1
   3694   3701     1
   3694   3702     1
   3696   3713     1
   3696   3704     1
   3700   3716     1
   3700   3708     1
   3701   3717     1
   3701   3718     1
   3701   3704     1
   3702   3709     1
   3702   3710     1
   3702   3713     1
   3721   3729     1
   3723   3730     1
   3723   3731     1
   3725   3742     1
   3725   3733     1
   3729   3745     1
   3729   3737     1
   3730   3733     1
   3730   3746     1
   3730   3747     1
   3731   3742     1
   3731   3738     1
   3731   3739     1
   3750   3758     1
   3752   3759     1
   3752   3760     1
   3754   3771     1
   3754   3762     1
   3758   3774     1
   3758   3766     1
   3759   3775     1
   3759   3776     1
   3759   3762     1
   3760   3767     1
   3760   3768     1
   3760   3771     1
   3779   3787     1
   3781   3788     1
   3781   3789     1
   3783   3800     1
   3783   3791     1
   3787   3803     1
   3787   3795     1
   3788   3791     1
   3788   3804     1
   3788   3805     1
   3789   3800     1
   3789   3796     1
   3789   3797     1
   3808   3816     1
   3810   3817     1
   3810   3818     1
   3812   3829     1
   3812   3820     1
   3816   3832     1
   3816   3824     1
   3817   3833     1
   3817   3834     1
   3817   3820     1
   3818   3825     1
   3818   3826     1
   3818   3829     1
   3837   3845     1
   3839   3846     1
   3839   3847     1
   3841   3858     1
   3841   3849     1
   3845   3861     1
   3845   3853     1
   3846   3849     1
   3846   3862     1
   3846   3863     1
   3847   3858     1
   3847   3854     1
   3847   3855     1
   3866   3874     1
   3868   3875     1
   3868   3876     1
   3870   3887     1
   3870   3878     1
   3874   3890     1
   3874   3882     1
   3875   3891     1
   3875   3892     1
   3875   3878     1
   3876   3883     1
   3876   3884     1
   3876   3887     1
   3895   3903     1
   3897   3904     1
   3897   3905     1
   3899   3916     1
   3899   3907     1
   3903   3919     1
   3903   3911     1
   3904   3907     1
   3904   3920     1
   3904   3921     1
   3905   3916     1
   3905   3912     1
   3905   3913     1
   3924   3932     1
   3926   3933     1
   3926   3934     1
   3928   3945     1
   3928   3936     1
   3932   3948     1
   3932   3940     1
   3933   3949     1
   3933   3950     1
   3933   3936     1
   3934   3941     1
   3934   3942     1
   3934   3945     1
   3953   3961     1
   3955   3962     1
   3955   3963     1
   3957   3974     1
   3957   3965     1
   3961   3977     1
   3961   3969     1
   3962   3965     1
   3962   3978     1
   3962   3979     1
   3963   3974     1
   3963   3970     1
   3963   3971     1
   3982   3990     1
   3984   3991     1
   3984   3992     1
   3986   4003     1
   3986   3994     1
   3990   4006     1
   3990   3998     1
   3991   4007     1
   3991   4008     1
   3991   3994     1
   3992   3999     1
   3992   4000     1
   3992   4003     1
   4011   4019     1
   4013   4020     1
   4013   4021     1
   4015   4032     1
   4015   4023     1
   4019   4035     1
   4019   4027     1
   4020   4023     1
   4020   4036     1
   4020   4037     1
   4021   4032     1
   4021   4028     1
   4021   4029     1
   4040   4048     1
   4042   4049     1
   4042   4050     1
   4044   4061     1
   4044   4052     1
   4048   4064     1
   4048   4056     1
   4049   4065     1
   4049   4066     1
   4049   4052     1
   4050   4057     1
   4050   4058     1
   4050   4061     1
   4069   4077     1
   4071   4078     1
   4071   4079     1
   4073   4090     1
   4073   4081     1
   4077   4093     1
   4077   4085     1
   4078   4081     1
   4078   4094     1
   4078   4095     1
   4079   4090     1
   4079   4086     1
   4079   4087     1
   4098   4106     1
   4100   4107     1
   4100   4108     1
   4102   4119     1
   4102   4110     1
   4106   4122     1
   4106   4114     1
   4107   4123     1
   4107   4124     1
   4107   4110     1
   4108   4115     1
   4108   4116     1
   4108   4119     1
   4127   4135     1
   4129   4136     1
   4129   4137     1
   4131   4148     1
   4131   4139     1
   4135   4151     1
   4135   4143     1
   4136   4139     1
   4136   4152     1
   4136   4153     1
   4137   4148     1
   4137   4144     1
   4137   4145     1
   4156   4164     1
   4158   4165     1
   4158   4166     1
   4160   4177     1
   4160   4168     1
   4164   4180     1
   4164   4172     1
   4165   4181     1
   4165   4182     1
   4165   4168     1
   4166   4173     1
   4166   4174     1
   4166   4177     1
   4185   4193     1
   4187   4194     1
   4187   4195     1
   4189   4206     1
   4189   4197     1
   4193   4209     1
   4193   4201     1
   4194   4197     1
   4194   4210     1
   4194   4211     1
   4195   4206     1
   4195   4202     1
   4195   4203     1
   4214   4222     1
   4216   4223     1
   4216   4224     1
   4218   4235     1
   4218   4226     1
   4222   4238     1
   4222   4230     1
   4223   4239     1
   4223   4240     1
   4223   4226     1
   4224   4231     1
   4224   4232     1
   4224   4235     1
   4243   4251     1
   4245   4252     1
   4245   4253     1
   4247   4264     1
   4247   4255     1
   4251   4267     1
   4251   4259     1
   4252   4255     1
   4252   4268     1
   4252   4269     1
   4253   4264     1
   4253   4260     1
   4253   4261     1
   4272   4280     1
   4274   4281     1
   4274   4282     1
   4276   4293     1
   4276   4284     1
   4280   4296     1
   4280   4288     1
   4281   4297     1
   4281   4298     1
   4281   4284     1
   4282   4289     1
   4282   4290     1
   4282   4293     1
   4301   4309     1
   4303   4310     1
   4303   4311     1
   4305   4322     1
   4305   4313     1
   4309   4325     1
   4309   4317     1
   4310   4313     1
   4310   4326     1
   4310   4327     1
   4311   4322     1
   4311   4318     1
   4311   4319     1
   4330   4338     1
   4332   4339     1
   4332   4340     1
   4334   4351     1
   4334   4342     1
   4338   4354     1
   4338   4346     1
   4339   4355     1
   4339   4356     1
   4339   4342     1
   4340   4347     1
   4340   4348     1
   4340   4351     1
   4359   4367     1
   4361   4368     1
   4361   4369     1
   4363   4380     1
   4363   4371     1
   4367   4383     1
   4367   4375     1
   4368   4371     1
   4368   4384     1
   4368   4385     1
   4369   4380     1
   4369   4376     1
   4369   4377     1
   4388   4396     1
   4390   4397     1
   4390   4398     1
   4392   4409     1
   4392   4400     1
   4396   4412     1
   4396   4404     1
   4397   4413     1
   4397   4414     1
   4397   4400     1
   4398   4405     1
   4398   4406     1
   4398   4409     1
   4417   4425     1
   4419   4426     1
   4419   4427     1
   4421   4438     1
   4421   4429     1
   4425   4441     1
   4425   4433     1
   4426   4429     1
   4426   4442     1
   4426   4443     1
   4427   4438     1
   4427   4434     1
   4427   4435     1
   4446   4454     1
   4448   4455     1
   4448   4456     1
   4450   4467     1
   4450   4458     1
   4454   4470     1
   4454   4462     1
   4455   4471     1
   4455   4472     1
   4455   4458     1
   4456   4463     1
   4456   4464     1
   4456   4467     1
   4475   4483     1
   4477   4484     1
   4477   4485     1
   4479   4496     1
   4479   4487     1
   4483   4499     1
   4483   4491     1
   4484   4487     1
   4484   4500     1
   4484   4501     1
   4485   4496     1
   4485   4492     1
   4485   4493     1
   4504   4512     1
   4506   4513     1
   4506   4514     1
   4508   4525     1
   4508   4516     1
   4512   4528     1
   4512   4520     1
   4513   4529     1
   4513   4530     1
   4513   4516     1
   4514   4521     1
   4514   4522     1
   4514   4525     1
   4533   4541     1
   4535   4542     1
   4535   4543     1
   4537   4554     1
   4537   4545     1
   4541   4557     1
   4541   4549     1
   4542   4545     1
   4542   4558     1
   4542   4559     1
   4543   4554     1
   4543   4550     1
   4543   4551     1
   4562   4570     1
   4564   4571     1
   4564   4572     1
   4566   4583     1
   4566   4574     1
   4570   4586     1
   4570   4578     1
   4571   4587     1
   4571   4588     1
   4571   4574     1
   4572   4579     1
   4572   4580     1
   4572   4583     1
   4591   4599     1
   4593   4600     1
   4593   4601     1
   4595   4612     1
   4595   4603     1
   4599   4615     1
   4599   4607     1
   4600   4603     1
   4600   4616     1
   4600   4617     1
   4601   4612     1
   4601   4608     1
   4601   4609     1
   4620   4628     1
   4622   4629     1
   4622   4630     1
   4624   4641     1
   4624   4632     1
   4628   4644     1
   4628   4636     1
   4629   4645     1
   4629   4646     1
   4629   4632     1
   4630   4637     1
   4630   4638     1
   4630   4641     1
   4649   4657     1
   4651   4658     1
   4651   4659     1
   4653   4670     1
   4653   4661     1
   4657   4673     1
   4657   4665     1
   4658   4661     1
   4658   4674     1
   4658   4675     1
   4659   4670     1
   4659   4666     1
   4659   4667     1
   4678   4686     1
   4680   4687     1
   4680   4688     1
   4682   4699     1
   4682   4690     1
   4686   4702     1
   4686   4694     1
   4687   4703     1
   4687   4704     1
   4687   4690     1
   4688   4695     1
   4688   4696     1
   4688   4699     1
   4707   4715     1
   4709   4716     1
   4709   4717     1
   4711   4728     1
   4711   4719     1
   4715   4731     1
   4715   4723     1
   4716   4719     1
   4716   4732     1
   4716   4733     1
   4717   4728     1
   4717   4724     1
   4717   4725     1
   4736   4744     1
   4738   4745     1
   4738   4746     1
   4740   4757     1
   4740   4748     1
   4744   4760     1
   4744   4752     1
   4745   4761     1
   4745   4762     1
   4745   4748     1
   4746   4753     1
   4746   4754     1
   4746   4757     1
   4765   4773     1
   4767   4774     1
   4767   4775     1
   4769   4786     1
   4769   4777     1
   4773   4789     1
   4773   4781     1
   4774   4777     1
   4774   4790     1
   4774   4791     1
   4775   4786     1
   4775   4782     1
   4775   4783     1
   4794   4802     1
   4796   4803     1
   4796   4804     1
   4798   4815     1
   4798   4806     1
   4802   4818     1
   4802   4810     1
   4803   4819     1
   4803   4820     1
   4803   4806     1
   4804   4811     1
   4804   4812     1
   4804   4815     1
   4823   4831     1
   4825   4832     1
   4825   4833     1
   4827   4844     1
   4827   4835     1
   4831   4847     1
   4831   4839     1
   4832   4835     1
   4832   4848     1
   4832   4849     1
   4833   4844     1
   4833   4840     1
   4833   4841     1
   4852   4860     1
   4854   4861     1
   4854   4862     1
   4856   4873     1
   4856   4864     1
   4860   4876     1
   4860   4868     1
   4861   4877     1
   4861   4878     1
   4861   4864     1
   4862   4869     1
   4862   4870     1
   4862   4873     1
   4881   4889     1
   4883   4890     1
   4883   4891     1
   4885   4902     1
   4885   4893     1
   4889   4905     1
   4889   4897     1
   4890   4893     1
   4890   4906     1
   4890   4907     1
   4891   4902     1
   4891   4898     1
   4891   4899     1
   4910   4918     1
   4912   4919     1
   4912   4920     1
   4914   4931     1
   4914   4922     1
   4918   4934     1
   4918   4926     1
   4919   4935     1
   4919   4936     1
   4919   4922     1
   4920   4927     1
   4920   4928     1
   4920   4931     1
   4939   4947     1
   4941   4948     1
   4941   4949     1
   4943   4960     1
   4943   4951     1
   4947   4963     1
   4947   4955     1
   4948   4951     1
   4948   4964     1
   4948   4965     1
   4949   4960     1
   4949   4956     1
   4949   4957     1
   4968   4976     1
   4970   4977     1
   4970   4978     1
   4972   4989     1
   4972   4980     1
   4976   4992     1
   4976   4984     1
   4977   4993     1
   4977   4994     1
   4977   4980     1
   4978   4985     1
   4978   4986     1
   4978   4989     1
   4997   5005     1
   4999   5006     1
   4999   5007     1
   5001   5018     1
   5001   5009     1
   5005   5021     1
   5005   5013     1
   5006   5009     1
   5006   5022     1
   5006   5023     1
   5007   5018     1
   5007   5014     1
   5007   5015     1
   5026   5034     1
   5028   5035     1
   5028   5036     1
   5030   5047     1
   5030   5038     1
   5034   5050     1
   5034   5042     1
   5035   5051     1
   5035   5052     1
   5035   5038     1
   5036   5043     1
   5036   5044     1
   5036   5047     1
   5055   5063     1
   5057   5064     1
   5057   5065     1
   5059   5076     1
   5059   5067     1
   5063   5079     1
   5063   5071     1
   5064   5067     1
   5064   5080     1
   5064   5081     1
   5065   5076     1
   5065   5072     1
   5065   5073     1
   5084   5092     1
   5086   5093     1
   5086   5094     1
   5088   5105     1
   5088   5096     1
   5092   5108     1
   5092   5100     1
   5093   5109     1
   5093   5110     1
   5093   5096     1
   5094   5101     1
   5094   5102     1
   5094   5105     1
   5113   5121     1
   5115   5122     1
   5115   5123     1
   5117   5134     1
   5117   5125     1
   5121   5137     1
   5121   5129     1
   5122   5125     1
   5122   5138     1
   5122   5139     1
   5123   5134     1
   5123   5130     1
   5123   5131     1
   5142   5150     1
   5144   5151     1
   5144   5152     1
   5146   5163     1
   5146   5154     1
   5150   5166     1
   5150   5158     1
   5151   5167     1
   5151   5168     1
   5151   5154     1
   5152   5159     1
   5152   5160     1
   5152   5163     1
   5171   5179     1
   5173   5180     1
   5173   5181     1
   5175   5192     1
   5175   5183     1
   5179   5195     1
   5179   5187     1
   5180   5183     1
   5180   5196     1
   5180   5197     1
   5181   5192     1
   5181   5188     1
   5181   5189     1
   5200   5208     1
   5202   5209     1
   5202   5210     1
   5204   5221     1
   5204   5212     1
   5208   5224     1
   5208   5216     1
   5209   5225     1
   5209   5226     1
   5209   5212     1
   5210   5217     1
   5210   5218     1
   5210   5221     1
   5229   5237     1
   5231   5238     1
   5231   5239     1
   5233   5250     1
   5233   5241     1
   5237   5253     1
   5237   5245     1
   5238   5241     1
   5238   5254     1
   5238   5255     1
   5239   5250     1
   5239   5246     1
   5239   5247     1
   5258   5266     1
   5260   5267     1
   5260   5268     1
   5262   5279     1
   5262   5270     1
   5266   5282     1
   5266   5274     1
   5267   5283     1
   5267   5284     1
   5267   5270     1
   5268   5275     1
   5268   5276     1
   5268   5279     1
   5287   5295     1
   5289   5296     1
   5289   5297     1
   5291   5308     1
   5291   5299     1
   5295   5311     1
   5295   5303     1
   5296   5299     1
   5296   5312     1
   5296   5313     1
   5297   5308     1
   5297   5304     1
   5297   5305     1
   5316   5324     1
   5318   5325     1
   5318   5326     1
   5320   5337     1
   5320   5328     1
   5324   5340     1
   5324   5332     1
   5325   5341     1
   5325   5342     1
   5325   5328     1
   5326   5333     1
   5326   5334     1
   5326   5337     1
   5345   5353     1
   5347   5354     1
   5347   5355     1
   5349   5366     1
   5349   5357     1
   5353   5369     1
   5353   5361     1
   5354   5357     1
   5354   5370     1
   5354   5371     1
   5355   5366     1
   5355   5362     1
   5355   5363     1
   5374   5382     1
   5376   5383     1
   5376   5384     1
   5378   5395     1
   5378   5386     1
   5382   5398     1
   5382   5390     1
   5383   5399     1
   5383   5400     1
   5383   5386     1
   5384   5391     1
   5384   5392     1
   5384   5395     1
   5403   5411     1
   5405   5412     1
   5405   5413     1
   5407   5424     1
   5407   5415     1
   5411   5427     1
   5411   5419     1
   5412   5415     1
   5412   5428     1
   5412   5429     1
   5413   5424     1
   5413   5420     1
   5413   5421     1
   5432   5440     1
   5434   5441     1
   5434   5442     1
   5436   5453     1
   5436   5444     1
   5440   5456     1
   5440   5448     1
   5441   5457     1
   5441   5458     1
   5441   5444     1
   5442   5449     1
   5442   5450     1
   5442   5453     1
   5461   5469     1
   5463   5470     1
   5463   5471     1
   5465   5482     1
   5465   5473     1
   5469   5485     1
   5469   5477     1
   5470   5473     1
   5470   5486     1
   5470   5487     1
   5471   5482     1
   5471   5478     1
   5471   5479     1
   5490   5498     1
   5492   5499     1
   5492   5500     1
   5494   5511     1
   5494   5502     1
   5498   5514     1
   5498   5506     1
   5499   5515     1
   5499   5516     1
   5499   5502     1
   5500   5507     1
   5500   5508     1
   5500   5511     1
   5519   5527     1
   5521   5528     1
   5521   5529     1
   5523   5540     1
   5523   5531     1
   5527   5543     1
   5527   5535     1
   5528   5531     1
   5528   5544     1
   5528   5545     1
   5529   5540     1
   5529   5536     1
   5529   5537     1
   5548   5556     1
   5550   5557     1
   5550   5558     1
   5552   5569     1
   5552   5560     1
   5556   5572     1
   5556   5564     1
   5557   5573     1
   5557   5574     1
   5557   5560     1
   5558   5565     1
   5558   5566     1
   5558   5569     1
   5577   5585     1
   5579   5586     1
   5579   5587     1
   5581   5598     1
   5581   5589     1
   5585   5601     1
   5585   5593     1
   5586   5589     1
   5586   5602     1
   5586   5603     1
   5587   5598     1
   5587   5594     1
   5587   5595     1
   5606   5614     1
   5608   5615     1
   5608   5616     1
   5610   5627     1
   5610   5618     1
   5614   5630     1
   5614   5622     1
   5615   5631     1
   5615   5632     1
   5615   5618     1
   5616   5623     1
   5616   5624     1
   5616   5627     1
   5635   5643     1
   5637   5644     1
   5637   5645     1
   5639   5656     1
   5639   5647     1
   5643   5659     1
   5643   5651     1
   5644   5647     1
   5644   5660     1
   5644   5661     1
   5645   5656     1
   5645   5652     1
   5645   5653     1
   5664   5672     1
   5666   5673     1
   5666   5674     1
   5668   5685     1
   5668   5676     1
   5672   5688     1
   5672   5680     1
   5673   5689     1
   5673   5690     1
   5673   5676     1
   5674   5681     1
   5674   5682     1
   5674   5685     1
   5693   5701     1
   5695   5702     1
   5695   5703     1
   5697   5714     1
   5697   5705     1
   5701   5717     1
   5701   5709     1
   5702   5705     1
   5702   5718     1
   5702   5719     1
   5703   5714     1
   5703   5710     1
   5703   5711     1
   5722   5730     1
   5724   5731     1
   5724   5732     1
   5726   5743     1
   5726   5734     1
   5730   5746     1
   5730   5738     1
   5731   5747     1
   5731   5748     1
   5731   5734     1
   5732   5739     1
   5732   5740     1
   5732   5743     1
   5751   5759     1
   5753   5760     1
   5753   5761     1
   5755   5772     1
   5755   5763     1
   5759   5775     1
   5759   5767     1
   5760   5763     1
   5760   5776     1
   5760   5777     1
   5761   5772     1
   5761   5768     1
   5761   5769     1
   5780   5788     1
   5782   5789     1
   5782   5790     1
   5784   5801     1
   5784   5792     1
   5788   5804     1
   5788   5796     1
   5789   5805     1
   5789   5806     1
   5789   5792     1
   5790   5797     1
   5790   5798     1
   5790   5801     1
   5809   5817     1
   5811   5818     1
   5811   5819     1
   5813   5830     1
   5813   5821     1
   5817   5833     1
   5817   5825     1
   5818   5821     1
   5818   5834     1
   5818   5835     1
   5819   5830     1
   5819   5826     1
   5819   5827     1
   5838   5846     1
   5840   5847     1
   5840   5848     1
   5842   5859     1
   5842   5850     1
   5846   5862     1
   5846   5854     1
   5847   5863     1
   5847   5864     1
   5847   5850     1
   5848   5855     1
   5848   5856     1
   5848   5859     1
   5867   5875     1
   5869   5876     1
   5869   5877     1
   5871   5888     1
   5871   5879     1
   5875   5891     1
   5875   5883     1
   5876   5879     1
   5876   5892     1
   5876   5893     1
   5877   5888     1
   5877   5884     1
   5877   5885     1
   5896   5904     1
   5898   5905     1
   5898   5906     1
   5900   5917     1
   5900   5908     1
   5904   5920     1
   5904   5912     1
   5905   5921     1
   5905   5922     1
   5905   5908     1
   5906   5913     1
   5906   5914     1
   5906   5917     1
   5925   5933     1
   5927   5934     1
   5927   5935     1
   5929   5946     1
   5929   5937     1
   5933   5949     1
   5933   5941     1
   5934   5937     1
   5934   5950     1
   5934   5951     1
   5935   5946     1
   5935   5942     1
   5935   5943     1
   5954   5962     1
   5956   5963     1
   5956   5964     1
   5958   5975     1
   5958   5966     1
   5962   5978     1
   5962   5970     1
   5963   5979     1
   5963   5980     1
   5963   5966     1
   5964   5971     1
   5964   5972     1
   5964   5975     1
   5983   5991     1
   5985   5992     1
   5985   5993     1
   5987   6004     1
   5987   5995     1
   5991   6007     1
   5991   5999     1
   5992   5995     1
   5992   6008     1
   5992   6009     1
   5993   6004     1
   5993   6000     1
   5993   6001     1
   6012   6020     1
   6014   6021     1
   6014   6022     1
   6016   6033     1
   6016   6024     1
   6020   6036     1
   6020   6028     1
   6021   6037     1
   6021   6038     1
   6021   6024     1
   6022   6029     1
   6022   6030     1
   6022   6033     1
   6041   6049     1
   6043   6050     1
   6043   6051     1
   6045   6062     1
   6045   6053     1
   6049   6065     1
   6049   6057     1
   6050   6053     1
   6050   6066     1
   6050   6067     1
   6051   6062     1
   6051   6058     1
   6051   6059     1
   6070   6078     1
   6072   6079     1
   6072   6080     1
   6074   6091     1
   6074   6082     1
   6078   6094     1
   6078   6086     1
   6079   6095     1
   6079   6096     1
   6079   6082     1
   6080   6087     1
   6080   6088     1
   6080   6091     1
   6099   6107     1
   6101   6108     1
   6101   6109     1
   6103   6120     1
   6103   6111     1
   6107   6123     1
   6107   6115     1
   6108   6111     1
   6108   6124     1
   6108   6125     1
   6109   6120     1
   6109   6116     1
   6109   6117     1
   6128   6136     1
   6130   6137     1
   6130   6138     1
   6132   6149     1
   6132   6140     1
   6136   6152     1
   6136   6144     1
   6137   6153     1
   6137   6154     1
   6137   6140     1
   6138   6145     1
   6138   6146     1
   6138   6149     1
   6157   6165     1
   6159   6166     1
   6159   6167     1
   6161   6178     1
   6161   6169     1
   6165   6181     1
   6165   6173     1
   6166   6169     1
   6166   6182     1
   6166   6183     1
   6167   6178     1
   6167   6174     1
   6167   6175     1
   6186   6194     1
   6188   6195     1
   6188   6196     1
   6190   6207     1
   6190   6198     1
   6194   6210     1
   6194   6202     1
   6195   6211     1
   6195   6212     1
   6195   6198     1
   6196   6203     1
   6196   6204     1
   6196   6207     1
   6215   6223     1
   6217   6224     1
   6217   6225     1
   6219   6236     1
   6219   6227     1
   6223   6239     1
   6223   6231     1
   6224   6227     1
   6224   6240     1
   6224   6241     1
   6225   6236     1
   6225   6232     1
   6225   6233     1
   6244   6252     1
   6246   6253     1
   6246   6254     1
   6248   6265     1
   6248   6256     1
   6252   6268     1
   6252   6260     1
   6253   6269     1
   6253   6270     1
   6253   6256     1
   6254   6261     1
   6254   6262     1
   6254   6265     1
   6273   6281     1
   6275   6282     1
   6275   6283     1
   6277   6294     1
   6277   6285     1
   6281   6297     1
   6281   6289     1
   6282   6285     1
   6282   6298     1
   6282   6299     1
   6283   6294     1
   6283   6290     1
   6283   6291     1
   6302   6310     1
   6304   6311     1
   6304   6312     1
   6306   6323     1
   6306   6314     1
   6310   6326     1
   6310   6318     1
   6311   6327     1
   6311   6328     1
   6311   6314     1
   6312   6319     1
   6312   6320     1
   6312   6323     1
   6331   6339     1
   6333   6340     1
   6333   6341     1
   6335   6352     1
   6335   6343     1
   6339   6355     1
   6339   6347     1
   6340   6343     1
   6340   6356     1
   6340   6357     1
   6341   6352     1
   6341   6348     1
   6341   6349     1
   6360   6368     1
   6362   6369     1
   6362   6370     1
   6364   6381     1
   6364   6372     1
   6368   6384     1
   6368   6376     1
   6369   6385     1
   6369   6386     1
   6369   6372     1
   6370   6377     1
   6370   6378     1
   6370   6381     1
   6389   6397     1
   6391   6398     1
   6391   6399     1
   6393   6410     1
   6393   6401     1
   6397   6413     1
   6397   6405     1
   6398   6401     1
   6398   6414     1
   6398   6415     1
   6399   6410     1
   6399   6406     1
   6399   6407     1
   6418   6426     1
   6420   6427     1
   6420   6428     1
   6422   6439     1
   6422   6430     1
   6426   6442     1
   6426   6434     1
   6427   6443     1
   6427   6444     1
   6427   6430     1
   6428   6435     1
   6428   6436     1
   6428   6439     1
   6447   6455     1
   6449   6456     1
   6449   6457     1
   6451   6468     1
   6451   6459     1
   6455   6471     1
   6455   6463     1
   6456   6459     1
   6456   6472     1
   6456   6473     1
   6457   6468     1
   6457   6464     1
   6457   6465     1
   6476   6484     1
   6478   6485     1
   6478   6486     1
   6480   6497     1
   6480   6488     1
   6484   6500     1
   6484   6492     1
   6485   6501     1
   6485   6502     1
   6485   6488     1
   6486   6493     1
   6486   6494     1
   6486   6497     1
   6505   6513     1
   6507   6514     1
   6507   6515     1
   6509   6526     1
   6509   6517     1
   6513   6529     1
   6513   6521     1
   6514   6517     1
   6514   6530     1
   6514   6531     1
   6515   6526     1
   6515   6522     1
   6515   6523     1
   6534   6542     1
   6536   6543     1
   6536   6544     1
   6538   6555     1
   6538   6546     1
   6542   6558     1
   6542   6550     1
   6543   6559     1
   6543   6560     1
   6543   6546     1
   6544   6551     1
   6544   6552     1
   6544   6555     1
   6563   6571     1
   6565   6572     1
   6565   6573     1
   6567   6584     1
   6567   6575     1
   6571   6587     1
   6571   6579     1
   6572   6575     1
   6572   6588     1
   6572   6589     1
   6573   6584     1
   6573   6580     1
   6573   6581     1
   6592   6600     1
   6594   6601     1
   6594   6602     1
   6596   6613     1
   6596   6604     1
   6600   6616     1
   6600   6608     1
   6601   6617     1
   6601   6618     1
   6601   6604     1
   6602   6609     1
   6602   6610     1
   6602   6613     1
   6621   6629     1
   6623   6630     1
   6623   6631     1
   6625   6642     1
   6625   6633     1
   6629   6645     1
   6629   6637     1
   6630   6633     1
   6630   6646     1
   6630   6647     1
   6631   6642     1
   6631   6638     1
   6631   6639     1
   6650   6658     1
   6652   6659     1
   6652   6660     1
   6654   6671     1
   6654   6662     1
   6658   6674     1
   6658   6666     1
   6659   6675     1
   6659   6676     1
   6659   6662     1
   6660   6667     1
   6660   6668     1
   6660   6671     1
   6679   6687     1
   6681   6688     1
   6681   6689     1
   6683   6700     1
   6683   6691     1
   6687   6703     1
   6687   6695     1
   6688   6691     1
   6688   6704     1
   6688   6705     1
   6689   6700     1
   6689   6696     1
   6689   6697     1
   6708   6716     1
   6710   6717     1
   6710   6718     1
   6712   6729     1
   6712   6720     1
   6716   6732     1
   6716   6724     1
   6717   6733     1
   6717   6734     1
   6717   6720     1
   6718   6725     1
   6718   6726     1
   6718   6729     1
   6737   6745     1
   6739   6746     1
   6739   6747     1
   6741   6758     1
   6741   6749     1
   6745   6761     1
   6745   6753     1
   6746   6749     1
   6746   6762     1
   6746   6763     1
   6747   6758     1
   6747   6754     1
   6747   6755     1
   6766   6774     1
   6768   6775     1
   6768   6776     1
   6770   6787     1
   6770   6778     1
   6774   6790     1
   6774   6782     1
   6775   6791     1
   6775   6792     1
   6775   6778     1
   6776   6783     1
   6776   6784     1
   6776   6787     1
   6795   6803     1
   6797   6804     1
   6797   6805     1
   6799   6816     1
   6799   6807     1
   6803   6819     1
   6803   6811     1
   6804   6807     1
   6804   6820     1
   6804   6821     1
   6805   6816     1
   6805   6812     1
   6805   6813     1
   6824   6832     1
   6826   6833     1
   6826   6834     1
   6828   6845     1
   6828   6836     1
   6832   6848     1
   6832   6840     1
   6833   6849     1
   6833   6850     1
   6833   6836     1
   6834   6841     1
   6834   6842     1
   6834   6845     1
      1     10     1
      1     11     1
      1     13     1
      1     14     1
      2      7     1
      2      5     1
      2      6     1
      2      9     1
      2     12     1
      3      7     1
      3      5     1
      3      6     1
      3      9     1
      3     12     1
      4     16     1
      4     17     1
      4     19     1
      4     20     1
      8      5     1
      5     15     1
      5     18     1
      8      6     1
      6     15     1
      6     18     1
      7     22     1
      7     23     1
      7     25     1
      7     26     1
      8     31     1
      8     32     1
      8     28     1
      8     29     1
      9     13     1
      9     14     1
     10     12     1
     10     34     1
     10     31     1
     10     32     1
     11     12     1
     11     34     1
     11     31     1
     11     32     1
     13     33     1
     13     28     1
     13     29     1
     14     33     1
     14     28     1
     14     29     1
     15     19     1
     15     20     1
     16     18     1
     16     35     1
     16     22     1
     16     23     1
     17     18     1
     17     35     1
     17     22     1
     17     23     1
     19     36     1
     19     25     1
     19     26     1
     20     36     1
     20     25     1
     20     26     1
     21    115     1
     22     38     1
     22    114     1
     23     38     1
     23    114     1
     24    140     1
     25     39     1
     25    139     1
     26     39     1
     26    139     1
     27     65     1
     28     37     1
     28     64     1
     29     37     1
     29     64     1
     30     90     1
     31     40     1
     31     89     1
     32     40     1
     32     89     1
     33     45     1
     33     46     1
     34     70     1
     34     71     1
     35     95     1
     35     96     1
     36    120     1
     36    121     1
     37     65     1
     38    115     1
     39    140     1
     40     90     1
     41     65     1
     41     49     1
     41     50     1
     41     52     1
     41     53     1
     42     64     1
     42     45     1
     42     46     1
     42     48     1
     42     51     1
     43     64     1
     43     45     1
     43     46     1
     43     48     1
     43     51     1
     45     47     1
     45     65     1
     46     47     1
     46     65     1
     47     58     1
     47     59     1
     47     55     1
     47     56     1
     48     52     1
     48     53     1
     49     51     1
     49     61     1
     49     58     1
     49     59     1
     50     51     1
     50     61     1
     50     58     1
     50     59     1
     52     60     1
     52     55     1
     52     56     1
     53     60     1
     53     55     1
     53     56     1
     54    165     1
     55     62     1
     55    164     1
     56     62     1
     56    164     1
     57    190     1
     58     63     1
     58    189     1
     59     63     1
     59    189     1
     60    145     1
     60    146     1
     61    170     1
     61    171     1
     62    165     1
     63    190     1
     66     90     1
     66     74     1
     66     75     1
     66     77     1
     66     78     1
     67     89     1
     67     70     1
     67     71     1
     67     73     1
     67     76     1
     68     89     1
     68     70     1
     68     71     1
     68     73     1
     68     76     1
     70     72     1
     70     90     1
     71     72     1
     71     90     1
     72     83     1
     72     84     1
     72     80     1
     72     81     1
     73     77     1
     73     78     1
     74     76     1
     74     86     1
     74     83     1
     74     84     1
     75     76     1
     75     86     1
     75     83     1
     75     84     1
     77     85     1
     77     80     1
     77     81     1
     78     85     1
     78     80     1
     78     81     1
     79    215     1
     80     87     1
     80    214     1
     81     87     1
     81    214     1
     82    240     1
     83     88     1
     83    239     1
     84     88     1
     84    239     1
     85    195     1
     85    196     1
     86    220     1
     86    221     1
     87    215     1
     88    240     1
     91    115     1
     91     99     1
     91    100     1
     91    102     1
     91    103     1
     92    114     1
     92     95     1
     92     96     1
     92     98     1
     92    101     1
     93    114     1
     93     95     1
     93     96     1
     93     98     1
     93    101     1
     95     97     1
     95    115     1
     96     97     1
     96    115     1
     97    108     1
     97    109     1
     97    105     1
     97    106     1
     98    102     1
     98    103     1
     99    101     1
     99    111     1
     99    108     1
     99    109     1
    100    101     1
    100    111     1
    100    108     1
    100    109     1
    102    110     1
    102    105     1
    102    106     1
    103    110     1
    103    105     1
    103    106     1
    104    265     1
    105    112     1
    105    264     1
    106    112     1
    106    264     1
    107    290     1
    108    113     1
    108    289     1
    109    113     1
    109    289     1
    110    245     1
    110    246     1
    111    270     1
    111    271     1
    112    265     1
    113    290     1
    116    140     1
    116    124     1
    116    125     1
    116    127     1
    116    128     1
    117    139     1
    117    120     1
    117    121     1
    117    123     1
    117    126     1
    118    139     1
    118    120     1
    118    121     1
    118    123     1
    118    126     1
    120    122     1
    120    140     1
    121    122     1
    121    140     1
    122    133     1
    122    134     1
    122    130     1
    122    131     1
    123    127     1
    123    128     1
    124    126     1
    124    136     1
    124    133     1
    124    134     1
    125    126     1
    125    136     1
    125    133     1
    125    134     1
    127    135     1
    127    130     1
    127    131     1
    128    135     1
    128    130     1
    128    131     1
    129    315     1
    130    137     1
    130    314     1
    131    137     1
    131    314     1
    132    340     1
    133    138     1
    133    339     1
    134    138     1
    134    339     1
    135    295     1
    135    296     1
    136    320     1
    136    321     1
    137    315     1
    138    340     1
    141    165     1
    141    149     1
    141    150     1
    141    152     1
    141    153     1
    142    164     1
    142    145     1
    142    146     1
    142    148     1
    142    151     1
    143    164     1
    143    145     1
    143    146     1
    143    148     1
    143    151     1
    145    147     1
    145    165     1
    146    147     1
    146    165     1
    147    158     1
    147    159     1
    147    155     1
    147    156     1
    148    152     1
    148    153     1
    149    151     1
    149    161     1
    149    158     1
    149    159     1
    150    151     1
    150    161     1
    150    158     1
    150    159     1
    152    160     1
    152    155     1
    152    156     1
    153    160     1
    153    155     1
    153    156     1
    154    365     1
    155    162     1
    155    364     1
    156    162     1
    156    364     1
    157    390     1
    158    163     1
    158    389     1
    159    163     1
    159    389     1
    160    345     1
    160    346     1
    161    370     1
    161    371     1
    162    365     1
    163    390     1
    166    190     1
    166    174     1
    166    175     1
    166    177     1
    166    178     1
    167    189     1
    167    170     1
    167    171     1
    167    173     1
    167    176     1
    168    189     1
    168    170     1
    168    171     1
    168    173     1
    168    176     1
    170    172     1
    170    190     1
    171    172     1
    171    190     1
    172    183     1
    172    184     1
    172    180     1
    172    181     1
    173    177     1
    173    178     1
    174    176     1
    174    186     1
    174    183     1
    174    184     1
    175    176     1
    175    186     1
    175    183     1
    175    184     1
    177    185     1
    177    180     1
    177    181     1
    178    185     1
    178    180     1
    178    181     1
    179    415     1
    180    187     1
    180    414     1
    181    187     1
    181    414     1
    182    440     1
    183    188     1
    183    439     1
    184    188     1
    184    439     1
    185    395     1
    185    396     1
    186    420     1
    186    421     1
    187    415     1
    188    440     1
    191    215     1
    191    199     1
    191    200     1
    191    202     1
    191    203     1
    192    214     1
    192    195     1
    192    196     1
    192    198     1
    192    201     1
    193    214     1
    193    195     1
    193    196     1
    193    198     1
    193    201     1
    195    197     1
    195    215     1
    196    197     1
    196    215     1
    197    208     1
    197    209     1
    197    205     1
    197    206     1
    198    202     1
    198    203     1
    199    201     1
    199    211     1
    199    208     1
    199    209     1
    200    201     1
    200    211     1
    200    208     1
    200    209     1
    202    210     1
    202    205     1
    202    206     1
    203    210     1
    203    205     1
    203    206     1
    204    465     1
    205    212     1
    205    464     1
    206    212     1
    206    464     1
    207    490     1
    208    213     1
    208    489     1
    209    213     1
    209    489     1
    210    445     1
    210    446     1
    211    470     1
    211    471     1
    212    465     1
    213    490     1
    216    240     1
    216    224     1
    216    225     1
    216    227     1
    216    228     1
    217    239     1
    217    220     1
    217    221     1
    217    223     1
    217    226     1
    218    239     1
    218    220     1
    218    221     1
    218    223     1
    218    226     1
    220    222     1
    220    240     1
    221    222     1
    221    240     1
    222    233     1
    222    234     1
    222    230     1
    222    231     1
    223    227     1
    223    228     1
    224    226     1
    224    236     1
    224    233     1
    224    234     1
    225    226     1
    225    236     1
    225    233     1
    225    234     1
    227    235     1
    227    230     1
    227    231     1
    228    235     1
    228    230     1
    228    231     1
    229    515     1
    230    237     1
    230    514     1
    231    237     1
    231    514     1
    232    540     1
    233    238     1
    233    539     1
    234    238     1
    234    539     1
    235    495     1
    235    496     1
    236    520     1
    236    521     1
    237    515     1
    238    540     1
    241    265     1
    241    249     1
    241    250     1
    241    252     1
    241    253     1
    242    264     1
    242    245     1
    242    246     1
    242    248     1
    242    251     1
    243    264     1
    243    245     1
    243    246     1
    243    248     1
    243    251     1
    245    247     1
    245    265     1
    246    247     1
    246    265     1
    247    258     1
    247    259     1
    247    255     1
    247    256     1
    248    252     1
    248    253     1
    249    251     1
    249    261     1
    249    258     1
    249    259     1
    250    251     1
    250    261     1
    250    258     1
    250    259     1
    252    260     1
    252    255     1
    252    256     1
    253    260     1
    253    255     1
    253    256     1
    254    565     1
    255    262     1
    255    564     1
    256    262     1
    256    564     1
    257    590     1
    258    263     1
    258    589     1
    259    263     1
    259    589     1
    260    545     1
    260    546     1
    261    570     1
    261    571     1
    262    565     1
    263    590     1
    266    290     1
    266    274     1
    266    275     1
    266    277     1
    266    278     1
    267    289     1
    267    270     1
    267    271     1
    267    273     1
    267    276     1
    268    289     1
    268    270     1
    268    271     1
    268    273     1
    268    276     1
    270    272     1
    270    290     1
    271    272     1
    271    290     1
    272    283     1
    272    284     1
    272    280     1
    272    281     1
    273    277     1
    273    278     1
    274    276     1
    274    286     1
    274    283     1
    274    284     1
    275    276     1
    275    286     1
    275    283     1
    275    284     1
    277    285     1
    277    280     1
    277    281     1
    278    285     1
    278    280     1
    278    281     1
    279    615     1
    280    287     1
    280    614     1
    281    287     1
    281    614     1
    282    640     1
    283    288     1
    283    639     1
    284    288     1
    284    639     1
    285    595     1
    285    596     1
    286    620     1
    286    621     1
    287    615     1
    288    640     1
    291    315     1
    291    299     1
    291    300     1
    291    302     1
    291    303     1
    292    314     1
    292    295     1
    292    296     1
    292    298     1
    292    301     1
    293    314     1
    293    295     1
    293    296     1
    293    298     1
    293    301     1
    295    297     1
    295    315     1
    296    297     1
    296    315     1
    297    308     1
    297    309     1
    297    305     1
    297    306     1
    298    302     1
    298    303     1
    299    301     1
    299    311     1
    299    308     1
    299    309     1
    300    301     1
    300    311     1
    300    308     1
    300    309     1
    302    310     1
    302    305     1
    302    306     1
    303    310     1
    303    305     1
    303    306     1
    304    665     1
    305    312     1
    305    664     1
    306    312     1
    306    664     1
    307    690     1
    308    313     1
    308    689     1
    309    313     1
    309    689     1
    310    645     1
    310    646     1
    311    670     1
    311    671     1
    312    665     1
    313    690     1
    316    340     1
    316    324     1
    316    325     1
    316    327     1
    316    328     1
    317    339     1
    317    320     1
    317    321     1
    317    323     1
    317    326     1
    318    339     1
    318    320     1
    318    321     1
    318    323     1
    318    326     1
    320    322     1
    320    340     1
    321    322     1
    321    340     1
    322    333     1
    322    334     1
    322    330     1
    322    331     1
    323    327     1
    323    328     1
    324    326     1
    324    336     1
    324    333     1
    324    334     1
    325    326     1
    325    336     1
    325    333     1
    325    334     1
    327    335     1
    327    330     1
    327    331     1
    328    335     1
    328    330     1
    328    331     1
    329    715     1
    330    337     1
    330    714     1
    331    337     1
    331    714     1
    332    740     1
    333    338     1
    333    739     1
    334    338     1
    334    739     1
    335    695     1
    335    696     1
    336    720     1
    336    721     1
    337    715     1
    338    740     1
    341    365     1
    341    349     1
    341    350     1
    341    352     1
    341    353     1
    342    364     1
    342    345     1
    342    346     1
    342    348     1
    342    351     1
    343    364     1
    343    345     1
    343    346     1
    343    348     1
    343    351     1
    345    347     1
    345    365     1
    346    347     1
    346    365     1
    347    358     1
    347    359     1
    347    355     1
    347    356     1
    348    352     1
    348    353     1
    349    351     1
    349    361     1
    349    358     1
    349    359     1
    350    351     1
    350    361     1
    350    358     1
    350    359     1
    352    360     1
    352    355     1
    352    356     1
    353    360     1
    353    355     1
    353    356     1
    354    765     1
    355    362     1
    355    764     1
    356    362     1
    356    764     1
    357    790     1
    358    363     1
    358    789     1
    359    363     1
    359    789     1
    360    745     1
    360    746     1
    361    770     1
    361    771     1
    362    765     1
    363    790     1
    366    390     1
    366    374     1
    366    375     1
    366    377     1
    366    378     1
    367    389     1
    367    370     1
    367    371     1
    367    373     1
    367    376     1
    368    389     1
    368    370     1
    368    371     1
    368    373     1
    368    376     1
    370    372     1
    370    390     1
    371    372     1
    371    390     1
    372    383     1
    372    384     1
    372    380     1
    372    381     1
    373    377     1
    373    378     1
    374    376     1
    374    386     1
    374    383     1
    374    384     1
    375    376     1
    375    386     1
    375    383     1
    375    384     1
    377    385     1
    377    380     1
    377    381     1
    378    385     1
    378    380     1
    378    381     1
    379    815     1
    380    387     1
    380    814     1
    381    387     1
    381    814     1
    382    840     1
    383    388     1
    383    839     1
    384    388     1
    384    839     1
    385    795     1
    385    796     1
    386    820     1
    386    821     1
    387    815     1
    388    840     1
    391    415     1
    391    399     1
    391    400     1
    391    402     1
    391    403     1
    392    414     1
    392    395     1
    392    396     1
    392    398     1
    392    401     1
    393    414     1
    393    395     1
    393    396     1
    393    398     1
    393    401     1
    395    397     1
    395    415     1
    396    397     1
    396    415     1
    397    408     1
    397    409     1
    397    405     1
    397    406     1
    398    402     1
    398    403     1
    399    401     1
    399    411     1
    399    408     1
    399    409     1
    400    401     1
    400    411     1
    400    408     1
    400    409     1
    402    410     1
    402    405     1
    402    406     1
    403    410     1
    403    405     1
    403    406     1
    404    865     1
    405    412     1
    405    864     1
    406    412     1
    406    864     1
    407    890     1
    408    413     1
    408    889     1
    409    413     1
    409    889     1
    410    845     1
    410    846     1
    411    870     1
    411    871     1
    412    865     1
    413    890     1
    416    440     1
    416    424     1
    416    425     1
    416    427     1
    416    428     1
    417    439     1
    417    420     1
    417    421     1
    417    423     1
    417    426     1
    418    439     1
    418    420     1
    418    421     1
    418    423     1
    418    426     1
    420    422     1
    420    440     1
    421    422     1
    421    440     1
    422    433     1
    422    434     1
    422    430     1
    422    431     1
    423    427     1
    423    428     1
    424    426     1
    424    436     1
    424    433     1
    424    434     1
    425    426     1
    425    436     1
    425    433     1
    425    434     1
    427    435     1
    427    430     1
    427    431     1
    428    435     1
    428    430     1
    428    431     1
    429    915     1
    430    437     1
    430    914     1
    431    437     1
    431    914     1
    432    940     1
    433    438     1
    433    939     1
    434    438     1
    434    939     1
    435    895     1
    435    896     1
    436    920     1
    436    921     1
    437    915     1
    438    940     1
    441    465     1
    441    449     1
    441    450     1
    441    452     1
    441    453     1
    442    464     1
    442    445     1
    442    446     1
    442    448     1
    442    451     1
    443    464     1
    443    445     1
    443    446     1
    443    448     1
    443    451     1
    445    447     1
    445    465     1
    446    447     1
    446    465     1
    447    458     1
    447    459     1
    447    455     1
    447    456     1
    448    452     1
    448    453     1
    449    451     1
    449    461     1
    449    458     1
    449    459     1
    450    451     1
    450    461     1
    450    458     1
    450    459     1
    452    460     1
    452    455     1
    452    456     1
    453    460     1
    453    455     1
    453    456     1
    454    965     1
    455    462     1
    455    964     1
    456    462     1
    456    964     1
    457    990     1
    458    463     1
    458    989     1
    459    463     1
    459    989     1
    460    945     1
    460    946     1
    461    970     1
    461    971     1
    462    965     1
    463    990     1
    466    490     1
    466    474     1
    466    475     1
    466    477     1
    466    478     1
    467    489     1
    467    470     1
    467    471     1
    467    473     1
    467    476     1
    468    489     1
    468    470     1
    468    471     1
    468    473     1
    468    476     1
    470    472     1
    470    490     1
    471    472     1
    471    490     1
    472    483     1
    472    484     1
    472    480     1
    472    481     1
    473    477     1
    473    478     1
    474    476     1
    474    486     1
    474    483     1
    474    484     1
    475    476     1
    475    486     1
    475    483     1
    475    484     1
    477    485     1
    477    480     1
    477    481     1
    478    485     1
    478    480     1
    478    481     1
    479   1015     1
    480    487     1
    480   1014     1
    481    487     1
    481   1014     1
    482   1040     1
    483    488     1
    483   1039     1
    484    488     1
    484   1039     1
    485    995     1
    485    996     1
    486   1020     1
    486   1021     1
    487   1015     1
    488   1040     1
    491    515     1
    491    499     1
    491    500     1
    491    502     1
    491    503     1
    492    514     1
    492    495     1
    492    496     1
    492    498     1
    492    501     1
    493    514     1
    493    495     1
    493    496     1
    493    498     1
    493    501     1
    495    497     1
    495    515     1
    496    497     1
    496    515     1
    497    508     1
    497    509     1
    497    505     1
    497    506     1
    498    502     1
    498    503     1
    499    501     1
    499    511     1
    499    508     1
    499    509     1
    500    501     1
    500    511     1
    500    508     1
    500    509     1
    502    510     1
    502    505     1
    502    506     1
    503    510     1
    503    505     1
    503    506     1
    504   1065     1
    505    512     1
    505   1064     1
    506    512     1
    506   1064     1
    507   1090     1
    508    513     1
    508   1089     1
    509    513     1
    509   1089     1
    510   1045     1
    510   1046     1
    511   1070     1
    511   1071     1
    512   1065     1
    513   1090     1
    516    540     1
    516    524     1
    516    525     1
    516    527     1
    516    528     1
    517    539     1
    517    520     1
    517    521     1
    517    523     1
    517    526     1
    518    539     1
    518    520     1
    518    521     1
    518    523     1
    518    526     1
    520    522     1
    520    540     1
    521    522     1
    521    540     1
    522    533     1
    522    534     1
    522    530     1
    522    531     1
    523    527     1
    523    528     1
    524    526     1
    524    536     1
    524    533     1
    524    534     1
    525    526     1
    525    536     1
    525    533     1
    525    534     1
    527    535     1
    527    530     1
    527    531     1
    528    535     1
    528    530     1
    528    531     1
    529   1115     1
    530    537     1
    530   1114     1
    531    537     1
    531   1114     1
    532   1140     1
    533    538     1
    533   1139     1
    534    538     1
    534   1139     1
    535   1095     1
    535   1096     1
    536   1120     1
    536   1121     1
    537   1115     1
    538   1140     1
    541    565     1
    541    549     1
    541    550     1
    541    552     1
    541    553     1
    542    564     1
    542    545     1
    542    546     1
    542    548     1
    542    551     1
    543    564     1
    543    545     1
    543    546     1
    543    548     1
    543    551     1
    545    547     1
    545    565     1
    546    547     1
    546    565     1
    547    558     1
    547    559     1
    547    555     1
    547    556     1
    548    552     1
    548    553     1
    549    551     1
    549    561     1
    549    558     1
    549    559     1
    550    551     1
    550    561     1
    550    558     1
    550    559     1
    552    560     1
    552    555     1
    552    556     1
    553    560     1
    553    555     1
    553    556     1
    554   1165     1
    555    562     1
    555   1164     1
    556    562     1
    556   1164     1
    557   1190     1
    558    563     1
    558   1189     1
    559    563     1
    559   1189     1
    560   1145     1
    560   1146     1
    561   1170     1
    561   1171     1
    562   1165     1
    563   1190     1
    566    590     1
    566    574     1
    566    575     1
    566    577     1
    566    578     1
    567    589     1
    567    570     1
    567    571     1
    567    573     1
    567    576     1
    568    589     1
    568    570     1
    568    571     1
    568    573     1
    568    576     1
    570    572     1
    570    590     1
    571    572     1
    571    590     1
    572    583     1
    572    584     1
    572    580     1
    572    581     1
    573    577     1
    573    578     1
    574    576     1
    574    586     1
    574    583     1
    574    584     1
    575    576     1
    575    586     1
    575    583     1
    575    584     1
    577    585     1
    577    580     1
    577    581     1
    578    585     1
    578    580     1
    578    581     1
    579   1215     1
    580    587     1
    580   1214     1
    581    587     1
    581   1214     1
    582   1240     1
    583    588     1
    583   1239     1
    584    588     1
    584   1239     1
    585   1195     1
    585   1196     1
    586   1220     1
    586   1221     1
    587   1215     1
    588   1240     1
    591    615     1
    591    599     1
    591    600     1
    591    602     1
    591    603     1
    592    614     1
    592    595     1
    592    596     1
    592    598     1
    592    601     1
    593    614     1
    593    595     1
    593    596     1
    593    598     1
    593    601     1
    595    597     1
    595    615     1
    596    597     1
    596    615     1
    597    608     1
    597    609     1
    597    605     1
    597    606     1
    598    602     1
    598    603     1
    599    601     1
    599    611     1
    599    608     1
    599    609     1
    600    601     1
    600    611     1
    600    608     1
    600    609     1
    602    610     1
    602    605     1
    602    606     1
    603    610     1
    603    605     1
    603    606     1
    604   1265     1
    605    612     1
    605   1264     1
    606    612     1
    606   1264     1
    607   1290     1
    608    613     1
    608   1289     1
    609    613     1
    609   1289     1
    610   1245     1
    610   1246     1
    611   1270     1
    611   1271     1
    612   1265     1
    613   1290     1
    616    640     1
    616    624     1
    616    625     1
    616    627     1
    616    628     1
    617    639     1
    617    620     1
    617    621     1
    617    623     1
    617    626     1
    618    639     1
    618    620     1
    618    621     1
    618    623     1
    618    626     1
    620    622     1
    620    640     1
    621    622     1
    621    640     1
    622    633     1
    622    634     1
    622    630     1
    622    631     1
    623    627     1
    623    628     1
    624    626     1
    624    636     1
    624    633     1
    624    634     1
    625    626     1
    625    636     1
    625    633     1
    625    634     1
    627    635     1
    627    630     1
    627    631     1
    628    635     1
    628    630     1
    628    631     1
    629   1315     1
    630    637     1
    630   1314     1
    631    637     1
    631   1314     1
    632   1340     1
    633    638     1
    633   1339     1
    634    638     1
    634   1339     1
    635   1295     1
    635   1296     1
    636   1320     1
    636   1321     1
    637   1315     1
    638   1340     1
    641    665     1
    641    649     1
    641    650     1
    641    652     1
    641    653     1
    642    664     1
    642    645     1
    642    646     1
    642    648     1
    642    651     1
    643    664     1
    643    645     1
    643    646     1
    643    648     1
    643    651     1
    645    647     1
    645    665     1
    646    647     1
    646    665     1
    647    658     1
    647    659     1
    647    655     1
    647    656     1
    648    652     1
    648    653     1
    649    651     1
    649    661     1
    649    658     1
    649    659     1
    650    651     1
    650    661     1
    650    658     1
    650    659     1
    652    660     1
    652    655     1
    652    656     1
    653    660     1
    653    655     1
    653    656     1
    654   1365     1
    655    662     1
    655   1364     1
    656    662     1
    656   1364     1
    657   1390     1
    658    663     1
    658   1389     1
    659    663     1
    659   1389     1
    660   1345     1
    660   1346     1
    661   1370     1
    661   1371     1
    662   1365     1
    663   1390     1
    666    690     1
    666    674     1
    666    675     1
    666    677     1
    666    678     1
    667    689     1
    667    670     1
    667    671     1
    667    673     1
    667    676     1
    668    689     1
    668    670     1
    668    671     1
    668    673     1
    668    676     1
    670    672     1
    670    690     1
    671    672     1
    671    690     1
    672    683     1
    672    684     1
    672    680     1
    672    681     1
    673    677     1
    673    678     1
    674    676     1
    674    686     1
    674    683     1
    674    684     1
    675    676     1
    675    686     1
    675    683     1
    675    684     1
    677    685     1
    677    680     1
    677    681     1
    678    685     1
    678    680     1
    678    681     1
    679   1415     1
    680    687     1
    680   1414     1
    681    687     1
    681   1414     1
    682   1440     1
    683    688     1
    683   1439     1
    684    688     1
    684   1439     1
    685   1395     1
    685   1396     1
    686   1420     1
    686   1421     1
    687   1415     1
    688   1440     1
    691    715     1
    691    699     1
    691    700     1
    691    702     1
    691    703     1
    692    714     1
    692    695     1
    692    696     1
    692    698     1
    692    701     1
    693    714     1
    693    695     1
    693    696     1
    693    698     1
    693    701     1
    695    697     1
    695    715     1
    696    697     1
    696    715     1
    697    708     1
    697    709     1
    697    705     1
    697    706     1
    698    702     1
    698    703     1
    699    701     1
    699    711     1
    699    708     1
    699    709     1
    700    701     1
    700    711     1
    700    708     1
    700    709     1
    702    710     1
    702    705     1
    702    706     1
    703    710     1
    703    705     1
    703    706     1
    704   1465     1
    705    712     1
    705   1464     1
    706    712     1
    706   1464     1
    707   1490     1
    708    713     1
    708   1489     1
    709    713     1
    709   1489     1
    710   1445     1
    710   1446     1
    711   1470     1
    711   1471     1
    712   1465     1
    713   1490     1
    716    740     1
    716    724     1
    716    725     1
    716    727     1
    716    728     1
    717    739     1
    717    720     1
    717    721     1
    717    723     1
    717    726     1
    718    739     1
    718    720     1
    718    721     1
    718    723     1
    718    726     1
    720    722     1
    720    740     1
    721    722     1
    721    740     1
    722    733     1
    722    734     1
    722    730     1
    722    731     1
    723    727     1
    723    728     1
    724    726     1
    724    736     1
    724    733     1
    724    734     1
    725    726     1
    725    736     1
    725    733     1
    725    734     1
    727    735     1
    727    730     1
    727    731     1
    728    735     1
    728    730     1
    728    731     1
    729   1515     1
    730    737     1
    730   1514     1
    731    737     1
    731   1514     1
    732   1540     1
    733    738     1
    733   1539     1
    734    738     1
    734   1539     1
    735   1495     1
    735   1496     1
    736   1520     1
    736   1521     1
    737   1515     1
    738   1540     1
    741    765     1
    741    749     1
    741    750     1
    741    752     1
    741    753     1
    742    764     1
    742    745     1
    742    746     1
    742    748     1
    742    751     1
    743    764     1
    743    745     1
    743    746     1
    743    748     1
    743    751     1
    745    747     1
    745    765     1
    746    747     1
    746    765     1
    747    758     1
    747    759     1
    747    755     1
    747    756     1
    748    752     1
    748    753     1
    749    751     1
    749    761     1
    749    758     1
    749    759     1
    750    751     1
    750    761     1
    750    758     1
    750    759     1
    752    760     1
    752    755     1
    752    756     1
    753    760     1
    753    755     1
    753    756     1
    754   1565     1
    755    762     1
    755   1564     1
    756    762     1
    756   1564     1
    757   1590     1
    758    763     1
    758   1589     1
    759    763     1
    759   1589     1
    760   1545     1
    760   1546     1
    761   1570     1
    761   1571     1
    762   1565     1
    763   1590     1
    766    790     1
    766    774     1
    766    775     1
    766    777     1
    766    778     1
    767    789     1
    767    770     1
    767    771     1
    767    773     1
    767    776     1
    768    789     1
    768    770     1
    768    771     1
    768    773     1
    768    776     1
    770    772     1
    770    790     1
    771    772     1
    771    790     1
    772    783     1
    772    784     1
    772    780     1
    772    781     1
    773    777     1
    773    778     1
    774    776     1
    774    786     1
    774    783     1
    774    784     1
    775    776     1
    775    786     1
    775    783     1
    775    784     1
    777    785     1
    777    780     1
    777    781     1
    778    785     1
    778    780     1
    778    781     1
    779   1615     1
    780    787     1
    780   1614     1
    781    787     1
    781   1614     1
    782   1640     1
    783    788     1
    783   1639     1
    784    788     1
    784   1639     1
    785   1595     1
    785   1596     1
    786   1620     1
    786   1621     1
    787   1615     1
    788   1640     1
    791    815     1
    791    799     1
    791    800     1
    791    802     1
    791    803     1
    792    814     1
    792    795     1
    792    796     1
    792    798     1
    792    801     1
    793    814     1
    793    795     1
    793    796     1
    793    798     1
    793    801     1
    795    797     1
    795    815     1
    796    797     1
    796    815     1
    797    808     1
    797    809     1
    797    805     1
    797    806     1
    798    802     1
    798    803     1
    799    801     1
    799    811     1
    799    808     1
    799    809     1
    800    801     1
    800    811     1
    800    808     1
    800    809     1
    802    810     1
    802    805     1
    802    806     1
    803    810     1
    803    805     1
    803    806     1
    804   1665     1
    805    812     1
    805   1664     1
    806    812     1
    806   1664     1
    807   1690     1
    808    813     1
    808   1689     1
    809    813     1
    809   1689     1
    810   1645     1
    810   1646     1
    811   1670     1
    811   1671     1
    812   1665     1
    813   1690     1
    816    840     1
    816    824     1
    816    825     1
    816    827     1
    816    828     1
    817    839     1
    817    820     1
    817    821     1
    817    823     1
    817    826     1
    818    839     1
    818    820     1
    818    821     1
    818    823     1
    818    826     1
    820    822     1
    820    840     1
    821    822     1
    821    840     1
    822    833     1
    822    834     1
    822    830     1
    822    831     1
    823    827     1
    823    828     1
    824    826     1
    824    836     1
    824    833     1
    824    834     1
    825    826     1
    825    836     1
    825    833     1
    825    834     1
    827    835     1
    827    830     1
    827    831     1
    828    835     1
    828    830     1
    828    831     1
    829   1715     1
    830    837     1
    830   1714     1
    831    837     1
    831   1714     1
    832   1740     1
    833    838     1
    833   1739     1
    834    838     1
    834   1739     1
    835   1695     1
    835   1696     1
    836   1720     1
    836   1721     1
    837   1715     1
    838   1740     1
    841    865     1
    841    849     1
    841    850     1
    841    852     1
    841    853     1
    842    864     1
    842    845     1
    842    846     1
    842    848     1
    842    851     1
    843    864     1
    843    845     1
    843    846     1
    843    848     1
    843    851     1
    845    847     1
    845    865     1
    846    847     1
    846    865     1
    847    858     1
    847    859     1
    847    855     1
    847    856     1
    848    852     1
    848    853     1
    849    851     1
    849    861     1
    849    858     1
    849    859     1
    850    851     1
    850    861     1
    850    858     1
    850    859     1
    852    860     1
    852    855     1
    852    856     1
    853    860     1
    853    855     1
    853    856     1
    854   1765     1
    855    862     1
    855   1764     1
    856    862     1
    856   1764     1
    857   1790     1
    858    863     1
    858   1789     1
    859    863     1
    859   1789     1
    860   1745     1
    860   1746     1
    861   1770     1
    861   1771     1
    862   1765     1
    863   1790     1
    866    890     1
    866    874     1
    866    875     1
    866    877     1
    866    878     1
    867    889     1
    867    870     1
    867    871     1
    867    873     1
    867    876     1
    868    889     1
    868    870     1
    868    871     1
    868    873     1
    868    876     1
    870    872     1
    870    890     1
    871    872     1
    871    890     1
    872    883     1
    872    884     1
    872    880     1
    872    881     1
    873    877     1
    873    878     1
    874    876     1
    874    886     1
    874    883     1
    874    884     1
    875    876     1
    875    886     1
    875    883     1
    875    884     1
    877    885     1
    877    880     1
    877    881     1
    878    885     1
    878    880     1
    878    881     1
    879   1815     1
    880    887     1
    880   1814     1
    881    887     1
    881   1814     1
    882   1840     1
    883    888     1
    883   1839     1
    884    888     1
    884   1839     1
    885   1795     1
    885   1796     1
    886   1820     1
    886   1821     1
    887   1815     1
    888   1840     1
    891    915     1
    891    899     1
    891    900     1
    891    902     1
    891    903     1
    892    914     1
    892    895     1
    892    896     1
    892    898     1
    892    901     1
    893    914     1
    893    895     1
    893    896     1
    893    898     1
    893    901     1
    895    897     1
    895    915     1
    896    897     1
    896    915     1
    897    908     1
    897    909     1
    897    905     1
    897    906     1
    898    902     1
    898    903     1
    899    901     1
    899    911     1
    899    908     1
    899    909     1
    900    901     1
    900    911     1
    900    908     1
    900    909     1
    902    910     1
    902    905     1
    902    906     1
    903    910     1
    903    905     1
    903    906     1
    904   1865     1
    905    912     1
    905   1864     1
    906    912     1
    906   1864     1
    907   1890     1
    908    913     1
    908   1889     1
    909    913     1
    909   1889     1
    910   1845     1
    910   1846     1
    911   1870     1
    911   1871     1
    912   1865     1
    913   1890     1
    916    940     1
    916    924     1
    916    925     1
    916    927     1
    916    928     1
    917    939     1
    917    920     1
    917    921     1
    917    923     1
    917    926     1
    918    939     1
    918    920     1
    918    921     1
    918    923     1
    918    926     1
    920    922     1
    920    940     1
    921    922     1
    921    940     1
    922    933     1
    922    934     1
    922    930     1
    922    931     1
    923    927     1
    923    928     1
    924    926     1
    924    936     1
    924    933     1
    924    934     1
    925    926     1
    925    936     1
    925    933     1
    925    934     1
    927    935     1
    927    930     1
    927    931     1
    928    935     1
    928    930     1
    928    931     1
    929   1915     1
    930    937     1
    930   1914     1
    931    937     1
    931   1914     1
    932   1940     1
    933    938     1
    933   1939     1
    934    938     1
    934   1939     1
    935   1895     1
    935   1896     1
    936   1920     1
    936   1921     1
    937   1915     1
    938   1940     1
    941    965     1
    941    949     1
    941    950     1
    941    952     1
    941    953     1
    942    964     1
    942    945     1
    942    946     1
    942    948     1
    942    951     1
    943    964     1
    943    945     1
    943    946     1
    943    948     1
    943    951     1
    945    947     1
    945    965     1
    946    947     1
    946    965     1
    947    958     1
    947    959     1
    947    955     1
    947    956     1
    948    952     1
    948    953     1
    949    951     1
    949    961     1
    949    958     1
    949    959     1
    950    951     1
    950    961     1
    950    958     1
    950    959     1
    952    960     1
    952    955     1
    952    956     1
    953    960     1
    953    955     1
    953    956     1
    954   1965     1
    955    962     1
    955   1964     1
    956    962     1
    956   1964     1
    957   1990     1
    958    963     1
    958   1989     1
    959    963     1
    959   1989     1
    960   1945     1
    960   1946     1
    961   1970     1
    961   1971     1
    962   1965     1
    963   1990     1
    966    990     1
    966    974     1
    966    975     1
    966    977     1
    966    978     1
    967    989     1
    967    970     1
    967    971     1
    967    973     1
    967    976     1
    968    989     1
    968    970     1
    968    971     1
    968    973     1
    968    976     1
    970    972     1
    970    990     1
    971    972     1
    971    990     1
    972    983     1
    972    984     1
    972    980     1
    972    981     1
    973    977     1
    973    978     1
    974    976     1
    974    986     1
    974    983     1
    974    984     1
    975    976     1
    975    986     1
    975    983     1
    975    984     1
    977    985     1
    977    980     1
    977    981     1
    978    985     1
    978    980     1
    978    981     1
    979   2015     1
    980    987     1
    980   2014     1
    981    987     1
    981   2014     1
    982   2040     1
    983    988     1
    983   2039     1
    984    988     1
    984   2039     1
    985   1995     1
    985   1996     1
    986   2020     1
    986   2021     1
    987   2015     1
    988   2040     1
    991   1015     1
    991    999     1
    991   1000     1
    991   1002     1
    991   1003     1
    992   1014     1
    992    995     1
    992    996     1
    992    998     1
    992   1001     1
    993   1014     1
    993    995     1
    993    996     1
    993    998     1
    993   1001     1
    995    997     1
    995   1015     1
    996    997     1
    996   1015     1
    997   1008     1
    997   1009     1
    997   1005     1
    997   1006     1
    998   1002     1
    998   1003     1
    999   1001     1
    999   1011     1
    999   1008     1
    999   1009     1
   1000   1001     1
   1000   1011     1
   1000   1008     1
   1000   1009     1
   1002   1010     1
   1002   1005     1
   1002   1006     1
   1003   1010     1
   1003   1005     1
   1003   1006     1
   1004   2065     1
   1005   1012     1
   1005   2064     1
   1006   1012     1
   1006   2064     1
   1007   2090     1
   1008   1013     1
   1008   2089     1
   1009   1013     1
   1009   2089     1
   1010   2045     1
   1010   2046     1
   1011   2070     1
   1011   2071     1
   1012   2065     1
   1013   2090     1
   1016   1040     1
   1016   1024     1
   1016   1025     1
   1016   1027     1
   1016   1028     1
   1017   1039     1
   1017   1020     1
   1017   1021     1
   1017   1023     1
   1017   1026     1
   1018   1039     1
   1018   1020     1
   1018   1021     1
   1018   1023     1
   1018   1026     1
   1020   1022     1
   1020   1040     1
   1021   1022     1
   1021   1040     1
   1022   1033     1
   1022   1034     1
   1022   1030     1
   1022   1031     1
   1023   1027     1
   1023   1028     1
   1024   1026     1
   1024   1036     1
   1024   1033     1
   1024   1034     1
   1025   1026     1
   1025   1036     1
   1025   1033     1
   1025   1034     1
   1027   1035     1
   1027   1030     1
   1027   1031     1
   1028   1035     1
   1028   1030     1
   1028   1031     1
   1029   2115     1
   1030   1037     1
   1030   2114     1
   1031   1037     1
   1031   2114     1
   1032   2140     1
   1033   1038     1
   1033   2139     1
   1034   1038     1
   1034   2139     1
   1035   2095     1
   1035   2096     1
   1036   2120     1
   1036   2121     1
   1037   2115     1
   1038   2140     1
   1041   1065     1
   1041   1049     1
   1041   1050     1
   1041   1052     1
   1041   1053     1
   1042   1064     1
   1042   1045     1
   1042   1046     1
   1042   1048     1
   1042   1051     1
   1043   1064     1
   1043   1045     1
   1043   1046     1
   1043   1048     1
   1043   1051     1
   1045   1047     1
   1045   1065     1
   1046   1047     1
   1046   1065     1
   1047   1058     1
   1047   1059     1
   1047   1055     1
   1047   1056     1
   1048   1052     1
   1048   1053     1
   1049   1051     1
   1049   1061     1
   1049   1058     1
   1049   1059     1
   1050   1051     1
   1050   1061     1
   1050   1058     1
   1050   1059     1
   1052   1060     1
   1052   1055     1
   1052   1056     1
   1053   1060     1
   1053   1055     1
   1053   1056     1
   1054   2165     1
   1055   1062     1
   1055   2164     1
   1056   1062     1
   1056   2164     1
   1057   2190     1
   1058   1063     1
   1058   2189     1
   1059   1063     1
   1059   2189     1
   1060   2145     1
   1060   2146     1
   1061   2170     1
   1061   2171     1
   1062   2165     1
   1063   2190     1
   1066   1090     1
   1066   1074     1
   1066   1075     1
   1066   1077     1
   1066   1078     1
   1067   1089     1
   1067   1070     1
   1067   1071     1
   1067   1073     1
   1067   1076     1
   1068   1089     1
   1068   1070     1
   1068   1071     1
   1068   1073     1
   1068   1076     1
   1070   1072     1
   1070   1090     1
   1071   1072     1
   1071   1090     1
   1072   1083     1
   1072   1084     1
   1072   1080     1
   1072   1081     1
   1073   1077     1
   1073   1078     1
   1074   1076     1
   1074   1086     1
   1074   1083     1
   1074   1084     1
   1075   1076     1
   1075   1086     1
   1075   1083     1
   1075   1084     1
   1077   1085     1
   1077   1080     1
   1077   1081     1
   1078   1085     1
   1078   1080     1
   1078   1081     1
   1079   2215     1
   1080   1087     1
   1080   2214     1
   1081   1087     1
   1081   2214     1
   1082   2240     1
   1083   1088     1
   1083   2239     1
   1084   1088     1
   1084   2239     1
   1085   2195     1
   1085   2196     1
   1086   2220     1
   1086   2221     1
   1087   2215     1
   1088   2240     1
   1091   1115     1
   1091   1099     1
   1091   1100     1
   1091   1102     1
   1091   1103     1
   1092   1114     1
   1092   1095     1
   1092   1096     1
   1092   1098     1
   1092   1101     1
   1093   1114     1
   1093   1095     1
   1093   1096     1
   1093   1098     1
   1093   1101     1
   1095   1097     1
   1095   1115     1
   1096   1097     1
   1096   1115     1
   1097   1108     1
   1097   1109     1
   1097   1105     1
   1097   1106     1
   1098   1102     1
   1098   1103     1
   1099   1101     1
   1099   1111     1
   1099   1108     1
   1099   1109     1
   1100   1101     1
   1100   1111     1
   1100   1108     1
   1100   1109     1
   1102   1110     1
   1102   1105     1
   1102   1106     1
   1103   1110     1
   1103   1105     1
   1103   1106     1
   1104   2265     1
   1105   1112     1
   1105   2264     1
   1106   1112     1
   1106   2264     1
   1107   2290     1
   1108   1113     1
   1108   2289     1
   1109   1113     1
   1109   2289     1
   1110   2245     1
   1110   2246     1
   1111   2270     1
   1111   2271     1
   1112   2265     1
   1113   2290     1
   1116   1140     1
   1116   1124     1
   1116   1125     1
   1116   1127     1
   1116   1128     1
   1117   1139     1
   1117   1120     1
   1117   1121     1
   1117   1123     1
   1117   1126     1
   1118   1139     1
   1118   1120     1
   1118   1121     1
   1118   1123     1
   1118   1126     1
   1120   1122     1
   1120   1140     1
   1121   1122     1
   1121   1140     1
   1122   1133     1
   1122   1134     1
   1122   1130     1
   1122   1131     1
   1123   1127     1
   1123   1128     1
   1124   1126     1
   1124   1136     1
   1124   1133     1
   1124   1134     1
   1125   1126     1
   1125   1136     1
   1125   1133     1
   1125   1134     1
   1127   1135     1
   1127   1130     1
   1127   1131     1
   1128   1135     1
   1128   1130     1
   1128   1131     1
   1129   2315     1
   1130   1137     1
   1130   2314     1
   1131   1137     1
   1131   2314     1
   1132   2340     1
   1133   1138     1
   1133   2339     1
   1134   1138     1
   1134   2339     1
   1135   2295     1
   1135   2296     1
   1136   2320     1
   1136   2321     1
   1137   2315     1
   1138   2340     1
   1141   1165     1
   1141   1149     1
   1141   1150     1
   1141   1152     1
   1141   1153     1
   1142   1164     1
   1142   1145     1
   1142   1146     1
   1142   1148     1
   1142   1151     1
   1143   1164     1
   1143   1145     1
   1143   1146     1
   1143   1148     1
   1143   1151     1
   1145   1147     1
   1145   1165     1
   1146   1147     1
   1146   1165     1
   1147   1158     1
   1147   1159     1
   1147   1155     1
   1147   1156     1
   1148   1152     1
   1148   1153     1
   1149   1151     1
   1149   1161     1
   1149   1158     1
   1149   1159     1
   1150   1151     1
   1150   1161     1
   1150   1158     1
   1150   1159     1
   1152   1160     1
   1152   1155     1
   1152   1156     1
   1153   1160     1
   1153   1155     1
   1153   1156     1
   1154   2365     1
   1155   1162     1
   1155   2364     1
   1156   1162     1
   1156   2364     1
   1157   2390     1
   1158   1163     1
   1158   2389     1
   1159   1163     1
   1159   2389     1
   1160   2345     1
   1160   2346     1
   1161   2370     1
   1161   2371     1
   1162   2365     1
   1163   2390     1
   1166   1190     1
   1166   1174     1
   1166   1175     1
   1166   1177     1
   1166   1178     1
   1167   1189     1
   1167   1170     1
   1167   1171     1
   1167   1173     1
   1167   1176     1
   1168   1189     1
   1168   1170     1
   1168   1171     1
   1168   1173     1
   1168   1176     1
   1170   1172     1
   1170   1190     1
   1171   1172     1
   1171   1190     1
   1172   1183     1
   1172   1184     1
   1172   1180     1
   1172   1181     1
   1173   1177     1
   1173   1178     1
   1174   1176     1
   1174   1186     1
   1174   1183     1
   1174   1184     1
   1175   1176     1
   1175   1186     1
   1175   1183     1
   1175   1184     1
   1177   1185     1
   1177   1180     1
   1177   1181     1
   1178   1185     1
   1178   1180     1
   1178   1181     1
   1179   2415     1
   1180   1187     1
   1180   2414     1
   1181   1187     1
   1181   2414     1
   1182   2440     1
   1183   1188     1
   1183   2439     1
   1184   1188     1
   1184   2439     1
   1185   2395     1
   1185   2396     1
   1186   2420     1
   1186   2421     1
   1187   2415     1
   1188   2440     1
   1191   1215     1
   1191   1199     1
   1191   1200     1
   1191   1202     1
   1191   1203     1
   1192   1214     1
   1192   1195     1
   1192   1196     1
   1192   1198     1
   1192   1201     1
   1193   1214     1
   1193   1195     1
   1193   1196     1
   1193   1198     1
   1193   1201     1
   1195   1197     1
   1195   1215     1
   1196   1197     1
   1196   1215     1
   1197   1208     1
   1197   1209     1
   1197   1205     1
   1197   1206     1
   1198   1202     1
   1198   1203     1
   1199   1201     1
   1199   1211     1
   1199   1208     1
   1199   1209     1
   1200   1201     1
   1200   1211     1
   1200   1208     1
   1200   1209     1
   1202   1210     1
   1202   1205     1
   1202   1206     1
   1203   1210     1
   1203   1205     1
   1203   1206     1
   1204   2465     1
   1205   1212     1
   1205   2464     1
   1206   1212     1
   1206   2464     1
   1207   2490     1
   1208   1213     1
   1208   2489     1
   1209   1213     1
   1209   2489     1
   1210   2445     1
   1210   2446     1
   1211   2470     1
   1211   2471     1
   1212   2465     1
   1213   2490     1
   1216   1240     1
   1216   1224     1
   1216   1225     1
   1216   1227     1
   1216   1228     1
   1217   1239     1
   1217   1220     1
   1217   1221     1
   1217   1223     1
   1217   1226     1
   1218   1239     1
   1218   1220     1
   1218   1221     1
   1218   1223     1
   1218   1226     1
   1220   1222     1
   1220   1240     1
   1221   1222     1
   1221   1240     1
   1222   1233     1
   1222   1234     1
   1222   1230     1
   1222   1231     1
   1223   1227     1
   1223   1228     1
   1224   1226     1
   1224   1236     1
   1224   1233     1
   1224   1234     1
   1225   1226     1
   1225   1236     1
   1225   1233     1
   1225   1234     1
   1227   1235     1
   1227   1230     1
   1227   1231     1
   1228   1235     1
   1228   1230     1
   1228   1231     1
   1229   2515     1
   1230   1237     1
   1230   2514     1
   1231   1237     1
   1231   2514     1
   1232   2540     1
   1233   1238     1
   1233   2539     1
   1234   1238     1
   1234   2539     1
   1235   2495     1
   1235   2496     1
   1236   2520     1
   1236   2521     1
   1237   2515     1
   1238   2540     1
   1241   1265     1
   1241   1249     1
   1241   1250     1
   1241   1252     1
   1241   1253     1
   1242   1264     1
   1242   1245     1
   1242   1246     1
   1242   1248     1
   1242   1251     1
   1243   1264     1
   1243   1245     1
   1243   1246     1
   1243   1248     1
   1243   1251     1
   1245   1247     1
   1245   1265     1
   1246   1247     1
   1246   1265     1
   1247   1258     1
   1247   1259     1
   1247   1255     1
   1247   1256     1
   1248   1252     1
   1248   1253     1
   1249   1251     1
   1249   1261     1
   1249   1258     1
   1249   1259     1
   1250   1251     1
   1250   1261     1
   1250   1258     1
   1250   1259     1
   1252   1260     1
   1252   1255     1
   1252   1256     1
   1253   1260     1
   1253   1255     1
   1253   1256     1
   1254   2565     1
   1255   1262     1
   1255   2564     1
   1256   1262     1
   1256   2564     1
   1257   2590     1
   1258   1263     1
   1258   2589     1
   1259   1263     1
   1259   2589     1
   1260   2545     1
   1260   2546     1
   1261   2570     1
   1261   2571     1
   1262   2565     1
   1263   2590     1
   1266   1290     1
   1266   1274     1
   1266   1275     1
   1266   1277     1
   1266   1278     1
   1267   1289     1
   1267   1270     1
   1267   1271     1
   1267   1273     1
   1267   1276     1
   1268   1289     1
   1268   1270     1
   1268   1271     1
   1268   1273     1
   1268   1276     1
   1270   1272     1
   1270   1290     1
   1271   1272     1
   1271   1290     1
   1272   1283     1
   1272   1284     1
   1272   1280     1
   1272   1281     1
   1273   1277     1
   1273   1278     1
   1274   1276     1
   1274   1286     1
   1274   1283     1
   1274   1284     1
   1275   1276     1
   1275   1286     1
   1275   1283     1
   1275   1284     1
   1277   1285     1
   1277   1280     1
   1277   1281     1
   1278   1285     1
   1278   1280     1
   1278   1281     1
   1279   2615     1
   1280   1287     1
   1280   2614     1
   1281   1287     1
   1281   2614     1
   1282   2640     1
   1283   1288     1
   1283   2639     1
   1284   1288     1
   1284   2639     1
   1285   2595     1
   1285   2596     1
   1286   2620     1
   1286   2621     1
   1287   2615     1
   1288   2640     1
   1291   1315     1
   1291   1299     1
   1291   1300     1
   1291   1302     1
   1291   1303     1
   1292   1314     1
   1292   1295     1
   1292   1296     1
   1292   1298     1
   1292   1301     1
   1293   1314     1
   1293   1295     1
   1293   1296     1
   1293   1298     1
   1293   1301     1
   1295   1297     1
   1295   1315     1
   1296   1297     1
   1296   1315     1
   1297   1308     1
   1297   1309     1
   1297   1305     1
   1297   1306     1
   1298   1302     1
   1298   1303     1
   1299   1301     1
   1299   1311     1
   1299   1308     1
   1299   1309     1
   1300   1301     1
   1300   1311     1
   1300   1308     1
   1300   1309     1
   1302   1310     1
   1302   1305     1
   1302   1306     1
   1303   1310     1
   1303   1305     1
   1303   1306     1
   1304   2665     1
   1305   1312     1
   1305   2664     1
   1306   1312     1
   1306   2664     1
   1307   2690     1
   1308   1313     1
   1308   2689     1
   1309   1313     1
   1309   2689     1
   1310   2645     1
   1310   2646     1
   1311   2670     1
   1311   2671     1
   1312   2665     1
   1313   2690     1
   1316   1340     1
   1316   1324     1
   1316   1325     1
   1316   1327     1
   1316   1328     1
   1317   1339     1
   1317   1320     1
   1317   1321     1
   1317   1323     1
   1317   1326     1
   1318   1339     1
   1318   1320     1
   1318   1321     1
   1318   1323     1
   1318   1326     1
   1320   1322     1
   1320   1340     1
   1321   1322     1
   1321   1340     1
   1322   1333     1
   1322   1334     1
   1322   1330     1
   1322   1331     1
   1323   1327     1
   1323   1328     1
   1324   1326     1
   1324   1336     1
   1324   1333     1
   1324   1334     1
   1325   1326     1
   1325   1336     1
   1325   1333     1
   1325   1334     1
   1327   1335     1
   1327   1330     1
   1327   1331     1
   1328   1335     1
   1328   1330     1
   1328   1331     1
   1329   2715     1
   1330   1337     1
   1330   2714     1
   1331   1337     1
   1331   2714     1
   1332   2740     1
   1333   1338     1
   1333   2739     1
   1334   1338     1
   1334   2739     1
   1335   2695     1
   1335   2696     1
   1336   2720     1
   1336   2721     1
   1337   2715     1
   1338   2740     1
   1341   1365     1
   1341   1349     1
   1341   1350     1
   1341   1352     1
   1341   1353     1
   1342   1364     1
   1342   1345     1
   1342   1346     1
   1342   1348     1
   1342   1351     1
   1343   1364     1
   1343   1345     1
   1343   1346     1
   1343   1348     1
   1343   1351     1
   1345   1347     1
   1345   1365     1
   1346   1347     1
   1346   1365     1
   1347   1358     1
   1347   1359     1
   1347   1355     1
   1347   1356     1
   1348   1352     1
   1348   1353     1
   1349   1351     1
   1349   1361     1
   1349   1358     1
   1349   1359     1
   1350   1351     1
   1350   1361     1
   1350   1358     1
   1350   1359     1
   1352   1360     1
   1352   1355     1
   1352   1356     1
   1353   1360     1
   1353   1355     1
   1353   1356     1
   1354   2765     1
   1355   1362     1
   1355   2764     1
   1356   1362     1
   1356   2764     1
   1357   2790     1
   1358   1363     1
   1358   2789     1
   1359   1363     1
   1359   2789     1
   1360   2745     1
   1360   2746     1
   1361   2770     1
   1361   2771     1
   1362   2765     1
   1363   2790     1
   1366   1390     1
   1366   1374     1
   1366   1375     1
   1366   1377     1
   1366   1378     1
   1367   1389     1
   1367   1370     1
   1367   1371     1
   1367   1373     1
   1367   1376     1
   1368   1389     1
   1368   1370     1
   1368   1371     1
   1368   1373     1
   1368   1376     1
   1370   1372     1
   1370   1390     1
   1371   1372     1
   1371   1390     1
   1372   1383     1
   1372   1384     1
   1372   1380     1
   1372   1381     1
   1373   1377     1
   1373   1378     1
   1374   1376     1
   1374   1386     1
   1374   1383     1
   1374   1384     1
   1375   1376     1
   1375   1386     1
   1375   1383     1
   1375   1384     1
   1377   1385     1
   1377   1380     1
   1377   1381     1
   1378   1385     1
   1378   1380     1
   1378   1381     1
   1379   2815     1
   1380   1387     1
   1380   2814     1
   1381   1387     1
   1381   2814     1
   1382   2840     1
   1383   1388     1
   1383   2839     1
   1384   1388     1
   1384   2839     1
   1385   2795     1
   1385   2796     1
   1386   2820     1
   1386   2821     1
   1387   2815     1
   1388   2840     1
   1391   1415     1
   1391   1399     1
   1391   1400     1
   1391   1402     1
   1391   1403     1
   1392   1414     1
   1392   1395     1
   1392   1396     1
   1392   1398     1
   1392   1401     1
   1393   1414     1
   1393   1395     1
   1393   1396     1
   1393   1398     1
   1393   1401     1
   1395   1397     1
   1395   1415     1
   1396   1397     1
   1396   1415     1
   1397   1408     1
   1397   1409     1
   1397   1405     1
   1397   1406     1
   1398   1402     1
   1398   1403     1
   1399   1401     1
   1399   1411     1
   1399   1408     1
   1399   1409     1
   1400   1401     1
   1400   1411     1
   1400   1408     1
   1400   1409     1
   1402   1410     1
   1402   1405     1
   1402   1406     1
   1403   1410     1
   1403   1405     1
   1403   1406     1
   1404   2865     1
   1405   1412     1
   1405   2864     1
   1406   1412     1
   1406   2864     1
   1407   2890     1
   1408   1413     1
   1408   2889     1
   1409   1413     1
   1409   2889     1
   1410   2845     1
   1410   2846     1
   1411   2870     1
   1411   2871     1
   1412   2865     1
   1413   2890     1
   1416   1440     1
   1416   1424     1
   1416   1425     1
   1416   1427     1
   1416   1428     1
   1417   1439     1
   1417   1420     1
   1417   1421     1
   1417   1423     1
   1417   1426     1
   1418   1439     1
   1418   1420     1
   1418   1421     1
   1418   1423     1
   1418   1426     1
   1420   1422     1
   1420   1440     1
   1421   1422     1
   1421   1440     1
   1422   1433     1
   1422   1434     1
   1422   1430     1
   1422   1431     1
   1423   1427     1
   1423   1428     1
   1424   1426     1
   1424   1436     1
   1424   1433     1
   1424   1434     1
   1425   1426     1
   1425   1436     1
   1425   1433     1
   1425   1434     1
   1427   1435     1
   1427   1430     1
   1427   1431     1
   1428   1435     1
   1428   1430     1
   1428   1431     1
   1429   2915     1
   1430   1437     1
   1430   2914     1
   1431   1437     1
   1431   2914     1
   1432   2940     1
   1433   1438     1
   1433   2939     1
   1434   1438     1
   1434   2939     1
   1435   2895     1
   1435   2896     1
   1436   2920     1
   1436   2921     1
   1437   2915     1
   1438   2940     1
   1441   1465     1
   1441   1449     1
   1441   1450     1
   1441   1452     1
   1441   1453     1
   1442   1464     1
   1442   1445     1
   1442   1446     1
   1442   1448     1
   1442   1451     1
   1443   1464     1
   1443   1445     1
   1443   1446     1
   1443   1448     1
   1443   1451     1
   1445   1447     1
   1445   1465     1
   1446   1447     1
   1446   1465     1
   1447   1458     1
   1447   1459     1
   1447   1455     1
   1447   1456     1
   1448   1452     1
   1448   1453     1
   1449   1451     1
   1449   1461     1
   1449   1458     1
   1449   1459     1
   1450   1451     1
   1450   1461     1
   1450   1458     1
   1450   1459     1
   1452   1460     1
   1452   1455     1
   1452   1456     1
   1453   1460     1
   1453   1455     1
   1453   1456     1
   1454   2965     1
   1455   1462     1
   1455   2964     1
   1456   1462     1
   1456   2964     1
   1457   2990     1
   1458   1463     1
   1458   2989     1
   1459   1463     1
   1459   2989     1
   1460   2945     1
   1460   2946     1
   1461   2970     1
   1461   2971     1
   1462   2965     1
   1463   2990     1
   1466   1490     1
   1466   1474     1
   1466   1475     1
   1466   1477     1
   1466   1478     1
   1467   1489     1
   1467   1470     1
   1467   1471     1
   1467   1473     1
   1467   1476     1
   1468   1489     1
   1468   1470     1
   1468   1471     1
   1468   1473     1
   1468   1476     1
   1470   1472     1
   1470   1490     1
   1471   1472     1
   1471   1490     1
   1472   1483     1
   1472   1484     1
   1472   1480     1
   1472   1481     1
   1473   1477     1
   1473   1478     1
   1474   1476     1
   1474   1486     1
   1474   1483     1
   1474   1484     1
   1475   1476     1
   1475   1486     1
   1475   1483     1
   1475   1484     1
   1477   1485     1
   1477   1480     1
   1477   1481     1
   1478   1485     1
   1478   1480     1
   1478   1481     1
   1479   3015     1
   1480   1487     1
   1480   3014     1
   1481   1487     1
   1481   3014     1
   1482   3040     1
   1483   1488     1
   1483   3039     1
   1484   1488     1
   1484   3039     1
   1485   2995     1
   1485   2996     1
   1486   3020     1
   1486   3021     1
   1487   3015     1
   1488   3040     1
   1491   1515     1
   1491   1499     1
   1491   1500     1
   1491   1502     1
   1491   1503     1
   1492   1514     1
   1492   1495     1
   1492   1496     1
   1492   1498     1
   1492   1501     1
   1493   1514     1
   1493   1495     1
   1493   1496     1
   1493   1498     1
   1493   1501     1
   1495   1497     1
   1495   1515     1
   1496   1497     1
   1496   1515     1
   1497   1508     1
   1497   1509     1
   1497   1505     1
   1497   1506     1
   1498   1502     1
   1498   1503     1
   1499   1501     1
   1499   1511     1
   1499   1508     1
   1499   1509     1
   1500   1501     1
   1500   1511     1
   1500   1508     1
   1500   1509     1
   1502   1510     1
   1502   1505     1
   1502   1506     1
   1503   1510     1
   1503   1505     1
   1503   1506     1
   1504   3065     1
   1505   1512     1
   1505   3064     1
   1506   1512     1
   1506   3064     1
   1507   3090     1
   1508   1513     1
   1508   3089     1
   1509   1513     1
   1509   3089     1
   1510   3045     1
   1510   3046     1
   1511   3070     1
   1511   3071     1
   1512   3065     1
   1513   3090     1
   1516   1540     1
   1516   1524     1
   1516   1525     1
   1516   1527     1
   1516   1528     1
   1517   1539     1
   1517   1520     1
   1517   1521     1
   1517   1523     1
   1517   1526     1
   1518   1539     1
   1518   1520     1
   1518   1521     1
   1518   1523     1
   1518   1526     1
   1520   1522     1
   1520   1540     1
   1521   1522     1
   1521   1540     1
   1522   1533     1
   1522   1534     1
   1522   1530     1
   1522   1531     1
   1523   1527     1
   1523   1528     1
   1524   1526     1
   1524   1536     1
   1524   1533     1
   1524   1534     1
   1525   1526     1
   1525   1536     1
   1525   1533     1
   1525   1534     1
   1527   1535     1
   1527   1530     1
   1527   1531     1
   1528   1535     1
   1528   1530     1
   1528   1531     1
   1529   3115     1
   1530   1537     1
   1530   3114     1
   1531   1537     1
   1531   3114     1
   1532   3140     1
   1533   1538     1
   1533   3139     1
   1534   1538     1
   1534   3139     1
   1535   3095     1
   1535   3096     1
   1536   3120     1
   1536   3121     1
   1537   3115     1
   1538   3140     1
   1541   1565     1
   1541   1549     1
   1541   1550     1
   1541   1552     1
   1541   1553     1
   1542   1564     1
   1542   1545     1
   1542   1546     1
   1542   1548     1
   1542   1551     1
   1543   1564     1
   1543   1545     1
   1543   1546     1
   1543   1548     1
   1543   1551     1
   1545   1547     1
   1545   1565     1
   1546   1547     1
   1546   1565     1
   1547   1558     1
   1547   1559     1
   1547   1555     1
   1547   1556     1
   1548   1552     1
   1548   1553     1
   1549   1551     1
   1549   1561     1
   1549   1558     1
   1549   1559     1
   1550   1551     1
   1550   1561     1
   1550   1558     1
   1550   1559     1
   1552   1560     1
   1552   1555     1
   1552   1556     1
   1553   1560     1
   1553   1555     1
   1553   1556     1
   1554   3142     1
   1555   3141     1
   1555   1562     1
   1556   3141     1
   1556   1562     1
   1557   3171     1
   1558   1563     1
   1558   3170     1
   1559   1563     1
   1559   3170     1
   1560   3144     1
   1560   3146     1
   1561   3173     1
   1561   3175     1
   1562   3142     1
   1563   3171     1
   1566   1590     1
   1566   1574     1
   1566   1575     1
   1566   1577     1
   1566   1578     1
   1567   1589     1
   1567   1570     1
   1567   1571     1
   1567   1573     1
   1567   1576     1
   1568   1589     1
   1568   1570     1
   1568   1571     1
   1568   1573     1
   1568   1576     1
   1570   1572     1
   1570   1590     1
   1571   1572     1
   1571   1590     1
   1572   1583     1
   1572   1584     1
   1572   1580     1
   1572   1581     1
   1573   1577     1
   1573   1578     1
   1574   1576     1
   1574   1586     1
   1574   1583     1
   1574   1584     1
   1575   1576     1
   1575   1586     1
   1575   1583     1
   1575   1584     1
   1577   1585     1
   1577   1580     1
   1577   1581     1
   1578   1585     1
   1578   1580     1
   1578   1581     1
   1579   3200     1
   1580   3199     1
   1580   1587     1
   1581   3199     1
   1581   1587     1
   1582   3229     1
   1583   1588     1
   1583   3228     1
   1584   1588     1
   1584   3228     1
   1585   3202     1
   1585   3204     1
   1586   3231     1
   1586   3233     1
   1587   3200     1
   1588   3229     1
   1591   1615     1
   1591   1599     1
   1591   1600     1
   1591   1602     1
   1591   1603     1
   1592   1614     1
   1592   1595     1
   1592   1596     1
   1592   1598     1
   1592   1601     1
   1593   1614     1
   1593   1595     1
   1593   1596     1
   1593   1598     1
   1593   1601     1
   1595   1597     1
   1595   1615     1
   1596   1597     1
   1596   1615     1
   1597   1608     1
   1597   1609     1
   1597   1605     1
   1597   1606     1
   1598   1602     1
   1598   1603     1
   1599   1601     1
   1599   1611     1
   1599   1608     1
   1599   1609     1
   1600   1601     1
   1600   1611     1
   1600   1608     1
   1600   1609     1
   1602   1610     1
   1602   1605     1
   1602   1606     1
   1603   1610     1
   1603   1605     1
   1603   1606     1
   1604   3258     1
   1605   3257     1
   1605   1612     1
   1606   3257     1
   1606   1612     1
   1607   3287     1
   1608   1613     1
   1608   3286     1
   1609   1613     1
   1609   3286     1
   1610   3260     1
   1610   3262     1
   1611   3289     1
   1611   3291     1
   1612   3258     1
   1613   3287     1
   1616   1640     1
   1616   1624     1
   1616   1625     1
   1616   1627     1
   1616   1628     1
   1617   1639     1
   1617   1620     1
   1617   1621     1
   1617   1623     1
   1617   1626     1
   1618   1639     1
   1618   1620     1
   1618   1621     1
   1618   1623     1
   1618   1626     1
   1620   1622     1
   1620   1640     1
   1621   1622     1
   1621   1640     1
   1622   1633     1
   1622   1634     1
   1622   1630     1
   1622   1631     1
   1623   1627     1
   1623   1628     1
   1624   1626     1
   1624   1636     1
   1624   1633     1
   1624   1634     1
   1625   1626     1
   1625   1636     1
   1625   1633     1
   1625   1634     1
   1627   1635     1
   1627   1630     1
   1627   1631     1
   1628   1635     1
   1628   1630     1
   1628   1631     1
   1629   3316     1
   1630   3315     1
   1630   1637     1
   1631   3315     1
   1631   1637     1
   1632   3345     1
   1633   1638     1
   1633   3344     1
   1634   1638     1
   1634   3344     1
   1635   3318     1
   1635   3320     1
   1636   3347     1
   1636   3349     1
   1637   3316     1
   1638   3345     1
   1641   1665     1
   1641   1649     1
   1641   1650     1
   1641   1652     1
   1641   1653     1
   1642   1664     1
   1642   1645     1
   1642   1646     1
   1642   1648     1
   1642   1651     1
   1643   1664     1
   1643   1645     1
   1643   1646     1
   1643   1648     1
   1643   1651     1
   1645   1647     1
   1645   1665     1
   1646   1647     1
   1646   1665     1
   1647   1658     1
   1647   1659     1
   1647   1655     1
   1647   1656     1
   1648   1652     1
   1648   1653     1
   1649   1651     1
   1649   1661     1
   1649   1658     1
   1649   1659     1
   1650   1651     1
   1650   1661     1
   1650   1658     1
   1650   1659     1
   1652   1660     1
   1652   1655     1
   1652   1656     1
   1653   1660     1
   1653   1655     1
   1653   1656     1
   1654   3374     1
   1655   3373     1
   1655   1662     1
   1656   3373     1
   1656   1662     1
   1657   3403     1
   1658   1663     1
   1658   3402     1
   1659   1663     1
   1659   3402     1
   1660   3376     1
   1660   3378     1
   1661   3405     1
   1661   3407     1
   1662   3374     1
   1663   3403     1
   1666   1690     1
   1666   1674     1
   1666   1675     1
   1666   1677     1
   1666   1678     1
   1667   1689     1
   1667   1670     1
   1667   1671     1
   1667   1673     1
   1667   1676     1
   1668   1689     1
   1668   1670     1
   1668   1671     1
   1668   1673     1
   1668   1676     1
   1670   1672     1
   1670   1690     1
   1671   1672     1
   1671   1690     1
   1672   1683     1
   1672   1684     1
   1672   1680     1
   1672   1681     1
   1673   1677     1
   1673   1678     1
   1674   1676     1
   1674   1686     1
   1674   1683     1
   1674   1684     1
   1675   1676     1
   1675   1686     1
   1675   1683     1
   1675   1684     1
   1677   1685     1
   1677   1680     1
   1677   1681     1
   1678   1685     1
   1678   1680     1
   1678   1681     1
   1679   3432     1
   1680   3431     1
   1680   1687     1
   1681   3431     1
   1681   1687     1
   1682   3461     1
   1683   1688     1
   1683   3460     1
   1684   1688     1
   1684   3460     1
   1685   3434     1
   1685   3436     1
   1686   3463     1
   1686   3465     1
   1687   3432     1
   1688   3461     1
   1691   1715     1
   1691   1699     1
   1691   1700     1
   1691   1702     1
   1691   1703     1
   1692   1714     1
   1692   1695     1
   1692   1696     1
   1692   1698     1
   1692   1701     1
   1693   1714     1
   1693   1695     1
   1693   1696     1
   1693   1698     1
   1693   1701     1
   1695   1697     1
   1695   1715     1
   1696   1697     1
   1696   1715     1
   1697   1708     1
   1697   1709     1
   1697   1705     1
   1697   1706     1
   1698   1702     1
   1698   1703     1
   1699   1701     1
   1699   1711     1
   1699   1708     1
   1699   1709     1
   1700   1701     1
   1700   1711     1
   1700   1708     1
   1700   1709     1
   1702   1710     1
   1702   1705     1
   1702   1706     1
   1703   1710     1
   1703   1705     1
   1703   1706     1
   1704   3490     1
   1705   3489     1
   1705   1712     1
   1706   3489     1
   1706   1712     1
   1707   3519     1
   1708   1713     1
   1708   3518     1
   1709   1713     1
   1709   3518     1
   1710   3492     1
   1710   3494     1
   1711   3521     1
   1711   3523     1
   1712   3490     1
   1713   3519     1
   1716   1740     1
   1716   1724     1
   1716   1725     1
   1716   1727     1
   1716   1728     1
   1717   1739     1
   1717   1720     1
   1717   1721     1
   1717   1723     1
   1717   1726     1
   1718   1739     1
   1718   1720     1
   1718   1721     1
   1718   1723     1
   1718   1726     1
   1720   1722     1
   1720   1740     1
   1721   1722     1
   1721   1740     1
   1722   1733     1
   1722   1734     1
   1722   1730     1
   1722   1731     1
   1723   1727     1
   1723   1728     1
   1724   1726     1
   1724   1736     1
   1724   1733     1
   1724   1734     1
   1725   1726     1
   1725   1736     1
   1725   1733     1
   1725   1734     1
   1727   1735     1
   1727   1730     1
   1727   1731     1
   1728   1735     1
   1728   1730     1
   1728   1731     1
   1729   3548     1
   1730   3547     1
   1730   1737     1
   1731   3547     1
   1731   1737     1
   1732   3577     1
   1733   1738     1
   1733   3576     1
   1734   1738     1
   1734   3576     1
   1735   3550     1
   1735   3552     1
   1736   3579     1
   1736   3581     1
   1737   3548     1
   1738   3577     1
   1741   1765     1
   1741   1749     1
   1741   1750     1
   1741   1752     1
   1741   1753     1
   1742   1764     1
   1742   1745     1
   1742   1746     1
   1742   1748     1
   1742   1751     1
   1743   1764     1
   1743   1745     1
   1743   1746     1
   1743   1748     1
   1743   1751     1
   1745   1747     1
   1745   1765     1
   1746   1747     1
   1746   1765     1
   1747   1758     1
   1747   1759     1
   1747   1755     1
   1747   1756     1
   1748   1752     1
   1748   1753     1
   1749   1751     1
   1749   1761     1
   1749   1758     1
   1749   1759     1
   1750   1751     1
   1750   1761     1
   1750   1758     1
   1750   1759     1
   1752   1760     1
   1752   1755     1
   1752   1756     1
   1753   1760     1
   1753   1755     1
   1753   1756     1
   1754   3606     1
   1755   3605     1
   1755   1762     1
   1756   3605     1
   1756   1762     1
   1757   3635     1
   1758   1763     1
   1758   3634     1
   1759   1763     1
   1759   3634     1
   1760   3608     1
   1760   3610     1
   1761   3637     1
   1761   3639     1
   1762   3606     1
   1763   3635     1
   1766   1790     1
   1766   1774     1
   1766   1775     1
   1766   1777     1
   1766   1778     1
   1767   1789     1
   1767   1770     1
   1767   1771     1
   1767   1773     1
   1767   1776     1
   1768   1789     1
   1768   1770     1
   1768   1771     1
   1768   1773     1
   1768   1776     1
   1770   1772     1
   1770   1790     1
   1771   1772     1
   1771   1790     1
   1772   1783     1
   1772   1784     1
   1772   1780     1
   1772   1781     1
   1773   1777     1
   1773   1778     1
   1774   1776     1
   1774   1786     1
   1774   1783     1
   1774   1784     1
   1775   1776     1
   1775   1786     1
   1775   1783     1
   1775   1784     1
   1777   1785     1
   1777   1780     1
   1777   1781     1
   1778   1785     1
   1778   1780     1
   1778   1781     1
   1779   3664     1
   1780   3663     1
   1780   1787     1
   1781   3663     1
   1781   1787     1
   1782   3693     1
   1783   1788     1
   1783   3692     1
   1784   1788     1
   1784   3692     1
   1785   3666     1
   1785   3668     1
   1786   3695     1
   1786   3697     1
   1787   3664     1
   1788   3693     1
   1791   1815     1
   1791   1799     1
   1791   1800     1
   1791   1802     1
   1791   1803     1
   1792   1814     1
   1792   1795     1
   1792   1796     1
   1792   1798     1
   1792   1801     1
   1793   1814     1
   1793   1795     1
   1793   1796     1
   1793   1798     1
   1793   1801     1
   1795   1797     1
   1795   1815     1
   1796   1797     1
   1796   1815     1
   1797   1808     1
   1797   1809     1
   1797   1805     1
   1797   1806     1
   1798   1802     1
   1798   1803     1
   1799   1801     1
   1799   1811     1
   1799   1808     1
   1799   1809     1
   1800   1801     1
   1800   1811     1
   1800   1808     1
   1800   1809     1
   1802   1810     1
   1802   1805     1
   1802   1806     1
   1803   1810     1
   1803   1805     1
   1803   1806     1
   1804   3722     1
   1805   3721     1
   1805   1812     1
   1806   3721     1
   1806   1812     1
   1807   3751     1
   1808   1813     1
   1808   3750     1
   1809   1813     1
   1809   3750     1
   1810   3724     1
   1810   3726     1
   1811   3753     1
   1811   3755     1
   1812   3722     1
   1813   3751     1
   1816   1840     1
   1816   1824     1
   1816   1825     1
   1816   1827     1
   1816   1828     1
   1817   1839     1
   1817   1820     1
   1817   1821     1
   1817   1823     1
   1817   1826     1
   1818   1839     1
   1818   1820     1
   1818   1821     1
   1818   1823     1
   1818   1826     1
   1820   1822     1
   1820   1840     1
   1821   1822     1
   1821   1840     1
   1822   1833     1
   1822   1834     1
   1822   1830     1
   1822   1831     1
   1823   1827     1
   1823   1828     1
   1824   1826     1
   1824   1836     1
   1824   1833     1
   1824   1834     1
   1825   1826     1
   1825   1836     1
   1825   1833     1
   1825   1834     1
   1827   1835     1
   1827   1830     1
   1827   1831     1
   1828   1835     1
   1828   1830     1
   1828   1831     1
   1829   3780     1
   1830   3779     1
   1830   1837     1
   1831   3779     1
   1831   1837     1
   1832   3809     1
   1833   1838     1
   1833   3808     1
   1834   1838     1
   1834   3808     1
   1835   3782     1
   1835   3784     1
   1836   3811     1
   1836   3813     1
   1837   3780     1
   1838   3809     1
   1841   1865     1
   1841   1849     1
   1841   1850     1
   1841   1852     1
   1841   1853     1
   1842   1864     1
   1842   1845     1
   1842   1846     1
   1842   1848     1
   1842   1851     1
   1843   1864     1
   1843   1845     1
   1843   1846     1
   1843   1848     1
   1843   1851     1
   1845   1847     1
   1845   1865     1
   1846   1847     1
   1846   1865     1
   1847   1858     1
   1847   1859     1
   1847   1855     1
   1847   1856     1
   1848   1852     1
   1848   1853     1
   1849   1851     1
   1849   1861     1
   1849   1858     1
   1849   1859     1
   1850   1851     1
   1850   1861     1
   1850   1858     1
   1850   1859     1
   1852   1860     1
   1852   1855     1
   1852   1856     1
   1853   1860     1
   1853   1855     1
   1853   1856     1
   1854   3838     1
   1855   3837     1
   1855   1862     1
   1856   3837     1
   1856   1862     1
   1857   3867     1
   1858   1863     1
   1858   3866     1
   1859   1863     1
   1859   3866     1
   1860   3840     1
   1860   3842     1
   1861   3869     1
   1861   3871     1
   1862   3838     1
   1863   3867     1
   1866   1890     1
   1866   1874     1
   1866   1875     1
   1866   1877     1
   1866   1878     1
   1867   1889     1
   1867   1870     1
   1867   1871     1
   1867   1873     1
   1867   1876     1
   1868   1889     1
   1868   1870     1
   1868   1871     1
   1868   1873     1
   1868   1876     1
   1870   1872     1
   1870   1890     1
   1871   1872     1
   1871   1890     1
   1872   1883     1
   1872   1884     1
   1872   1880     1
   1872   1881     1
   1873   1877     1
   1873   1878     1
   1874   1876     1
   1874   1886     1
   1874   1883     1
   1874   1884     1
   1875   1876     1
   1875   1886     1
   1875   1883     1
   1875   1884     1
   1877   1885     1
   1877   1880     1
   1877   1881     1
   1878   1885     1
   1878   1880     1
   1878   1881     1
   1879   3896     1
   1880   3895     1
   1880   1887     1
   1881   3895     1
   1881   1887     1
   1882   3925     1
   1883   1888     1
   1883   3924     1
   1884   1888     1
   1884   3924     1
   1885   3898     1
   1885   3900     1
   1886   3927     1
   1886   3929     1
   1887   3896     1
   1888   3925     1
   1891   1915     1
   1891   1899     1
   1891   1900     1
   1891   1902     1
   1891   1903     1
   1892   1914     1
   1892   1895     1
   1892   1896     1
   1892   1898     1
   1892   1901     1
   1893   1914     1
   1893   1895     1
   1893   1896     1
   1893   1898     1
   1893   1901     1
   1895   1897     1
   1895   1915     1
   1896   1897     1
   1896   1915     1
   1897   1908     1
   1897   1909     1
   1897   1905     1
   1897   1906     1
   1898   1902     1
   1898   1903     1
   1899   1901     1
   1899   1911     1
   1899   1908     1
   1899   1909     1
   1900   1901     1
   1900   1911     1
   1900   1908     1
   1900   1909     1
   1902   1910     1
   1902   1905     1
   1902   1906     1
   1903   1910     1
   1903   1905     1
   1903   1906     1
   1904   3954     1
   1905   3953     1
   1905   1912     1
   1906   3953     1
   1906   1912     1
   1907   3983     1
   1908   1913     1
   1908   3982     1
   1909   1913     1
   1909   3982     1
   1910   3956     1
   1910   3958     1
   1911   3985     1
   1911   3987     1
   1912   3954     1
   1913   3983     1
   1916   1940     1
   1916   1924     1
   1916   1925     1
   1916   1927     1
   1916   1928     1
   1917   1939     1
   1917   1920     1
   1917   1921     1
   1917   1923     1
   1917   1926     1
   1918   1939     1
   1918   1920     1
   1918   1921     1
   1918   1923     1
   1918   1926     1
   1920   1922     1
   1920   1940     1
   1921   1922     1
   1921   1940     1
   1922   1933     1
   1922   1934     1
   1922   1930     1
   1922   1931     1
   1923   1927     1
   1923   1928     1
   1924   1926     1
   1924   1936     1
   1924   1933     1
   1924   1934     1
   1925   1926     1
   1925   1936     1
   1925   1933     1
   1925   1934     1
   1927   1935     1
   1927   1930     1
   1927   1931     1
   1928   1935     1
   1928   1930     1
   1928   1931     1
   1929   4012     1
   1930   4011     1
   1930   1937     1
   1931   4011     1
   1931   1937     1
   1932   4041     1
   1933   1938     1
   1933   4040     1
   1934   1938     1
   1934   4040     1
   1935   4014     1
   1935   4016     1
   1936   4043     1
   1936   4045     1
   1937   4012     1
   1938   4041     1
   1941   1965     1
   1941   1949     1
   1941   1950     1
   1941   1952     1
   1941   1953     1
   1942   1964     1
   1942   1945     1
   1942   1946     1
   1942   1948     1
   1942   1951     1
   1943   1964     1
   1943   1945     1
   1943   1946     1
   1943   1948     1
   1943   1951     1
   1945   1947     1
   1945   1965     1
   1946   1947     1
   1946   1965     1
   1947   1958     1
   1947   1959     1
   1947   1955     1
   1947   1956     1
   1948   1952     1
   1948   1953     1
   1949   1951     1
   1949   1961     1
   1949   1958     1
   1949   1959     1
   1950   1951     1
   1950   1961     1
   1950   1958     1
   1950   1959     1
   1952   1960     1
   1952   1955     1
   1952   1956     1
   1953   1960     1
   1953   1955     1
   1953   1956     1
   1954   4070     1
   1955   4069     1
   1955   1962     1
   1956   4069     1
   1956   1962     1
   1957   4099     1
   1958   1963     1
   1958   4098     1
   1959   1963     1
   1959   4098     1
   1960   4072     1
   1960   4074     1
   1961   4101     1
   1961   4103     1
   1962   4070     1
   1963   4099     1
   1966   1990     1
   1966   1974     1
   1966   1975     1
   1966   1977     1
   1966   1978     1
   1967   1989     1
   1967   1970     1
   1967   1971     1
   1967   1973     1
   1967   1976     1
   1968   1989     1
   1968   1970     1
   1968   1971     1
   1968   1973     1
   1968   1976     1
   1970   1972     1
   1970   1990     1
   1971   1972     1
   1971   1990     1
   1972   1983     1
   1972   1984     1
   1972   1980     1
   1972   1981     1
   1973   1977     1
   1973   1978     1
   1974   1976     1
   1974   1986     1
   1974   1983     1
   1974   1984     1
   1975   1976     1
   1975   1986     1
   1975   1983     1
   1975   1984     1
   1977   1985     1
   1977   1980     1
   1977   1981     1
   1978   1985     1
   1978   1980     1
   1978   1981     1
   1979   4128     1
   1980   4127     1
   1980   1987     1
   1981   4127     1
   1981   1987     1
   1982   4157     1
   1983   1988     1
   1983   4156     1
   1984   1988     1
   1984   4156     1
   1985   4130     1
   1985   4132     1
   1986   4159     1
   1986   4161     1
   1987   4128     1
   1988   4157     1
   1991   2015     1
   1991   1999     1
   1991   2000     1
   1991   2002     1
   1991   2003     1
   1992   2014     1
   1992   1995     1
   1992   1996     1
   1992   1998     1
   1992   2001     1
   1993   2014     1
   1993   1995     1
   1993   1996     1
   1993   1998     1
   1993   2001     1
   1995   1997     1
   1995   2015     1
   1996   1997     1
   1996   2015     1
   1997   2008     1
   1997   2009     1
   1997   2005     1
   1997   2006     1
   1998   2002     1
   1998   2003     1
   1999   2001     1
   1999   2011     1
   1999   2008     1
   1999   2009     1
   2000   2001     1
   2000   2011     1
   2000   2008     1
   2000   2009     1
   2002   2010     1
   2002   2005     1
   2002   2006     1
   2003   2010     1
   2003   2005     1
   2003   2006     1
   2004   4186     1
   2005   4185     1
   2005   2012     1
   2006   4185     1
   2006   2012     1
   2007   4215     1
   2008   2013     1
   2008   4214     1
   2009   2013     1
   2009   4214     1
   2010   4188     1
   2010   4190     1
   2011   4217     1
   2011   4219     1
   2012   4186     1
   2013   4215     1
   2016   2040     1
   2016   2024     1
   2016   2025     1
   2016   2027     1
   2016   2028     1
   2017   2039     1
   2017   2020     1
   2017   2021     1
   2017   2023     1
   2017   2026     1
   2018   2039     1
   2018   2020     1
   2018   2021     1
   2018   2023     1
   2018   2026     1
   2020   2022     1
   2020   2040     1
   2021   2022     1
   2021   2040     1
   2022   2033     1
   2022   2034     1
   2022   2030     1
   2022   2031     1
   2023   2027     1
   2023   2028     1
   2024   2026     1
   2024   2036     1
   2024   2033     1
   2024   2034     1
   2025   2026     1
   2025   2036     1
   2025   2033     1
   2025   2034     1
   2027   2035     1
   2027   2030     1
   2027   2031     1
   2028   2035     1
   2028   2030     1
   2028   2031     1
   2029   4244     1
   2030   4243     1
   2030   2037     1
   2031   4243     1
   2031   2037     1
   2032   4273     1
   2033   2038     1
   2033   4272     1
   2034   2038     1
   2034   4272     1
   2035   4246     1
   2035   4248     1
   2036   4275     1
   2036   4277     1
   2037   4244     1
   2038   4273     1
   2041   2065     1
   2041   2049     1
   2041   2050     1
   2041   2052     1
   2041   2053     1
   2042   2064     1
   2042   2045     1
   2042   2046     1
   2042   2048     1
   2042   2051     1
   2043   2064     1
   2043   2045     1
   2043   2046     1
   2043   2048     1
   2043   2051     1
   2045   2047     1
   2045   2065     1
   2046   2047     1
   2046   2065     1
   2047   2058     1
   2047   2059     1
   2047   2055     1
   2047   2056     1
   2048   2052     1
   2048   2053     1
   2049   2051     1
   2049   2061     1
   2049   2058     1
   2049   2059     1
   2050   2051     1
   2050   2061     1
   2050   2058     1
   2050   2059     1
   2052   2060     1
   2052   2055     1
   2052   2056     1
   2053   2060     1
   2053   2055     1
   2053   2056     1
   2054   4302     1
   2055   4301     1
   2055   2062     1
   2056   4301     1
   2056   2062     1
   2057   4331     1
   2058   2063     1
   2058   4330     1
   2059   2063     1
   2059   4330     1
   2060   4304     1
   2060   4306     1
   2061   4333     1
   2061   4335     1
   2062   4302     1
   2063   4331     1
   2066   2090     1
   2066   2074     1
   2066   2075     1
   2066   2077     1
   2066   2078     1
   2067   2089     1
   2067   2070     1
   2067   2071     1
   2067   2073     1
   2067   2076     1
   2068   2089     1
   2068   2070     1
   2068   2071     1
   2068   2073     1
   2068   2076     1
   2070   2072     1
   2070   2090     1
   2071   2072     1
   2071   2090     1
   2072   2083     1
   2072   2084     1
   2072   2080     1
   2072   2081     1
   2073   2077     1
   2073   2078     1
   2074   2076     1
   2074   2086     1
   2074   2083     1
   2074   2084     1
   2075   2076     1
   2075   2086     1
   2075   2083     1
   2075   2084     1
   2077   2085     1
   2077   2080     1
   2077   2081     1
   2078   2085     1
   2078   2080     1
   2078   2081     1
   2079   4360     1
   2080   4359     1
   2080   2087     1
   2081   4359     1
   2081   2087     1
   2082   4389     1
   2083   2088     1
   2083   4388     1
   2084   2088     1
   2084   4388     1
   2085   4362     1
   2085   4364     1
   2086   4391     1
   2086   4393     1
   2087   4360     1
   2088   4389     1
   2091   2115     1
   2091   2099     1
   2091   2100     1
   2091   2102     1
   2091   2103     1
   2092   2114     1
   2092   2095     1
   2092   2096     1
   2092   2098     1
   2092   2101     1
   2093   2114     1
   2093   2095     1
   2093   2096     1
   2093   2098     1
   2093   2101     1
   2095   2097     1
   2095   2115     1
   2096   2097     1
   2096   2115     1
   2097   2108     1
   2097   2109     1
   2097   2105     1
   2097   2106     1
   2098   2102     1
   2098   2103     1
   2099   2101     1
   2099   2111     1
   2099   2108     1
   2099   2109     1
   2100   2101     1
   2100   2111     1
   2100   2108     1
   2100   2109     1
   2102   2110     1
   2102   2105     1
   2102   2106     1
   2103   2110     1
   2103   2105     1
   2103   2106     1
   2104   4418     1
   2105   4417     1
   2105   2112     1
   2106   4417     1
   2106   2112     1
   2107   4447     1
   2108   2113     1
   2108   4446     1
   2109   2113     1
   2109   4446     1
   2110   4420     1
   2110   4422     1
   2111   4449     1
   2111   4451     1
   2112   4418     1
   2113   4447     1
   2116   2140     1
   2116   2124     1
   2116   2125     1
   2116   2127     1
   2116   2128     1
   2117   2139     1
   2117   2120     1
   2117   2121     1
   2117   2123     1
   2117   2126     1
   2118   2139     1
   2118   2120     1
   2118   2121     1
   2118   2123     1
   2118   2126     1
   2120   2122     1
   2120   2140     1
   2121   2122     1
   2121   2140     1
   2122   2133     1
   2122   2134     1
   2122   2130     1
   2122   2131     1
   2123   2127     1
   2123   2128     1
   2124   2126     1
   2124   2136     1
   2124   2133     1
   2124   2134     1
   2125   2126     1
   2125   2136     1
   2125   2133     1
   2125   2134     1
   2127   2135     1
   2127   2130     1
   2127   2131     1
   2128   2135     1
   2128   2130     1
   2128   2131     1
   2129   4476     1
   2130   4475     1
   2130   2137     1
   2131   4475     1
   2131   2137     1
   2132   4505     1
   2133   2138     1
   2133   4504     1
   2134   2138     1
   2134   4504     1
   2135   4478     1
   2135   4480     1
   2136   4507     1
   2136   4509     1
   2137   4476     1
   2138   4505     1
   2141   2165     1
   2141   2149     1
   2141   2150     1
   2141   2152     1
   2141   2153     1
   2142   2164     1
   2142   2145     1
   2142   2146     1
   2142   2148     1
   2142   2151     1
   2143   2164     1
   2143   2145     1
   2143   2146     1
   2143   2148     1
   2143   2151     1
   2145   2147     1
   2145   2165     1
   2146   2147     1
   2146   2165     1
   2147   2158     1
   2147   2159     1
   2147   2155     1
   2147   2156     1
   2148   2152     1
   2148   2153     1
   2149   2151     1
   2149   2161     1
   2149   2158     1
   2149   2159     1
   2150   2151     1
   2150   2161     1
   2150   2158     1
   2150   2159     1
   2152   2160     1
   2152   2155     1
   2152   2156     1
   2153   2160     1
   2153   2155     1
   2153   2156     1
   2154   4534     1
   2155   4533     1
   2155   2162     1
   2156   4533     1
   2156   2162     1
   2157   4563     1
   2158   2163     1
   2158   4562     1
   2159   2163     1
   2159   4562     1
   2160   4536     1
   2160   4538     1
   2161   4565     1
   2161   4567     1
   2162   4534     1
   2163   4563     1
   2166   2190     1
   2166   2174     1
   2166   2175     1
   2166   2177     1
   2166   2178     1
   2167   2189     1
   2167   2170     1
   2167   2171     1
   2167   2173     1
   2167   2176     1
   2168   2189     1
   2168   2170     1
   2168   2171     1
   2168   2173     1
   2168   2176     1
   2170   2172     1
   2170   2190     1
   2171   2172     1
   2171   2190     1
   2172   2183     1
   2172   2184     1
   2172   2180     1
   2172   2181     1
   2173   2177     1
   2173   2178     1
   2174   2176     1
   2174   2186     1
   2174   2183     1
   2174   2184     1
   2175   2176     1
   2175   2186     1
   2175   2183     1
   2175   2184     1
   2177   2185     1
   2177   2180     1
   2177   2181     1
   2178   2185     1
   2178   2180     1
   2178   2181     1
   2179   4592     1
   2180   4591     1
   2180   2187     1
   2181   4591     1
   2181   2187     1
   2182   4621     1
   2183   2188     1
   2183   4620     1
   2184   2188     1
   2184   4620     1
   2185   4594     1
   2185   4596     1
   2186   4623     1
   2186   4625     1
   2187   4592     1
   2188   4621     1
   2191   2215     1
   2191   2199     1
   2191   2200     1
   2191   2202     1
   2191   2203     1
   2192   2214     1
   2192   2195     1
   2192   2196     1
   2192   2198     1
   2192   2201     1
   2193   2214     1
   2193   2195     1
   2193   2196     1
   2193   2198     1
   2193   2201     1
   2195   2197     1
   2195   2215     1
   2196   2197     1
   2196   2215     1
   2197   2208     1
   2197   2209     1
   2197   2205     1
   2197   2206     1
   2198   2202     1
   2198   2203     1
   2199   2201     1
   2199   2211     1
   2199   2208     1
   2199   2209     1
   2200   2201     1
   2200   2211     1
   2200   2208     1
   2200   2209     1
   2202   2210     1
   2202   2205     1
   2202   2206     1
   2203   2210     1
   2203   2205     1
   2203   2206     1
   2204   4650     1
   2205   4649     1
   2205   2212     1
   2206   4649     1
   2206   2212     1
   2207   4679     1
   2208   2213     1
   2208   4678     1
   2209   2213     1
   2209   4678     1
   2210   4652     1
   2210   4654     1
   2211   4681     1
   2211   4683     1
   2212   4650     1
   2213   4679     1
   2216   2240     1
   2216   2224     1
   2216   2225     1
   2216   2227     1
   2216   2228     1
   2217   2239     1
   2217   2220     1
   2217   2221     1
   2217   2223     1
   2217   2226     1
   2218   2239     1
   2218   2220     1
   2218   2221     1
   2218   2223     1
   2218   2226     1
   2220   2222     1
   2220   2240     1
   2221   2222     1
   2221   2240     1
   2222   2233     1
   2222   2234     1
   2222   2230     1
   2222   2231     1
   2223   2227     1
   2223   2228     1
   2224   2226     1
   2224   2236     1
   2224   2233     1
   2224   2234     1
   2225   2226     1
   2225   2236     1
   2225   2233     1
   2225   2234     1
   2227   2235     1
   2227   2230     1
   2227   2231     1
   2228   2235     1
   2228   2230     1
   2228   2231     1
   2229   4708     1
   2230   4707     1
   2230   2237     1
   2231   4707     1
   2231   2237     1
   2232   4737     1
   2233   2238     1
   2233   4736     1
   2234   2238     1
   2234   4736     1
   2235   4710     1
   2235   4712     1
   2236   4739     1
   2236   4741     1
   2237   4708     1
   2238   4737     1
   2241   2265     1
   2241   2249     1
   2241   2250     1
   2241   2252     1
   2241   2253     1
   2242   2264     1
   2242   2245     1
   2242   2246     1
   2242   2248     1
   2242   2251     1
   2243   2264     1
   2243   2245     1
   2243   2246     1
   2243   2248     1
   2243   2251     1
   2245   2247     1
   2245   2265     1
   2246   2247     1
   2246   2265     1
   2247   2258     1
   2247   2259     1
   2247   2255     1
   2247   2256     1
   2248   2252     1
   2248   2253     1
   2249   2251     1
   2249   2261     1
   2249   2258     1
   2249   2259     1
   2250   2251     1
   2250   2261     1
   2250   2258     1
   2250   2259     1
   2252   2260     1
   2252   2255     1
   2252   2256     1
   2253   2260     1
   2253   2255     1
   2253   2256     1
   2254   4766     1
   2255   4765     1
   2255   2262     1
   2256   4765     1
   2256   2262     1
   2257   4795     1
   2258   2263     1
   2258   4794     1
   2259   2263     1
   2259   4794     1
   2260   4768     1
   2260   4770     1
   2261   4797     1
   2261   4799     1
   2262   4766     1
   2263   4795     1
   2266   2290     1
   2266   2274     1
   2266   2275     1
   2266   2277     1
   2266   2278     1
   2267   2289     1
   2267   2270     1
   2267   2271     1
   2267   2273     1
   2267   2276     1
   2268   2289     1
   2268   2270     1
   2268   2271     1
   2268   2273     1
   2268   2276     1
   2270   2272     1
   2270   2290     1
   2271   2272     1
   2271   2290     1
   2272   2283     1
   2272   2284     1
   2272   2280     1
   2272   2281     1
   2273   2277     1
   2273   2278     1
   2274   2276     1
   2274   2286     1
   2274   2283     1
   2274   2284     1
   2275   2276     1
   2275   2286     1
   2275   2283     1
   2275   2284     1
   2277   2285     1
   2277   2280     1
   2277   2281     1
   2278   2285     1
   2278   2280     1
   2278   2281     1
   2279   4824     1
   2280   4823     1
   2280   2287     1
   2281   4823     1
   2281   2287     1
   2282   4853     1
   2283   2288     1
   2283   4852     1
   2284   2288     1
   2284   4852     1
   2285   4826     1
   2285   4828     1
   2286   4855     1
   2286   4857     1
   2287   4824     1
   2288   4853     1
   2291   2315     1
   2291   2299     1
   2291   2300     1
   2291   2302     1
   2291   2303     1
   2292   2314     1
   2292   2295     1
   2292   2296     1
   2292   2298     1
   2292   2301     1
   2293   2314     1
   2293   2295     1
   2293   2296     1
   2293   2298     1
   2293   2301     1
   2295   2297     1
   2295   2315     1
   2296   2297     1
   2296   2315     1
   2297   2308     1
   2297   2309     1
   2297   2305     1
   2297   2306     1
   2298   2302     1
   2298   2303     1
   2299   2301     1
   2299   2311     1
   2299   2308     1
   2299   2309     1
   2300   2301     1
   2300   2311     1
   2300   2308     1
   2300   2309     1
   2302   2310     1
   2302   2305     1
   2302   2306     1
   2303   2310     1
   2303   2305     1
   2303   2306     1
   2304   4882     1
   2305   4881     1
   2305   2312     1
   2306   4881     1
   2306   2312     1
   2307   4911     1
   2308   2313     1
   2308   4910     1
   2309   2313     1
   2309   4910     1
   2310   4884     1
   2310   4886     1
   2311   4913     1
   2311   4915     1
   2312   4882     1
   2313   4911     1
   2316   2340     1
   2316   2324     1
   2316   2325     1
   2316   2327     1
   2316   2328     1
   2317   2339     1
   2317   2320     1
   2317   2321     1
   2317   2323     1
   2317   2326     1
   2318   2339     1
   2318   2320     1
   2318   2321     1
   2318   2323     1
   2318   2326     1
   2320   2322     1
   2320   2340     1
   2321   2322     1
   2321   2340     1
   2322   2333     1
   2322   2334     1
   2322   2330     1
   2322   2331     1
   2323   2327     1
   2323   2328     1
   2324   2326     1
   2324   2336     1
   2324   2333     1
   2324   2334     1
   2325   2326     1
   2325   2336     1
   2325   2333     1
   2325   2334     1
   2327   2335     1
   2327   2330     1
   2327   2331     1
   2328   2335     1
   2328   2330     1
   2328   2331     1
   2329   4940     1
   2330   4939     1
   2330   2337     1
   2331   4939     1
   2331   2337     1
   2332   4969     1
   2333   2338     1
   2333   4968     1
   2334   2338     1
   2334   4968     1
   2335   4942     1
   2335   4944     1
   2336   4971     1
   2336   4973     1
   2337   4940     1
   2338   4969     1
   2341   2365     1
   2341   2349     1
   2341   2350     1
   2341   2352     1
   2341   2353     1
   2342   2364     1
   2342   2345     1
   2342   2346     1
   2342   2348     1
   2342   2351     1
   2343   2364     1
   2343   2345     1
   2343   2346     1
   2343   2348     1
   2343   2351     1
   2345   2347     1
   2345   2365     1
   2346   2347     1
   2346   2365     1
   2347   2358     1
   2347   2359     1
   2347   2355     1
   2347   2356     1
   2348   2352     1
   2348   2353     1
   2349   2351     1
   2349   2361     1
   2349   2358     1
   2349   2359     1
   2350   2351     1
   2350   2361     1
   2350   2358     1
   2350   2359     1
   2352   2360     1
   2352   2355     1
   2352   2356     1
   2353   2360     1
   2353   2355     1
   2353   2356     1
   2354   4998     1
   2355   4997     1
   2355   2362     1
   2356   4997     1
   2356   2362     1
   2357   5027     1
   2358   2363     1
   2358   5026     1
   2359   2363     1
   2359   5026     1
   2360   5000     1
   2360   5002     1
   2361   5029     1
   2361   5031     1
   2362   4998     1
   2363   5027     1
   2366   2390     1
   2366   2374     1
   2366   2375     1
   2366   2377     1
   2366   2378     1
   2367   2389     1
   2367   2370     1
   2367   2371     1
   2367   2373     1
   2367   2376     1
   2368   2389     1
   2368   2370     1
   2368   2371     1
   2368   2373     1
   2368   2376     1
   2370   2372     1
   2370   2390     1
   2371   2372     1
   2371   2390     1
   2372   2383     1
   2372   2384     1
   2372   2380     1
   2372   2381     1
   2373   2377     1
   2373   2378     1
   2374   2376     1
   2374   2386     1
   2374   2383     1
   2374   2384     1
   2375   2376     1
   2375   2386     1
   2375   2383     1
   2375   2384     1
   2377   2385     1
   2377   2380     1
   2377   2381     1
   2378   2385     1
   2378   2380     1
   2378   2381     1
   2379   5056     1
   2380   5055     1
   2380   2387     1
   2381   5055     1
   2381   2387     1
   2382   5085     1
   2383   2388     1
   2383   5084     1
   2384   2388     1
   2384   5084     1
   2385   5058     1
   2385   5060     1
   2386   5087     1
   2386   5089     1
   2387   5056     1
   2388   5085     1
   2391   2415     1
   2391   2399     1
   2391   2400     1
   2391   2402     1
   2391   2403     1
   2392   2414     1
   2392   2395     1
   2392   2396     1
   2392   2398     1
   2392   2401     1
   2393   2414     1
   2393   2395     1
   2393   2396     1
   2393   2398     1
   2393   2401     1
   2395   2397     1
   2395   2415     1
   2396   2397     1
   2396   2415     1
   2397   2408     1
   2397   2409     1
   2397   2405     1
   2397   2406     1
   2398   2402     1
   2398   2403     1
   2399   2401     1
   2399   2411     1
   2399   2408     1
   2399   2409     1
   2400   2401     1
   2400   2411     1
   2400   2408     1
   2400   2409     1
   2402   2410     1
   2402   2405     1
   2402   2406     1
   2403   2410     1
   2403   2405     1
   2403   2406     1
   2404   5114     1
   2405   5113     1
   2405   2412     1
   2406   5113     1
   2406   2412     1
   2407   5143     1
   2408   2413     1
   2408   5142     1
   2409   2413     1
   2409   5142     1
   2410   5116     1
   2410   5118     1
   2411   5145     1
   2411   5147     1
   2412   5114     1
   2413   5143     1
   2416   2440     1
   2416   2424     1
   2416   2425     1
   2416   2427     1
   2416   2428     1
   2417   2439     1
   2417   2420     1
   2417   2421     1
   2417   2423     1
   2417   2426     1
   2418   2439     1
   2418   2420     1
   2418   2421     1
   2418   2423     1
   2418   2426     1
   2420   2422     1
   2420   2440     1
   2421   2422     1
   2421   2440     1
   2422   2433     1
   2422   2434     1
   2422   2430     1
   2422   2431     1
   2423   2427     1
   2423   2428     1
   2424   2426     1
   2424   2436     1
   2424   2433     1
   2424   2434     1
   2425   2426     1
   2425   2436     1
   2425   2433     1
   2425   2434     1
   2427   2435     1
   2427   2430     1
   2427   2431     1
   2428   2435     1
   2428   2430     1
   2428   2431     1
   2429   5172     1
   2430   5171     1
   2430   2437     1
   2431   5171     1
   2431   2437     1
   2432   5201     1
   2433   2438     1
   2433   5200     1
   2434   2438     1
   2434   5200     1
   2435   5174     1
   2435   5176     1
   2436   5203     1
   2436   5205     1
   2437   5172     1
   2438   5201     1
   2441   2465     1
   2441   2449     1
   2441   2450     1
   2441   2452     1
   2441   2453     1
   2442   2464     1
   2442   2445     1
   2442   2446     1
   2442   2448     1
   2442   2451     1
   2443   2464     1
   2443   2445     1
   2443   2446     1
   2443   2448     1
   2443   2451     1
   2445   2447     1
   2445   2465     1
   2446   2447     1
   2446   2465     1
   2447   2458     1
   2447   2459     1
   2447   2455     1
   2447   2456     1
   2448   2452     1
   2448   2453     1
   2449   2451     1
   2449   2461     1
   2449   2458     1
   2449   2459     1
   2450   2451     1
   2450   2461     1
   2450   2458     1
   2450   2459     1
   2452   2460     1
   2452   2455     1
   2452   2456     1
   2453   2460     1
   2453   2455     1
   2453   2456     1
   2454   5230     1
   2455   5229     1
   2455   2462     1
   2456   5229     1
   2456   2462     1
   2457   5259     1
   2458   2463     1
   2458   5258     1
   2459   2463     1
   2459   5258     1
   2460   5232     1
   2460   5234     1
   2461   5261     1
   2461   5263     1
   2462   5230     1
   2463   5259     1
   2466   2490     1
   2466   2474     1
   2466   2475     1
   2466   2477     1
   2466   2478     1
   2467   2489     1
   2467   2470     1
   2467   2471     1
   2467   2473     1
   2467   2476     1
   2468   2489     1
   2468   2470     1
   2468   2471     1
   2468   2473     1
   2468   2476     1
   2470   2472     1
   2470   2490     1
   2471   2472     1
   2471   2490     1
   2472   2483     1
   2472   2484     1
   2472   2480     1
   2472   2481     1
   2473   2477     1
   2473   2478     1
   2474   2476     1
   2474   2486     1
   2474   2483     1
   2474   2484     1
   2475   2476     1
   2475   2486     1
   2475   2483     1
   2475   2484     1
   2477   2485     1
   2477   2480     1
   2477   2481     1
   2478   2485     1
   2478   2480     1
   2478   2481     1
   2479   5288     1
   2480   5287     1
   2480   2487     1
   2481   5287     1
   2481   2487     1
   2482   5317     1
   2483   2488     1
   2483   5316     1
   2484   2488     1
   2484   5316     1
   2485   5290     1
   2485   5292     1
   2486   5319     1
   2486   5321     1
   2487   5288     1
   2488   5317     1
   2491   2515     1
   2491   2499     1
   2491   2500     1
   2491   2502     1
   2491   2503     1
   2492   2514     1
   2492   2495     1
   2492   2496     1
   2492   2498     1
   2492   2501     1
   2493   2514     1
   2493   2495     1
   2493   2496     1
   2493   2498     1
   2493   2501     1
   2495   2497     1
   2495   2515     1
   2496   2497     1
   2496   2515     1
   2497   2508     1
   2497   2509     1
   2497   2505     1
   2497   2506     1
   2498   2502     1
   2498   2503     1
   2499   2501     1
   2499   2511     1
   2499   2508     1
   2499   2509     1
   2500   2501     1
   2500   2511     1
   2500   2508     1
   2500   2509     1
   2502   2510     1
   2502   2505     1
   2502   2506     1
   2503   2510     1
   2503   2505     1
   2503   2506     1
   2504   5346     1
   2505   5345     1
   2505   2512     1
   2506   5345     1
   2506   2512     1
   2507   5375     1
   2508   2513     1
   2508   5374     1
   2509   2513     1
   2509   5374     1
   2510   5348     1
   2510   5350     1
   2511   5377     1
   2511   5379     1
   2512   5346     1
   2513   5375     1
   2516   2540     1
   2516   2524     1
   2516   2525     1
   2516   2527     1
   2516   2528     1
   2517   2539     1
   2517   2520     1
   2517   2521     1
   2517   2523     1
   2517   2526     1
   2518   2539     1
   2518   2520     1
   2518   2521     1
   2518   2523     1
   2518   2526     1
   2520   2522     1
   2520   2540     1
   2521   2522     1
   2521   2540     1
   2522   2533     1
   2522   2534     1
   2522   2530     1
   2522   2531     1
   2523   2527     1
   2523   2528     1
   2524   2526     1
   2524   2536     1
   2524   2533     1
   2524   2534     1
   2525   2526     1
   2525   2536     1
   2525   2533     1
   2525   2534     1
   2527   2535     1
   2527   2530     1
   2527   2531     1
   2528   2535     1
   2528   2530     1
   2528   2531     1
   2529   5404     1
   2530   5403     1
   2530   2537     1
   2531   5403     1
   2531   2537     1
   2532   5433     1
   2533   2538     1
   2533   5432     1
   2534   2538     1
   2534   5432     1
   2535   5406     1
   2535   5408     1
   2536   5435     1
   2536   5437     1
   2537   5404     1
   2538   5433     1
   2541   2565     1
   2541   2549     1
   2541   2550     1
   2541   2552     1
   2541   2553     1
   2542   2564     1
   2542   2545     1
   2542   2546     1
   2542   2548     1
   2542   2551     1
   2543   2564     1
   2543   2545     1
   2543   2546     1
   2543   2548     1
   2543   2551     1
   2545   2547     1
   2545   2565     1
   2546   2547     1
   2546   2565     1
   2547   2558     1
   2547   2559     1
   2547   2555     1
   2547   2556     1
   2548   2552     1
   2548   2553     1
   2549   2551     1
   2549   2561     1
   2549   2558     1
   2549   2559     1
   2550   2551     1
   2550   2561     1
   2550   2558     1
   2550   2559     1
   2552   2560     1
   2552   2555     1
   2552   2556     1
   2553   2560     1
   2553   2555     1
   2553   2556     1
   2554   5462     1
   2555   5461     1
   2555   2562     1
   2556   5461     1
   2556   2562     1
   2557   5491     1
   2558   2563     1
   2558   5490     1
   2559   2563     1
   2559   5490     1
   2560   5464     1
   2560   5466     1
   2561   5493     1
   2561   5495     1
   2562   5462     1
   2563   5491     1
   2566   2590     1
   2566   2574     1
   2566   2575     1
   2566   2577     1
   2566   2578     1
   2567   2589     1
   2567   2570     1
   2567   2571     1
   2567   2573     1
   2567   2576     1
   2568   2589     1
   2568   2570     1
   2568   2571     1
   2568   2573     1
   2568   2576     1
   2570   2572     1
   2570   2590     1
   2571   2572     1
   2571   2590     1
   2572   2583     1
   2572   2584     1
   2572   2580     1
   2572   2581     1
   2573   2577     1
   2573   2578     1
   2574   2576     1
   2574   2586     1
   2574   2583     1
   2574   2584     1
   2575   2576     1
   2575   2586     1
   2575   2583     1
   2575   2584     1
   2577   2585     1
   2577   2580     1
   2577   2581     1
   2578   2585     1
   2578   2580     1
   2578   2581     1
   2579   5520     1
   2580   5519     1
   2580   2587     1
   2581   5519     1
   2581   2587     1
   2582   5549     1
   2583   2588     1
   2583   5548     1
   2584   2588     1
   2584   5548     1
   2585   5522     1
   2585   5524     1
   2586   5551     1
   2586   5553     1
   2587   5520     1
   2588   5549     1
   2591   2615     1
   2591   2599     1
   2591   2600     1
   2591   2602     1
   2591   2603     1
   2592   2614     1
   2592   2595     1
   2592   2596     1
   2592   2598     1
   2592   2601     1
   2593   2614     1
   2593   2595     1
   2593   2596     1
   2593   2598     1
   2593   2601     1
   2595   2597     1
   2595   2615     1
   2596   2597     1
   2596   2615     1
   2597   2608     1
   2597   2609     1
   2597   2605     1
   2597   2606     1
   2598   2602     1
   2598   2603     1
   2599   2601     1
   2599   2611     1
   2599   2608     1
   2599   2609     1
   2600   2601     1
   2600   2611     1
   2600   2608     1
   2600   2609     1
   2602   2610     1
   2602   2605     1
   2602   2606     1
   2603   2610     1
   2603   2605     1
   2603   2606     1
   2604   5578     1
   2605   5577     1
   2605   2612     1
   2606   5577     1
   2606   2612     1
   2607   5607     1
   2608   2613     1
   2608   5606     1
   2609   2613     1
   2609   5606     1
   2610   5580     1
   2610   5582     1
   2611   5609     1
   2611   5611     1
   2612   5578     1
   2613   5607     1
   2616   2640     1
   2616   2624     1
   2616   2625     1
   2616   2627     1
   2616   2628     1
   2617   2639     1
   2617   2620     1
   2617   2621     1
   2617   2623     1
   2617   2626     1
   2618   2639     1
   2618   2620     1
   2618   2621     1
   2618   2623     1
   2618   2626     1
   2620   2622     1
   2620   2640     1
   2621   2622     1
   2621   2640     1
   2622   2633     1
   2622   2634     1
   2622   2630     1
   2622   2631     1
   2623   2627     1
   2623   2628     1
   2624   2626     1
   2624   2636     1
   2624   2633     1
   2624   2634     1
   2625   2626     1
   2625   2636     1
   2625   2633     1
   2625   2634     1
   2627   2635     1
   2627   2630     1
   2627   2631     1
   2628   2635     1
   2628   2630     1
   2628   2631     1
   2629   5636     1
   2630   5635     1
   2630   2637     1
   2631   5635     1
   2631   2637     1
   2632   5665     1
   2633   2638     1
   2633   5664     1
   2634   2638     1
   2634   5664     1
   2635   5638     1
   2635   5640     1
   2636   5667     1
   2636   5669     1
   2637   5636     1
   2638   5665     1
   2641   2665     1
   2641   2649     1
   2641   2650     1
   2641   2652     1
   2641   2653     1
   2642   2664     1
   2642   2645     1
   2642   2646     1
   2642   2648     1
   2642   2651     1
   2643   2664     1
   2643   2645     1
   2643   2646     1
   2643   2648     1
   2643   2651     1
   2645   2647     1
   2645   2665     1
   2646   2647     1
   2646   2665     1
   2647   2658     1
   2647   2659     1
   2647   2655     1
   2647   2656     1
   2648   2652     1
   2648   2653     1
   2649   2651     1
   2649   2661     1
   2649   2658     1
   2649   2659     1
   2650   2651     1
   2650   2661     1
   2650   2658     1
   2650   2659     1
   2652   2660     1
   2652   2655     1
   2652   2656     1
   2653   2660     1
   2653   2655     1
   2653   2656     1
   2654   5694     1
   2655   5693     1
   2655   2662     1
   2656   5693     1
   2656   2662     1
   2657   5723     1
   2658   2663     1
   2658   5722     1
   2659   2663     1
   2659   5722     1
   2660   5696     1
   2660   5698     1
   2661   5725     1
   2661   5727     1
   2662   5694     1
   2663   5723     1
   2666   2690     1
   2666   2674     1
   2666   2675     1
   2666   2677     1
   2666   2678     1
   2667   2689     1
   2667   2670     1
   2667   2671     1
   2667   2673     1
   2667   2676     1
   2668   2689     1
   2668   2670     1
   2668   2671     1
   2668   2673     1
   2668   2676     1
   2670   2672     1
   2670   2690     1
   2671   2672     1
   2671   2690     1
   2672   2683     1
   2672   2684     1
   2672   2680     1
   2672   2681     1
   2673   2677     1
   2673   2678     1
   2674   2676     1
   2674   2686     1
   2674   2683     1
   2674   2684     1
   2675   2676     1
   2675   2686     1
   2675   2683     1
   2675   2684     1
   2677   2685     1
   2677   2680     1
   2677   2681     1
   2678   2685     1
   2678   2680     1
   2678   2681     1
   2679   5752     1
   2680   5751     1
   2680   2687     1
   2681   5751     1
   2681   2687     1
   2682   5781     1
   2683   2688     1
   2683   5780     1
   2684   2688     1
   2684   5780     1
   2685   5754     1
   2685   5756     1
   2686   5783     1
   2686   5785     1
   2687   5752     1
   2688   5781     1
   2691   2715     1
   2691   2699     1
   2691   2700     1
   2691   2702     1
   2691   2703     1
   2692   2714     1
   2692   2695     1
   2692   2696     1
   2692   2698     1
   2692   2701     1
   2693   2714     1
   2693   2695     1
   2693   2696     1
   2693   2698     1
   2693   2701     1
   2695   2697     1
   2695   2715     1
   2696   2697     1
   2696   2715     1
   2697   2708     1
   2697   2709     1
   2697   2705     1
   2697   2706     1
   2698   2702     1
   2698   2703     1
   2699   2701     1
   2699   2711     1
   2699   2708     1
   2699   2709     1
   2700   2701     1
   2700   2711     1
   2700   2708     1
   2700   2709     1
   2702   2710     1
   2702   2705     1
   2702   2706     1
   2703   2710     1
   2703   2705     1
   2703   2706     1
   2704   5810     1
   2705   5809     1
   2705   2712     1
   2706   5809     1
   2706   2712     1
   2707   5839     1
   2708   2713     1
   2708   5838     1
   2709   2713     1
   2709   5838     1
   2710   5812     1
   2710   5814     1
   2711   5841     1
   2711   5843     1
   2712   5810     1
   2713   5839     1
   2716   2740     1
   2716   2724     1
   2716   2725     1
   2716   2727     1
   2716   2728     1
   2717   2739     1
   2717   2720     1
   2717   2721     1
   2717   2723     1
   2717   2726     1
   2718   2739     1
   2718   2720     1
   2718   2721     1
   2718   2723     1
   2718   2726     1
   2720   2722     1
   2720   2740     1
   2721   2722     1
   2721   2740     1
   2722   2733     1
   2722   2734     1
   2722   2730     1
   2722   2731     1
   2723   2727     1
   2723   2728     1
   2724   2726     1
   2724   2736     1
   2724   2733     1
   2724   2734     1
   2725   2726     1
   2725   2736     1
   2725   2733     1
   2725   2734     1
   2727   2735     1
   2727   2730     1
   2727   2731     1
   2728   2735     1
   2728   2730     1
   2728   2731     1
   2729   5868     1
   2730   5867     1
   2730   2737     1
   2731   5867     1
   2731   2737     1
   2732   5897     1
   2733   2738     1
   2733   5896     1
   2734   2738     1
   2734   5896     1
   2735   5870     1
   2735   5872     1
   2736   5899     1
   2736   5901     1
   2737   5868     1
   2738   5897     1
   2741   2765     1
   2741   2749     1
   2741   2750     1
   2741   2752     1
   2741   2753     1
   2742   2764     1
   2742   2745     1
   2742   2746     1
   2742   2748     1
   2742   2751     1
   2743   2764     1
   2743   2745     1
   2743   2746     1
   2743   2748     1
   2743   2751     1
   2745   2747     1
   2745   2765     1
   2746   2747     1
   2746   2765     1
   2747   2758     1
   2747   2759     1
   2747   2755     1
   2747   2756     1
   2748   2752     1
   2748   2753     1
   2749   2751     1
   2749   2761     1
   2749   2758     1
   2749   2759     1
   2750   2751     1
   2750   2761     1
   2750   2758     1
   2750   2759     1
   2752   2760     1
   2752   2755     1
   2752   2756     1
   2753   2760     1
   2753   2755     1
   2753   2756     1
   2754   5926     1
   2755   5925     1
   2755   2762     1
   2756   5925     1
   2756   2762     1
   2757   5955     1
   2758   2763     1
   2758   5954     1
   2759   2763     1
   2759   5954     1
   2760   5928     1
   2760   5930     1
   2761   5957     1
   2761   5959     1
   2762   5926     1
   2763   5955     1
   2766   2790     1
   2766   2774     1
   2766   2775     1
   2766   2777     1
   2766   2778     1
   2767   2789     1
   2767   2770     1
   2767   2771     1
   2767   2773     1
   2767   2776     1
   2768   2789     1
   2768   2770     1
   2768   2771     1
   2768   2773     1
   2768   2776     1
   2770   2772     1
   2770   2790     1
   2771   2772     1
   2771   2790     1
   2772   2783     1
   2772   2784     1
   2772   2780     1
   2772   2781     1
   2773   2777     1
   2773   2778     1
   2774   2776     1
   2774   2786     1
   2774   2783     1
   2774   2784     1
   2775   2776     1
   2775   2786     1
   2775   2783     1
   2775   2784     1
   2777   2785     1
   2777   2780     1
   2777   2781     1
   2778   2785     1
   2778   2780     1
   2778   2781     1
   2779   5984     1
   2780   5983     1
   2780   2787     1
   2781   5983     1
   2781   2787     1
   2782   6013     1
   2783   2788     1
   2783   6012     1
   2784   2788     1
   2784   6012     1
   2785   5986     1
   2785   5988     1
   2786   6015     1
   2786   6017     1
   2787   5984     1
   2788   6013     1
   2791   2815     1
   2791   2799     1
   2791   2800     1
   2791   2802     1
   2791   2803     1
   2792   2814     1
   2792   2795     1
   2792   2796     1
   2792   2798     1
   2792   2801     1
   2793   2814     1
   2793   2795     1
   2793   2796     1
   2793   2798     1
   2793   2801     1
   2795   2797     1
   2795   2815     1
   2796   2797     1
   2796   2815     1
   2797   2808     1
   2797   2809     1
   2797   2805     1
   2797   2806     1
   2798   2802     1
   2798   2803     1
   2799   2801     1
   2799   2811     1
   2799   2808     1
   2799   2809     1
   2800   2801     1
   2800   2811     1
   2800   2808     1
   2800   2809     1
   2802   2810     1
   2802   2805     1
   2802   2806     1
   2803   2810     1
   2803   2805     1
   2803   2806     1
   2804   6042     1
   2805   6041     1
   2805   2812     1
   2806   6041     1
   2806   2812     1
   2807   6071     1
   2808   2813     1
   2808   6070     1
   2809   2813     1
   2809   6070     1
   2810   6044     1
   2810   6046     1
   2811   6073     1
   2811   6075     1
   2812   6042     1
   2813   6071     1
   2816   2840     1
   2816   2824     1
   2816   2825     1
   2816   2827     1
   2816   2828     1
   2817   2839     1
   2817   2820     1
   2817   2821     1
   2817   2823     1
   2817   2826     1
   2818   2839     1
   2818   2820     1
   2818   2821     1
   2818   2823     1
   2818   2826     1
   2820   2822     1
   2820   2840     1
   2821   2822     1
   2821   2840     1
   2822   2833     1
   2822   2834     1
   2822   2830     1
   2822   2831     1
   2823   2827     1
   2823   2828     1
   2824   2826     1
   2824   2836     1
   2824   2833     1
   2824   2834     1
   2825   2826     1
   2825   2836     1
   2825   2833     1
   2825   2834     1
   2827   2835     1
   2827   2830     1
   2827   2831     1
   2828   2835     1
   2828   2830     1
   2828   2831     1
   2829   6100     1
   2830   6099     1
   2830   2837     1
   2831   6099     1
   2831   2837     1
   2832   6129     1
   2833   2838     1
   2833   6128     1
   2834   2838     1
   2834   6128     1
   2835   6102     1
   2835   6104     1
   2836   6131     1
   2836   6133     1
   2837   6100     1
   2838   6129     1
   2841   2865     1
   2841   2849     1
   2841   2850     1
   2841   2852     1
   2841   2853     1
   2842   2864     1
   2842   2845     1
   2842   2846     1
   2842   2848     1
   2842   2851     1
   2843   2864     1
   2843   2845     1
   2843   2846     1
   2843   2848     1
   2843   2851     1
   2845   2847     1
   2845   2865     1
   2846   2847     1
   2846   2865     1
   2847   2858     1
   2847   2859     1
   2847   2855     1
   2847   2856     1
   2848   2852     1
   2848   2853     1
   2849   2851     1
   2849   2861     1
   2849   2858     1
   2849   2859     1
   2850   2851     1
   2850   2861     1
   2850   2858     1
   2850   2859     1
   2852   2860     1
   2852   2855     1
   2852   2856     1
   2853   2860     1
   2853   2855     1
   2853   2856     1
   2854   6158     1
   2855   6157     1
   2855   2862     1
   2856   6157     1
   2856   2862     1
   2857   6187     1
   2858   2863     1
   2858   6186     1
   2859   2863     1
   2859   6186     1
   2860   6160     1
   2860   6162     1
   2861   6189     1
   2861   6191     1
   2862   6158     1
   2863   6187     1
   2866   2890     1
   2866   2874     1
   2866   2875     1
   2866   2877     1
   2866   2878     1
   2867   2889     1
   2867   2870     1
   2867   2871     1
   2867   2873     1
   2867   2876     1
   2868   2889     1
   2868   2870     1
   2868   2871     1
   2868   2873     1
   2868   2876     1
   2870   2872     1
   2870   2890     1
   2871   2872     1
   2871   2890     1
   2872   2883     1
   2872   2884     1
   2872   2880     1
   2872   2881     1
   2873   2877     1
   2873   2878     1
   2874   2876     1
   2874   2886     1
   2874   2883     1
   2874   2884     1
   2875   2876     1
   2875   2886     1
   2875   2883     1
   2875   2884     1
   2877   2885     1
   2877   2880     1
   2877   2881     1
   2878   2885     1
   2878   2880     1
   2878   2881     1
   2879   6216     1
   2880   6215     1
   2880   2887     1
   2881   6215     1
   2881   2887     1
   2882   6245     1
   2883   2888     1
   2883   6244     1
   2884   2888     1
   2884   6244     1
   2885   6218     1
   2885   6220     1
   2886   6247     1
   2886   6249     1
   2887   6216     1
   2888   6245     1
   2891   2915     1
   2891   2899     1
   2891   2900     1
   2891   2902     1
   2891   2903     1
   2892   2914     1
   2892   2895     1
   2892   2896     1
   2892   2898     1
   2892   2901     1
   2893   2914     1
   2893   2895     1
   2893   2896     1
   2893   2898     1
   2893   2901     1
   2895   2897     1
   2895   2915     1
   2896   2897     1
   2896   2915     1
   2897   2908     1
   2897   2909     1
   2897   2905     1
   2897   2906     1
   2898   2902     1
   2898   2903     1
   2899   2901     1
   2899   2911     1
   2899   2908     1
   2899   2909     1
   2900   2901     1
   2900   2911     1
   2900   2908     1
   2900   2909     1
   2902   2910     1
   2902   2905     1
   2902   2906     1
   2903   2910     1
   2903   2905     1
   2903   2906     1
   2904   6274     1
   2905   6273     1
   2905   2912     1
   2906   6273     1
   2906   2912     1
   2907   6303     1
   2908   2913     1
   2908   6302     1
   2909   2913     1
   2909   6302     1
   2910   6276     1
   2910   6278     1
   2911   6305     1
   2911   6307     1
   2912   6274     1
   2913   6303     1
   2916   2940     1
   2916   2924     1
   2916   2925     1
   2916   2927     1
   2916   2928     1
   2917   2939     1
   2917   2920     1
   2917   2921     1
   2917   2923     1
   2917   2926     1
   2918   2939     1
   2918   2920     1
   2918   2921     1
   2918   2923     1
   2918   2926     1
   2920   2922     1
   2920   2940     1
   2921   2922     1
   2921   2940     1
   2922   2933     1
   2922   2934     1
   2922   2930     1
   2922   2931     1
   2923   2927     1
   2923   2928     1
   2924   2926     1
   2924   2936     1
   2924   2933     1
   2924   2934     1
   2925   2926     1
   2925   2936     1
   2925   2933     1
   2925   2934     1
   2927   2935     1
   2927   2930     1
   2927   2931     1
   2928   2935     1
   2928   2930     1
   2928   2931     1
   2929   6332     1
   2930   6331     1
   2930   2937     1
   2931   6331     1
   2931   2937     1
   2932   6361     1
   2933   2938     1
   2933   6360     1
   2934   2938     1
   2934   6360     1
   2935   6334     1
   2935   6336     1
   2936   6363     1
   2936   6365     1
   2937   6332     1
   2938   6361     1
   2941   2965     1
   2941   2949     1
   2941   2950     1
   2941   2952     1
   2941   2953     1
   2942   2964     1
   2942   2945     1
   2942   2946     1
   2942   2948     1
   2942   2951     1
   2943   2964     1
   2943   2945     1
   2943   2946     1
   2943   2948     1
   2943   2951     1
   2945   2947     1
   2945   2965     1
   2946   2947     1
   2946   2965     1
   2947   2958     1
   2947   2959     1
   2947   2955     1
   2947   2956     1
   2948   2952     1
   2948   2953     1
   2949   2951     1
   2949   2961     1
   2949   2958     1
   2949   2959     1
   2950   2951     1
   2950   2961     1
   2950   2958     1
   2950   2959     1
   2952   2960     1
   2952   2955     1
   2952   2956     1
   2953   2960     1
   2953   2955     1
   2953   2956     1
   2954   6390     1
   2955   6389     1
   2955   2962     1
   2956   6389     1
   2956   2962     1
   2957   6419     1
   2958   2963     1
   2958   6418     1
   2959   2963     1
   2959   6418     1
   2960   6392     1
   2960   6394     1
   2961   6421     1
   2961   6423     1
   2962   6390     1
   2963   6419     1
   2966   2990     1
   2966   2974     1
   2966   2975     1
   2966   2977     1
   2966   2978     1
   2967   2989     1
   2967   2970     1
   2967   2971     1
   2967   2973     1
   2967   2976     1
   2968   2989     1
   2968   2970     1
   2968   2971     1
   2968   2973     1
   2968   2976     1
   2970   2972     1
   2970   2990     1
   2971   2972     1
   2971   2990     1
   2972   2983     1
   2972   2984     1
   2972   2980     1
   2972   2981     1
   2973   2977     1
   2973   2978     1
   2974   2976     1
   2974   2986     1
   2974   2983     1
   2974   2984     1
   2975   2976     1
   2975   2986     1
   2975   2983     1
   2975   2984     1
   2977   2985     1
   2977   2980     1
   2977   2981     1
   2978   2985     1
   2978   2980     1
   2978   2981     1
   2979   6448     1
   2980   6447     1
   2980   2987     1
   2981   6447     1
   2981   2987     1
   2982   6477     1
   2983   2988     1
   2983   6476     1
   2984   2988     1
   2984   6476     1
   2985   6450     1
   2985   6452     1
   2986   6479     1
   2986   6481     1
   2987   6448     1
   2988   6477     1
   2991   3015     1
   2991   2999     1
   2991   3000     1
   2991   3002     1
   2991   3003     1
   2992   3014     1
   2992   2995     1
   2992   2996     1
   2992   2998     1
   2992   3001     1
   2993   3014     1
   2993   2995     1
   2993   2996     1
   2993   2998     1
   2993   3001     1
   2995   2997     1
   2995   3015     1
   2996   2997     1
   2996   3015     1
   2997   3008     1
   2997   3009     1
   2997   3005     1
   2997   3006     1
   2998   3002     1
   2998   3003     1
   2999   3001     1
   2999   3011     1
   2999   3008     1
   2999   3009     1
   3000   3001     1
   3000   3011     1
   3000   3008     1
   3000   3009     1
   3002   3010     1
   3002   3005     1
   3002   3006     1
   3003   3010     1
   3003   3005     1
   3003   3006     1
   3004   6506     1
   3005   6505     1
   3005   3012     1
   3006   6505     1
   3006   3012     1
   3007   6535     1
   3008   3013     1
   3008   6534     1
   3009   3013     1
   3009   6534     1
   3010   6508     1
   3010   6510     1
   3011   6537     1
   3011   6539     1
   3012   6506     1
   3013   6535     1
   3016   3040     1
   3016   3024     1
   3016   3025     1
   3016   3027     1
   3016   3028     1
   3017   3039     1
   3017   3020     1
   3017   3021     1
   3017   3023     1
   3017   3026     1
   3018   3039     1
   3018   3020     1
   3018   3021     1
   3018   3023     1
   3018   3026     1
   3020   3022     1
   3020   3040     1
   3021   3022     1
   3021   3040     1
   3022   3033     1
   3022   3034     1
   3022   3030     1
   3022   3031     1
   3023   3027     1
   3023   3028     1
   3024   3026     1
   3024   3036     1
   3024   3033     1
   3024   3034     1
   3025   3026     1
   3025   3036     1
   3025   3033     1
   3025   3034     1
   3027   3035     1
   3027   3030     1
   3027   3031     1
   3028   3035     1
   3028   3030     1
   3028   3031     1
   3029   6564     1
   3030   6563     1
   3030   3037     1
   3031   6563     1
   3031   3037     1
   3032   6593     1
   3033   3038     1
   3033   6592     1
   3034   3038     1
   3034   6592     1
   3035   6566     1
   3035   6568     1
   3036   6595     1
   3036   6597     1
   3037   6564     1
   3038   6593     1
   3041   3065     1
   3041   3049     1
   3041   3050     1
   3041   3052     1
   3041   3053     1
   3042   3064     1
   3042   3045     1
   3042   3046     1
   3042   3048     1
   3042   3051     1
   3043   3064     1
   3043   3045     1
   3043   3046     1
   3043   3048     1
   3043   3051     1
   3045   3047     1
   3045   3065     1
   3046   3047     1
   3046   3065     1
   3047   3058     1
   3047   3059     1
   3047   3055     1
   3047   3056     1
   3048   3052     1
   3048   3053     1
   3049   3051     1
   3049   3061     1
   3049   3058     1
   3049   3059     1
   3050   3051     1
   3050   3061     1
   3050   3058     1
   3050   3059     1
   3052   3060     1
   3052   3055     1
   3052   3056     1
   3053   3060     1
   3053   3055     1
   3053   3056     1
   3054   6622     1
   3055   6621     1
   3055   3062     1
   3056   6621     1
   3056   3062     1
   3057   6651     1
   3058   3063     1
   3058   6650     1
   3059   3063     1
   3059   6650     1
   3060   6624     1
   3060   6626     1
   3061   6653     1
   3061   6655     1
   3062   6622     1
   3063   6651     1
   3066   3090     1
   3066   3074     1
   3066   3075     1
   3066   3077     1
   3066   3078     1
   3067   3089     1
   3067   3070     1
   3067   3071     1
   3067   3073     1
   3067   3076     1
   3068   3089     1
   3068   3070     1
   3068   3071     1
   3068   3073     1
   3068   3076     1
   3070   3072     1
   3070   3090     1
   3071   3072     1
   3071   3090     1
   3072   3083     1
   3072   3084     1
   3072   3080     1
   3072   3081     1
   3073   3077     1
   3073   3078     1
   3074   3076     1
   3074   3086     1
   3074   3083     1
   3074   3084     1
   3075   3076     1
   3075   3086     1
   3075   3083     1
   3075   3084     1
   3077   3085     1
   3077   3080     1
   3077   3081     1
   3078   3085     1
   3078   3080     1
   3078   3081     1
   3079   6680     1
   3080   6679     1
   3080   3087     1
   3081   6679     1
   3081   3087     1
   3082   6709     1
   3083   3088     1
   3083   6708     1
   3084   3088     1
   3084   6708     1
   3085   6682     1
   3085   6684     1
   3086   6711     1
   3086   6713     1
   3087   6680     1
   3088   6709     1
   3091   3115     1
   3091   3099     1
   3091   3100     1
   3091   3102     1
   3091   3103     1
   3092   3114     1
   3092   3095     1
   3092   3096     1
   3092   3098     1
   3092   3101     1
   3093   3114     1
   3093   3095     1
   3093   3096     1
   3093   3098     1
   3093   3101     1
   3095   3097     1
   3095   3115     1
   3096   3097     1
   3096   3115     1
   3097   3108     1
   3097   3109     1
   3097   3105     1
   3097   3106     1
   3098   3102     1
   3098   3103     1
   3099   3101     1
   3099   3111     1
   3099   3108     1
   3099   3109     1
   3100   3101     1
   3100   3111     1
   3100   3108     1
   3100   3109     1
   3102   3110     1
   3102   3105     1
   3102   3106     1
   3103   3110     1
   3103   3105     1
   3103   3106     1
   3104   6738     1
   3105   6737     1
   3105   3112     1
   3106   6737     1
   3106   3112     1
   3107   6767     1
   3108   3113     1
   3108   6766     1
   3109   3113     1
   3109   6766     1
   3110   6740     1
   3110   6742     1
   3111   6769     1
   3111   6771     1
   3112   6738     1
   3113   6767     1
   3116   3140     1
   3116   3124     1
   3116   3125     1
   3116   3127     1
   3116   3128     1
   3117   3139     1
   3117   3120     1
   3117   3121     1
   3117   3123     1
   3117   3126     1
   3118   3139     1
   3118   3120     1
   3118   3121     1
   3118   3123     1
   3118   3126     1
   3120   3122     1
   3120   3140     1
   3121   3122     1
   3121   3140     1
   3122   3133     1
   3122   3134     1
   3122   3130     1
   3122   3131     1
   3123   3127     1
   3123   3128     1
   3124   3126     1
   3124   3136     1
   3124   3133     1
   3124   3134     1
   3125   3126     1
   3125   3136     1
   3125   3133     1
   3125   3134     1
   3127   3135     1
   3127   3130     1
   3127   3131     1
   3128   3135     1
   3128   3130     1
   3128   3131     1
   3129   6796     1
   3130   6795     1
   3130   3137     1
   3131   6795     1
   3131   3137     1
   3132   6825     1
   3133   6824     1
   3133   3138     1
   3134   6824     1
   3134   3138     1
   3135   6798     1
   3135   6800     1
   3136   6827     1
   3136   6829     1
   3137   6796     1
   3138   6825     1
   3141   3147     1
   3141   3148     1
   3142   3145     1
   3142   3144     1
   3142   3146     1
   3144   3149     1
   3144   3147     1
   3144   3148     1
   3145   3160     1
   3145   3161     1
   3145   3152     1
   3145   3154     1
   3146   3149     1
   3146   3147     1
   3146   3148     1
   3147   3150     1
   3147   3151     1
   3148   3150     1
   3148   3151     1
   3149   3163     1
   3149   3164     1
   3149   3155     1
   3149   3156     1
   3150   3152     1
   3150   3154     1
   3151   3160     1
   3151   3161     1
   3152   3157     1
   3152   3155     1
   3152   3156     1
   3153   3168     1
   3154   3157     1
   3154   3155     1
   3154   3156     1
   3155   3158     1
   3155   3159     1
   3156   3158     1
   3156   3159     1
   3159   3168     1
   3160   3165     1
   3160   3163     1
   3160   3164     1
   3161   3165     1
   3161   3163     1
   3161   3164     1
   3162   3169     1
   3163   3166     1
   3163   3167     1
   3164   3166     1
   3164   3167     1
   3166   3169     1
   3170   3176     1
   3170   3177     1
   3171   3174     1
   3171   3173     1
   3171   3175     1
   3173   3178     1
   3173   3176     1
   3173   3177     1
   3174   3189     1
   3174   3190     1
   3174   3181     1
   3174   3183     1
   3175   3178     1
   3175   3176     1
   3175   3177     1
   3176   3179     1
   3176   3180     1
   3177   3179     1
   3177   3180     1
   3178   3192     1
   3178   3193     1
   3178   3184     1
   3178   3185     1
   3179   3181     1
   3179   3183     1
   3180   3189     1
   3180   3190     1
   3181   3186     1
   3181   3184     1
   3181   3185     1
   3182   3197     1
   3183   3186     1
   3183   3184     1
   3183   3185     1
   3184   3187     1
   3184   3188     1
   3185   3187     1
   3185   3188     1
   3188   3197     1
   3189   3194     1
   3189   3192     1
   3189   3193     1
   3190   3194     1
   3190   3192     1
   3190   3193     1
   3191   3198     1
   3192   3195     1
   3192   3196     1
   3193   3195     1
   3193   3196     1
   3195   3198     1
   3199   3205     1
   3199   3206     1
   3200   3203     1
   3200   3202     1
   3200   3204     1
   3202   3207     1
   3202   3205     1
   3202   3206     1
   3203   3218     1
   3203   3219     1
   3203   3210     1
   3203   3212     1
   3204   3207     1
   3204   3205     1
   3204   3206     1
   3205   3208     1
   3205   3209     1
   3206   3208     1
   3206   3209     1
   3207   3221     1
   3207   3222     1
   3207   3213     1
   3207   3214     1
   3208   3210     1
   3208   3212     1
   3209   3218     1
   3209   3219     1
   3210   3215     1
   3210   3213     1
   3210   3214     1
   3211   3226     1
   3212   3215     1
   3212   3213     1
   3212   3214     1
   3213   3216     1
   3213   3217     1
   3214   3216     1
   3214   3217     1
   3217   3226     1
   3218   3223     1
   3218   3221     1
   3218   3222     1
   3219   3223     1
   3219   3221     1
   3219   3222     1
   3220   3227     1
   3221   3224     1
   3221   3225     1
   3222   3224     1
   3222   3225     1
   3224   3227     1
   3228   3234     1
   3228   3235     1
   3229   3232     1
   3229   3231     1
   3229   3233     1
   3231   3236     1
   3231   3234     1
   3231   3235     1
   3232   3247     1
   3232   3248     1
   3232   3239     1
   3232   3241     1
   3233   3236     1
   3233   3234     1
   3233   3235     1
   3234   3237     1
   3234   3238     1
   3235   3237     1
   3235   3238     1
   3236   3250     1
   3236   3251     1
   3236   3242     1
   3236   3243     1
   3237   3239     1
   3237   3241     1
   3238   3247     1
   3238   3248     1
   3239   3244     1
   3239   3242     1
   3239   3243     1
   3240   3255     1
   3241   3244     1
   3241   3242     1
   3241   3243     1
   3242   3245     1
   3242   3246     1
   3243   3245     1
   3243   3246     1
   3246   3255     1
   3247   3252     1
   3247   3250     1
   3247   3251     1
   3248   3252     1
   3248   3250     1
   3248   3251     1
   3249   3256     1
   3250   3253     1
   3250   3254     1
   3251   3253     1
   3251   3254     1
   3253   3256     1
   3257   3263     1
   3257   3264     1
   3258   3261     1
   3258   3260     1
   3258   3262     1
   3260   3265     1
   3260   3263     1
   3260   3264     1
   3261   3276     1
   3261   3277     1
   3261   3268     1
   3261   3270     1
   3262   3265     1
   3262   3263     1
   3262   3264     1
   3263   3266     1
   3263   3267     1
   3264   3266     1
   3264   3267     1
   3265   3279     1
   3265   3280     1
   3265   3271     1
   3265   3272     1
   3266   3268     1
   3266   3270     1
   3267   3276     1
   3267   3277     1
   3268   3273     1
   3268   3271     1
   3268   3272     1
   3269   3284     1
   3270   3273     1
   3270   3271     1
   3270   3272     1
   3271   3274     1
   3271   3275     1
   3272   3274     1
   3272   3275     1
   3275   3284     1
   3276   3281     1
   3276   3279     1
   3276   3280     1
   3277   3281     1
   3277   3279     1
   3277   3280     1
   3278   3285     1
   3279   3282     1
   3279   3283     1
   3280   3282     1
   3280   3283     1
   3282   3285     1
   3286   3292     1
   3286   3293     1
   3287   3290     1
   3287   3289     1
   3287   3291     1
   3289   3294     1
   3289   3292     1
   3289   3293     1
   3290   3305     1
   3290   3306     1
   3290   3297     1
   3290   3299     1
   3291   3294     1
   3291   3292     1
   3291   3293     1
   3292   3295     1
   3292   3296     1
   3293   3295     1
   3293   3296     1
   3294   3308     1
   3294   3309     1
   3294   3300     1
   3294   3301     1
   3295   3297     1
   3295   3299     1
   3296   3305     1
   3296   3306     1
   3297   3302     1
   3297   3300     1
   3297   3301     1
   3298   3313     1
   3299   3302     1
   3299   3300     1
   3299   3301     1
   3300   3303     1
   3300   3304     1
   3301   3303     1
   3301   3304     1
   3304   3313     1
   3305   3310     1
   3305   3308     1
   3305   3309     1
   3306   3310     1
   3306   3308     1
   3306   3309     1
   3307   3314     1
   3308   3311     1
   3308   3312     1
   3309   3311     1
   3309   3312     1
   3311   3314     1
   3315   3321     1
   3315   3322     1
   3316   3319     1
   3316   3318     1
   3316   3320     1
   3318   3323     1
   3318   3321     1
   3318   3322     1
   3319   3334     1
   3319   3335     1
   3319   3326     1
   3319   3328     1
   3320   3323     1
   3320   3321     1
   3320   3322     1
   3321   3324     1
   3321   3325     1
   3322   3324     1
   3322   3325     1
   3323   3337     1
   3323   3338     1
   3323   3329     1
   3323   3330     1
   3324   3326     1
   3324   3328     1
   3325   3334     1
   3325   3335     1
   3326   3331     1
   3326   3329     1
   3326   3330     1
   3327   3342     1
   3328   3331     1
   3328   3329     1
   3328   3330     1
   3329   3332     1
   3329   3333     1
   3330   3332     1
   3330   3333     1
   3333   3342     1
   3334   3339     1
   3334   3337     1
   3334   3338     1
   3335   3339     1
   3335   3337     1
   3335   3338     1
   3336   3343     1
   3337   3340     1
   3337   3341     1
   3338   3340     1
   3338   3341     1
   3340   3343     1
   3344   3350     1
   3344   3351     1
   3345   3348     1
   3345   3347     1
   3345   3349     1
   3347   3352     1
   3347   3350     1
   3347   3351     1
   3348   3363     1
   3348   3364     1
   3348   3355     1
   3348   3357     1
   3349   3352     1
   3349   3350     1
   3349   3351     1
   3350   3353     1
   3350   3354     1
   3351   3353     1
   3351   3354     1
   3352   3366     1
   3352   3367     1
   3352   3358     1
   3352   3359     1
   3353   3355     1
   3353   3357     1
   3354   3363     1
   3354   3364     1
   3355   3360     1
   3355   3358     1
   3355   3359     1
   3356   3371     1
   3357   3360     1
   3357   3358     1
   3357   3359     1
   3358   3361     1
   3358   3362     1
   3359   3361     1
   3359   3362     1
   3362   3371     1
   3363   3368     1
   3363   3366     1
   3363   3367     1
   3364   3368     1
   3364   3366     1
   3364   3367     1
   3365   3372     1
   3366   3369     1
   3366   3370     1
   3367   3369     1
   3367   3370     1
   3369   3372     1
   3373   3379     1
   3373   3380     1
   3374   3377     1
   3374   3376     1
   3374   3378     1
   3376   3381     1
   3376   3379     1
   3376   3380     1
   3377   3392     1
   3377   3393     1
   3377   3384     1
   3377   3386     1
   3378   3381     1
   3378   3379     1
   3378   3380     1
   3379   3382     1
   3379   3383     1
   3380   3382     1
   3380   3383     1
   3381   3395     1
   3381   3396     1
   3381   3387     1
   3381   3388     1
   3382   3384     1
   3382   3386     1
   3383   3392     1
   3383   3393     1
   3384   3389     1
   3384   3387     1
   3384   3388     1
   3385   3400     1
   3386   3389     1
   3386   3387     1
   3386   3388     1
   3387   3390     1
   3387   3391     1
   3388   3390     1
   3388   3391     1
   3391   3400     1
   3392   3397     1
   3392   3395     1
   3392   3396     1
   3393   3397     1
   3393   3395     1
   3393   3396     1
   3394   3401     1
   3395   3398     1
   3395   3399     1
   3396   3398     1
   3396   3399     1
   3398   3401     1
   3402   3408     1
   3402   3409     1
   3403   3406     1
   3403   3405     1
   3403   3407     1
   3405   3410     1
   3405   3408     1
   3405   3409     1
   3406   3421     1
   3406   3422     1
   3406   3413     1
   3406   3415     1
   3407   3410     1
   3407   3408     1
   3407   3409     1
   3408   3411     1
   3408   3412     1
   3409   3411     1
   3409   3412     1
   3410   3424     1
   3410   3425     1
   3410   3416     1
   3410   3417     1
   3411   3413     1
   3411   3415     1
   3412   3421     1
   3412   3422     1
   3413   3418     1
   3413   3416     1
   3413   3417     1
   3414   3429     1
   3415   3418     1
   3415   3416     1
   3415   3417     1
   3416   3419     1
   3416   3420     1
   3417   3419     1
   3417   3420     1
   3420   3429     1
   3421   3426     1
   3421   3424     1
   3421   3425     1
   3422   3426     1
   3422   3424     1
   3422   3425     1
   3423   3430     1
   3424   3427     1
   3424   3428     1
   3425   3427     1
   3425   3428     1
   3427   3430     1
   3431   3437     1
   3431   3438     1
   3432   3435     1
   3432   3434     1
   3432   3436     1
   3434   3439     1
   3434   3437     1
   3434   3438     1
   3435   3450     1
   3435   3451     1
   3435   3442     1
   3435   3444     1
   3436   3439     1
   3436   3437     1
   3436   3438     1
   3437   3440     1
   3437   3441     1
   3438   3440     1
   3438   3441     1
   3439   3453     1
   3439   3454     1
   3439   3445     1
   3439   3446     1
   3440   3442     1
   3440   3444     1
   3441   3450     1
   3441   3451     1
   3442   3447     1
   3442   3445     1
   3442   3446     1
   3443   3458     1
   3444   3447     1
   3444   3445     1
   3444   3446     1
   3445   3448     1
   3445   3449     1
   3446   3448     1
   3446   3449     1
   3449   3458     1
   3450   3455     1
   3450   3453     1
   3450   3454     1
   3451   3455     1
   3451   3453     1
   3451   3454     1
   3452   3459     1
   3453   3456     1
   3453   3457     1
   3454   3456     1
   3454   3457     1
   3456   3459     1
   3460   3466     1
   3460   3467     1
   3461   3464     1
   3461   3463     1
   3461   3465     1
   3463   3468     1
   3463   3466     1
   3463   3467     1
   3464   3479     1
   3464   3480     1
   3464   3471     1
   3464   3473     1
   3465   3468     1
   3465   3466     1
   3465   3467     1
   3466   3469     1
   3466   3470     1
   3467   3469     1
   3467   3470     1
   3468   3482     1
   3468   3483     1
   3468   3474     1
   3468   3475     1
   3469   3471     1
   3469   3473     1
   3470   3479     1
   3470   3480     1
   3471   3476     1
   3471   3474     1
   3471   3475     1
   3472   3487     1
   3473   3476     1
   3473   3474     1
   3473   3475     1
   3474   3477     1
   3474   3478     1
   3475   3477     1
   3475   3478     1
   3478   3487     1
   3479   3484     1
   3479   3482     1
   3479   3483     1
   3480   3484     1
   3480   3482     1
   3480   3483     1
   3481   3488     1
   3482   3485     1
   3482   3486     1
   3483   3485     1
   3483   3486     1
   3485   3488     1
   3489   3495     1
   3489   3496     1
   3490   3493     1
   3490   3492     1
   3490   3494     1
   3492   3497     1
   3492   3495     1
   3492   3496     1
   3493   3508     1
   3493   3509     1
   3493   3500     1
   3493   3502     1
   3494   3497     1
   3494   3495     1
   3494   3496     1
   3495   3498     1
   3495   3499     1
   3496   3498     1
   3496   3499     1
   3497   3511     1
   3497   3512     1
   3497   3503     1
   3497   3504     1
   3498   3500     1
   3498   3502     1
   3499   3508     1
   3499   3509     1
   3500   3505     1
   3500   3503     1
   3500   3504     1
   3501   3516     1
   3502   3505     1
   3502   3503     1
   3502   3504     1
   3503   3506     1
   3503   3507     1
   3504   3506     1
   3504   3507     1
   3507   3516     1
   3508   3513     1
   3508   3511     1
   3508   3512     1
   3509   3513     1
   3509   3511     1
   3509   3512     1
   3510   3517     1
   3511   3514     1
   3511   3515     1
   3512   3514     1
   3512   3515     1
   3514   3517     1
   3518   3524     1
   3518   3525     1
   3519   3522     1
   3519   3521     1
   3519   3523     1
   3521   3526     1
   3521   3524     1
   3521   3525     1
   3522   3537     1
   3522   3538     1
   3522   3529     1
   3522   3531     1
   3523   3526     1
   3523   3524     1
   3523   3525     1
   3524   3527     1
   3524   3528     1
   3525   3527     1
   3525   3528     1
   3526   3540     1
   3526   3541     1
   3526   3532     1
   3526   3533     1
   3527   3529     1
   3527   3531     1
   3528   3537     1
   3528   3538     1
   3529   3534     1
   3529   3532     1
   3529   3533     1
   3530   3545     1
   3531   3534     1
   3531   3532     1
   3531   3533     1
   3532   3535     1
   3532   3536     1
   3533   3535     1
   3533   3536     1
   3536   3545     1
   3537   3542     1
   3537   3540     1
   3537   3541     1
   3538   3542     1
   3538   3540     1
   3538   3541     1
   3539   3546     1
   3540   3543     1
   3540   3544     1
   3541   3543     1
   3541   3544     1
   3543   3546     1
   3547   3553     1
   3547   3554     1
   3548   3551     1
   3548   3550     1
   3548   3552     1
   3550   3555     1
   3550   3553     1
   3550   3554     1
   3551   3566     1
   3551   3567     1
   3551   3558     1
   3551   3560     1
   3552   3555     1
   3552   3553     1
   3552   3554     1
   3553   3556     1
   3553   3557     1
   3554   3556     1
   3554   3557     1
   3555   3569     1
   3555   3570     1
   3555   3561     1
   3555   3562     1
   3556   3558     1
   3556   3560     1
   3557   3566     1
   3557   3567     1
   3558   3563     1
   3558   3561     1
   3558   3562     1
   3559   3574     1
   3560   3563     1
   3560   3561     1
   3560   3562     1
   3561   3564     1
   3561   3565     1
   3562   3564     1
   3562   3565     1
   3565   3574     1
   3566   3571     1
   3566   3569     1
   3566   3570     1
   3567   3571     1
   3567   3569     1
   3567   3570     1
   3568   3575     1
   3569   3572     1
   3569   3573     1
   3570   3572     1
   3570   3573     1
   3572   3575     1
   3576   3582     1
   3576   3583     1
   3577   3580     1
   3577   3579     1
   3577   3581     1
   3579   3584     1
   3579   3582     1
   3579   3583     1
   3580   3595     1
   3580   3596     1
   3580   3587     1
   3580   3589     1
   3581   3584     1
   3581   3582     1
   3581   3583     1
   3582   3585     1
   3582   3586     1
   3583   3585     1
   3583   3586     1
   3584   3598     1
   3584   3599     1
   3584   3590     1
   3584   3591     1
   3585   3587     1
   3585   3589     1
   3586   3595     1
   3586   3596     1
   3587   3592     1
   3587   3590     1
   3587   3591     1
   3588   3603     1
   3589   3592     1
   3589   3590     1
   3589   3591     1
   3590   3593     1
   3590   3594     1
   3591   3593     1
   3591   3594     1
   3594   3603     1
   3595   3600     1
   3595   3598     1
   3595   3599     1
   3596   3600     1
   3596   3598     1
   3596   3599     1
   3597   3604     1
   3598   3601     1
   3598   3602     1
   3599   3601     1
   3599   3602     1
   3601   3604     1
   3605   3611     1
   3605   3612     1
   3606   3609     1
   3606   3608     1
   3606   3610     1
   3608   3613     1
   3608   3611     1
   3608   3612     1
   3609   3624     1
   3609   3625     1
   3609   3616     1
   3609   3618     1
   3610   3613     1
   3610   3611     1
   3610   3612     1
   3611   3614     1
   3611   3615     1
   3612   3614     1
   3612   3615     1
   3613   3627     1
   3613   3628     1
   3613   3619     1
   3613   3620     1
   3614   3616     1
   3614   3618     1
   3615   3624     1
   3615   3625     1
   3616   3621     1
   3616   3619     1
   3616   3620     1
   3617   3632     1
   3618   3621     1
   3618   3619     1
   3618   3620     1
   3619   3622     1
   3619   3623     1
   3620   3622     1
   3620   3623     1
   3623   3632     1
   3624   3629     1
   3624   3627     1
   3624   3628     1
   3625   3629     1
   3625   3627     1
   3625   3628     1
   3626   3633     1
   3627   3630     1
   3627   3631     1
   3628   3630     1
   3628   3631     1
   3630   3633     1
   3634   3640     1
   3634   3641     1
   3635   3638     1
   3635   3637     1
   3635   3639     1
   3637   3642     1
   3637   3640     1
   3637   3641     1
   3638   3653     1
   3638   3654     1
   3638   3645     1
   3638   3647     1
   3639   3642     1
   3639   3640     1
   3639   3641     1
   3640   3643     1
   3640   3644     1
   3641   3643     1
   3641   3644     1
   3642   3656     1
   3642   3657     1
   3642   3648     1
   3642   3649     1
   3643   3645     1
   3643   3647     1
   3644   3653     1
   3644   3654     1
   3645   3650     1
   3645   3648     1
   3645   3649     1
   3646   3661     1
   3647   3650     1
   3647   3648     1
   3647   3649     1
   3648   3651     1
   3648   3652     1
   3649   3651     1
   3649   3652     1
   3652   3661     1
   3653   3658     1
   3653   3656     1
   3653   3657     1
   3654   3658     1
   3654   3656     1
   3654   3657     1
   3655   3662     1
   3656   3659     1
   3656   3660     1
   3657   3659     1
   3657   3660     1
   3659   3662     1
   3663   3669     1
   3663   3670     1
   3664   3667     1
   3664   3666     1
   3664   3668     1
   3666   3671     1
   3666   3669     1
   3666   3670     1
   3667   3682     1
   3667   3683     1
   3667   3674     1
   3667   3676     1
   3668   3671     1
   3668   3669     1
   3668   3670     1
   3669   3672     1
   3669   3673     1
   3670   3672     1
   3670   3673     1
   3671   3685     1
   3671   3686     1
   3671   3677     1
   3671   3678     1
   3672   3674     1
   3672   3676     1
   3673   3682     1
   3673   3683     1
   3674   3679     1
   3674   3677     1
   3674   3678     1
   3675   3690     1
   3676   3679     1
   3676   3677     1
   3676   3678     1
   3677   3680     1
   3677   3681     1
   3678   3680     1
   3678   3681     1
   3681   3690     1
   3682   3687     1
   3682   3685     1
   3682   3686     1
   3683   3687     1
   3683   3685     1
   3683   3686     1
   3684   3691     1
   3685   3688     1
   3685   3689     1
   3686   3688     1
   3686   3689     1
   3688   3691     1
   3692   3698     1
   3692   3699     1
   3693   3696     1
   3693   3695     1
   3693   3697     1
   3695   3700     1
   3695   3698     1
   3695   3699     1
   3696   3711     1
   3696   3712     1
   3696   3703     1
   3696   3705     1
   3697   3700     1
   3697   3698     1
   3697   3699     1
   3698   3701     1
   3698   3702     1
   3699   3701     1
   3699   3702     1
   3700   3714     1
   3700   3715     1
   3700   3706     1
   3700   3707     1
   3701   3703     1
   3701   3705     1
   3702   3711     1
   3702   3712     1
   3703   3708     1
   3703   3706     1
   3703   3707     1
   3704   3719     1
   3705   3708     1
   3705   3706     1
   3705   3707     1
   3706   3709     1
   3706   3710     1
   3707   3709     1
   3707   3710     1
   3710   3719     1
   3711   3716     1
   3711   3714     1
   3711   3715     1
   3712   3716     1
   3712   3714     1
   3712   3715     1
   3713   3720     1
   3714   3717     1
   3714   3718     1
   3715   3717     1
   3715   3718     1
   3717   3720     1
   3721   3727     1
   3721   3728     1
   3722   3725     1
   3722   3724     1
   3722   3726     1
   3724   3729     1
   3724   3727     1
   3724   3728     1
   3725   3740     1
   3725   3741     1
   3725   3732     1
   3725   3734     1
   3726   3729     1
   3726   3727     1
   3726   3728     1
   3727   3730     1
   3727   3731     1
   3728   3730     1
   3728   3731     1
   3729   3743     1
   3729   3744     1
   3729   3735     1
   3729   3736     1
   3730   3732     1
   3730   3734     1
   3731   3740     1
   3731   3741     1
   3732   3737     1
   3732   3735     1
   3732   3736     1
   3733   3748     1
   3734   3737     1
   3734   3735     1
   3734   3736     1
   3735   3738     1
   3735   3739     1
   3736   3738     1
   3736   3739     1
   3739   3748     1
   3740   3745     1
   3740   3743     1
   3740   3744     1
   3741   3745     1
   3741   3743     1
   3741   3744     1
   3742   3749     1
   3743   3746     1
   3743   3747     1
   3744   3746     1
   3744   3747     1
   3746   3749     1
   3750   3756     1
   3750   3757     1
   3751   3754     1
   3751   3753     1
   3751   3755     1
   3753   3758     1
   3753   3756     1
   3753   3757     1
   3754   3769     1
   3754   3770     1
   3754   3761     1
   3754   3763     1
   3755   3758     1
   3755   3756     1
   3755   3757     1
   3756   3759     1
   3756   3760     1
   3757   3759     1
   3757   3760     1
   3758   3772     1
   3758   3773     1
   3758   3764     1
   3758   3765     1
   3759   3761     1
   3759   3763     1
   3760   3769     1
   3760   3770     1
   3761   3766     1
   3761   3764     1
   3761   3765     1
   3762   3777     1
   3763   3766     1
   3763   3764     1
   3763   3765     1
   3764   3767     1
   3764   3768     1
   3765   3767     1
   3765   3768     1
   3768   3777     1
   3769   3774     1
   3769   3772     1
   3769   3773     1
   3770   3774     1
   3770   3772     1
   3770   3773     1
   3771   3778     1
   3772   3775     1
   3772   3776     1
   3773   3775     1
   3773   3776     1
   3775   3778     1
   3779   3785     1
   3779   3786     1
   3780   3783     1
   3780   3782     1
   3780   3784     1
   3782   3787     1
   3782   3785     1
   3782   3786     1
   3783   3798     1
   3783   3799     1
   3783   3790     1
   3783   3792     1
   3784   3787     1
   3784   3785     1
   3784   3786     1
   3785   3788     1
   3785   3789     1
   3786   3788     1
   3786   3789     1
   3787   3801     1
   3787   3802     1
   3787   3793     1
   3787   3794     1
   3788   3790     1
   3788   3792     1
   3789   3798     1
   3789   3799     1
   3790   3795     1
   3790   3793     1
   3790   3794     1
   3791   3806     1
   3792   3795     1
   3792   3793     1
   3792   3794     1
   3793   3796     1
   3793   3797     1
   3794   3796     1
   3794   3797     1
   3797   3806     1
   3798   3803     1
   3798   3801     1
   3798   3802     1
   3799   3803     1
   3799   3801     1
   3799   3802     1
   3800   3807     1
   3801   3804     1
   3801   3805     1
   3802   3804     1
   3802   3805     1
   3804   3807     1
   3808   3814     1
   3808   3815     1
   3809   3812     1
   3809   3811     1
   3809   3813     1
   3811   3816     1
   3811   3814     1
   3811   3815     1
   3812   3827     1
   3812   3828     1
   3812   3819     1
   3812   3821     1
   3813   3816     1
   3813   3814     1
   3813   3815     1
   3814   3817     1
   3814   3818     1
   3815   3817     1
   3815   3818     1
   3816   3830     1
   3816   3831     1
   3816   3822     1
   3816   3823     1
   3817   3819     1
   3817   3821     1
   3818   3827     1
   3818   3828     1
   3819   3824     1
   3819   3822     1
   3819   3823     1
   3820   3835     1
   3821   3824     1
   3821   3822     1
   3821   3823     1
   3822   3825     1
   3822   3826     1
   3823   3825     1
   3823   3826     1
   3826   3835     1
   3827   3832     1
   3827   3830     1
   3827   3831     1
   3828   3832     1
   3828   3830     1
   3828   3831     1
   3829   3836     1
   3830   3833     1
   3830   3834     1
   3831   3833     1
   3831   3834     1
   3833   3836     1
   3837   3843     1
   3837   3844     1
   3838   3841     1
   3838   3840     1
   3838   3842     1
   3840   3845     1
   3840   3843     1
   3840   3844     1
   3841   3856     1
   3841   3857     1
   3841   3848     1
   3841   3850     1
   3842   3845     1
   3842   3843     1
   3842   3844     1
   3843   3846     1
   3843   3847     1
   3844   3846     1
   3844   3847     1
   3845   3859     1
   3845   3860     1
   3845   3851     1
   3845   3852     1
   3846   3848     1
   3846   3850     1
   3847   3856     1
   3847   3857     1
   3848   3853     1
   3848   3851     1
   3848   3852     1
   3849   3864     1
   3850   3853     1
   3850   3851     1
   3850   3852     1
   3851   3854     1
   3851   3855     1
   3852   3854     1
   3852   3855     1
   3855   3864     1
   3856   3861     1
   3856   3859     1
   3856   3860     1
   3857   3861     1
   3857   3859     1
   3857   3860     1
   3858   3865     1
   3859   3862     1
   3859   3863     1
   3860   3862     1
   3860   3863     1
   3862   3865     1
   3866   3872     1
   3866   3873     1
   3867   3870     1
   3867   3869     1
   3867   3871     1
   3869   3874     1
   3869   3872     1
   3869   3873     1
   3870   3885     1
   3870   3886     1
   3870   3877     1
   3870   3879     1
   3871   3874     1
   3871   3872     1
   3871   3873     1
   3872   3875     1
   3872   3876     1
   3873   3875     1
   3873   3876     1
   3874   3888     1
   3874   3889     1
   3874   3880     1
   3874   3881     1
   3875   3877     1
   3875   3879     1
   3876   3885     1
   3876   3886     1
   3877   3882     1
   3877   3880     1
   3877   3881     1
   3878   3893     1
   3879   3882     1
   3879   3880     1
   3879   3881     1
   3880   3883     1
   3880   3884     1
   3881   3883     1
   3881   3884     1
   3884   3893     1
   3885   3890     1
   3885   3888     1
   3885   3889     1
   3886   3890     1
   3886   3888     1
   3886   3889     1
   3887   3894     1
   3888   3891     1
   3888   3892     1
   3889   3891     1
   3889   3892     1
   3891   3894     1
   3895   3901     1
   3895   3902     1
   3896   3899     1
   3896   3898     1
   3896   3900     1
   3898   3903     1
   3898   3901     1
   3898   3902     1
   3899   3914     1
   3899   3915     1
   3899   3906     1
   3899   3908     1
   3900   3903     1
   3900   3901     1
   3900   3902     1
   3901   3904     1
   3901   3905     1
   3902   3904     1
   3902   3905     1
   3903   3917     1
   3903   3918     1
   3903   3909     1
   3903   3910     1
   3904   3906     1
   3904   3908     1
   3905   3914     1
   3905   3915     1
   3906   3911     1
   3906   3909     1
   3906   3910     1
   3907   3922     1
   3908   3911     1
   3908   3909     1
   3908   3910     1
   3909   3912     1
   3909   3913     1
   3910   3912     1
   3910   3913     1
   3913   3922     1
   3914   3919     1
   3914   3917     1
   3914   3918     1
   3915   3919     1
   3915   3917     1
   3915   3918     1
   3916   3923     1
   3917   3920     1
   3917   3921     1
   3918   3920     1
   3918   3921     1
   3920   3923     1
   3924   3930     1
   3924   3931     1
   3925   3928     1
   3925   3927     1
   3925   3929     1
   3927   3932     1
   3927   3930     1
   3927   3931     1
   3928   3943     1
   3928   3944     1
   3928   3935     1
   3928   3937     1
   3929   3932     1
   3929   3930     1
   3929   3931     1
   3930   3933     1
   3930   3934     1
   3931   3933     1
   3931   3934     1
   3932   3946     1
   3932   3947     1
   3932   3938     1
   3932   3939     1
   3933   3935     1
   3933   3937     1
   3934   3943     1
   3934   3944     1
   3935   3940     1
   3935   3938     1
   3935   3939     1
   3936   3951     1
   3937   3940     1
   3937   3938     1
   3937   3939     1
   3938   3941     1
   3938   3942     1
   3939   3941     1
   3939   3942     1
   3942   3951     1
   3943   3948     1
   3943   3946     1
   3943   3947     1
   3944   3948     1
   3944   3946     1
   3944   3947     1
   3945   3952     1
   3946   3949     1
   3946   3950     1
   3947   3949     1
   3947   3950     1
   3949   3952     1
   3953   3959     1
   3953   3960     1
   3954   3957     1
   3954   3956     1
   3954   3958     1
   3956   3961     1
   3956   3959     1
   3956   3960     1
   3957   3972     1
   3957   3973     1
   3957   3964     1
   3957   3966     1
   3958   3961     1
   3958   3959     1
   3958   3960     1
   3959   3962     1
   3959   3963     1
   3960   3962     1
   3960   3963     1
   3961   3975     1
   3961   3976     1
   3961   3967     1
   3961   3968     1
   3962   3964     1
   3962   3966     1
   3963   3972     1
   3963   3973     1
   3964   3969     1
   3964   3967     1
   3964   3968     1
   3965   3980     1
   3966   3969     1
   3966   3967     1
   3966   3968     1
   3967   3970     1
   3967   3971     1
   3968   3970     1
   3968   3971     1
   3971   3980     1
   3972   3977     1
   3972   3975     1
   3972   3976     1
   3973   3977     1
   3973   3975     1
   3973   3976     1
   3974   3981     1
   3975   3978     1
   3975   3979     1
   3976   3978     1
   3976   3979     1
   3978   3981     1
   3982   3988     1
   3982   3989     1
   3983   3986     1
   3983   3985     1
   3983   3987     1
   3985   3990     1
   3985   3988     1
   3985   3989     1
   3986   4001     1
   3986   4002     1
   3986   3993     1
   3986   3995     1
   3987   3990     1
   3987   3988     1
   3987   3989     1
   3988   3991     1
   3988   3992     1
   3989   3991     1
   3989   3992     1
   3990   4004     1
   3990   4005     1
   3990   3996     1
   3990   3997     1
   3991   3993     1
   3991   3995     1
   3992   4001     1
   3992   4002     1
   3993   3998     1
   3993   3996     1
   3993   3997     1
   3994   4009     1
   3995   3998     1
   3995   3996     1
   3995   3997     1
   3996   3999     1
   3996   4000     1
   3997   3999     1
   3997   4000     1
   4000   4009     1
   4001   4006     1
   4001   4004     1
   4001   4005     1
   4002   4006     1
   4002   4004     1
   4002   4005     1
   4003   4010     1
   4004   4007     1
   4004   4008     1
   4005   4007     1
   4005   4008     1
   4007   4010     1
   4011   4017     1
   4011   4018     1
   4012   4015     1
   4012   4014     1
   4012   4016     1
   4014   4019     1
   4014   4017     1
   4014   4018     1
   4015   4030     1
   4015   4031     1
   4015   4022     1
   4015   4024     1
   4016   4019     1
   4016   4017     1
   4016   4018     1
   4017   4020     1
   4017   4021     1
   4018   4020     1
   4018   4021     1
   4019   4033     1
   4019   4034     1
   4019   4025     1
   4019   4026     1
   4020   4022     1
   4020   4024     1
   4021   4030     1
   4021   4031     1
   4022   4027     1
   4022   4025     1
   4022   4026     1
   4023   4038     1
   4024   4027     1
   4024   4025     1
   4024   4026     1
   4025   4028     1
   4025   4029     1
   4026   4028     1
   4026   4029     1
   4029   4038     1
   4030   4035     1
   4030   4033     1
   4030   4034     1
   4031   4035     1
   4031   4033     1
   4031   4034     1
   4032   4039     1
   4033   4036     1
   4033   4037     1
   4034   4036     1
   4034   4037     1
   4036   4039     1
   4040   4046     1
   4040   4047     1
   4041   4044     1
   4041   4043     1
   4041   4045     1
   4043   4048     1
   4043   4046     1
   4043   4047     1
   4044   4059     1
   4044   4060     1
   4044   4051     1
   4044   4053     1
   4045   4048     1
   4045   4046     1
   4045   4047     1
   4046   4049     1
   4046   4050     1
   4047   4049     1
   4047   4050     1
   4048   4062     1
   4048   4063     1
   4048   4054     1
   4048   4055     1
   4049   4051     1
   4049   4053     1
   4050   4059     1
   4050   4060     1
   4051   4056     1
   4051   4054     1
   4051   4055     1
   4052   4067     1
   4053   4056     1
   4053   4054     1
   4053   4055     1
   4054   4057     1
   4054   4058     1
   4055   4057     1
   4055   4058     1
   4058   4067     1
   4059   4064     1
   4059   4062     1
   4059   4063     1
   4060   4064     1
   4060   4062     1
   4060   4063     1
   4061   4068     1
   4062   4065     1
   4062   4066     1
   4063   4065     1
   4063   4066     1
   4065   4068     1
   4069   4075     1
   4069   4076     1
   4070   4073     1
   4070   4072     1
   4070   4074     1
   4072   4077     1
   4072   4075     1
   4072   4076     1
   4073   4088     1
   4073   4089     1
   4073   4080     1
   4073   4082     1
   4074   4077     1
   4074   4075     1
   4074   4076     1
   4075   4078     1
   4075   4079     1
   4076   4078     1
   4076   4079     1
   4077   4091     1
   4077   4092     1
   4077   4083     1
   4077   4084     1
   4078   4080     1
   4078   4082     1
   4079   4088     1
   4079   4089     1
   4080   4085     1
   4080   4083     1
   4080   4084     1
   4081   4096     1
   4082   4085     1
   4082   4083     1
   4082   4084     1
   4083   4086     1
   4083   4087     1
   4084   4086     1
   4084   4087     1
   4087   4096     1
   4088   4093     1
   4088   4091     1
   4088   4092     1
   4089   4093     1
   4089   4091     1
   4089   4092     1
   4090   4097     1
   4091   4094     1
   4091   4095     1
   4092   4094     1
   4092   4095     1
   4094   4097     1
   4098   4104     1
   4098   4105     1
   4099   4102     1
   4099   4101     1
   4099   4103     1
   4101   4106     1
   4101   4104     1
   4101   4105     1
   4102   4117     1
   4102   4118     1
   4102   4109     1
   4102   4111     1
   4103   4106     1
   4103   4104     1
   4103   4105     1
   4104   4107     1
   4104   4108     1
   4105   4107     1
   4105   4108     1
   4106   4120     1
   4106   4121     1
   4106   4112     1
   4106   4113     1
   4107   4109     1
   4107   4111     1
   4108   4117     1
   4108   4118     1
   4109   4114     1
   4109   4112     1
   4109   4113     1
   4110   4125     1
   4111   4114     1
   4111   4112     1
   4111   4113     1
   4112   4115     1
   4112   4116     1
   4113   4115     1
   4113   4116     1
   4116   4125     1
   4117   4122     1
   4117   4120     1
   4117   4121     1
   4118   4122     1
   4118   4120     1
   4118   4121     1
   4119   4126     1
   4120   4123     1
   4120   4124     1
   4121   4123     1
   4121   4124     1
   4123   4126     1
   4127   4133     1
   4127   4134     1
   4128   4131     1
   4128   4130     1
   4128   4132     1
   4130   4135     1
   4130   4133     1
   4130   4134     1
   4131   4146     1
   4131   4147     1
   4131   4138     1
   4131   4140     1
   4132   4135     1
   4132   4133     1
   4132   4134     1
   4133   4136     1
   4133   4137     1
   4134   4136     1
   4134   4137     1
   4135   4149     1
   4135   4150     1
   4135   4141     1
   4135   4142     1
   4136   4138     1
   4136   4140     1
   4137   4146     1
   4137   4147     1
   4138   4143     1
   4138   4141     1
   4138   4142     1
   4139   4154     1
   4140   4143     1
   4140   4141     1
   4140   4142     1
   4141   4144     1
   4141   4145     1
   4142   4144     1
   4142   4145     1
   4145   4154     1
   4146   4151     1
   4146   4149     1
   4146   4150     1
   4147   4151     1
   4147   4149     1
   4147   4150     1
   4148   4155     1
   4149   4152     1
   4149   4153     1
   4150   4152     1
   4150   4153     1
   4152   4155     1
   4156   4162     1
   4156   4163     1
   4157   4160     1
   4157   4159     1
   4157   4161     1
   4159   4164     1
   4159   4162     1
   4159   4163     1
   4160   4175     1
   4160   4176     1
   4160   4167     1
   4160   4169     1
   4161   4164     1
   4161   4162     1
   4161   4163     1
   4162   4165     1
   4162   4166     1
   4163   4165     1
   4163   4166     1
   4164   4178     1
   4164   4179     1
   4164   4170     1
   4164   4171     1
   4165   4167     1
   4165   4169     1
   4166   4175     1
   4166   4176     1
   4167   4172     1
   4167   4170     1
   4167   4171     1
   4168   4183     1
   4169   4172     1
   4169   4170     1
   4169   4171     1
   4170   4173     1
   4170   4174     1
   4171   4173     1
   4171   4174     1
   4174   4183     1
   4175   4180     1
   4175   4178     1
   4175   4179     1
   4176   4180     1
   4176   4178     1
   4176   4179     1
   4177   4184     1
   4178   4181     1
   4178   4182     1
   4179   4181     1
   4179   4182     1
   4181   4184     1
   4185   4191     1
   4185   4192     1
   4186   4189     1
   4186   4188     1
   4186   4190     1
   4188   4193     1
   4188   4191     1
   4188   4192     1
   4189   4204     1
   4189   4205     1
   4189   4196     1
   4189   4198     1
   4190   4193     1
   4190   4191     1
   4190   4192     1
   4191   4194     1
   4191   4195     1
   4192   4194     1
   4192   4195     1
   4193   4207     1
   4193   4208     1
   4193   4199     1
   4193   4200     1
   4194   4196     1
   4194   4198     1
   4195   4204     1
   4195   4205     1
   4196   4201     1
   4196   4199     1
   4196   4200     1
   4197   4212     1
   4198   4201     1
   4198   4199     1
   4198   4200     1
   4199   4202     1
   4199   4203     1
   4200   4202     1
   4200   4203     1
   4203   4212     1
   4204   4209     1
   4204   4207     1
   4204   4208     1
   4205   4209     1
   4205   4207     1
   4205   4208     1
   4206   4213     1
   4207   4210     1
   4207   4211     1
   4208   4210     1
   4208   4211     1
   4210   4213     1
   4214   4220     1
   4214   4221     1
   4215   4218     1
   4215   4217     1
   4215   4219     1
   4217   4222     1
   4217   4220     1
   4217   4221     1
   4218   4233     1
   4218   4234     1
   4218   4225     1
   4218   4227     1
   4219   4222     1
   4219   4220     1
   4219   4221     1
   4220   4223     1
   4220   4224     1
   4221   4223     1
   4221   4224     1
   4222   4236     1
   4222   4237     1
   4222   4228     1
   4222   4229     1
   4223   4225     1
   4223   4227     1
   4224   4233     1
   4224   4234     1
   4225   4230     1
   4225   4228     1
   4225   4229     1
   4226   4241     1
   4227   4230     1
   4227   4228     1
   4227   4229     1
   4228   4231     1
   4228   4232     1
   4229   4231     1
   4229   4232     1
   4232   4241     1
   4233   4238     1
   4233   4236     1
   4233   4237     1
   4234   4238     1
   4234   4236     1
   4234   4237     1
   4235   4242     1
   4236   4239     1
   4236   4240     1
   4237   4239     1
   4237   4240     1
   4239   4242     1
   4243   4249     1
   4243   4250     1
   4244   4247     1
   4244   4246     1
   4244   4248     1
   4246   4251     1
   4246   4249     1
   4246   4250     1
   4247   4262     1
   4247   4263     1
   4247   4254     1
   4247   4256     1
   4248   4251     1
   4248   4249     1
   4248   4250     1
   4249   4252     1
   4249   4253     1
   4250   4252     1
   4250   4253     1
   4251   4265     1
   4251   4266     1
   4251   4257     1
   4251   4258     1
   4252   4254     1
   4252   4256     1
   4253   4262     1
   4253   4263     1
   4254   4259     1
   4254   4257     1
   4254   4258     1
   4255   4270     1
   4256   4259     1
   4256   4257     1
   4256   4258     1
   4257   4260     1
   4257   4261     1
   4258   4260     1
   4258   4261     1
   4261   4270     1
   4262   4267     1
   4262   4265     1
   4262   4266     1
   4263   4267     1
   4263   4265     1
   4263   4266     1
   4264   4271     1
   4265   4268     1
   4265   4269     1
   4266   4268     1
   4266   4269     1
   4268   4271     1
   4272   4278     1
   4272   4279     1
   4273   4276     1
   4273   4275     1
   4273   4277     1
   4275   4280     1
   4275   4278     1
   4275   4279     1
   4276   4291     1
   4276   4292     1
   4276   4283     1
   4276   4285     1
   4277   4280     1
   4277   4278     1
   4277   4279     1
   4278   4281     1
   4278   4282     1
   4279   4281     1
   4279   4282     1
   4280   4294     1
   4280   4295     1
   4280   4286     1
   4280   4287     1
   4281   4283     1
   4281   4285     1
   4282   4291     1
   4282   4292     1
   4283   4288     1
   4283   4286     1
   4283   4287     1
   4284   4299     1
   4285   4288     1
   4285   4286     1
   4285   4287     1
   4286   4289     1
   4286   4290     1
   4287   4289     1
   4287   4290     1
   4290   4299     1
   4291   4296     1
   4291   4294     1
   4291   4295     1
   4292   4296     1
   4292   4294     1
   4292   4295     1
   4293   4300     1
   4294   4297     1
   4294   4298     1
   4295   4297     1
   4295   4298     1
   4297   4300     1
   4301   4307     1
   4301   4308     1
   4302   4305     1
   4302   4304     1
   4302   4306     1
   4304   4309     1
   4304   4307     1
   4304   4308     1
   4305   4320     1
   4305   4321     1
   4305   4312     1
   4305   4314     1
   4306   4309     1
   4306   4307     1
   4306   4308     1
   4307   4310     1
   4307   4311     1
   4308   4310     1
   4308   4311     1
   4309   4323     1
   4309   4324     1
   4309   4315     1
   4309   4316     1
   4310   4312     1
   4310   4314     1
   4311   4320     1
   4311   4321     1
   4312   4317     1
   4312   4315     1
   4312   4316     1
   4313   4328     1
   4314   4317     1
   4314   4315     1
   4314   4316     1
   4315   4318     1
   4315   4319     1
   4316   4318     1
   4316   4319     1
   4319   4328     1
   4320   4325     1
   4320   4323     1
   4320   4324     1
   4321   4325     1
   4321   4323     1
   4321   4324     1
   4322   4329     1
   4323   4326     1
   4323   4327     1
   4324   4326     1
   4324   4327     1
   4326   4329     1
   4330   4336     1
   4330   4337     1
   4331   4334     1
   4331   4333     1
   4331   4335     1
   4333   4338     1
   4333   4336     1
   4333   4337     1
   4334   4349     1
   4334   4350     1
   4334   4341     1
   4334   4343     1
   4335   4338     1
   4335   4336     1
   4335   4337     1
   4336   4339     1
   4336   4340     1
   4337   4339     1
   4337   4340     1
   4338   4352     1
   4338   4353     1
   4338   4344     1
   4338   4345     1
   4339   4341     1
   4339   4343     1
   4340   4349     1
   4340   4350     1
   4341   4346     1
   4341   4344     1
   4341   4345     1
   4342   4357     1
   4343   4346     1
   4343   4344     1
   4343   4345     1
   4344   4347     1
   4344   4348     1
   4345   4347     1
   4345   4348     1
   4348   4357     1
   4349   4354     1
   4349   4352     1
   4349   4353     1
   4350   4354     1
   4350   4352     1
   4350   4353     1
   4351   4358     1
   4352   4355     1
   4352   4356     1
   4353   4355     1
   4353   4356     1
   4355   4358     1
   4359   4365     1
   4359   4366     1
   4360   4363     1
   4360   4362     1
   4360   4364     1
   4362   4367     1
   4362   4365     1
   4362   4366     1
   4363   4378     1
   4363   4379     1
   4363   4370     1
   4363   4372     1
   4364   4367     1
   4364   4365     1
   4364   4366     1
   4365   4368     1
   4365   4369     1
   4366   4368     1
   4366   4369     1
   4367   4381     1
   4367   4382     1
   4367   4373     1
   4367   4374     1
   4368   4370     1
   4368   4372     1
   4369   4378     1
   4369   4379     1
   4370   4375     1
   4370   4373     1
   4370   4374     1
   4371   4386     1
   4372   4375     1
   4372   4373     1
   4372   4374     1
   4373   4376     1
   4373   4377     1
   4374   4376     1
   4374   4377     1
   4377   4386     1
   4378   4383     1
   4378   4381     1
   4378   4382     1
   4379   4383     1
   4379   4381     1
   4379   4382     1
   4380   4387     1
   4381   4384     1
   4381   4385     1
   4382   4384     1
   4382   4385     1
   4384   4387     1
   4388   4394     1
   4388   4395     1
   4389   4392     1
   4389   4391     1
   4389   4393     1
   4391   4396     1
   4391   4394     1
   4391   4395     1
   4392   4407     1
   4392   4408     1
   4392   4399     1
   4392   4401     1
   4393   4396     1
   4393   4394     1
   4393   4395     1
   4394   4397     1
   4394   4398     1
   4395   4397     1
   4395   4398     1
   4396   4410     1
   4396   4411     1
   4396   4402     1
   4396   4403     1
   4397   4399     1
   4397   4401     1
   4398   4407     1
   4398   4408     1
   4399   4404     1
   4399   4402     1
   4399   4403     1
   4400   4415     1
   4401   4404     1
   4401   4402     1
   4401   4403     1
   4402   4405     1
   4402   4406     1
   4403   4405     1
   4403   4406     1
   4406   4415     1
   4407   4412     1
   4407   4410     1
   4407   4411     1
   4408   4412     1
   4408   4410     1
   4408   4411     1
   4409   4416     1
   4410   4413     1
   4410   4414     1
   4411   4413     1
   4411   4414     1
   4413   4416     1
   4417   4423     1
   4417   4424     1
   4418   4421     1
   4418   4420     1
   4418   4422     1
   4420   4425     1
   4420   4423     1
   4420   4424     1
   4421   4436     1
   4421   4437     1
   4421   4428     1
   4421   4430     1
   4422   4425     1
   4422   4423     1
   4422   4424     1
   4423   4426     1
   4423   4427     1
   4424   4426     1
   4424   4427     1
   4425   4439     1
   4425   4440     1
   4425   4431     1
   4425   4432     1
   4426   4428     1
   4426   4430     1
   4427   4436     1
   4427   4437     1
   4428   4433     1
   4428   4431     1
   4428   4432     1
   4429   4444     1
   4430   4433     1
   4430   4431     1
   4430   4432     1
   4431   4434     1
   4431   4435     1
   4432   4434     1
   4432   4435     1
   4435   4444     1
   4436   4441     1
   4436   4439     1
   4436   4440     1
   4437   4441     1
   4437   4439     1
   4437   4440     1
   4438   4445     1
   4439   4442     1
   4439   4443     1
   4440   4442     1
   4440   4443     1
   4442   4445     1
   4446   4452     1
   4446   4453     1
   4447   4450     1
   4447   4449     1
   4447   4451     1
   4449   4454     1
   4449   4452     1
   4449   4453     1
   4450   4465     1
   4450   4466     1
   4450   4457     1
   4450   4459     1
   4451   4454     1
   4451   4452     1
   4451   4453     1
   4452   4455     1
   4452   4456     1
   4453   4455     1
   4453   4456     1
   4454   4468     1
   4454   4469     1
   4454   4460     1
   4454   4461     1
   4455   4457     1
   4455   4459     1
   4456   4465     1
   4456   4466     1
   4457   4462     1
   4457   4460     1
   4457   4461     1
   4458   4473     1
   4459   4462     1
   4459   4460     1
   4459   4461     1
   4460   4463     1
   4460   4464     1
   4461   4463     1
   4461   4464     1
   4464   4473     1
   4465   4470     1
   4465   4468     1
   4465   4469     1
   4466   4470     1
   4466   4468     1
   4466   4469     1
   4467   4474     1
   4468   4471     1
   4468   4472     1
   4469   4471     1
   4469   4472     1
   4471   4474     1
   4475   4481     1
   4475   4482     1
   4476   4479     1
   4476   4478     1
   4476   4480     1
   4478   4483     1
   4478   4481     1
   4478   4482     1
   4479   4494     1
   4479   4495     1
   4479   4486     1
   4479   4488     1
   4480   4483     1
   4480   4481     1
   4480   4482     1
   4481   4484     1
   4481   4485     1
   4482   4484     1
   4482   4485     1
   4483   4497     1
   4483   4498     1
   4483   4489     1
   4483   4490     1
   4484   4486     1
   4484   4488     1
   4485   4494     1
   4485   4495     1
   4486   4491     1
   4486   4489     1
   4486   4490     1
   4487   4502     1
   4488   4491     1
   4488   4489     1
   4488   4490     1
   4489   4492     1
   4489   4493     1
   4490   4492     1
   4490   4493     1
   4493   4502     1
   4494   4499     1
   4494   4497     1
   4494   4498     1
   4495   4499     1
   4495   4497     1
   4495   4498     1
   4496   4503     1
   4497   4500     1
   4497   4501     1
   4498   4500     1
   4498   4501     1
   4500   4503     1
   4504   4510     1
   4504   4511     1
   4505   4508     1
   4505   4507     1
   4505   4509     1
   4507   4512     1
   4507   4510     1
   4507   4511     1
   4508   4523     1
   4508   4524     1
   4508   4515     1
   4508   4517     1
   4509   4512     1
   4509   4510     1
   4509   4511     1
   4510   4513     1
   4510   4514     1
   4511   4513     1
   4511   4514     1
   4512   4526     1
   4512   4527     1
   4512   4518     1
   4512   4519     1
   4513   4515     1
   4513   4517     1
   4514   4523     1
   4514   4524     1
   4515   4520     1
   4515   4518     1
   4515   4519     1
   4516   4531     1
   4517   4520     1
   4517   4518     1
   4517   4519     1
   4518   4521     1
   4518   4522     1
   4519   4521     1
   4519   4522     1
   4522   4531     1
   4523   4528     1
   4523   4526     1
   4523   4527     1
   4524   4528     1
   4524   4526     1
   4524   4527     1
   4525   4532     1
   4526   4529     1
   4526   4530     1
   4527   4529     1
   4527   4530     1
   4529   4532     1
   4533   4539     1
   4533   4540     1
   4534   4537     1
   4534   4536     1
   4534   4538     1
   4536   4541     1
   4536   4539     1
   4536   4540     1
   4537   4552     1
   4537   4553     1
   4537   4544     1
   4537   4546     1
   4538   4541     1
   4538   4539     1
   4538   4540     1
   4539   4542     1
   4539   4543     1
   4540   4542     1
   4540   4543     1
   4541   4555     1
   4541   4556     1
   4541   4547     1
   4541   4548     1
   4542   4544     1
   4542   4546     1
   4543   4552     1
   4543   4553     1
   4544   4549     1
   4544   4547     1
   4544   4548     1
   4545   4560     1
   4546   4549     1
   4546   4547     1
   4546   4548     1
   4547   4550     1
   4547   4551     1
   4548   4550     1
   4548   4551     1
   4551   4560     1
   4552   4557     1
   4552   4555     1
   4552   4556     1
   4553   4557     1
   4553   4555     1
   4553   4556     1
   4554   4561     1
   4555   4558     1
   4555   4559     1
   4556   4558     1
   4556   4559     1
   4558   4561     1
   4562   4568     1
   4562   4569     1
   4563   4566     1
   4563   4565     1
   4563   4567     1
   4565   4570     1
   4565   4568     1
   4565   4569     1
   4566   4581     1
   4566   4582     1
   4566   4573     1
   4566   4575     1
   4567   4570     1
   4567   4568     1
   4567   4569     1
   4568   4571     1
   4568   4572     1
   4569   4571     1
   4569   4572     1
   4570   4584     1
   4570   4585     1
   4570   4576     1
   4570   4577     1
   4571   4573     1
   4571   4575     1
   4572   4581     1
   4572   4582     1
   4573   4578     1
   4573   4576     1
   4573   4577     1
   4574   4589     1
   4575   4578     1
   4575   4576     1
   4575   4577     1
   4576   4579     1
   4576   4580     1
   4577   4579     1
   4577   4580     1
   4580   4589     1
   4581   4586     1
   4581   4584     1
   4581   4585     1
   4582   4586     1
   4582   4584     1
   4582   4585     1
   4583   4590     1
   4584   4587     1
   4584   4588     1
   4585   4587     1
   4585   4588     1
   4587   4590     1
   4591   4597     1
   4591   4598     1
   4592   4595     1
   4592   4594     1
   4592   4596     1
   4594   4599     1
   4594   4597     1
   4594   4598     1
   4595   4610     1
   4595   4611     1
   4595   4602     1
   4595   4604     1
   4596   4599     1
   4596   4597     1
   4596   4598     1
   4597   4600     1
   4597   4601     1
   4598   4600     1
   4598   4601     1
   4599   4613     1
   4599   4614     1
   4599   4605     1
   4599   4606     1
   4600   4602     1
   4600   4604     1
   4601   4610     1
   4601   4611     1
   4602   4607     1
   4602   4605     1
   4602   4606     1
   4603   4618     1
   4604   4607     1
   4604   4605     1
   4604   4606     1
   4605   4608     1
   4605   4609     1
   4606   4608     1
   4606   4609     1
   4609   4618     1
   4610   4615     1
   4610   4613     1
   4610   4614     1
   4611   4615     1
   4611   4613     1
   4611   4614     1
   4612   4619     1
   4613   4616     1
   4613   4617     1
   4614   4616     1
   4614   4617     1
   4616   4619     1
   4620   4626     1
   4620   4627     1
   4621   4624     1
   4621   4623     1
   4621   4625     1
   4623   4628     1
   4623   4626     1
   4623   4627     1
   4624   4639     1
   4624   4640     1
   4624   4631     1
   4624   4633     1
   4625   4628     1
   4625   4626     1
   4625   4627     1
   4626   4629     1
   4626   4630     1
   4627   4629     1
   4627   4630     1
   4628   4642     1
   4628   4643     1
   4628   4634     1
   4628   4635     1
   4629   4631     1
   4629   4633     1
   4630   4639     1
   4630   4640     1
   4631   4636     1
   4631   4634     1
   4631   4635     1
   4632   4647     1
   4633   4636     1
   4633   4634     1
   4633   4635     1
   4634   4637     1
   4634   4638     1
   4635   4637     1
   4635   4638     1
   4638   4647     1
   4639   4644     1
   4639   4642     1
   4639   4643     1
   4640   4644     1
   4640   4642     1
   4640   4643     1
   4641   4648     1
   4642   4645     1
   4642   4646     1
   4643   4645     1
   4643   4646     1
   4645   4648     1
   4649   4655     1
   4649   4656     1
   4650   4653     1
   4650   4652     1
   4650   4654     1
   4652   4657     1
   4652   4655     1
   4652   4656     1
   4653   4668     1
   4653   4669     1
   4653   4660     1
   4653   4662     1
   4654   4657     1
   4654   4655     1
   4654   4656     1
   4655   4658     1
   4655   4659     1
   4656   4658     1
   4656   4659     1
   4657   4671     1
   4657   4672     1
   4657   4663     1
   4657   4664     1
   4658   4660     1
   4658   4662     1
   4659   4668     1
   4659   4669     1
   4660   4665     1
   4660   4663     1
   4660   4664     1
   4661   4676     1
   4662   4665     1
   4662   4663     1
   4662   4664     1
   4663   4666     1
   4663   4667     1
   4664   4666     1
   4664   4667     1
   4667   4676     1
   4668   4673     1
   4668   4671     1
   4668   4672     1
   4669   4673     1
   4669   4671     1
   4669   4672     1
   4670   4677     1
   4671   4674     1
   4671   4675     1
   4672   4674     1
   4672   4675     1
   4674   4677     1
   4678   4684     1
   4678   4685     1
   4679   4682     1
   4679   4681     1
   4679   4683     1
   4681   4686     1
   4681   4684     1
   4681   4685     1
   4682   4697     1
   4682   4698     1
   4682   4689     1
   4682   4691     1
   4683   4686     1
   4683   4684     1
   4683   4685     1
   4684   4687     1
   4684   4688     1
   4685   4687     1
   4685   4688     1
   4686   4700     1
   4686   4701     1
   4686   4692     1
   4686   4693     1
   4687   4689     1
   4687   4691     1
   4688   4697     1
   4688   4698     1
   4689   4694     1
   4689   4692     1
   4689   4693     1
   4690   4705     1
   4691   4694     1
   4691   4692     1
   4691   4693     1
   4692   4695     1
   4692   4696     1
   4693   4695     1
   4693   4696     1
   4696   4705     1
   4697   4702     1
   4697   4700     1
   4697   4701     1
   4698   4702     1
   4698   4700     1
   4698   4701     1
   4699   4706     1
   4700   4703     1
   4700   4704     1
   4701   4703     1
   4701   4704     1
   4703   4706     1
   4707   4713     1
   4707   4714     1
   4708   4711     1
   4708   4710     1
   4708   4712     1
   4710   4715     1
   4710   4713     1
   4710   4714     1
   4711   4726     1
   4711   4727     1
   4711   4718     1
   4711   4720     1
   4712   4715     1
   4712   4713     1
   4712   4714     1
   4713   4716     1
   4713   4717     1
   4714   4716     1
   4714   4717     1
   4715   4729     1
   4715   4730     1
   4715   4721     1
   4715   4722     1
   4716   4718     1
   4716   4720     1
   4717   4726     1
   4717   4727     1
   4718   4723     1
   4718   4721     1
   4718   4722     1
   4719   4734     1
   4720   4723     1
   4720   4721     1
   4720   4722     1
   4721   4724     1
   4721   4725     1
   4722   4724     1
   4722   4725     1
   4725   4734     1
   4726   4731     1
   4726   4729     1
   4726   4730     1
   4727   4731     1
   4727   4729     1
   4727   4730     1
   4728   4735     1
   4729   4732     1
   4729   4733     1
   4730   4732     1
   4730   4733     1
   4732   4735     1
   4736   4742     1
   4736   4743     1
   4737   4740     1
   4737   4739     1
   4737   4741     1
   4739   4744     1
   4739   4742     1
   4739   4743     1
   4740   4755     1
   4740   4756     1
   4740   4747     1
   4740   4749     1
   4741   4744     1
   4741   4742     1
   4741   4743     1
   4742   4745     1
   4742   4746     1
   4743   4745     1
   4743   4746     1
   4744   4758     1
   4744   4759     1
   4744   4750     1
   4744   4751     1
   4745   4747     1
   4745   4749     1
   4746   4755     1
   4746   4756     1
   4747   4752     1
   4747   4750     1
   4747   4751     1
   4748   4763     1
   4749   4752     1
   4749   4750     1
   4749   4751     1
   4750   4753     1
   4750   4754     1
   4751   4753     1
   4751   4754     1
   4754   4763     1
   4755   4760     1
   4755   4758     1
   4755   4759     1
   4756   4760     1
   4756   4758     1
   4756   4759     1
   4757   4764     1
   4758   4761     1
   4758   4762     1
   4759   4761     1
   4759   4762     1
   4761   4764     1
   4765   4771     1
   4765   4772     1
   4766   4769     1
   4766   4768     1
   4766   4770     1
   4768   4773     1
   4768   4771     1
   4768   4772     1
   4769   4784     1
   4769   4785     1
   4769   4776     1
   4769   4778     1
   4770   4773     1
   4770   4771     1
   4770   4772     1
   4771   4774     1
   4771   4775     1
   4772   4774     1
   4772   4775     1
   4773   4787     1
   4773   4788     1
   4773   4779     1
   4773   4780     1
   4774   4776     1
   4774   4778     1
   4775   4784     1
   4775   4785     1
   4776   4781     1
   4776   4779     1
   4776   4780     1
   4777   4792     1
   4778   4781     1
   4778   4779     1
   4778   4780     1
   4779   4782     1
   4779   4783     1
   4780   4782     1
   4780   4783     1
   4783   4792     1
   4784   4789     1
   4784   4787     1
   4784   4788     1
   4785   4789     1
   4785   4787     1
   4785   4788     1
   4786   4793     1
   4787   4790     1
   4787   4791     1
   4788   4790     1
   4788   4791     1
   4790   4793     1
   4794   4800     1
   4794   4801     1
   4795   4798     1
   4795   4797     1
   4795   4799     1
   4797   4802     1
   4797   4800     1
   4797   4801     1
   4798   4813     1
   4798   4814     1
   4798   4805     1
   4798   4807     1
   4799   4802     1
   4799   4800     1
   4799   4801     1
   4800   4803     1
   4800   4804     1
   4801   4803     1
   4801   4804     1
   4802   4816     1
   4802   4817     1
   4802   4808     1
   4802   4809     1
   4803   4805     1
   4803   4807     1
   4804   4813     1
   4804   4814     1
   4805   4810     1
   4805   4808     1
   4805   4809     1
   4806   4821     1
   4807   4810     1
   4807   4808     1
   4807   4809     1
   4808   4811     1
   4808   4812     1
   4809   4811     1
   4809   4812     1
   4812   4821     1
   4813   4818     1
   4813   4816     1
   4813   4817     1
   4814   4818     1
   4814   4816     1
   4814   4817     1
   4815   4822     1
   4816   4819     1
   4816   4820     1
   4817   4819     1
   4817   4820     1
   4819   4822     1
   4823   4829     1
   4823   4830     1
   4824   4827     1
   4824   4826     1
   4824   4828     1
   4826   4831     1
   4826   4829     1
   4826   4830     1
   4827   4842     1
   4827   4843     1
   4827   4834     1
   4827   4836     1
   4828   4831     1
   4828   4829     1
   4828   4830     1
   4829   4832     1
   4829   4833     1
   4830   4832     1
   4830   4833     1
   4831   4845     1
   4831   4846     1
   4831   4837     1
   4831   4838     1
   4832   4834     1
   4832   4836     1
   4833   4842     1
   4833   4843     1
   4834   4839     1
   4834   4837     1
   4834   4838     1
   4835   4850     1
   4836   4839     1
   4836   4837     1
   4836   4838     1
   4837   4840     1
   4837   4841     1
   4838   4840     1
   4838   4841     1
   4841   4850     1
   4842   4847     1
   4842   4845     1
   4842   4846     1
   4843   4847     1
   4843   4845     1
   4843   4846     1
   4844   4851     1
   4845   4848     1
   4845   4849     1
   4846   4848     1
   4846   4849     1
   4848   4851     1
   4852   4858     1
   4852   4859     1
   4853   4856     1
   4853   4855     1
   4853   4857     1
   4855   4860     1
   4855   4858     1
   4855   4859     1
   4856   4871     1
   4856   4872     1
   4856   4863     1
   4856   4865     1
   4857   4860     1
   4857   4858     1
   4857   4859     1
   4858   4861     1
   4858   4862     1
   4859   4861     1
   4859   4862     1
   4860   4874     1
   4860   4875     1
   4860   4866     1
   4860   4867     1
   4861   4863     1
   4861   4865     1
   4862   4871     1
   4862   4872     1
   4863   4868     1
   4863   4866     1
   4863   4867     1
   4864   4879     1
   4865   4868     1
   4865   4866     1
   4865   4867     1
   4866   4869     1
   4866   4870     1
   4867   4869     1
   4867   4870     1
   4870   4879     1
   4871   4876     1
   4871   4874     1
   4871   4875     1
   4872   4876     1
   4872   4874     1
   4872   4875     1
   4873   4880     1
   4874   4877     1
   4874   4878     1
   4875   4877     1
   4875   4878     1
   4877   4880     1
   4881   4887     1
   4881   4888     1
   4882   4885     1
   4882   4884     1
   4882   4886     1
   4884   4889     1
   4884   4887     1
   4884   4888     1
   4885   4900     1
   4885   4901     1
   4885   4892     1
   4885   4894     1
   4886   4889     1
   4886   4887     1
   4886   4888     1
   4887   4890     1
   4887   4891     1
   4888   4890     1
   4888   4891     1
   4889   4903     1
   4889   4904     1
   4889   4895     1
   4889   4896     1
   4890   4892     1
   4890   4894     1
   4891   4900     1
   4891   4901     1
   4892   4897     1
   4892   4895     1
   4892   4896     1
   4893   4908     1
   4894   4897     1
   4894   4895     1
   4894   4896     1
   4895   4898     1
   4895   4899     1
   4896   4898     1
   4896   4899     1
   4899   4908     1
   4900   4905     1
   4900   4903     1
   4900   4904     1
   4901   4905     1
   4901   4903     1
   4901   4904     1
   4902   4909     1
   4903   4906     1
   4903   4907     1
   4904   4906     1
   4904   4907     1
   4906   4909     1
   4910   4916     1
   4910   4917     1
   4911   4914     1
   4911   4913     1
   4911   4915     1
   4913   4918     1
   4913   4916     1
   4913   4917     1
   4914   4929     1
   4914   4930     1
   4914   4921     1
   4914   4923     1
   4915   4918     1
   4915   4916     1
   4915   4917     1
   4916   4919     1
   4916   4920     1
   4917   4919     1
   4917   4920     1
   4918   4932     1
   4918   4933     1
   4918   4924     1
   4918   4925     1
   4919   4921     1
   4919   4923     1
   4920   4929     1
   4920   4930     1
   4921   4926     1
   4921   4924     1
   4921   4925     1
   4922   4937     1
   4923   4926     1
   4923   4924     1
   4923   4925     1
   4924   4927     1
   4924   4928     1
   4925   4927     1
   4925   4928     1
   4928   4937     1
   4929   4934     1
   4929   4932     1
   4929   4933     1
   4930   4934     1
   4930   4932     1
   4930   4933     1
   4931   4938     1
   4932   4935     1
   4932   4936     1
   4933   4935     1
   4933   4936     1
   4935   4938     1
   4939   4945     1
   4939   4946     1
   4940   4943     1
   4940   4942     1
   4940   4944     1
   4942   4947     1
   4942   4945     1
   4942   4946     1
   4943   4958     1
   4943   4959     1
   4943   4950     1
   4943   4952     1
   4944   4947     1
   4944   4945     1
   4944   4946     1
   4945   4948     1
   4945   4949     1
   4946   4948     1
   4946   4949     1
   4947   4961     1
   4947   4962     1
   4947   4953     1
   4947   4954     1
   4948   4950     1
   4948   4952     1
   4949   4958     1
   4949   4959     1
   4950   4955     1
   4950   4953     1
   4950   4954     1
   4951   4966     1
   4952   4955     1
   4952   4953     1
   4952   4954     1
   4953   4956     1
   4953   4957     1
   4954   4956     1
   4954   4957     1
   4957   4966     1
   4958   4963     1
   4958   4961     1
   4958   4962     1
   4959   4963     1
   4959   4961     1
   4959   4962     1
   4960   4967     1
   4961   4964     1
   4961   4965     1
   4962   4964     1
   4962   4965     1
   4964   4967     1
   4968   4974     1
   4968   4975     1
   4969   4972     1
   4969   4971     1
   4969   4973     1
   4971   4976     1
   4971   4974     1
   4971   4975     1
   4972   4987     1
   4972   4988     1
   4972   4979     1
   4972   4981     1
   4973   4976     1
   4973   4974     1
   4973   4975     1
   4974   4977     1
   4974   4978     1
   4975   4977     1
   4975   4978     1
   4976   4990     1
   4976   4991     1
   4976   4982     1
   4976   4983     1
   4977   4979     1
   4977   4981     1
   4978   4987     1
   4978   4988     1
   4979   4984     1
   4979   4982     1
   4979   4983     1
   4980   4995     1
   4981   4984     1
   4981   4982     1
   4981   4983     1
   4982   4985     1
   4982   4986     1
   4983   4985     1
   4983   4986     1
   4986   4995     1
   4987   4992     1
   4987   4990     1
   4987   4991     1
   4988   4992     1
   4988   4990     1
   4988   4991     1
   4989   4996     1
   4990   4993     1
   4990   4994     1
   4991   4993     1
   4991   4994     1
   4993   4996     1
   4997   5003     1
   4997   5004     1
   4998   5001     1
   4998   5000     1
   4998   5002     1
   5000   5005     1
   5000   5003     1
   5000   5004     1
   5001   5016     1
   5001   5017     1
   5001   5008     1
   5001   5010     1
   5002   5005     1
   5002   5003     1
   5002   5004     1
   5003   5006     1
   5003   5007     1
   5004   5006     1
   5004   5007     1
   5005   5019     1
   5005   5020     1
   5005   5011     1
   5005   5012     1
   5006   5008     1
   5006   5010     1
   5007   5016     1
   5007   5017     1
   5008   5013     1
   5008   5011     1
   5008   5012     1
   5009   5024     1
   5010   5013     1
   5010   5011     1
   5010   5012     1
   5011   5014     1
   5011   5015     1
   5012   5014     1
   5012   5015     1
   5015   5024     1
   5016   5021     1
   5016   5019     1
   5016   5020     1
   5017   5021     1
   5017   5019     1
   5017   5020     1
   5018   5025     1
   5019   5022     1
   5019   5023     1
   5020   5022     1
   5020   5023     1
   5022   5025     1
   5026   5032     1
   5026   5033     1
   5027   5030     1
   5027   5029     1
   5027   5031     1
   5029   5034     1
   5029   5032     1
   5029   5033     1
   5030   5045     1
   5030   5046     1
   5030   5037     1
   5030   5039     1
   5031   5034     1
   5031   5032     1
   5031   5033     1
   5032   5035     1
   5032   5036     1
   5033   5035     1
   5033   5036     1
   5034   5048     1
   5034   5049     1
   5034   5040     1
   5034   5041     1
   5035   5037     1
   5035   5039     1
   5036   5045     1
   5036   5046     1
   5037   5042     1
   5037   5040     1
   5037   5041     1
   5038   5053     1
   5039   5042     1
   5039   5040     1
   5039   5041     1
   5040   5043     1
   5040   5044     1
   5041   5043     1
   5041   5044     1
   5044   5053     1
   5045   5050     1
   5045   5048     1
   5045   5049     1
   5046   5050     1
   5046   5048     1
   5046   5049     1
   5047   5054     1
   5048   5051     1
   5048   5052     1
   5049   5051     1
   5049   5052     1
   5051   5054     1
   5055   5061     1
   5055   5062     1
   5056   5059     1
   5056   5058     1
   5056   5060     1
   5058   5063     1
   5058   5061     1
   5058   5062     1
   5059   5074     1
   5059   5075     1
   5059   5066     1
   5059   5068     1
   5060   5063     1
   5060   5061     1
   5060   5062     1
   5061   5064     1
   5061   5065     1
   5062   5064     1
   5062   5065     1
   5063   5077     1
   5063   5078     1
   5063   5069     1
   5063   5070     1
   5064   5066     1
   5064   5068     1
   5065   5074     1
   5065   5075     1
   5066   5071     1
   5066   5069     1
   5066   5070     1
   5067   5082     1
   5068   5071     1
   5068   5069     1
   5068   5070     1
   5069   5072     1
   5069   5073     1
   5070   5072     1
   5070   5073     1
   5073   5082     1
   5074   5079     1
   5074   5077     1
   5074   5078     1
   5075   5079     1
   5075   5077     1
   5075   5078     1
   5076   5083     1
   5077   5080     1
   5077   5081     1
   5078   5080     1
   5078   5081     1
   5080   5083     1
   5084   5090     1
   5084   5091     1
   5085   5088     1
   5085   5087     1
   5085   5089     1
   5087   5092     1
   5087   5090     1
   5087   5091     1
   5088   5103     1
   5088   5104     1
   5088   5095     1
   5088   5097     1
   5089   5092     1
   5089   5090     1
   5089   5091     1
   5090   5093     1
   5090   5094     1
   5091   5093     1
   5091   5094     1
   5092   5106     1
   5092   5107     1
   5092   5098     1
   5092   5099     1
   5093   5095     1
   5093   5097     1
   5094   5103     1
   5094   5104     1
   5095   5100     1
   5095   5098     1
   5095   5099     1
   5096   5111     1
   5097   5100     1
   5097   5098     1
   5097   5099     1
   5098   5101     1
   5098   5102     1
   5099   5101     1
   5099   5102     1
   5102   5111     1
   5103   5108     1
   5103   5106     1
   5103   5107     1
   5104   5108     1
   5104   5106     1
   5104   5107     1
   5105   5112     1
   5106   5109     1
   5106   5110     1
   5107   5109     1
   5107   5110     1
   5109   5112     1
   5113   5119     1
   5113   5120     1
   5114   5117     1
   5114   5116     1
   5114   5118     1
   5116   5121     1
   5116   5119     1
   5116   5120     1
   5117   5132     1
   5117   5133     1
   5117   5124     1
   5117   5126     1
   5118   5121     1
   5118   5119     1
   5118   5120     1
   5119   5122     1
   5119   5123     1
   5120   5122     1
   5120   5123     1
   5121   5135     1
   5121   5136     1
   5121   5127     1
   5121   5128     1
   5122   5124     1
   5122   5126     1
   5123   5132     1
   5123   5133     1
   5124   5129     1
   5124   5127     1
   5124   5128     1
   5125   5140     1
   5126   5129     1
   5126   5127     1
   5126   5128     1
   5127   5130     1
   5127   5131     1
   5128   5130     1
   5128   5131     1
   5131   5140     1
   5132   5137     1
   5132   5135     1
   5132   5136     1
   5133   5137     1
   5133   5135     1
   5133   5136     1
   5134   5141     1
   5135   5138     1
   5135   5139     1
   5136   5138     1
   5136   5139     1
   5138   5141     1
   5142   5148     1
   5142   5149     1
   5143   5146     1
   5143   5145     1
   5143   5147     1
   5145   5150     1
   5145   5148     1
   5145   5149     1
   5146   5161     1
   5146   5162     1
   5146   5153     1
   5146   5155     1
   5147   5150     1
   5147   5148     1
   5147   5149     1
   5148   5151     1
   5148   5152     1
   5149   5151     1
   5149   5152     1
   5150   5164     1
   5150   5165     1
   5150   5156     1
   5150   5157     1
   5151   5153     1
   5151   5155     1
   5152   5161     1
   5152   5162     1
   5153   5158     1
   5153   5156     1
   5153   5157     1
   5154   5169     1
   5155   5158     1
   5155   5156     1
   5155   5157     1
   5156   5159     1
   5156   5160     1
   5157   5159     1
   5157   5160     1
   5160   5169     1
   5161   5166     1
   5161   5164     1
   5161   5165     1
   5162   5166     1
   5162   5164     1
   5162   5165     1
   5163   5170     1
   5164   5167     1
   5164   5168     1
   5165   5167     1
   5165   5168     1
   5167   5170     1
   5171   5177     1
   5171   5178     1
   5172   5175     1
   5172   5174     1
   5172   5176     1
   5174   5179     1
   5174   5177     1
   5174   5178     1
   5175   5190     1
   5175   5191     1
   5175   5182     1
   5175   5184     1
   5176   5179     1
   5176   5177     1
   5176   5178     1
   5177   5180     1
   5177   5181     1
   5178   5180     1
   5178   5181     1
   5179   5193     1
   5179   5194     1
   5179   5185     1
   5179   5186     1
   5180   5182     1
   5180   5184     1
   5181   5190     1
   5181   5191     1
   5182   5187     1
   5182   5185     1
   5182   5186     1
   5183   5198     1
   5184   5187     1
   5184   5185     1
   5184   5186     1
   5185   5188     1
   5185   5189     1
   5186   5188     1
   5186   5189     1
   5189   5198     1
   5190   5195     1
   5190   5193     1
   5190   5194     1
   5191   5195     1
   5191   5193     1
   5191   5194     1
   5192   5199     1
   5193   5196     1
   5193   5197     1
   5194   5196     1
   5194   5197     1
   5196   5199     1
   5200   5206     1
   5200   5207     1
   5201   5204     1
   5201   5203     1
   5201   5205     1
   5203   5208     1
   5203   5206     1
   5203   5207     1
   5204   5219     1
   5204   5220     1
   5204   5211     1
   5204   5213     1
   5205   5208     1
   5205   5206     1
   5205   5207     1
   5206   5209     1
   5206   5210     1
   5207   5209     1
   5207   5210     1
   5208   5222     1
   5208   5223     1
   5208   5214     1
   5208   5215     1
   5209   5211     1
   5209   5213     1
   5210   5219     1
   5210   5220     1
   5211   5216     1
   5211   5214     1
   5211   5215     1
   5212   5227     1
   5213   5216     1
   5213   5214     1
   5213   5215     1
   5214   5217     1
   5214   5218     1
   5215   5217     1
   5215   5218     1
   5218   5227     1
   5219   5224     1
   5219   5222     1
   5219   5223     1
   5220   5224     1
   5220   5222     1
   5220   5223     1
   5221   5228     1
   5222   5225     1
   5222   5226     1
   5223   5225     1
   5223   5226     1
   5225   5228     1
   5229   5235     1
   5229   5236     1
   5230   5233     1
   5230   5232     1
   5230   5234     1
   5232   5237     1
   5232   5235     1
   5232   5236     1
   5233   5248     1
   5233   5249     1
   5233   5240     1
   5233   5242     1
   5234   5237     1
   5234   5235     1
   5234   5236     1
   5235   5238     1
   5235   5239     1
   5236   5238     1
   5236   5239     1
   5237   5251     1
   5237   5252     1
   5237   5243     1
   5237   5244     1
   5238   5240     1
   5238   5242     1
   5239   5248     1
   5239   5249     1
   5240   5245     1
   5240   5243     1
   5240   5244     1
   5241   5256     1
   5242   5245     1
   5242   5243     1
   5242   5244     1
   5243   5246     1
   5243   5247     1
   5244   5246     1
   5244   5247     1
   5247   5256     1
   5248   5253     1
   5248   5251     1
   5248   5252     1
   5249   5253     1
   5249   5251     1
   5249   5252     1
   5250   5257     1
   5251   5254     1
   5251   5255     1
   5252   5254     1
   5252   5255     1
   5254   5257     1
   5258   5264     1
   5258   5265     1
   5259   5262     1
   5259   5261     1
   5259   5263     1
   5261   5266     1
   5261   5264     1
   5261   5265     1
   5262   5277     1
   5262   5278     1
   5262   5269     1
   5262   5271     1
   5263   5266     1
   5263   5264     1
   5263   5265     1
   5264   5267     1
   5264   5268     1
   5265   5267     1
   5265   5268     1
   5266   5280     1
   5266   5281     1
   5266   5272     1
   5266   5273     1
   5267   5269     1
   5267   5271     1
   5268   5277     1
   5268   5278     1
   5269   5274     1
   5269   5272     1
   5269   5273     1
   5270   5285     1
   5271   5274     1
   5271   5272     1
   5271   5273     1
   5272   5275     1
   5272   5276     1
   5273   5275     1
   5273   5276     1
   5276   5285     1
   5277   5282     1
   5277   5280     1
   5277   5281     1
   5278   5282     1
   5278   5280     1
   5278   5281     1
   5279   5286     1
   5280   5283     1
   5280   5284     1
   5281   5283     1
   5281   5284     1
   5283   5286     1
   5287   5293     1
   5287   5294     1
   5288   5291     1
   5288   5290     1
   5288   5292     1
   5290   5295     1
   5290   5293     1
   5290   5294     1
   5291   5306     1
   5291   5307     1
   5291   5298     1
   5291   5300     1
   5292   5295     1
   5292   5293     1
   5292   5294     1
   5293   5296     1
   5293   5297     1
   5294   5296     1
   5294   5297     1
   5295   5309     1
   5295   5310     1
   5295   5301     1
   5295   5302     1
   5296   5298     1
   5296   5300     1
   5297   5306     1
   5297   5307     1
   5298   5303     1
   5298   5301     1
   5298   5302     1
   5299   5314     1
   5300   5303     1
   5300   5301     1
   5300   5302     1
   5301   5304     1
   5301   5305     1
   5302   5304     1
   5302   5305     1
   5305   5314     1
   5306   5311     1
   5306   5309     1
   5306   5310     1
   5307   5311     1
   5307   5309     1
   5307   5310     1
   5308   5315     1
   5309   5312     1
   5309   5313     1
   5310   5312     1
   5310   5313     1
   5312   5315     1
   5316   5322     1
   5316   5323     1
   5317   5320     1
   5317   5319     1
   5317   5321     1
   5319   5324     1
   5319   5322     1
   5319   5323     1
   5320   5335     1
   5320   5336     1
   5320   5327     1
   5320   5329     1
   5321   5324     1
   5321   5322     1
   5321   5323     1
   5322   5325     1
   5322   5326     1
   5323   5325     1
   5323   5326     1
   5324   5338     1
   5324   5339     1
   5324   5330     1
   5324   5331     1
   5325   5327     1
   5325   5329     1
   5326   5335     1
   5326   5336     1
   5327   5332     1
   5327   5330     1
   5327   5331     1
   5328   5343     1
   5329   5332     1
   5329   5330     1
   5329   5331     1
   5330   5333     1
   5330   5334     1
   5331   5333     1
   5331   5334     1
   5334   5343     1
   5335   5340     1
   5335   5338     1
   5335   5339     1
   5336   5340     1
   5336   5338     1
   5336   5339     1
   5337   5344     1
   5338   5341     1
   5338   5342     1
   5339   5341     1
   5339   5342     1
   5341   5344     1
   5345   5351     1
   5345   5352     1
   5346   5349     1
   5346   5348     1
   5346   5350     1
   5348   5353     1
   5348   5351     1
   5348   5352     1
   5349   5364     1
   5349   5365     1
   5349   5356     1
   5349   5358     1
   5350   5353     1
   5350   5351     1
   5350   5352     1
   5351   5354     1
   5351   5355     1
   5352   5354     1
   5352   5355     1
   5353   5367     1
   5353   5368     1
   5353   5359     1
   5353   5360     1
   5354   5356     1
   5354   5358     1
   5355   5364     1
   5355   5365     1
   5356   5361     1
   5356   5359     1
   5356   5360     1
   5357   5372     1
   5358   5361     1
   5358   5359     1
   5358   5360     1
   5359   5362     1
   5359   5363     1
   5360   5362     1
   5360   5363     1
   5363   5372     1
   5364   5369     1
   5364   5367     1
   5364   5368     1
   5365   5369     1
   5365   5367     1
   5365   5368     1
   5366   5373     1
   5367   5370     1
   5367   5371     1
   5368   5370     1
   5368   5371     1
   5370   5373     1
   5374   5380     1
   5374   5381     1
   5375   5378     1
   5375   5377     1
   5375   5379     1
   5377   5382     1
   5377   5380     1
   5377   5381     1
   5378   5393     1
   5378   5394     1
   5378   5385     1
   5378   5387     1
   5379   5382     1
   5379   5380     1
   5379   5381     1
   5380   5383     1
   5380   5384     1
   5381   5383     1
   5381   5384     1
   5382   5396     1
   5382   5397     1
   5382   5388     1
   5382   5389     1
   5383   5385     1
   5383   5387     1
   5384   5393     1
   5384   5394     1
   5385   5390     1
   5385   5388     1
   5385   5389     1
   5386   5401     1
   5387   5390     1
   5387   5388     1
   5387   5389     1
   5388   5391     1
   5388   5392     1
   5389   5391     1
   5389   5392     1
   5392   5401     1
   5393   5398     1
   5393   5396     1
   5393   5397     1
   5394   5398     1
   5394   5396     1
   5394   5397     1
   5395   5402     1
   5396   5399     1
   5396   5400     1
   5397   5399     1
   5397   5400     1
   5399   5402     1
   5403   5409     1
   5403   5410     1
   5404   5407     1
   5404   5406     1
   5404   5408     1
   5406   5411     1
   5406   5409     1
   5406   5410     1
   5407   5422     1
   5407   5423     1
   5407   5414     1
   5407   5416     1
   5408   5411     1
   5408   5409     1
   5408   5410     1
   5409   5412     1
   5409   5413     1
   5410   5412     1
   5410   5413     1
   5411   5425     1
   5411   5426     1
   5411   5417     1
   5411   5418     1
   5412   5414     1
   5412   5416     1
   5413   5422     1
   5413   5423     1
   5414   5419     1
   5414   5417     1
   5414   5418     1
   5415   5430     1
   5416   5419     1
   5416   5417     1
   5416   5418     1
   5417   5420     1
   5417   5421     1
   5418   5420     1
   5418   5421     1
   5421   5430     1
   5422   5427     1
   5422   5425     1
   5422   5426     1
   5423   5427     1
   5423   5425     1
   5423   5426     1
   5424   5431     1
   5425   5428     1
   5425   5429     1
   5426   5428     1
   5426   5429     1
   5428   5431     1
   5432   5438     1
   5432   5439     1
   5433   5436     1
   5433   5435     1
   5433   5437     1
   5435   5440     1
   5435   5438     1
   5435   5439     1
   5436   5451     1
   5436   5452     1
   5436   5443     1
   5436   5445     1
   5437   5440     1
   5437   5438     1
   5437   5439     1
   5438   5441     1
   5438   5442     1
   5439   5441     1
   5439   5442     1
   5440   5454     1
   5440   5455     1
   5440   5446     1
   5440   5447     1
   5441   5443     1
   5441   5445     1
   5442   5451     1
   5442   5452     1
   5443   5448     1
   5443   5446     1
   5443   5447     1
   5444   5459     1
   5445   5448     1
   5445   5446     1
   5445   5447     1
   5446   5449     1
   5446   5450     1
   5447   5449     1
   5447   5450     1
   5450   5459     1
   5451   5456     1
   5451   5454     1
   5451   5455     1
   5452   5456     1
   5452   5454     1
   5452   5455     1
   5453   5460     1
   5454   5457     1
   5454   5458     1
   5455   5457     1
   5455   5458     1
   5457   5460     1
   5461   5467     1
   5461   5468     1
   5462   5465     1
   5462   5464     1
   5462   5466     1
   5464   5469     1
   5464   5467     1
   5464   5468     1
   5465   5480     1
   5465   5481     1
   5465   5472     1
   5465   5474     1
   5466   5469     1
   5466   5467     1
   5466   5468     1
   5467   5470     1
   5467   5471     1
   5468   5470     1
   5468   5471     1
   5469   5483     1
   5469   5484     1
   5469   5475     1
   5469   5476     1
   5470   5472     1
   5470   5474     1
   5471   5480     1
   5471   5481     1
   5472   5477     1
   5472   5475     1
   5472   5476     1
   5473   5488     1
   5474   5477     1
   5474   5475     1
   5474   5476     1
   5475   5478     1
   5475   5479     1
   5476   5478     1
   5476   5479     1
   5479   5488     1
   5480   5485     1
   5480   5483     1
   5480   5484     1
   5481   5485     1
   5481   5483     1
   5481   5484     1
   5482   5489     1
   5483   5486     1
   5483   5487     1
   5484   5486     1
   5484   5487     1
   5486   5489     1
   5490   5496     1
   5490   5497     1
   5491   5494     1
   5491   5493     1
   5491   5495     1
   5493   5498     1
   5493   5496     1
   5493   5497     1
   5494   5509     1
   5494   5510     1
   5494   5501     1
   5494   5503     1
   5495   5498     1
   5495   5496     1
   5495   5497     1
   5496   5499     1
   5496   5500     1
   5497   5499     1
   5497   5500     1
   5498   5512     1
   5498   5513     1
   5498   5504     1
   5498   5505     1
   5499   5501     1
   5499   5503     1
   5500   5509     1
   5500   5510     1
   5501   5506     1
   5501   5504     1
   5501   5505     1
   5502   5517     1
   5503   5506     1
   5503   5504     1
   5503   5505     1
   5504   5507     1
   5504   5508     1
   5505   5507     1
   5505   5508     1
   5508   5517     1
   5509   5514     1
   5509   5512     1
   5509   5513     1
   5510   5514     1
   5510   5512     1
   5510   5513     1
   5511   5518     1
   5512   5515     1
   5512   5516     1
   5513   5515     1
   5513   5516     1
   5515   5518     1
   5519   5525     1
   5519   5526     1
   5520   5523     1
   5520   5522     1
   5520   5524     1
   5522   5527     1
   5522   5525     1
   5522   5526     1
   5523   5538     1
   5523   5539     1
   5523   5530     1
   5523   5532     1
   5524   5527     1
   5524   5525     1
   5524   5526     1
   5525   5528     1
   5525   5529     1
   5526   5528     1
   5526   5529     1
   5527   5541     1
   5527   5542     1
   5527   5533     1
   5527   5534     1
   5528   5530     1
   5528   5532     1
   5529   5538     1
   5529   5539     1
   5530   5535     1
   5530   5533     1
   5530   5534     1
   5531   5546     1
   5532   5535     1
   5532   5533     1
   5532   5534     1
   5533   5536     1
   5533   5537     1
   5534   5536     1
   5534   5537     1
   5537   5546     1
   5538   5543     1
   5538   5541     1
   5538   5542     1
   5539   5543     1
   5539   5541     1
   5539   5542     1
   5540   5547     1
   5541   5544     1
   5541   5545     1
   5542   5544     1
   5542   5545     1
   5544   5547     1
   5548   5554     1
   5548   5555     1
   5549   5552     1
   5549   5551     1
   5549   5553     1
   5551   5556     1
   5551   5554     1
   5551   5555     1
   5552   5567     1
   5552   5568     1
   5552   5559     1
   5552   5561     1
   5553   5556     1
   5553   5554     1
   5553   5555     1
   5554   5557     1
   5554   5558     1
   5555   5557     1
   5555   5558     1
   5556   5570     1
   5556   5571     1
   5556   5562     1
   5556   5563     1
   5557   5559     1
   5557   5561     1
   5558   5567     1
   5558   5568     1
   5559   5564     1
   5559   5562     1
   5559   5563     1
   5560   5575     1
   5561   5564     1
   5561   5562     1
   5561   5563     1
   5562   5565     1
   5562   5566     1
   5563   5565     1
   5563   5566     1
   5566   5575     1
   5567   5572     1
   5567   5570     1
   5567   5571     1
   5568   5572     1
   5568   5570     1
   5568   5571     1
   5569   5576     1
   5570   5573     1
   5570   5574     1
   5571   5573     1
   5571   5574     1
   5573   5576     1
   5577   5583     1
   5577   5584     1
   5578   5581     1
   5578   5580     1
   5578   5582     1
   5580   5585     1
   5580   5583     1
   5580   5584     1
   5581   5596     1
   5581   5597     1
   5581   5588     1
   5581   5590     1
   5582   5585     1
   5582   5583     1
   5582   5584     1
   5583   5586     1
   5583   5587     1
   5584   5586     1
   5584   5587     1
   5585   5599     1
   5585   5600     1
   5585   5591     1
   5585   5592     1
   5586   5588     1
   5586   5590     1
   5587   5596     1
   5587   5597     1
   5588   5593     1
   5588   5591     1
   5588   5592     1
   5589   5604     1
   5590   5593     1
   5590   5591     1
   5590   5592     1
   5591   5594     1
   5591   5595     1
   5592   5594     1
   5592   5595     1
   5595   5604     1
   5596   5601     1
   5596   5599     1
   5596   5600     1
   5597   5601     1
   5597   5599     1
   5597   5600     1
   5598   5605     1
   5599   5602     1
   5599   5603     1
   5600   5602     1
   5600   5603     1
   5602   5605     1
   5606   5612     1
   5606   5613     1
   5607   5610     1
   5607   5609     1
   5607   5611     1
   5609   5614     1
   5609   5612     1
   5609   5613     1
   5610   5625     1
   5610   5626     1
   5610   5617     1
   5610   5619     1
   5611   5614     1
   5611   5612     1
   5611   5613     1
   5612   5615     1
   5612   5616     1
   5613   5615     1
   5613   5616     1
   5614   5628     1
   5614   5629     1
   5614   5620     1
   5614   5621     1
   5615   5617     1
   5615   5619     1
   5616   5625     1
   5616   5626     1
   5617   5622     1
   5617   5620     1
   5617   5621     1
   5618   5633     1
   5619   5622     1
   5619   5620     1
   5619   5621     1
   5620   5623     1
   5620   5624     1
   5621   5623     1
   5621   5624     1
   5624   5633     1
   5625   5630     1
   5625   5628     1
   5625   5629     1
   5626   5630     1
   5626   5628     1
   5626   5629     1
   5627   5634     1
   5628   5631     1
   5628   5632     1
   5629   5631     1
   5629   5632     1
   5631   5634     1
   5635   5641     1
   5635   5642     1
   5636   5639     1
   5636   5638     1
   5636   5640     1
   5638   5643     1
   5638   5641     1
   5638   5642     1
   5639   5654     1
   5639   5655     1
   5639   5646     1
   5639   5648     1
   5640   5643     1
   5640   5641     1
   5640   5642     1
   5641   5644     1
   5641   5645     1
   5642   5644     1
   5642   5645     1
   5643   5657     1
   5643   5658     1
   5643   5649     1
   5643   5650     1
   5644   5646     1
   5644   5648     1
   5645   5654     1
   5645   5655     1
   5646   5651     1
   5646   5649     1
   5646   5650     1
   5647   5662     1
   5648   5651     1
   5648   5649     1
   5648   5650     1
   5649   5652     1
   5649   5653     1
   5650   5652     1
   5650   5653     1
   5653   5662     1
   5654   5659     1
   5654   5657     1
   5654   5658     1
   5655   5659     1
   5655   5657     1
   5655   5658     1
   5656   5663     1
   5657   5660     1
   5657   5661     1
   5658   5660     1
   5658   5661     1
   5660   5663     1
   5664   5670     1
   5664   5671     1
   5665   5668     1
   5665   5667     1
   5665   5669     1
   5667   5672     1
   5667   5670     1
   5667   5671     1
   5668   5683     1
   5668   5684     1
   5668   5675     1
   5668   5677     1
   5669   5672     1
   5669   5670     1
   5669   5671     1
   5670   5673     1
   5670   5674     1
   5671   5673     1
   5671   5674     1
   5672   5686     1
   5672   5687     1
   5672   5678     1
   5672   5679     1
   5673   5675     1
   5673   5677     1
   5674   5683     1
   5674   5684     1
   5675   5680     1
   5675   5678     1
   5675   5679     1
   5676   5691     1
   5677   5680     1
   5677   5678     1
   5677   5679     1
   5678   5681     1
   5678   5682     1
   5679   5681     1
   5679   5682     1
   5682   5691     1
   5683   5688     1
   5683   5686     1
   5683   5687     1
   5684   5688     1
   5684   5686     1
   5684   5687     1
   5685   5692     1
   5686   5689     1
   5686   5690     1
   5687   5689     1
   5687   5690     1
   5689   5692     1
   5693   5699     1
   5693   5700     1
   5694   5697     1
   5694   5696     1
   5694   5698     1
   5696   5701     1
   5696   5699     1
   5696   5700     1
   5697   5712     1
   5697   5713     1
   5697   5704     1
   5697   5706     1
   5698   5701     1
   5698   5699     1
   5698   5700     1
   5699   5702     1
   5699   5703     1
   5700   5702     1
   5700   5703     1
   5701   5715     1
   5701   5716     1
   5701   5707     1
   5701   5708     1
   5702   5704     1
   5702   5706     1
   5703   5712     1
   5703   5713     1
   5704   5709     1
   5704   5707     1
   5704   5708     1
   5705   5720     1
   5706   5709     1
   5706   5707     1
   5706   5708     1
   5707   5710     1
   5707   5711     1
   5708   5710     1
   5708   5711     1
   5711   5720     1
   5712   5717     1
   5712   5715     1
   5712   5716     1
   5713   5717     1
   5713   5715     1
   5713   5716     1
   5714   5721     1
   5715   5718     1
   5715   5719     1
   5716   5718     1
   5716   5719     1
   5718   5721     1
   5722   5728     1
   5722   5729     1
   5723   5726     1
   5723   5725     1
   5723   5727     1
   5725   5730     1
   5725   5728     1
   5725   5729     1
   5726   5741     1
   5726   5742     1
   5726   5733     1
   5726   5735     1
   5727   5730     1
   5727   5728     1
   5727   5729     1
   5728   5731     1
   5728   5732     1
   5729   5731     1
   5729   5732     1
   5730   5744     1
   5730   5745     1
   5730   5736     1
   5730   5737     1
   5731   5733     1
   5731   5735     1
   5732   5741     1
   5732   5742     1
   5733   5738     1
   5733   5736     1
   5733   5737     1
   5734   5749     1
   5735   5738     1
   5735   5736     1
   5735   5737     1
   5736   5739     1
   5736   5740     1
   5737   5739     1
   5737   5740     1
   5740   5749     1
   5741   5746     1
   5741   5744     1
   5741   5745     1
   5742   5746     1
   5742   5744     1
   5742   5745     1
   5743   5750     1
   5744   5747     1
   5744   5748     1
   5745   5747     1
   5745   5748     1
   5747   5750     1
   5751   5757     1
   5751   5758     1
   5752   5755     1
   5752   5754     1
   5752   5756     1
   5754   5759     1
   5754   5757     1
   5754   5758     1
   5755   5770     1
   5755   5771     1
   5755   5762     1
   5755   5764     1
   5756   5759     1
   5756   5757     1
   5756   5758     1
   5757   5760     1
   5757   5761     1
   5758   5760     1
   5758   5761     1
   5759   5773     1
   5759   5774     1
   5759   5765     1
   5759   5766     1
   5760   5762     1
   5760   5764     1
   5761   5770     1
   5761   5771     1
   5762   5767     1
   5762   5765     1
   5762   5766     1
   5763   5778     1
   5764   5767     1
   5764   5765     1
   5764   5766     1
   5765   5768     1
   5765   5769     1
   5766   5768     1
   5766   5769     1
   5769   5778     1
   5770   5775     1
   5770   5773     1
   5770   5774     1
   5771   5775     1
   5771   5773     1
   5771   5774     1
   5772   5779     1
   5773   5776     1
   5773   5777     1
   5774   5776     1
   5774   5777     1
   5776   5779     1
   5780   5786     1
   5780   5787     1
   5781   5784     1
   5781   5783     1
   5781   5785     1
   5783   5788     1
   5783   5786     1
   5783   5787     1
   5784   5799     1
   5784   5800     1
   5784   5791     1
   5784   5793     1
   5785   5788     1
   5785   5786     1
   5785   5787     1
   5786   5789     1
   5786   5790     1
   5787   5789     1
   5787   5790     1
   5788   5802     1
   5788   5803     1
   5788   5794     1
   5788   5795     1
   5789   5791     1
   5789   5793     1
   5790   5799     1
   5790   5800     1
   5791   5796     1
   5791   5794     1
   5791   5795     1
   5792   5807     1
   5793   5796     1
   5793   5794     1
   5793   5795     1
   5794   5797     1
   5794   5798     1
   5795   5797     1
   5795   5798     1
   5798   5807     1
   5799   5804     1
   5799   5802     1
   5799   5803     1
   5800   5804     1
   5800   5802     1
   5800   5803     1
   5801   5808     1
   5802   5805     1
   5802   5806     1
   5803   5805     1
   5803   5806     1
   5805   5808     1
   5809   5815     1
   5809   5816     1
   5810   5813     1
   5810   5812     1
   5810   5814     1
   5812   5817     1
   5812   5815     1
   5812   5816     1
   5813   5828     1
   5813   5829     1
   5813   5820     1
   5813   5822     1
   5814   5817     1
   5814   5815     1
   5814   5816     1
   5815   5818     1
   5815   5819     1
   5816   5818     1
   5816   5819     1
   5817   5831     1
   5817   5832     1
   5817   5823     1
   5817   5824     1
   5818   5820     1
   5818   5822     1
   5819   5828     1
   5819   5829     1
   5820   5825     1
   5820   5823     1
   5820   5824     1
   5821   5836     1
   5822   5825     1
   5822   5823     1
   5822   5824     1
   5823   5826     1
   5823   5827     1
   5824   5826     1
   5824   5827     1
   5827   5836     1
   5828   5833     1
   5828   5831     1
   5828   5832     1
   5829   5833     1
   5829   5831     1
   5829   5832     1
   5830   5837     1
   5831   5834     1
   5831   5835     1
   5832   5834     1
   5832   5835     1
   5834   5837     1
   5838   5844     1
   5838   5845     1
   5839   5842     1
   5839   5841     1
   5839   5843     1
   5841   5846     1
   5841   5844     1
   5841   5845     1
   5842   5857     1
   5842   5858     1
   5842   5849     1
   5842   5851     1
   5843   5846     1
   5843   5844     1
   5843   5845     1
   5844   5847     1
   5844   5848     1
   5845   5847     1
   5845   5848     1
   5846   5860     1
   5846   5861     1
   5846   5852     1
   5846   5853     1
   5847   5849     1
   5847   5851     1
   5848   5857     1
   5848   5858     1
   5849   5854     1
   5849   5852     1
   5849   5853     1
   5850   5865     1
   5851   5854     1
   5851   5852     1
   5851   5853     1
   5852   5855     1
   5852   5856     1
   5853   5855     1
   5853   5856     1
   5856   5865     1
   5857   5862     1
   5857   5860     1
   5857   5861     1
   5858   5862     1
   5858   5860     1
   5858   5861     1
   5859   5866     1
   5860   5863     1
   5860   5864     1
   5861   5863     1
   5861   5864     1
   5863   5866     1
   5867   5873     1
   5867   5874     1
   5868   5871     1
   5868   5870     1
   5868   5872     1
   5870   5875     1
   5870   5873     1
   5870   5874     1
   5871   5886     1
   5871   5887     1
   5871   5878     1
   5871   5880     1
   5872   5875     1
   5872   5873     1
   5872   5874     1
   5873   5876     1
   5873   5877     1
   5874   5876     1
   5874   5877     1
   5875   5889     1
   5875   5890     1
   5875   5881     1
   5875   5882     1
   5876   5878     1
   5876   5880     1
   5877   5886     1
   5877   5887     1
   5878   5883     1
   5878   5881     1
   5878   5882     1
   5879   5894     1
   5880   5883     1
   5880   5881     1
   5880   5882     1
   5881   5884     1
   5881   5885     1
   5882   5884     1
   5882   5885     1
   5885   5894     1
   5886   5891     1
   5886   5889     1
   5886   5890     1
   5887   5891     1
   5887   5889     1
   5887   5890     1
   5888   5895     1
   5889   5892     1
   5889   5893     1
   5890   5892     1
   5890   5893     1
   5892   5895     1
   5896   5902     1
   5896   5903     1
   5897   5900     1
   5897   5899     1
   5897   5901     1
   5899   5904     1
   5899   5902     1
   5899   5903     1
   5900   5915     1
   5900   5916     1
   5900   5907     1
   5900   5909     1
   5901   5904     1
   5901   5902     1
   5901   5903     1
   5902   5905     1
   5902   5906     1
   5903   5905     1
   5903   5906     1
   5904   5918     1
   5904   5919     1
   5904   5910     1
   5904   5911     1
   5905   5907     1
   5905   5909     1
   5906   5915     1
   5906   5916     1
   5907   5912     1
   5907   5910     1
   5907   5911     1
   5908   5923     1
   5909   5912     1
   5909   5910     1
   5909   5911     1
   5910   5913     1
   5910   5914     1
   5911   5913     1
   5911   5914     1
   5914   5923     1
   5915   5920     1
   5915   5918     1
   5915   5919     1
   5916   5920     1
   5916   5918     1
   5916   5919     1
   5917   5924     1
   5918   5921     1
   5918   5922     1
   5919   5921     1
   5919   5922     1
   5921   5924     1
   5925   5931     1
   5925   5932     1
   5926   5929     1
   5926   5928     1
   5926   5930     1
   5928   5933     1
   5928   5931     1
   5928   5932     1
   5929   5944     1
   5929   5945     1
   5929   5936     1
   5929   5938     1
   5930   5933     1
   5930   5931     1
   5930   5932     1
   5931   5934     1
   5931   5935     1
   5932   5934     1
   5932   5935     1
   5933   5947     1
   5933   5948     1
   5933   5939     1
   5933   5940     1
   5934   5936     1
   5934   5938     1
   5935   5944     1
   5935   5945     1
   5936   5941     1
   5936   5939     1
   5936   5940     1
   5937   5952     1
   5938   5941     1
   5938   5939     1
   5938   5940     1
   5939   5942     1
   5939   5943     1
   5940   5942     1
   5940   5943     1
   5943   5952     1
   5944   5949     1
   5944   5947     1
   5944   5948     1
   5945   5949     1
   5945   5947     1
   5945   5948     1
   5946   5953     1
   5947   5950     1
   5947   5951     1
   5948   5950     1
   5948   5951     1
   5950   5953     1
   5954   5960     1
   5954   5961     1
   5955   5958     1
   5955   5957     1
   5955   5959     1
   5957   5962     1
   5957   5960     1
   5957   5961     1
   5958   5973     1
   5958   5974     1
   5958   5965     1
   5958   5967     1
   5959   5962     1
   5959   5960     1
   5959   5961     1
   5960   5963     1
   5960   5964     1
   5961   5963     1
   5961   5964     1
   5962   5976     1
   5962   5977     1
   5962   5968     1
   5962   5969     1
   5963   5965     1
   5963   5967     1
   5964   5973     1
   5964   5974     1
   5965   5970     1
   5965   5968     1
   5965   5969     1
   5966   5981     1
   5967   5970     1
   5967   5968     1
   5967   5969     1
   5968   5971     1
   5968   5972     1
   5969   5971     1
   5969   5972     1
   5972   5981     1
   5973   5978     1
   5973   5976     1
   5973   5977     1
   5974   5978     1
   5974   5976     1
   5974   5977     1
   5975   5982     1
   5976   5979     1
   5976   5980     1
   5977   5979     1
   5977   5980     1
   5979   5982     1
   5983   5989     1
   5983   5990     1
   5984   5987     1
   5984   5986     1
   5984   5988     1
   5986   5991     1
   5986   5989     1
   5986   5990     1
   5987   6002     1
   5987   6003     1
   5987   5994     1
   5987   5996     1
   5988   5991     1
   5988   5989     1
   5988   5990     1
   5989   5992     1
   5989   5993     1
   5990   5992     1
   5990   5993     1
   5991   6005     1
   5991   6006     1
   5991   5997     1
   5991   5998     1
   5992   5994     1
   5992   5996     1
   5993   6002     1
   5993   6003     1
   5994   5999     1
   5994   5997     1
   5994   5998     1
   5995   6010     1
   5996   5999     1
   5996   5997     1
   5996   5998     1
   5997   6000     1
   5997   6001     1
   5998   6000     1
   5998   6001     1
   6001   6010     1
   6002   6007     1
   6002   6005     1
   6002   6006     1
   6003   6007     1
   6003   6005     1
   6003   6006     1
   6004   6011     1
   6005   6008     1
   6005   6009     1
   6006   6008     1
   6006   6009     1
   6008   6011     1
   6012   6018     1
   6012   6019     1
   6013   6016     1
   6013   6015     1
   6013   6017     1
   6015   6020     1
   6015   6018     1
   6015   6019     1
   6016   6031     1
   6016   6032     1
   6016   6023     1
   6016   6025     1
   6017   6020     1
   6017   6018     1
   6017   6019     1
   6018   6021     1
   6018   6022     1
   6019   6021     1
   6019   6022     1
   6020   6034     1
   6020   6035     1
   6020   6026     1
   6020   6027     1
   6021   6023     1
   6021   6025     1
   6022   6031     1
   6022   6032     1
   6023   6028     1
   6023   6026     1
   6023   6027     1
   6024   6039     1
   6025   6028     1
   6025   6026     1
   6025   6027     1
   6026   6029     1
   6026   6030     1
   6027   6029     1
   6027   6030     1
   6030   6039     1
   6031   6036     1
   6031   6034     1
   6031   6035     1
   6032   6036     1
   6032   6034     1
   6032   6035     1
   6033   6040     1
   6034   6037     1
   6034   6038     1
   6035   6037     1
   6035   6038     1
   6037   6040     1
   6041   6047     1
   6041   6048     1
   6042   6045     1
   6042   6044     1
   6042   6046     1
   6044   6049     1
   6044   6047     1
   6044   6048     1
   6045   6060     1
   6045   6061     1
   6045   6052     1
   6045   6054     1
   6046   6049     1
   6046   6047     1
   6046   6048     1
   6047   6050     1
   6047   6051     1
   6048   6050     1
   6048   6051     1
   6049   6063     1
   6049   6064     1
   6049   6055     1
   6049   6056     1
   6050   6052     1
   6050   6054     1
   6051   6060     1
   6051   6061     1
   6052   6057     1
   6052   6055     1
   6052   6056     1
   6053   6068     1
   6054   6057     1
   6054   6055     1
   6054   6056     1
   6055   6058     1
   6055   6059     1
   6056   6058     1
   6056   6059     1
   6059   6068     1
   6060   6065     1
   6060   6063     1
   6060   6064     1
   6061   6065     1
   6061   6063     1
   6061   6064     1
   6062   6069     1
   6063   6066     1
   6063   6067     1
   6064   6066     1
   6064   6067     1
   6066   6069     1
   6070   6076     1
   6070   6077     1
   6071   6074     1
   6071   6073     1
   6071   6075     1
   6073   6078     1
   6073   6076     1
   6073   6077     1
   6074   6089     1
   6074   6090     1
   6074   6081     1
   6074   6083     1
   6075   6078     1
   6075   6076     1
   6075   6077     1
   6076   6079     1
   6076   6080     1
   6077   6079     1
   6077   6080     1
   6078   6092     1
   6078   6093     1
   6078   6084     1
   6078   6085     1
   6079   6081     1
   6079   6083     1
   6080   6089     1
   6080   6090     1
   6081   6086     1
   6081   6084     1
   6081   6085     1
   6082   6097     1
   6083   6086     1
   6083   6084     1
   6083   6085     1
   6084   6087     1
   6084   6088     1
   6085   6087     1
   6085   6088     1
   6088   6097     1
   6089   6094     1
   6089   6092     1
   6089   6093     1
   6090   6094     1
   6090   6092     1
   6090   6093     1
   6091   6098     1
   6092   6095     1
   6092   6096     1
   6093   6095     1
   6093   6096     1
   6095   6098     1
   6099   6105     1
   6099   6106     1
   6100   6103     1
   6100   6102     1
   6100   6104     1
   6102   6107     1
   6102   6105     1
   6102   6106     1
   6103   6118     1
   6103   6119     1
   6103   6110     1
   6103   6112     1
   6104   6107     1
   6104   6105     1
   6104   6106     1
   6105   6108     1
   6105   6109     1
   6106   6108     1
   6106   6109     1
   6107   6121     1
   6107   6122     1
   6107   6113     1
   6107   6114     1
   6108   6110     1
   6108   6112     1
   6109   6118     1
   6109   6119     1
   6110   6115     1
   6110   6113     1
   6110   6114     1
   6111   6126     1
   6112   6115     1
   6112   6113     1
   6112   6114     1
   6113   6116     1
   6113   6117     1
   6114   6116     1
   6114   6117     1
   6117   6126     1
   6118   6123     1
   6118   6121     1
   6118   6122     1
   6119   6123     1
   6119   6121     1
   6119   6122     1
   6120   6127     1
   6121   6124     1
   6121   6125     1
   6122   6124     1
   6122   6125     1
   6124   6127     1
   6128   6134     1
   6128   6135     1
   6129   6132     1
   6129   6131     1
   6129   6133     1
   6131   6136     1
   6131   6134     1
   6131   6135     1
   6132   6147     1
   6132   6148     1
   6132   6139     1
   6132   6141     1
   6133   6136     1
   6133   6134     1
   6133   6135     1
   6134   6137     1
   6134   6138     1
   6135   6137     1
   6135   6138     1
   6136   6150     1
   6136   6151     1
   6136   6142     1
   6136   6143     1
   6137   6139     1
   6137   6141     1
   6138   6147     1
   6138   6148     1
   6139   6144     1
   6139   6142     1
   6139   6143     1
   6140   6155     1
   6141   6144     1
   6141   6142     1
   6141   6143     1
   6142   6145     1
   6142   6146     1
   6143   6145     1
   6143   6146     1
   6146   6155     1
   6147   6152     1
   6147   6150     1
   6147   6151     1
   6148   6152     1
   6148   6150     1
   6148   6151     1
   6149   6156     1
   6150   6153     1
   6150   6154     1
   6151   6153     1
   6151   6154     1
   6153   6156     1
   6157   6163     1
   6157   6164     1
   6158   6161     1
   6158   6160     1
   6158   6162     1
   6160   6165     1
   6160   6163     1
   6160   6164     1
   6161   6176     1
   6161   6177     1
   6161   6168     1
   6161   6170     1
   6162   6165     1
   6162   6163     1
   6162   6164     1
   6163   6166     1
   6163   6167     1
   6164   6166     1
   6164   6167     1
   6165   6179     1
   6165   6180     1
   6165   6171     1
   6165   6172     1
   6166   6168     1
   6166   6170     1
   6167   6176     1
   6167   6177     1
   6168   6173     1
   6168   6171     1
   6168   6172     1
   6169   6184     1
   6170   6173     1
   6170   6171     1
   6170   6172     1
   6171   6174     1
   6171   6175     1
   6172   6174     1
   6172   6175     1
   6175   6184     1
   6176   6181     1
   6176   6179     1
   6176   6180     1
   6177   6181     1
   6177   6179     1
   6177   6180     1
   6178   6185     1
   6179   6182     1
   6179   6183     1
   6180   6182     1
   6180   6183     1
   6182   6185     1
   6186   6192     1
   6186   6193     1
   6187   6190     1
   6187   6189     1
   6187   6191     1
   6189   6194     1
   6189   6192     1
   6189   6193     1
   6190   6205     1
   6190   6206     1
   6190   6197     1
   6190   6199     1
   6191   6194     1
   6191   6192     1
   6191   6193     1
   6192   6195     1
   6192   6196     1
   6193   6195     1
   6193   6196     1
   6194   6208     1
   6194   6209     1
   6194   6200     1
   6194   6201     1
   6195   6197     1
   6195   6199     1
   6196   6205     1
   6196   6206     1
   6197   6202     1
   6197   6200     1
   6197   6201     1
   6198   6213     1
   6199   6202     1
   6199   6200     1
   6199   6201     1
   6200   6203     1
   6200   6204     1
   6201   6203     1
   6201   6204     1
   6204   6213     1
   6205   6210     1
   6205   6208     1
   6205   6209     1
   6206   6210     1
   6206   6208     1
   6206   6209     1
   6207   6214     1
   6208   6211     1
   6208   6212     1
   6209   6211     1
   6209   6212     1
   6211   6214     1
   6215   6221     1
   6215   6222     1
   6216   6219     1
   6216   6218     1
   6216   6220     1
   6218   6223     1
   6218   6221     1
   6218   6222     1
   6219   6234     1
   6219   6235     1
   6219   6226     1
   6219   6228     1
   6220   6223     1
   6220   6221     1
   6220   6222     1
   6221   6224     1
   6221   6225     1
   6222   6224     1
   6222   6225     1
   6223   6237     1
   6223   6238     1
   6223   6229     1
   6223   6230     1
   6224   6226     1
   6224   6228     1
   6225   6234     1
   6225   6235     1
   6226   6231     1
   6226   6229     1
   6226   6230     1
   6227   6242     1
   6228   6231     1
   6228   6229     1
   6228   6230     1
   6229   6232     1
   6229   6233     1
   6230   6232     1
   6230   6233     1
   6233   6242     1
   6234   6239     1
   6234   6237     1
   6234   6238     1
   6235   6239     1
   6235   6237     1
   6235   6238     1
   6236   6243     1
   6237   6240     1
   6237   6241     1
   6238   6240     1
   6238   6241     1
   6240   6243     1
   6244   6250     1
   6244   6251     1
   6245   6248     1
   6245   6247     1
   6245   6249     1
   6247   6252     1
   6247   6250     1
   6247   6251     1
   6248   6263     1
   6248   6264     1
   6248   6255     1
   6248   6257     1
   6249   6252     1
   6249   6250     1
   6249   6251     1
   6250   6253     1
   6250   6254     1
   6251   6253     1
   6251   6254     1
   6252   6266     1
   6252   6267     1
   6252   6258     1
   6252   6259     1
   6253   6255     1
   6253   6257     1
   6254   6263     1
   6254   6264     1
   6255   6260     1
   6255   6258     1
   6255   6259     1
   6256   6271     1
   6257   6260     1
   6257   6258     1
   6257   6259     1
   6258   6261     1
   6258   6262     1
   6259   6261     1
   6259   6262     1
   6262   6271     1
   6263   6268     1
   6263   6266     1
   6263   6267     1
   6264   6268     1
   6264   6266     1
   6264   6267     1
   6265   6272     1
   6266   6269     1
   6266   6270     1
   6267   6269     1
   6267   6270     1
   6269   6272     1
   6273   6279     1
   6273   6280     1
   6274   6277     1
   6274   6276     1
   6274   6278     1
   6276   6281     1
   6276   6279     1
   6276   6280     1
   6277   6292     1
   6277   6293     1
   6277   6284     1
   6277   6286     1
   6278   6281     1
   6278   6279     1
   6278   6280     1
   6279   6282     1
   6279   6283     1
   6280   6282     1
   6280   6283     1
   6281   6295     1
   6281   6296     1
   6281   6287     1
   6281   6288     1
   6282   6284     1
   6282   6286     1
   6283   6292     1
   6283   6293     1
   6284   6289     1
   6284   6287     1
   6284   6288     1
   6285   6300     1
   6286   6289     1
   6286   6287     1
   6286   6288     1
   6287   6290     1
   6287   6291     1
   6288   6290     1
   6288   6291     1
   6291   6300     1
   6292   6297     1
   6292   6295     1
   6292   6296     1
   6293   6297     1
   6293   6295     1
   6293   6296     1
   6294   6301     1
   6295   6298     1
   6295   6299     1
   6296   6298     1
   6296   6299     1
   6298   6301     1
   6302   6308     1
   6302   6309     1
   6303   6306     1
   6303   6305     1
   6303   6307     1
   6305   6310     1
   6305   6308     1
   6305   6309     1
   6306   6321     1
   6306   6322     1
   6306   6313     1
   6306   6315     1
   6307   6310     1
   6307   6308     1
   6307   6309     1
   6308   6311     1
   6308   6312     1
   6309   6311     1
   6309   6312     1
   6310   6324     1
   6310   6325     1
   6310   6316     1
   6310   6317     1
   6311   6313     1
   6311   6315     1
   6312   6321     1
   6312   6322     1
   6313   6318     1
   6313   6316     1
   6313   6317     1
   6314   6329     1
   6315   6318     1
   6315   6316     1
   6315   6317     1
   6316   6319     1
   6316   6320     1
   6317   6319     1
   6317   6320     1
   6320   6329     1
   6321   6326     1
   6321   6324     1
   6321   6325     1
   6322   6326     1
   6322   6324     1
   6322   6325     1
   6323   6330     1
   6324   6327     1
   6324   6328     1
   6325   6327     1
   6325   6328     1
   6327   6330     1
   6331   6337     1
   6331   6338     1
   6332   6335     1
   6332   6334     1
   6332   6336     1
   6334   6339     1
   6334   6337     1
   6334   6338     1
   6335   6350     1
   6335   6351     1
   6335   6342     1
   6335   6344     1
   6336   6339     1
   6336   6337     1
   6336   6338     1
   6337   6340     1
   6337   6341     1
   6338   6340     1
   6338   6341     1
   6339   6353     1
   6339   6354     1
   6339   6345     1
   6339   6346     1
   6340   6342     1
   6340   6344     1
   6341   6350     1
   6341   6351     1
   6342   6347     1
   6342   6345     1
   6342   6346     1
   6343   6358     1
   6344   6347     1
   6344   6345     1
   6344   6346     1
   6345   6348     1
   6345   6349     1
   6346   6348     1
   6346   6349     1
   6349   6358     1
   6350   6355     1
   6350   6353     1
   6350   6354     1
   6351   6355     1
   6351   6353     1
   6351   6354     1
   6352   6359     1
   6353   6356     1
   6353   6357     1
   6354   6356     1
   6354   6357     1
   6356   6359     1
   6360   6366     1
   6360   6367     1
   6361   6364     1
   6361   6363     1
   6361   6365     1
   6363   6368     1
   6363   6366     1
   6363   6367     1
   6364   6379     1
   6364   6380     1
   6364   6371     1
   6364   6373     1
   6365   6368     1
   6365   6366     1
   6365   6367     1
   6366   6369     1
   6366   6370     1
   6367   6369     1
   6367   6370     1
   6368   6382     1
   6368   6383     1
   6368   6374     1
   6368   6375     1
   6369   6371     1
   6369   6373     1
   6370   6379     1
   6370   6380     1
   6371   6376     1
   6371   6374     1
   6371   6375     1
   6372   6387     1
   6373   6376     1
   6373   6374     1
   6373   6375     1
   6374   6377     1
   6374   6378     1
   6375   6377     1
   6375   6378     1
   6378   6387     1
   6379   6384     1
   6379   6382     1
   6379   6383     1
   6380   6384     1
   6380   6382     1
   6380   6383     1
   6381   6388     1
   6382   6385     1
   6382   6386     1
   6383   6385     1
   6383   6386     1
   6385   6388     1
   6389   6395     1
   6389   6396     1
   6390   6393     1
   6390   6392     1
   6390   6394     1
   6392   6397     1
   6392   6395     1
   6392   6396     1
   6393   6408     1
   6393   6409     1
   6393   6400     1
   6393   6402     1
   6394   6397     1
   6394   6395     1
   6394   6396     1
   6395   6398     1
   6395   6399     1
   6396   6398     1
   6396   6399     1
   6397   6411     1
   6397   6412     1
   6397   6403     1
   6397   6404     1
   6398   6400     1
   6398   6402     1
   6399   6408     1
   6399   6409     1
   6400   6405     1
   6400   6403     1
   6400   6404     1
   6401   6416     1
   6402   6405     1
   6402   6403     1
   6402   6404     1
   6403   6406     1
   6403   6407     1
   6404   6406     1
   6404   6407     1
   6407   6416     1
   6408   6413     1
   6408   6411     1
   6408   6412     1
   6409   6413     1
   6409   6411     1
   6409   6412     1
   6410   6417     1
   6411   6414     1
   6411   6415     1
   6412   6414     1
   6412   6415     1
   6414   6417     1
   6418   6424     1
   6418   6425     1
   6419   6422     1
   6419   6421     1
   6419   6423     1
   6421   6426     1
   6421   6424     1
   6421   6425     1
   6422   6437     1
   6422   6438     1
   6422   6429     1
   6422   6431     1
   6423   6426     1
   6423   6424     1
   6423   6425     1
   6424   6427     1
   6424   6428     1
   6425   6427     1
   6425   6428     1
   6426   6440     1
   6426   6441     1
   6426   6432     1
   6426   6433     1
   6427   6429     1
   6427   6431     1
   6428   6437     1
   6428   6438     1
   6429   6434     1
   6429   6432     1
   6429   6433     1
   6430   6445     1
   6431   6434     1
   6431   6432     1
   6431   6433     1
   6432   6435     1
   6432   6436     1
   6433   6435     1
   6433   6436     1
   6436   6445     1
   6437   6442     1
   6437   6440     1
   6437   6441     1
   6438   6442     1
   6438   6440     1
   6438   6441     1
   6439   6446     1
   6440   6443     1
   6440   6444     1
   6441   6443     1
   6441   6444     1
   6443   6446     1
   6447   6453     1
   6447   6454     1
   6448   6451     1
   6448   6450     1
   6448   6452     1
   6450   6455     1
   6450   6453     1
   6450   6454     1
   6451   6466     1
   6451   6467     1
   6451   6458     1
   6451   6460     1
   6452   6455     1
   6452   6453     1
   6452   6454     1
   6453   6456     1
   6453   6457     1
   6454   6456     1
   6454   6457     1
   6455   6469     1
   6455   6470     1
   6455   6461     1
   6455   6462     1
   6456   6458     1
   6456   6460     1
   6457   6466     1
   6457   6467     1
   6458   6463     1
   6458   6461     1
   6458   6462     1
   6459   6474     1
   6460   6463     1
   6460   6461     1
   6460   6462     1
   6461   6464     1
   6461   6465     1
   6462   6464     1
   6462   6465     1
   6465   6474     1
   6466   6471     1
   6466   6469     1
   6466   6470     1
   6467   6471     1
   6467   6469     1
   6467   6470     1
   6468   6475     1
   6469   6472     1
   6469   6473     1
   6470   6472     1
   6470   6473     1
   6472   6475     1
   6476   6482     1
   6476   6483     1
   6477   6480     1
   6477   6479     1
   6477   6481     1
   6479   6484     1
   6479   6482     1
   6479   6483     1
   6480   6495     1
   6480   6496     1
   6480   6487     1
   6480   6489     1
   6481   6484     1
   6481   6482     1
   6481   6483     1
   6482   6485     1
   6482   6486     1
   6483   6485     1
   6483   6486     1
   6484   6498     1
   6484   6499     1
   6484   6490     1
   6484   6491     1
   6485   6487     1
   6485   6489     1
   6486   6495     1
   6486   6496     1
   6487   6492     1
   6487   6490     1
   6487   6491     1
   6488   6503     1
   6489   6492     1
   6489   6490     1
   6489   6491     1
   6490   6493     1
   6490   6494     1
   6491   6493     1
   6491   6494     1
   6494   6503     1
   6495   6500     1
   6495   6498     1
   6495   6499     1
   6496   6500     1
   6496   6498     1
   6496   6499     1
   6497   6504     1
   6498   6501     1
   6498   6502     1
   6499   6501     1
   6499   6502     1
   6501   6504     1
   6505   6511     1
   6505   6512     1
   6506   6509     1
   6506   6508     1
   6506   6510     1
   6508   6513     1
   6508   6511     1
   6508   6512     1
   6509   6524     1
   6509   6525     1
   6509   6516     1
   6509   6518     1
   6510   6513     1
   6510   6511     1
   6510   6512     1
   6511   6514     1
   6511   6515     1
   6512   6514     1
   6512   6515     1
   6513   6527     1
   6513   6528     1
   6513   6519     1
   6513   6520     1
   6514   6516     1
   6514   6518     1
   6515   6524     1
   6515   6525     1
   6516   6521     1
   6516   6519     1
   6516   6520     1
   6517   6532     1
   6518   6521     1
   6518   6519     1
   6518   6520     1
   6519   6522     1
   6519   6523     1
   6520   6522     1
   6520   6523     1
   6523   6532     1
   6524   6529     1
   6524   6527     1
   6524   6528     1
   6525   6529     1
   6525   6527     1
   6525   6528     1
   6526   6533     1
   6527   6530     1
   6527   6531     1
   6528   6530     1
   6528   6531     1
   6530   6533     1
   6534   6540     1
   6534   6541     1
   6535   6538     1
   6535   6537     1
   6535   6539     1
   6537   6542     1
   6537   6540     1
   6537   6541     1
   6538   6553     1
   6538   6554     1
   6538   6545     1
   6538   6547     1
   6539   6542     1
   6539   6540     1
   6539   6541     1
   6540   6543     1
   6540   6544     1
   6541   6543     1
   6541   6544     1
   6542   6556     1
   6542   6557     1
   6542   6548     1
   6542   6549     1
   6543   6545     1
   6543   6547     1
   6544   6553     1
   6544   6554     1
   6545   6550     1
   6545   6548     1
   6545   6549     1
   6546   6561     1
   6547   6550     1
   6547   6548     1
   6547   6549     1
   6548   6551     1
   6548   6552     1
   6549   6551     1
   6549   6552     1
   6552   6561     1
   6553   6558     1
   6553   6556     1
   6553   6557     1
   6554   6558     1
   6554   6556     1
   6554   6557     1
   6555   6562     1
   6556   6559     1
   6556   6560     1
   6557   6559     1
   6557   6560     1
   6559   6562     1
   6563   6569     1
   6563   6570     1
   6564   6567     1
   6564   6566     1
   6564   6568     1
   6566   6571     1
   6566   6569     1
   6566   6570     1
   6567   6582     1
   6567   6583     1
   6567   6574     1
   6567   6576     1
   6568   6571     1
   6568   6569     1
   6568   6570     1
   6569   6572     1
   6569   6573     1
   6570   6572     1
   6570   6573     1
   6571   6585     1
   6571   6586     1
   6571   6577     1
   6571   6578     1
   6572   6574     1
   6572   6576     1
   6573   6582     1
   6573   6583     1
   6574   6579     1
   6574   6577     1
   6574   6578     1
   6575   6590     1
   6576   6579     1
   6576   6577     1
   6576   6578     1
   6577   6580     1
   6577   6581     1
   6578   6580     1
   6578   6581     1
   6581   6590     1
   6582   6587     1
   6582   6585     1
   6582   6586     1
   6583   6587     1
   6583   6585     1
   6583   6586     1
   6584   6591     1
   6585   6588     1
   6585   6589     1
   6586   6588     1
   6586   6589     1
   6588   6591     1
   6592   6598     1
   6592   6599     1
   6593   6596     1
   6593   6595     1
   6593   6597     1
   6595   6600     1
   6595   6598     1
   6595   6599     1
   6596   6611     1
   6596   6612     1
   6596   6603     1
   6596   6605     1
   6597   6600     1
   6597   6598     1
   6597   6599     1
   6598   6601     1
   6598   6602     1
   6599   6601     1
   6599   6602     1
   6600   6614     1
   6600   6615     1
   6600   6606     1
   6600   6607     1
   6601   6603     1
   6601   6605     1
   6602   6611     1
   6602   6612     1
   6603   6608     1
   6603   6606     1
   6603   6607     1
   6604   6619     1
   6605   6608     1
   6605   6606     1
   6605   6607     1
   6606   6609     1
   6606   6610     1
   6607   6609     1
   6607   6610     1
   6610   6619     1
   6611   6616     1
   6611   6614     1
   6611   6615     1
   6612   6616     1
   6612   6614     1
   6612   6615     1
   6613   6620     1
   6614   6617     1
   6614   6618     1
   6615   6617     1
   6615   6618     1
   6617   6620     1
   6621   6627     1
   6621   6628     1
   6622   6625     1
   6622   6624     1
   6622   6626     1
   6624   6629     1
   6624   6627     1
   6624   6628     1
   6625   6640     1
   6625   6641     1
   6625   6632     1
   6625   6634     1
   6626   6629     1
   6626   6627     1
   6626   6628     1
   6627   6630     1
   6627   6631     1
   6628   6630     1
   6628   6631     1
   6629   6643     1
   6629   6644     1
   6629   6635     1
   6629   6636     1
   6630   6632     1
   6630   6634     1
   6631   6640     1
   6631   6641     1
   6632   6637     1
   6632   6635     1
   6632   6636     1
   6633   6648     1
   6634   6637     1
   6634   6635     1
   6634   6636     1
   6635   6638     1
   6635   6639     1
   6636   6638     1
   6636   6639     1
   6639   6648     1
   6640   6645     1
   6640   6643     1
   6640   6644     1
   6641   6645     1
   6641   6643     1
   6641   6644     1
   6642   6649     1
   6643   6646     1
   6643   6647     1
   6644   6646     1
   6644   6647     1
   6646   6649     1
   6650   6656     1
   6650   6657     1
   6651   6654     1
   6651   6653     1
   6651   6655     1
   6653   6658     1
   6653   6656     1
   6653   6657     1
   6654   6669     1
   6654   6670     1
   6654   6661     1
   6654   6663     1
   6655   6658     1
   6655   6656     1
   6655   6657     1
   6656   6659     1
   6656   6660     1
   6657   6659     1
   6657   6660     1
   6658   6672     1
   6658   6673     1
   6658   6664     1
   6658   6665     1
   6659   6661     1
   6659   6663     1
   6660   6669     1
   6660   6670     1
   6661   6666     1
   6661   6664     1
   6661   6665     1
   6662   6677     1
   6663   6666     1
   6663   6664     1
   6663   6665     1
   6664   6667     1
   6664   6668     1
   6665   6667     1
   6665   6668     1
   6668   6677     1
   6669   6674     1
   6669   6672     1
   6669   6673     1
   6670   6674     1
   6670   6672     1
   6670   6673     1
   6671   6678     1
   6672   6675     1
   6672   6676     1
   6673   6675     1
   6673   6676     1
   6675   6678     1
   6679   6685     1
   6679   6686     1
   6680   6683     1
   6680   6682     1
   6680   6684     1
   6682   6687     1
   6682   6685     1
   6682   6686     1
   6683   6698     1
   6683   6699     1
   6683   6690     1
   6683   6692     1
   6684   6687     1
   6684   6685     1
   6684   6686     1
   6685   6688     1
   6685   6689     1
   6686   6688     1
   6686   6689     1
   6687   6701     1
   6687   6702     1
   6687   6693     1
   6687   6694     1
   6688   6690     1
   6688   6692     1
   6689   6698     1
   6689   6699     1
   6690   6695     1
   6690   6693     1
   6690   6694     1
   6691   6706     1
   6692   6695     1
   6692   6693     1
   6692   6694     1
   6693   6696     1
   6693   6697     1
   6694   6696     1
   6694   6697     1
   6697   6706     1
   6698   6703     1
   6698   6701     1
   6698   6702     1
   6699   6703     1
   6699   6701     1
   6699   6702     1
   6700   6707     1
   6701   6704     1
   6701   6705     1
   6702   6704     1
   6702   6705     1
   6704   6707     1
   6708   6714     1
   6708   6715     1
   6709   6712     1
   6709   6711     1
   6709   6713     1
   6711   6716     1
   6711   6714     1
   6711   6715     1
   6712   6727     1
   6712   6728     1
   6712   6719     1
   6712   6721     1
   6713   6716     1
   6713   6714     1
   6713   6715     1
   6714   6717     1
   6714   6718     1
   6715   6717     1
   6715   6718     1
   6716   6730     1
   6716   6731     1
   6716   6722     1
   6716   6723     1
   6717   6719     1
   6717   6721     1
   6718   6727     1
   6718   6728     1
   6719   6724     1
   6719   6722     1
   6719   6723     1
   6720   6735     1
   6721   6724     1
   6721   6722     1
   6721   6723     1
   6722   6725     1
   6722   6726     1
   6723   6725     1
   6723   6726     1
   6726   6735     1
   6727   6732     1
   6727   6730     1
   6727   6731     1
   6728   6732     1
   6728   6730     1
   6728   6731     1
   6729   6736     1
   6730   6733     1
   6730   6734     1
   6731   6733     1
   6731   6734     1
   6733   6736     1
   6737   6743     1
   6737   6744     1
   6738   6741     1
   6738   6740     1
   6738   6742     1
   6740   6745     1
   6740   6743     1
   6740   6744     1
   6741   6756     1
   6741   6757     1
   6741   6748     1
   6741   6750     1
   6742   6745     1
   6742   6743     1
   6742   6744     1
   6743   6746     1
   6743   6747     1
   6744   6746     1
   6744   6747     1
   6745   6759     1
   6745   6760     1
   6745   6751     1
   6745   6752     1
   6746   6748     1
   6746   6750     1
   6747   6756     1
   6747   6757     1
   6748   6753     1
   6748   6751     1
   6748   6752     1
   6749   6764     1
   6750   6753     1
   6750   6751     1
   6750   6752     1
   6751   6754     1
   6751   6755     1
   6752   6754     1
   6752   6755     1
   6755   6764     1
   6756   6761     1
   6756   6759     1
   6756   6760     1
   6757   6761     1
   6757   6759     1
   6757   6760     1
   6758   6765     1
   6759   6762     1
   6759   6763     1
   6760   6762     1
   6760   6763     1
   6762   6765     1
   6766   6772     1
   6766   6773     1
   6767   6770     1
   6767   6769     1
   6767   6771     1
   6769   6774     1
   6769   6772     1
   6769   6773     1
   6770   6785     1
   6770   6786     1
   6770   6777     1
   6770   6779     1
   6771   6774     1
   6771   6772     1
   6771   6773     1
   6772   6775     1
   6772   6776     1
   6773   6775     1
   6773   6776     1
   6774   6788     1
   6774   6789     1
   6774   6780     1
   6774   6781     1
   6775   6777     1
   6775   6779     1
   6776   6785     1
   6776   6786     1
   6777   6782     1
   6777   6780     1
   6777   6781     1
   6778   6793     1
   6779   6782     1
   6779   6780     1
   6779   6781     1
   6780   6783     1
   6780   6784     1
   6781   6783     1
   6781   6784     1
   6784   6793     1
   6785   6790     1
   6785   6788     1
   6785   6789     1
   6786   6790     1
   6786   6788     1
   6786   6789     1
   6787   6794     1
   6788   6791     1
   6788   6792     1
   6789   6791     1
   6789   6792     1
   6791   6794     1
   6795   6801     1
   6795   6802     1
   6796   6799     1
   6796   6798     1
   6796   6800     1
   6798   6803     1
   6798   6801     1
   6798   6802     1
   6799   6814     1
   6799   6815     1
   6799   6806     1
   6799   6808     1
   6800   6803     1
   6800   6801     1
   6800   6802     1
   6801   6804     1
   6801   6805     1
   6802   6804     1
   6802   6805     1
   6803   6817     1
   6803   6818     1
   6803   6809     1
   6803   6810     1
   6804   6806     1
   6804   6808     1
   6805   6814     1
   6805   6815     1
   6806   6811     1
   6806   6809     1
   6806   6810     1
   6807   6822     1
   6808   6811     1
   6808   6809     1
   6808   6810     1
   6809   6812     1
   6809   6813     1
   6810   6812     1
   6810   6813     1
   6813   6822     1
   6814   6819     1
   6814   6817     1
   6814   6818     1
   6815   6819     1
   6815   6817     1
   6815   6818     1
   6816   6823     1
   6817   6820     1
   6817   6821     1
   6818   6820     1
   6818   6821     1
   6820   6823     1
   6824   6830     1
   6824   6831     1
   6825   6828     1
   6825   6827     1
   6825   6829     1
   6827   6832     1
   6827   6830     1
   6827   6831     1
   6828   6843     1
   6828   6844     1
   6828   6835     1
   6828   6837     1
   6829   6832     1
   6829   6830     1
   6829   6831     1
   6830   6833     1
   6830   6834     1
   6831   6833     1
   6831   6834     1
   6832   6846     1
   6832   6847     1
   6832   6838     1
   6832   6839     1
   6833   6835     1
   6833   6837     1
   6834   6843     1
   6834   6844     1
   6835   6840     1
   6835   6838     1
   6835   6839     1
   6836   6851     1
   6837   6840     1
   6837   6838     1
   6837   6839     1
   6838   6841     1
   6838   6842     1
   6839   6841     1
   6839   6842     1
   6842   6851     1
   6843   6848     1
   6843   6846     1
   6843   6847     1
   6844   6848     1
   6844   6846     1
   6844   6847     1
   6845   6852     1
   6846   6849     1
   6846   6850     1
   6847   6849     1
   6847   6850     1
   6849   6852     1

[ angles ]
;    ai     aj     ak funct         c0         c1         c2         c3
      1      4      7     1   111.0400475 552.288000
      1      8      9     1   112.3500484 533.878400
      1      8     12     1   112.3500484 533.878400
      4      1      8     1   111.0400475 552.288000
      4      7     15     1   112.3500484 533.878400
      4      7     18     1   112.3500484 533.878400
      7     15     21     1   111.0400475 552.288000
      7     18     24     1   111.0400475 552.288000
      8      9     30     1   111.0400475 552.288000
      8     12     27     1   111.0400475 552.288000
      9      8     12     1   112.3500484 533.878400
      9     30     34     1   111.0400475 529.694400
     12     27     33     1   111.0400475 529.694400
     15      7     18     1   112.3500484 533.878400
     15     21     35     1   111.0400475 529.694400
     18     24     36     1   111.0400475 529.694400
     21     35     38     1   123.2000528 564.003200
     21     35    114     1   115.1800491 558.982400
     24     36     39     1   123.2000528 564.003200
     24     36    139     1   115.1800491 558.982400
     27     33     37     1   123.2000528 564.003200
     27     33     64     1   115.1800491 558.982400
     30     34     40     1   123.2000528 564.003200
     30     34     89     1   115.1800491 558.982400
     33     64     44     1   120.6900519 530.531200
     34     89     69     1   120.6900519 530.531200
     35    114     94     1   120.6900519 530.531200
     36    139    119     1   120.6900519 530.531200
     37     33     64     1   123.0500530 620.905600
     38     35    114     1   123.0500530 620.905600
     39     36    139     1   123.0500530 620.905600
     40     34     89     1   123.0500530 620.905600
     41     44     64     1   111.6100477 551.451200
     41     47     48     1   112.3500484 533.878400
     41     47     51     1   112.3500484 533.878400
     44     41     47     1   111.0400475 552.288000
     47     48     57     1   111.0400475 552.288000
     47     51     54     1   111.0400475 552.288000
     48     47     51     1   112.3500484 533.878400
     48     57     61     1   111.0400475 529.694400
     51     54     60     1   111.0400475 529.694400
     54     60     62     1   123.2000528 564.003200
     54     60    164     1   115.1800491 558.982400
     57     61     63     1   123.2000528 564.003200
     57     61    189     1   115.1800491 558.982400
     60    164    144     1   120.6900519 530.531200
     61    189    169     1   120.6900519 530.531200
     62     60    164     1   123.0500530 620.905600
     63     61    189     1   123.0500530 620.905600
     66     69     89     1   111.6100477 551.451200
     66     72     73     1   112.3500484 533.878400
     66     72     76     1   112.3500484 533.878400
     69     66     72     1   111.0400475 552.288000
     72     73     82     1   111.0400475 552.288000
     72     76     79     1   111.0400475 552.288000
     73     72     76     1   112.3500484 533.878400
     73     82     86     1   111.0400475 529.694400
     76     79     85     1   111.0400475 529.694400
     79     85     87     1   123.2000528 564.003200
     79     85    214     1   115.1800491 558.982400
     82     86     88     1   123.2000528 564.003200
     82     86    239     1   115.1800491 558.982400
     85    214    194     1   120.6900519 530.531200
     86    239    219     1   120.6900519 530.531200
     87     85    214     1   123.0500530 620.905600
     88     86    239     1   123.0500530 620.905600
     91     94    114     1   111.6100477 551.451200
     91     97     98     1   112.3500484 533.878400
     91     97    101     1   112.3500484 533.878400
     94     91     97     1   111.0400475 552.288000
     97     98    107     1   111.0400475 552.288000
     97    101    104     1   111.0400475 552.288000
     98     97    101     1   112.3500484 533.878400
     98    107    111     1   111.0400475 529.694400
    101    104    110     1   111.0400475 529.694400
    104    110    112     1   123.2000528 564.003200
    104    110    264     1   115.1800491 558.982400
    107    111    113     1   123.2000528 564.003200
    107    111    289     1   115.1800491 558.982400
    110    264    244     1   120.6900519 530.531200
    111    289    269     1   120.6900519 530.531200
    112    110    264     1   123.0500530 620.905600
    113    111    289     1   123.0500530 620.905600
    116    119    139     1   111.6100477 551.451200
    116    122    123     1   112.3500484 533.878400
    116    122    126     1   112.3500484 533.878400
    119    116    122     1   111.0400475 552.288000
    122    123    132     1   111.0400475 552.288000
    122    126    129     1   111.0400475 552.288000
    123    122    126     1   112.3500484 533.878400
    123    132    136     1   111.0400475 529.694400
    126    129    135     1   111.0400475 529.694400
    129    135    137     1   123.2000528 564.003200
    129    135    314     1   115.1800491 558.982400
    132    136    138     1   123.2000528 564.003200
    132    136    339     1   115.1800491 558.982400
    135    314    294     1   120.6900519 530.531200
    136    339    319     1   120.6900519 530.531200
    137    135    314     1   123.0500530 620.905600
    138    136    339     1   123.0500530 620.905600
    141    144    164     1   111.6100477 551.451200
    141    147    148     1   112.3500484 533.878400
    141    147    151     1   112.3500484 533.878400
    144    141    147     1   111.0400475 552.288000
    147    148    157     1   111.0400475 552.288000
    147    151    154     1   111.0400475 552.288000
    148    147    151     1   112.3500484 533.878400
    148    157    161     1   111.0400475 529.694400
    151    154    160     1   111.0400475 529.694400
    154    160    162     1   123.2000528 564.003200
    154    160    364     1   115.1800491 558.982400
    157    161    163     1   123.2000528 564.003200
    157    161    389     1   115.1800491 558.982400
    160    364    344     1   120.6900519 530.531200
    161    389    369     1   120.6900519 530.531200
    162    160    364     1   123.0500530 620.905600
    163    161    389     1   123.0500530 620.905600
    166    169    189     1   111.6100477 551.451200
    166    172    173     1   112.3500484 533.878400
    166    172    176     1   112.3500484 533.878400
    169    166    172     1   111.0400475 552.288000
    172    173    182     1   111.0400475 552.288000
    172    176    179     1   111.0400475 552.288000
    173    172    176     1   112.3500484 533.878400
    173    182    186     1   111.0400475 529.694400
    176    179    185     1   111.0400475 529.694400
    179    185    187     1   123.2000528 564.003200
    179    185    414     1   115.1800491 558.982400
    182    186    188     1   123.2000528 564.003200
    182    186    439     1   115.1800491 558.982400
    185    414    394     1   120.6900519 530.531200
    186    439    419     1   120.6900519 530.531200
    187    185    414     1   123.0500530 620.905600
    188    186    439     1   123.0500530 620.905600
    191    194    214     1   111.6100477 551.451200
    191    197    198     1   112.3500484 533.878400
    191    197    201     1   112.3500484 533.878400
    194    191    197     1   111.0400475 552.288000
    197    198    207     1   111.0400475 552.288000
    197    201    204     1   111.0400475 552.288000
    198    197    201     1   112.3500484 533.878400
    198    207    211     1   111.0400475 529.694400
    201    204    210     1   111.0400475 529.694400
    204    210    212     1   123.2000528 564.003200
    204    210    464     1   115.1800491 558.982400
    207    211    213     1   123.2000528 564.003200
    207    211    489     1   115.1800491 558.982400
    210    464    444     1   120.6900519 530.531200
    211    489    469     1   120.6900519 530.531200
    212    210    464     1   123.0500530 620.905600
    213    211    489     1   123.0500530 620.905600
    216    219    239     1   111.6100477 551.451200
    216    222    223     1   112.3500484 533.878400
    216    222    226     1   112.3500484 533.878400
    219    216    222     1   111.0400475 552.288000
    222    223    232     1   111.0400475 552.288000
    222    226    229     1   111.0400475 552.288000
    223    222    226     1   112.3500484 533.878400
    223    232    236     1   111.0400475 529.694400
    226    229    235     1   111.0400475 529.694400
    229    235    237     1   123.2000528 564.003200
    229    235    514     1   115.1800491 558.982400
    232    236    238     1   123.2000528 564.003200
    232    236    539     1   115.1800491 558.982400
    235    514    494     1   120.6900519 530.531200
    236    539    519     1   120.6900519 530.531200
    237    235    514     1   123.0500530 620.905600
    238    236    539     1   123.0500530 620.905600
    241    244    264     1   111.6100477 551.451200
    241    247    248     1   112.3500484 533.878400
    241    247    251     1   112.3500484 533.878400
    244    241    247     1   111.0400475 552.288000
    247    248    257     1   111.0400475 552.288000
    247    251    254     1   111.0400475 552.288000
    248    247    251     1   112.3500484 533.878400
    248    257    261     1   111.0400475 529.694400
    251    254    260     1   111.0400475 529.694400
    254    260    262     1   123.2000528 564.003200
    254    260    564     1   115.1800491 558.982400
    257    261    263     1   123.2000528 564.003200
    257    261    589     1   115.1800491 558.982400
    260    564    544     1   120.6900519 530.531200
    261    589    569     1   120.6900519 530.531200
    262    260    564     1   123.0500530 620.905600
    263    261    589     1   123.0500530 620.905600
    266    269    289     1   111.6100477 551.451200
    266    272    273     1   112.3500484 533.878400
    266    272    276     1   112.3500484 533.878400
    269    266    272     1   111.0400475 552.288000
    272    273    282     1   111.0400475 552.288000
    272    276    279     1   111.0400475 552.288000
    273    272    276     1   112.3500484 533.878400
    273    282    286     1   111.0400475 529.694400
    276    279    285     1   111.0400475 529.694400
    279    285    287     1   123.2000528 564.003200
    279    285    614     1   115.1800491 558.982400
    282    286    288     1   123.2000528 564.003200
    282    286    639     1   115.1800491 558.982400
    285    614    594     1   120.6900519 530.531200
    286    639    619     1   120.6900519 530.531200
    287    285    614     1   123.0500530 620.905600
    288    286    639     1   123.0500530 620.905600
    291    294    314     1   111.6100477 551.451200
    291    297    298     1   112.3500484 533.878400
    291    297    301     1   112.3500484 533.878400
    294    291    297     1   111.0400475 552.288000
    297    298    307     1   111.0400475 552.288000
    297    301    304     1   111.0400475 552.288000
    298    297    301     1   112.3500484 533.878400
    298    307    311     1   111.0400475 529.694400
    301    304    310     1   111.0400475 529.694400
    304    310    312     1   123.2000528 564.003200
    304    310    664     1   115.1800491 558.982400
    307    311    313     1   123.2000528 564.003200
    307    311    689     1   115.1800491 558.982400
    310    664    644     1   120.6900519 530.531200
    311    689    669     1   120.6900519 530.531200
    312    310    664     1   123.0500530 620.905600
    313    311    689     1   123.0500530 620.905600
    316    319    339     1   111.6100477 551.451200
    316    322    323     1   112.3500484 533.878400
    316    322    326     1   112.3500484 533.878400
    319    316    322     1   111.0400475 552.288000
    322    323    332     1   111.0400475 552.288000
    322    326    329     1   111.0400475 552.288000
    323    322    326     1   112.3500484 533.878400
    323    332    336     1   111.0400475 529.694400
    326    329    335     1   111.0400475 529.694400
    329    335    337     1   123.2000528 564.003200
    329    335    714     1   115.1800491 558.982400
    332    336    338     1   123.2000528 564.003200
    332    336    739     1   115.1800491 558.982400
    335    714    694     1   120.6900519 530.531200
    336    739    719     1   120.6900519 530.531200
    337    335    714     1   123.0500530 620.905600
    338    336    739     1   123.0500530 620.905600
    341    344    364     1   111.6100477 551.451200
    341    347    348     1   112.3500484 533.878400
    341    347    351     1   112.3500484 533.878400
    344    341    347     1   111.0400475 552.288000
    347    348    357     1   111.0400475 552.288000
    347    351    354     1   111.0400475 552.288000
    348    347    351     1   112.3500484 533.878400
    348    357    361     1   111.0400475 529.694400
    351    354    360     1   111.0400475 529.694400
    354    360    362     1   123.2000528 564.003200
    354    360    764     1   115.1800491 558.982400
    357    361    363     1   123.2000528 564.003200
    357    361    789     1   115.1800491 558.982400
    360    764    744     1   120.6900519 530.531200
    361    789    769     1   120.6900519 530.531200
    362    360    764     1   123.0500530 620.905600
    363    361    789     1   123.0500530 620.905600
    366    369    389     1   111.6100477 551.451200
    366    372    373     1   112.3500484 533.878400
    366    372    376     1   112.3500484 533.878400
    369    366    372     1   111.0400475 552.288000
    372    373    382     1   111.0400475 552.288000
    372    376    379     1   111.0400475 552.288000
    373    372    376     1   112.3500484 533.878400
    373    382    386     1   111.0400475 529.694400
    376    379    385     1   111.0400475 529.694400
    379    385    387     1   123.2000528 564.003200
    379    385    814     1   115.1800491 558.982400
    382    386    388     1   123.2000528 564.003200
    382    386    839     1   115.1800491 558.982400
    385    814    794     1   120.6900519 530.531200
    386    839    819     1   120.6900519 530.531200
    387    385    814     1   123.0500530 620.905600
    388    386    839     1   123.0500530 620.905600
    391    394    414     1   111.6100477 551.451200
    391    397    398     1   112.3500484 533.878400
    391    397    401     1   112.3500484 533.878400
    394    391    397     1   111.0400475 552.288000
    397    398    407     1   111.0400475 552.288000
    397    401    404     1   111.0400475 552.288000
    398    397    401     1   112.3500484 533.878400
    398    407    411     1   111.0400475 529.694400
    401    404    410     1   111.0400475 529.694400
    404    410    412     1   123.2000528 564.003200
    404    410    864     1   115.1800491 558.982400
    407    411    413     1   123.2000528 564.003200
    407    411    889     1   115.1800491 558.982400
    410    864    844     1   120.6900519 530.531200
    411    889    869     1   120.6900519 530.531200
    412    410    864     1   123.0500530 620.905600
    413    411    889     1   123.0500530 620.905600
    416    419    439     1   111.6100477 551.451200
    416    422    423     1   112.3500484 533.878400
    416    422    426     1   112.3500484 533.878400
    419    416    422     1   111.0400475 552.288000
    422    423    432     1   111.0400475 552.288000
    422    426    429     1   111.0400475 552.288000
    423    422    426     1   112.3500484 533.878400
    423    432    436     1   111.0400475 529.694400
    426    429    435     1   111.0400475 529.694400
    429    435    437     1   123.2000528 564.003200
    429    435    914     1   115.1800491 558.982400
    432    436    438     1   123.2000528 564.003200
    432    436    939     1   115.1800491 558.982400
    435    914    894     1   120.6900519 530.531200
    436    939    919     1   120.6900519 530.531200
    437    435    914     1   123.0500530 620.905600
    438    436    939     1   123.0500530 620.905600
    441    444    464     1   111.6100477 551.451200
    441    447    448     1   112.3500484 533.878400
    441    447    451     1   112.3500484 533.878400
    444    441    447     1   111.0400475 552.288000
    447    448    457     1   111.0400475 552.288000
    447    451    454     1   111.0400475 552.288000
    448    447    451     1   112.3500484 533.878400
    448    457    461     1   111.0400475 529.694400
    451    454    460     1   111.0400475 529.694400
    454    460    462     1   123.2000528 564.003200
    454    460    964     1   115.1800491 558.982400
    457    461    463     1   123.2000528 564.003200
    457    461    989     1   115.1800491 558.982400
    460    964    944     1   120.6900519 530.531200
    461    989    969     1   120.6900519 530.531200
    462    460    964     1   123.0500530 620.905600
    463    461    989     1   123.0500530 620.905600
    466    469    489     1   111.6100477 551.451200
    466    472    473     1   112.3500484 533.878400
    466    472    476     1   112.3500484 533.878400
    469    466    472     1   111.0400475 552.288000
    472    473    482     1   111.0400475 552.288000
    472    476    479     1   111.0400475 552.288000
    473    472    476     1   112.3500484 533.878400
    473    482    486     1   111.0400475 529.694400
    476    479    485     1   111.0400475 529.694400
    479    485    487     1   123.2000528 564.003200
    479    485   1014     1   115.1800491 558.982400
    482    486    488     1   123.2000528 564.003200
    482    486   1039     1   115.1800491 558.982400
    485   1014    994     1   120.6900519 530.531200
    486   1039   1019     1   120.6900519 530.531200
    487    485   1014     1   123.0500530 620.905600
    488    486   1039     1   123.0500530 620.905600
    491    494    514     1   111.6100477 551.451200
    491    497    498     1   112.3500484 533.878400
    491    497    501     1   112.3500484 533.878400
    494    491    497     1   111.0400475 552.288000
    497    498    507     1   111.0400475 552.288000
    497    501    504     1   111.0400475 552.288000
    498    497    501     1   112.3500484 533.878400
    498    507    511     1   111.0400475 529.694400
    501    504    510     1   111.0400475 529.694400
    504    510    512     1   123.2000528 564.003200
    504    510   1064     1   115.1800491 558.982400
    507    511    513     1   123.2000528 564.003200
    507    511   1089     1   115.1800491 558.982400
    510   1064   1044     1   120.6900519 530.531200
    511   1089   1069     1   120.6900519 530.531200
    512    510   1064     1   123.0500530 620.905600
    513    511   1089     1   123.0500530 620.905600
    516    519    539     1   111.6100477 551.451200
    516    522    523     1   112.3500484 533.878400
    516    522    526     1   112.3500484 533.878400
    519    516    522     1   111.0400475 552.288000
    522    523    532     1   111.0400475 552.288000
    522    526    529     1   111.0400475 552.288000
    523    522    526     1   112.3500484 533.878400
    523    532    536     1   111.0400475 529.694400
    526    529    535     1   111.0400475 529.694400
    529    535    537     1   123.2000528 564.003200
    529    535   1114     1   115.1800491 558.982400
    532    536    538     1   123.2000528 564.003200
    532    536   1139     1   115.1800491 558.982400
    535   1114   1094     1   120.6900519 530.531200
    536   1139   1119     1   120.6900519 530.531200
    537    535   1114     1   123.0500530 620.905600
    538    536   1139     1   123.0500530 620.905600
    541    544    564     1   111.6100477 551.451200
    541    547    548     1   112.3500484 533.878400
    541    547    551     1   112.3500484 533.878400
    544    541    547     1   111.0400475 552.288000
    547    548    557     1   111.0400475 552.288000
    547    551    554     1   111.0400475 552.288000
    548    547    551     1   112.3500484 533.878400
    548    557    561     1   111.0400475 529.694400
    551    554    560     1   111.0400475 529.694400
    554    560    562     1   123.2000528 564.003200
    554    560   1164     1   115.1800491 558.982400
    557    561    563     1   123.2000528 564.003200
    557    561   1189     1   115.1800491 558.982400
    560   1164   1144     1   120.6900519 530.531200
    561   1189   1169     1   120.6900519 530.531200
    562    560   1164     1   123.0500530 620.905600
    563    561   1189     1   123.0500530 620.905600
    566    569    589     1   111.6100477 551.451200
    566    572    573     1   112.3500484 533.878400
    566    572    576     1   112.3500484 533.878400
    569    566    572     1   111.0400475 552.288000
    572    573    582     1   111.0400475 552.288000
    572    576    579     1   111.0400475 552.288000
    573    572    576     1   112.3500484 533.878400
    573    582    586     1   111.0400475 529.694400
    576    579    585     1   111.0400475 529.694400
    579    585    587     1   123.2000528 564.003200
    579    585   1214     1   115.1800491 558.982400
    582    586    588     1   123.2000528 564.003200
    582    586   1239     1   115.1800491 558.982400
    585   1214   1194     1   120.6900519 530.531200
    586   1239   1219     1   120.6900519 530.531200
    587    585   1214     1   123.0500530 620.905600
    588    586   1239     1   123.0500530 620.905600
    591    594    614     1   111.6100477 551.451200
    591    597    598     1   112.3500484 533.878400
    591    597    601     1   112.3500484 533.878400
    594    591    597     1   111.0400475 552.288000
    597    598    607     1   111.0400475 552.288000
    597    601    604     1   111.0400475 552.288000
    598    597    601     1   112.3500484 533.878400
    598    607    611     1   111.0400475 529.694400
    601    604    610     1   111.0400475 529.694400
    604    610    612     1   123.2000528 564.003200
    604    610   1264     1   115.1800491 558.982400
    607    611    613     1   123.2000528 564.003200
    607    611   1289     1   115.1800491 558.982400
    610   1264   1244     1   120.6900519 530.531200
    611   1289   1269     1   120.6900519 530.531200
    612    610   1264     1   123.0500530 620.905600
    613    611   1289     1   123.0500530 620.905600
    616    619    639     1   111.6100477 551.451200
    616    622    623     1   112.3500484 533.878400
    616    622    626     1   112.3500484 533.878400
    619    616    622     1   111.0400475 552.288000
    622    623    632     1   111.0400475 552.288000
    622    626    629     1   111.0400475 552.288000
    623    622    626     1   112.3500484 533.878400
    623    632    636     1   111.0400475 529.694400
    626    629    635     1   111.0400475 529.694400
    629    635    637     1   123.2000528 564.003200
    629    635   1314     1   115.1800491 558.982400
    632    636    638     1   123.2000528 564.003200
    632    636   1339     1   115.1800491 558.982400
    635   1314   1294     1   120.6900519 530.531200
    636   1339   1319     1   120.6900519 530.531200
    637    635   1314     1   123.0500530 620.905600
    638    636   1339     1   123.0500530 620.905600
    641    644    664     1   111.6100477 551.451200
    641    647    648     1   112.3500484 533.878400
    641    647    651     1   112.3500484 533.878400
    644    641    647     1   111.0400475 552.288000
    647    648    657     1   111.0400475 552.288000
    647    651    654     1   111.0400475 552.288000
    648    647    651     1   112.3500484 533.878400
    648    657    661     1   111.0400475 529.694400
    651    654    660     1   111.0400475 529.694400
    654    660    662     1   123.2000528 564.003200
    654    660   1364     1   115.1800491 558.982400
    657    661    663     1   123.2000528 564.003200
    657    661   1389     1   115.1800491 558.982400
    660   1364   1344     1   120.6900519 530.531200
    661   1389   1369     1   120.6900519 530.531200
    662    660   1364     1   123.0500530 620.905600
    663    661   1389     1   123.0500530 620.905600
    666    669    689     1   111.6100477 551.451200
    666    672    673     1   112.3500484 533.878400
    666    672    676     1   112.3500484 533.878400
    669    666    672     1   111.0400475 552.288000
    672    673    682     1   111.0400475 552.288000
    672    676    679     1   111.0400475 552.288000
    673    672    676     1   112.3500484 533.878400
    673    682    686     1   111.0400475 529.694400
    676    679    685     1   111.0400475 529.694400
    679    685    687     1   123.2000528 564.003200
    679    685   1414     1   115.1800491 558.982400
    682    686    688     1   123.2000528 564.003200
    682    686   1439     1   115.1800491 558.982400
    685   1414   1394     1   120.6900519 530.531200
    686   1439   1419     1   120.6900519 530.531200
    687    685   1414     1   123.0500530 620.905600
    688    686   1439     1   123.0500530 620.905600
    691    694    714     1   111.6100477 551.451200
    691    697    698     1   112.3500484 533.878400
    691    697    701     1   112.3500484 533.878400
    694    691    697     1   111.0400475 552.288000
    697    698    707     1   111.0400475 552.288000
    697    701    704     1   111.0400475 552.288000
    698    697    701     1   112.3500484 533.878400
    698    707    711     1   111.0400475 529.694400
    701    704    710     1   111.0400475 529.694400
    704    710    712     1   123.2000528 564.003200
    704    710   1464     1   115.1800491 558.982400
    707    711    713     1   123.2000528 564.003200
    707    711   1489     1   115.1800491 558.982400
    710   1464   1444     1   120.6900519 530.531200
    711   1489   1469     1   120.6900519 530.531200
    712    710   1464     1   123.0500530 620.905600
    713    711   1489     1   123.0500530 620.905600
    716    719    739     1   111.6100477 551.451200
    716    722    723     1   112.3500484 533.878400
    716    722    726     1   112.3500484 533.878400
    719    716    722     1   111.0400475 552.288000
    722    723    732     1   111.0400475 552.288000
    722    726    729     1   111.0400475 552.288000
    723    722    726     1   112.3500484 533.878400
    723    732    736     1   111.0400475 529.694400
    726    729    735     1   111.0400475 529.694400
    729    735    737     1   123.2000528 564.003200
    729    735   1514     1   115.1800491 558.982400
    732    736    738     1   123.2000528 564.003200
    732    736   1539     1   115.1800491 558.982400
    735   1514   1494     1   120.6900519 530.531200
    736   1539   1519     1   120.6900519 530.531200
    737    735   1514     1   123.0500530 620.905600
    738    736   1539     1   123.0500530 620.905600
    741    744    764     1   111.6100477 551.451200
    741    747    748     1   112.3500484 533.878400
    741    747    751     1   112.3500484 533.878400
    744    741    747     1   111.0400475 552.288000
    747    748    757     1   111.0400475 552.288000
    747    751    754     1   111.0400475 552.288000
    748    747    751     1   112.3500484 533.878400
    748    757    761     1   111.0400475 529.694400
    751    754    760     1   111.0400475 529.694400
    754    760    762     1   123.2000528 564.003200
    754    760   1564     1   115.1800491 558.982400
    757    761    763     1   123.2000528 564.003200
    757    761   1589     1   115.1800491 558.982400
    760   1564   1544     1   120.6900519 530.531200
    761   1589   1569     1   120.6900519 530.531200
    762    760   1564     1   123.0500530 620.905600
    763    761   1589     1   123.0500530 620.905600
    766    769    789     1   111.6100477 551.451200
    766    772    773     1   112.3500484 533.878400
    766    772    776     1   112.3500484 533.878400
    769    766    772     1   111.0400475 552.288000
    772    773    782     1   111.0400475 552.288000
    772    776    779     1   111.0400475 552.288000
    773    772    776     1   112.3500484 533.878400
    773    782    786     1   111.0400475 529.694400
    776    779    785     1   111.0400475 529.694400
    779    785    787     1   123.2000528 564.003200
    779    785   1614     1   115.1800491 558.982400
    782    786    788     1   123.2000528 564.003200
    782    786   1639     1   115.1800491 558.982400
    785   1614   1594     1   120.6900519 530.531200
    786   1639   1619     1   120.6900519 530.531200
    787    785   1614     1   123.0500530 620.905600
    788    786   1639     1   123.0500530 620.905600
    791    794    814     1   111.6100477 551.451200
    791    797    798     1   112.3500484 533.878400
    791    797    801     1   112.3500484 533.878400
    794    791    797     1   111.0400475 552.288000
    797    798    807     1   111.0400475 552.288000
    797    801    804     1   111.0400475 552.288000
    798    797    801     1   112.3500484 533.878400
    798    807    811     1   111.0400475 529.694400
    801    804    810     1   111.0400475 529.694400
    804    810    812     1   123.2000528 564.003200
    804    810   1664     1   115.1800491 558.982400
    807    811    813     1   123.2000528 564.003200
    807    811   1689     1   115.1800491 558.982400
    810   1664   1644     1   120.6900519 530.531200
    811   1689   1669     1   120.6900519 530.531200
    812    810   1664     1   123.0500530 620.905600
    813    811   1689     1   123.0500530 620.905600
    816    819    839     1   111.6100477 551.451200
    816    822    823     1   112.3500484 533.878400
    816    822    826     1   112.3500484 533.878400
    819    816    822     1   111.0400475 552.288000
    822    823    832     1   111.0400475 552.288000
    822    826    829     1   111.0400475 552.288000
    823    822    826     1   112.3500484 533.878400
    823    832    836     1   111.0400475 529.694400
    826    829    835     1   111.0400475 529.694400
    829    835    837     1   123.2000528 564.003200
    829    835   1714     1   115.1800491 558.982400
    832    836    838     1   123.2000528 564.003200
    832    836   1739     1   115.1800491 558.982400
    835   1714   1694     1   120.6900519 530.531200
    836   1739   1719     1   120.6900519 530.531200
    837    835   1714     1   123.0500530 620.905600
    838    836   1739     1   123.0500530 620.905600
    841    844    864     1   111.6100477 551.451200
    841    847    848     1   112.3500484 533.878400
    841    847    851     1   112.3500484 533.878400
    844    841    847     1   111.0400475 552.288000
    847    848    857     1   111.0400475 552.288000
    847    851    854     1   111.0400475 552.288000
    848    847    851     1   112.3500484 533.878400
    848    857    861     1   111.0400475 529.694400
    851    854    860     1   111.0400475 529.694400
    854    860    862     1   123.2000528 564.003200
    854    860   1764     1   115.1800491 558.982400
    857    861    863     1   123.2000528 564.003200
    857    861   1789     1   115.1800491 558.982400
    860   1764   1744     1   120.6900519 530.531200
    861   1789   1769     1   120.6900519 530.531200
    862    860   1764     1   123.0500530 620.905600
    863    861   1789     1   123.0500530 620.905600
    866    869    889     1   111.6100477 551.451200
    866    872    873     1   112.3500484 533.878400
    866    872    876     1   112.3500484 533.878400
    869    866    872     1   111.0400475 552.288000
    872    873    882     1   111.0400475 552.288000
    872    876    879     1   111.0400475 552.288000
    873    872    876     1   112.3500484 533.878400
    873    882    886     1   111.0400475 529.694400
    876    879    885     1   111.0400475 529.694400
    879    885    887     1   123.2000528 564.003200
    879    885   1814     1   115.1800491 558.982400
    882    886    888     1   123.2000528 564.003200
    882    886   1839     1   115.1800491 558.982400
    885   1814   1794     1   120.6900519 530.531200
    886   1839   1819     1   120.6900519 530.531200
    887    885   1814     1   123.0500530 620.905600
    888    886   1839     1   123.0500530 620.905600
    891    894    914     1   111.6100477 551.451200
    891    897    898     1   112.3500484 533.878400
    891    897    901     1   112.3500484 533.878400
    894    891    897     1   111.0400475 552.288000
    897    898    907     1   111.0400475 552.288000
    897    901    904     1   111.0400475 552.288000
    898    897    901     1   112.3500484 533.878400
    898    907    911     1   111.0400475 529.694400
    901    904    910     1   111.0400475 529.694400
    904    910    912     1   123.2000528 564.003200
    904    910   1864     1   115.1800491 558.982400
    907    911    913     1   123.2000528 564.003200
    907    911   1889     1   115.1800491 558.982400
    910   1864   1844     1   120.6900519 530.531200
    911   1889   1869     1   120.6900519 530.531200
    912    910   1864     1   123.0500530 620.905600
    913    911   1889     1   123.0500530 620.905600
    916    919    939     1   111.6100477 551.451200
    916    922    923     1   112.3500484 533.878400
    916    922    926     1   112.3500484 533.878400
    919    916    922     1   111.0400475 552.288000
    922    923    932     1   111.0400475 552.288000
    922    926    929     1   111.0400475 552.288000
    923    922    926     1   112.3500484 533.878400
    923    932    936     1   111.0400475 529.694400
    926    929    935     1   111.0400475 529.694400
    929    935    937     1   123.2000528 564.003200
    929    935   1914     1   115.1800491 558.982400
    932    936    938     1   123.2000528 564.003200
    932    936   1939     1   115.1800491 558.982400
    935   1914   1894     1   120.6900519 530.531200
    936   1939   1919     1   120.6900519 530.531200
    937    935   1914     1   123.0500530 620.905600
    938    936   1939     1   123.0500530 620.905600
    941    944    964     1   111.6100477 551.451200
    941    947    948     1   112.3500484 533.878400
    941    947    951     1   112.3500484 533.878400
    944    941    947     1   111.0400475 552.288000
    947    948    957     1   111.0400475 552.288000
    947    951    954     1   111.0400475 552.288000
    948    947    951     1   112.3500484 533.878400
    948    957    961     1   111.0400475 529.694400
    951    954    960     1   111.0400475 529.694400
    954    960    962     1   123.2000528 564.003200
    954    960   1964     1   115.1800491 558.982400
    957    961    963     1   123.2000528 564.003200
    957    961   1989     1   115.1800491 558.982400
    960   1964   1944     1   120.6900519 530.531200
    961   1989   1969     1   120.6900519 530.531200
    962    960   1964     1   123.0500530 620.905600
    963    961   1989     1   123.0500530 620.905600
    966    969    989     1   111.6100477 551.451200
    966    972    973     1   112.3500484 533.878400
    966    972    976     1   112.3500484 533.878400
    969    966    972     1   111.0400475 552.288000
    972    973    982     1   111.0400475 552.288000
    972    976    979     1   111.0400475 552.288000
    973    972    976     1   112.3500484 533.878400
    973    982    986     1   111.0400475 529.694400
    976    979    985     1   111.0400475 529.694400
    979    985    987     1   123.2000528 564.003200
    979    985   2014     1   115.1800491 558.982400
    982    986    988     1   123.2000528 564.003200
    982    986   2039     1   115.1800491 558.982400
    985   2014   1994     1   120.6900519 530.531200
    986   2039   2019     1   120.6900519 530.531200
    987    985   2014     1   123.0500530 620.905600
    988    986   2039     1   123.0500530 620.905600
    991    994   1014     1   111.6100477 551.451200
    991    997    998     1   112.3500484 533.878400
    991    997   1001     1   112.3500484 533.878400
    994    991    997     1   111.0400475 552.288000
    997    998   1007     1   111.0400475 552.288000
    997   1001   1004     1   111.0400475 552.288000
    998    997   1001     1   112.3500484 533.878400
    998   1007   1011     1   111.0400475 529.694400
   1001   1004   1010     1   111.0400475 529.694400
   1004   1010   1012     1   123.2000528 564.003200
   1004   1010   2064     1   115.1800491 558.982400
   1007   1011   1013     1   123.2000528 564.003200
   1007   1011   2089     1   115.1800491 558.982400
   1010   2064   2044     1   120.6900519 530.531200
   1011   2089   2069     1   120.6900519 530.531200
   1012   1010   2064     1   123.0500530 620.905600
   1013   1011   2089     1   123.0500530 620.905600
   1016   1019   1039     1   111.6100477 551.451200
   1016   1022   1023     1   112.3500484 533.878400
   1016   1022   1026     1   112.3500484 533.878400
   1019   1016   1022     1   111.0400475 552.288000
   1022   1023   1032     1   111.0400475 552.288000
   1022   1026   1029     1   111.0400475 552.288000
   1023   1022   1026     1   112.3500484 533.878400
   1023   1032   1036     1   111.0400475 529.694400
   1026   1029   1035     1   111.0400475 529.694400
   1029   1035   1037     1   123.2000528 564.003200
   1029   1035   2114     1   115.1800491 558.982400
   1032   1036   1038     1   123.2000528 564.003200
   1032   1036   2139     1   115.1800491 558.982400
   1035   2114   2094     1   120.6900519 530.531200
   1036   2139   2119     1   120.6900519 530.531200
   1037   1035   2114     1   123.0500530 620.905600
   1038   1036   2139     1   123.0500530 620.905600
   1041   1044   1064     1   111.6100477 551.451200
   1041   1047   1048     1   112.3500484 533.878400
   1041   1047   1051     1   112.3500484 533.878400
   1044   1041   1047     1   111.0400475 552.288000
   1047   1048   1057     1   111.0400475 552.288000
   1047   1051   1054     1   111.0400475 552.288000
   1048   1047   1051     1   112.3500484 533.878400
   1048   1057   1061     1   111.0400475 529.694400
   1051   1054   1060     1   111.0400475 529.694400
   1054   1060   1062     1   123.2000528 564.003200
   1054   1060   2164     1   115.1800491 558.982400
   1057   1061   1063     1   123.2000528 564.003200
   1057   1061   2189     1   115.1800491 558.982400
   1060   2164   2144     1   120.6900519 530.531200
   1061   2189   2169     1   120.6900519 530.531200
   1062   1060   2164     1   123.0500530 620.905600
   1063   1061   2189     1   123.0500530 620.905600
   1066   1069   1089     1   111.6100477 551.451200
   1066   1072   1073     1   112.3500484 533.878400
   1066   1072   1076     1   112.3500484 533.878400
   1069   1066   1072     1   111.0400475 552.288000
   1072   1073   1082     1   111.0400475 552.288000
   1072   1076   1079     1   111.0400475 552.288000
   1073   1072   1076     1   112.3500484 533.878400
   1073   1082   1086     1   111.0400475 529.694400
   1076   1079   1085     1   111.0400475 529.694400
   1079   1085   1087     1   123.2000528 564.003200
   1079   1085   2214     1   115.1800491 558.982400
   1082   1086   1088     1   123.2000528 564.003200
   1082   1086   2239     1   115.1800491 558.982400
   1085   2214   2194     1   120.6900519 530.531200
   1086   2239   2219     1   120.6900519 530.531200
   1087   1085   2214     1   123.0500530 620.905600
   1088   1086   2239     1   123.0500530 620.905600
   1091   1094   1114     1   111.6100477 551.451200
   1091   1097   1098     1   112.3500484 533.878400
   1091   1097   1101     1   112.3500484 533.878400
   1094   1091   1097     1   111.0400475 552.288000
   1097   1098   1107     1   111.0400475 552.288000
   1097   1101   1104     1   111.0400475 552.288000
   1098   1097   1101     1   112.3500484 533.878400
   1098   1107   1111     1   111.0400475 529.694400
   1101   1104   1110     1   111.0400475 529.694400
   1104   1110   1112     1   123.2000528 564.003200
   1104   1110   2264     1   115.1800491 558.982400
   1107   1111   1113     1   123.2000528 564.003200
   1107   1111   2289     1   115.1800491 558.982400
   1110   2264   2244     1   120.6900519 530.531200
   1111   2289   2269     1   120.6900519 530.531200
   1112   1110   2264     1   123.0500530 620.905600
   1113   1111   2289     1   123.0500530 620.905600
   1116   1119   1139     1   111.6100477 551.451200
   1116   1122   1123     1   112.3500484 533.878400
   1116   1122   1126     1   112.3500484 533.878400
   1119   1116   1122     1   111.0400475 552.288000
   1122   1123   1132     1   111.0400475 552.288000
   1122   1126   1129     1   111.0400475 552.288000
   1123   1122   1126     1   112.3500484 533.878400
   1123   1132   1136     1   111.0400475 529.694400
   1126   1129   1135     1   111.0400475 529.694400
   1129   1135   1137     1   123.2000528 564.003200
   1129   1135   2314     1   115.1800491 558.982400
   1132   1136   1138     1   123.2000528 564.003200
   1132   1136   2339     1   115.1800491 558.982400
   1135   2314   2294     1   120.6900519 530.531200
   1136   2339   2319     1   120.6900519 530.531200
   1137   1135   2314     1   123.0500530 620.905600
   1138   1136   2339     1   123.0500530 620.905600
   1141   1144   1164     1   111.6100477 551.451200
   1141   1147   1148     1   112.3500484 533.878400
   1141   1147   1151     1   112.3500484 533.878400
   1144   1141   1147     1   111.0400475 552.288000
   1147   1148   1157     1   111.0400475 552.288000
   1147   1151   1154     1   111.0400475 552.288000
   1148   1147   1151     1   112.3500484 533.878400
   1148   1157   1161     1   111.0400475 529.694400
   1151   1154   1160     1   111.0400475 529.694400
   1154   1160   1162     1   123.2000528 564.003200
   1154   1160   2364     1   115.1800491 558.982400
   1157   1161   1163     1   123.2000528 564.003200
   1157   1161   2389     1   115.1800491 558.982400
   1160   2364   2344     1   120.6900519 530.531200
   1161   2389   2369     1   120.6900519 530.531200
   1162   1160   2364     1   123.0500530 620.905600
   1163   1161   2389     1   123.0500530 620.905600
   1166   1169   1189     1   111.6100477 551.451200
   1166   1172   1173     1   112.3500484 533.878400
   1166   1172   1176     1   112.3500484 533.878400
   1169   1166   1172     1   111.0400475 552.288000
   1172   1173   1182     1   111.0400475 552.288000
   1172   1176   1179     1   111.0400475 552.288000
   1173   1172   1176     1   112.3500484 533.878400
   1173   1182   1186     1   111.0400475 529.694400
   1176   1179   1185     1   111.0400475 529.694400
   1179   1185   1187     1   123.2000528 564.003200
   1179   1185   2414     1   115.1800491 558.982400
   1182   1186   1188     1   123.2000528 564.003200
   1182   1186   2439     1   115.1800491 558.982400
   1185   2414   2394     1   120.6900519 530.531200
   1186   2439   2419     1   120.6900519 530.531200
   1187   1185   2414     1   123.0500530 620.905600
   1188   1186   2439     1   123.0500530 620.905600
   1191   1194   1214     1   111.6100477 551.451200
   1191   1197   1198     1   112.3500484 533.878400
   1191   1197   1201     1   112.3500484 533.878400
   1194   1191   1197     1   111.0400475 552.288000
   1197   1198   1207     1   111.0400475 552.288000
   1197   1201   1204     1   111.0400475 552.288000
   1198   1197   1201     1   112.3500484 533.878400
   1198   1207   1211     1   111.0400475 529.694400
   1201   1204   1210     1   111.0400475 529.694400
   1204   1210   1212     1   123.2000528 564.003200
   1204   1210   2464     1   115.1800491 558.982400
   1207   1211   1213     1   123.2000528 564.003200
   1207   1211   2489     1   115.1800491 558.982400
   1210   2464   2444     1   120.6900519 530.531200
   1211   2489   2469     1   120.6900519 530.531200
   1212   1210   2464     1   123.0500530 620.905600
   1213   1211   2489     1   123.0500530 620.905600
   1216   1219   1239     1   111.6100477 551.451200
   1216   1222   1223     1   112.3500484 533.878400
   1216   1222   1226     1   112.3500484 533.878400
   1219   1216   1222     1   111.0400475 552.288000
   1222   1223   1232     1   111.0400475 552.288000
   1222   1226   1229     1   111.0400475 552.288000
   1223   1222   1226     1   112.3500484 533.878400
   1223   1232   1236     1   111.0400475 529.694400
   1226   1229   1235     1   111.0400475 529.694400
   1229   1235   1237     1   123.2000528 564.003200
   1229   1235   2514     1   115.1800491 558.982400
   1232   1236   1238     1   123.2000528 564.003200
   1232   1236   2539     1   115.1800491 558.982400
   1235   2514   2494     1   120.6900519 530.531200
   1236   2539   2519     1   120.6900519 530.531200
   1237   1235   2514     1   123.0500530 620.905600
   1238   1236   2539     1   123.0500530 620.905600
   1241   1244   1264     1   111.6100477 551.451200
   1241   1247   1248     1   112.3500484 533.878400
   1241   1247   1251     1   112.3500484 533.878400
   1244   1241   1247     1   111.0400475 552.288000
   1247   1248   1257     1   111.0400475 552.288000
   1247   1251   1254     1   111.0400475 552.288000
   1248   1247   1251     1   112.3500484 533.878400
   1248   1257   1261     1   111.0400475 529.694400
   1251   1254   1260     1   111.0400475 529.694400
   1254   1260   1262     1   123.2000528 564.003200
   1254   1260   2564     1   115.1800491 558.982400
   1257   1261   1263     1   123.2000528 564.003200
   1257   1261   2589     1   115.1800491 558.982400
   1260   2564   2544     1   120.6900519 530.531200
   1261   2589   2569     1   120.6900519 530.531200
   1262   1260   2564     1   123.0500530 620.905600
   1263   1261   2589     1   123.0500530 620.905600
   1266   1269   1289     1   111.6100477 551.451200
   1266   1272   1273     1   112.3500484 533.878400
   1266   1272   1276     1   112.3500484 533.878400
   1269   1266   1272     1   111.0400475 552.288000
   1272   1273   1282     1   111.0400475 552.288000
   1272   1276   1279     1   111.0400475 552.288000
   1273   1272   1276     1   112.3500484 533.878400
   1273   1282   1286     1   111.0400475 529.694400
   1276   1279   1285     1   111.0400475 529.694400
   1279   1285   1287     1   123.2000528 564.003200
   1279   1285   2614     1   115.1800491 558.982400
   1282   1286   1288     1   123.2000528 564.003200
   1282   1286   2639     1   115.1800491 558.982400
   1285   2614   2594     1   120.6900519 530.531200
   1286   2639   2619     1   120.6900519 530.531200
   1287   1285   2614     1   123.0500530 620.905600
   1288   1286   2639     1   123.0500530 620.905600
   1291   1294   1314     1   111.6100477 551.451200
   1291   1297   1298     1   112.3500484 533.878400
   1291   1297   1301     1   112.3500484 533.878400
   1294   1291   1297     1   111.0400475 552.288000
   1297   1298   1307     1   111.0400475 552.288000
   1297   1301   1304     1   111.0400475 552.288000
   1298   1297   1301     1   112.3500484 533.878400
   1298   1307   1311     1   111.0400475 529.694400
   1301   1304   1310     1   111.0400475 529.694400
   1304   1310   1312     1   123.2000528 564.003200
   1304   1310   2664     1   115.1800491 558.982400
   1307   1311   1313     1   123.2000528 564.003200
   1307   1311   2689     1   115.1800491 558.982400
   1310   2664   2644     1   120.6900519 530.531200
   1311   2689   2669     1   120.6900519 530.531200
   1312   1310   2664     1   123.0500530 620.905600
   1313   1311   2689     1   123.0500530 620.905600
   1316   1319   1339     1   111.6100477 551.451200
   1316   1322   1323     1   112.3500484 533.878400
   1316   1322   1326     1   112.3500484 533.878400
   1319   1316   1322     1   111.0400475 552.288000
   1322   1323   1332     1   111.0400475 552.288000
   1322   1326   1329     1   111.0400475 552.288000
   1323   1322   1326     1   112.3500484 533.878400
   1323   1332   1336     1   111.0400475 529.694400
   1326   1329   1335     1   111.0400475 529.694400
   1329   1335   1337     1   123.2000528 564.003200
   1329   1335   2714     1   115.1800491 558.982400
   1332   1336   1338     1   123.2000528 564.003200
   1332   1336   2739     1   115.1800491 558.982400
   1335   2714   2694     1   120.6900519 530.531200
   1336   2739   2719     1   120.6900519 530.531200
   1337   1335   2714     1   123.0500530 620.905600
   1338   1336   2739     1   123.0500530 620.905600
   1341   1344   1364     1   111.6100477 551.451200
   1341   1347   1348     1   112.3500484 533.878400
   1341   1347   1351     1   112.3500484 533.878400
   1344   1341   1347     1   111.0400475 552.288000
   1347   1348   1357     1   111.0400475 552.288000
   1347   1351   1354     1   111.0400475 552.288000
   1348   1347   1351     1   112.3500484 533.878400
   1348   1357   1361     1   111.0400475 529.694400
   1351   1354   1360     1   111.0400475 529.694400
   1354   1360   1362     1   123.2000528 564.003200
   1354   1360   2764     1   115.1800491 558.982400
   1357   1361   1363     1   123.2000528 564.003200
   1357   1361   2789     1   115.1800491 558.982400
   1360   2764   2744     1   120.6900519 530.531200
   1361   2789   2769     1   120.6900519 530.531200
   1362   1360   2764     1   123.0500530 620.905600
   1363   1361   2789     1   123.0500530 620.905600
   1366   1369   1389     1   111.6100477 551.451200
   1366   1372   1373     1   112.3500484 533.878400
   1366   1372   1376     1   112.3500484 533.878400
   1369   1366   1372     1   111.0400475 552.288000
   1372   1373   1382     1   111.0400475 552.288000
   1372   1376   1379     1   111.0400475 552.288000
   1373   1372   1376     1   112.3500484 533.878400
   1373   1382   1386     1   111.0400475 529.694400
   1376   1379   1385     1   111.0400475 529.694400
   1379   1385   1387     1   123.2000528 564.003200
   1379   1385   2814     1   115.1800491 558.982400
   1382   1386   1388     1   123.2000528 564.003200
   1382   1386   2839     1   115.1800491 558.982400
   1385   2814   2794     1   120.6900519 530.531200
   1386   2839   2819     1   120.6900519 530.531200
   1387   1385   2814     1   123.0500530 620.905600
   1388   1386   2839     1   123.0500530 620.905600
   1391   1394   1414     1   111.6100477 551.451200
   1391   1397   1398     1   112.3500484 533.878400
   1391   1397   1401     1   112.3500484 533.878400
   1394   1391   1397     1   111.0400475 552.288000
   1397   1398   1407     1   111.0400475 552.288000
   1397   1401   1404     1   111.0400475 552.288000
   1398   1397   1401     1   112.3500484 533.878400
   1398   1407   1411     1   111.0400475 529.694400
   1401   1404   1410     1   111.0400475 529.694400
   1404   1410   1412     1   123.2000528 564.003200
   1404   1410   2864     1   115.1800491 558.982400
   1407   1411   1413     1   123.2000528 564.003200
   1407   1411   2889     1   115.1800491 558.982400
   1410   2864   2844     1   120.6900519 530.531200
   1411   2889   2869     1   120.6900519 530.531200
   1412   1410   2864     1   123.0500530 620.905600
   1413   1411   2889     1   123.0500530 620.905600
   1416   1419   1439     1   111.6100477 551.451200
   1416   1422   1423     1   112.3500484 533.878400
   1416   1422   1426     1   112.3500484 533.878400
   1419   1416   1422     1   111.0400475 552.288000
   1422   1423   1432     1   111.0400475 552.288000
   1422   1426   1429     1   111.0400475 552.288000
   1423   1422   1426     1   112.3500484 533.878400
   1423   1432   1436     1   111.0400475 529.694400
   1426   1429   1435     1   111.0400475 529.694400
   1429   1435   1437     1   123.2000528 564.003200
   1429   1435   2914     1   115.1800491 558.982400
   1432   1436   1438     1   123.2000528 564.003200
   1432   1436   2939     1   115.1800491 558.982400
   1435   2914   2894     1   120.6900519 530.531200
   1436   2939   2919     1   120.6900519 530.531200
   1437   1435   2914     1   123.0500530 620.905600
   1438   1436   2939     1   123.0500530 620.905600
   1441   1444   1464     1   111.6100477 551.451200
   1441   1447   1448     1   112.3500484 533.878400
   1441   1447   1451     1   112.3500484 533.878400
   1444   1441   1447     1   111.0400475 552.288000
   1447   1448   1457     1   111.0400475 552.288000
   1447   1451   1454     1   111.0400475 552.288000
   1448   1447   1451     1   112.3500484 533.878400
   1448   1457   1461     1   111.0400475 529.694400
   1451   1454   1460     1   111.0400475 529.694400
   1454   1460   1462     1   123.2000528 564.003200
   1454   1460   2964     1   115.1800491 558.982400
   1457   1461   1463     1   123.2000528 564.003200
   1457   1461   2989     1   115.1800491 558.982400
   1460   2964   2944     1   120.6900519 530.531200
   1461   2989   2969     1   120.6900519 530.531200
   1462   1460   2964     1   123.0500530 620.905600
   1463   1461   2989     1   123.0500530 620.905600
   1466   1469   1489     1   111.6100477 551.451200
   1466   1472   1473     1   112.3500484 533.878400
   1466   1472   1476     1   112.3500484 533.878400
   1469   1466   1472     1   111.0400475 552.288000
   1472   1473   1482     1   111.0400475 552.288000
   1472   1476   1479     1   111.0400475 552.288000
   1473   1472   1476     1   112.3500484 533.878400
   1473   1482   1486     1   111.0400475 529.694400
   1476   1479   1485     1   111.0400475 529.694400
   1479   1485   1487     1   123.2000528 564.003200
   1479   1485   3014     1   115.1800491 558.982400
   1482   1486   1488     1   123.2000528 564.003200
   1482   1486   3039     1   115.1800491 558.982400
   1485   3014   2994     1   120.6900519 530.531200
   1486   3039   3019     1   120.6900519 530.531200
   1487   1485   3014     1   123.0500530 620.905600
   1488   1486   3039     1   123.0500530 620.905600
   1491   1494   1514     1   111.6100477 551.451200
   1491   1497   1498     1   112.3500484 533.878400
   1491   1497   1501     1   112.3500484 533.878400
   1494   1491   1497     1   111.0400475 552.288000
   1497   1498   1507     1   111.0400475 552.288000
   1497   1501   1504     1   111.0400475 552.288000
   1498   1497   1501     1   112.3500484 533.878400
   1498   1507   1511     1   111.0400475 529.694400
   1501   1504   1510     1   111.0400475 529.694400
   1504   1510   1512     1   123.2000528 564.003200
   1504   1510   3064     1   115.1800491 558.982400
   1507   1511   1513     1   123.2000528 564.003200
   1507   1511   3089     1   115.1800491 558.982400
   1510   3064   3044     1   120.6900519 530.531200
   1511   3089   3069     1   120.6900519 530.531200
   1512   1510   3064     1   123.0500530 620.905600
   1513   1511   3089     1   123.0500530 620.905600
   1516   1519   1539     1   111.6100477 551.451200
   1516   1522   1523     1   112.3500484 533.878400
   1516   1522   1526     1   112.3500484 533.878400
   1519   1516   1522     1   111.0400475 552.288000
   1522   1523   1532     1   111.0400475 552.288000
   1522   1526   1529     1   111.0400475 552.288000
   1523   1522   1526     1   112.3500484 533.878400
   1523   1532   1536     1   111.0400475 529.694400
   1526   1529   1535     1   111.0400475 529.694400
   1529   1535   1537     1   123.2000528 564.003200
   1529   1535   3114     1   115.1800491 558.982400
   1532   1536   1538     1   123.2000528 564.003200
   1532   1536   3139     1   115.1800491 558.982400
   1535   3114   3094     1   120.6900519 530.531200
   1536   3139   3119     1   120.6900519 530.531200
   1537   1535   3114     1   123.0500530 620.905600
   1538   1536   3139     1   123.0500530 620.905600
   1541   1544   1564     1   111.6100477 551.451200
   1541   1547   1548     1   112.3500484 533.878400
   1541   1547   1551     1   112.3500484 533.878400
   1544   1541   1547     1   111.0400475 552.288000
   1547   1548   1557     1   111.0400475 552.288000
   1547   1551   1554     1   111.0400475 552.288000
   1548   1547   1551     1   112.3500484 533.878400
   1548   1557   1561     1   111.0400475 529.694400
   1551   1554   1560     1   111.0400475 529.694400
   1554   1560   3141     1   115.1800491 558.982400
   1554   1560   1562     1   123.2000528 564.003200
   1557   1561   1563     1   123.2000528 564.003200
   1557   1561   3170     1   115.1800491 558.982400
   1560   3141   3143     1   120.6900519 530.531200
   1561   3170   3172     1   120.6900519 530.531200
   1562   1560   3141     1   123.0500530 620.905600
   1563   1561   3170     1   123.0500530 620.905600
   1566   1569   1589     1   111.6100477 551.451200
   1566   1572   1573     1   112.3500484 533.878400
   1566   1572   1576     1   112.3500484 533.878400
   1569   1566   1572     1   111.0400475 552.288000
   1572   1573   1582     1   111.0400475 552.288000
   1572   1576   1579     1   111.0400475 552.288000
   1573   1572   1576     1   112.3500484 533.878400
   1573   1582   1586     1   111.0400475 529.694400
   1576   1579   1585     1   111.0400475 529.694400
   1579   1585   3199     1   115.1800491 558.982400
   1579   1585   1587     1   123.2000528 564.003200
   1582   1586   1588     1   123.2000528 564.003200
   1582   1586   3228     1   115.1800491 558.982400
   1585   3199   3201     1   120.6900519 530.531200
   1586   3228   3230     1   120.6900519 530.531200
   1587   1585   3199     1   123.0500530 620.905600
   1588   1586   3228     1   123.0500530 620.905600
   1591   1594   1614     1   111.6100477 551.451200
   1591   1597   1598     1   112.3500484 533.878400
   1591   1597   1601     1   112.3500484 533.878400
   1594   1591   1597     1   111.0400475 552.288000
   1597   1598   1607     1   111.0400475 552.288000
   1597   1601   1604     1   111.0400475 552.288000
   1598   1597   1601     1   112.3500484 533.878400
   1598   1607   1611     1   111.0400475 529.694400
   1601   1604   1610     1   111.0400475 529.694400
   1604   1610   3257     1   115.1800491 558.982400
   1604   1610   1612     1   123.2000528 564.003200
   1607   1611   1613     1   123.2000528 564.003200
   1607   1611   3286     1   115.1800491 558.982400
   1610   3257   3259     1   120.6900519 530.531200
   1611   3286   3288     1   120.6900519 530.531200
   1612   1610   3257     1   123.0500530 620.905600
   1613   1611   3286     1   123.0500530 620.905600
   1616   1619   1639     1   111.6100477 551.451200
   1616   1622   1623     1   112.3500484 533.878400
   1616   1622   1626     1   112.3500484 533.878400
   1619   1616   1622     1   111.0400475 552.288000
   1622   1623   1632     1   111.0400475 552.288000
   1622   1626   1629     1   111.0400475 552.288000
   1623   1622   1626     1   112.3500484 533.878400
   1623   1632   1636     1   111.0400475 529.694400
   1626   1629   1635     1   111.0400475 529.694400
   1629   1635   3315     1   115.1800491 558.982400
   1629   1635   1637     1   123.2000528 564.003200
   1632   1636   1638     1   123.2000528 564.003200
   1632   1636   3344     1   115.1800491 558.982400
   1635   3315   3317     1   120.6900519 530.531200
   1636   3344   3346     1   120.6900519 530.531200
   1637   1635   3315     1   123.0500530 620.905600
   1638   1636   3344     1   123.0500530 620.905600
   1641   1644   1664     1   111.6100477 551.451200
   1641   1647   1648     1   112.3500484 533.878400
   1641   1647   1651     1   112.3500484 533.878400
   1644   1641   1647     1   111.0400475 552.288000
   1647   1648   1657     1   111.0400475 552.288000
   1647   1651   1654     1   111.0400475 552.288000
   1648   1647   1651     1   112.3500484 533.878400
   1648   1657   1661     1   111.0400475 529.694400
   1651   1654   1660     1   111.0400475 529.694400
   1654   1660   3373     1   115.1800491 558.982400
   1654   1660   1662     1   123.2000528 564.003200
   1657   1661   1663     1   123.2000528 564.003200
   1657   1661   3402     1   115.1800491 558.982400
   1660   3373   3375     1   120.6900519 530.531200
   1661   3402   3404     1   120.6900519 530.531200
   1662   1660   3373     1   123.0500530 620.905600
   1663   1661   3402     1   123.0500530 620.905600
   1666   1669   1689     1   111.6100477 551.451200
   1666   1672   1673     1   112.3500484 533.878400
   1666   1672   1676     1   112.3500484 533.878400
   1669   1666   1672     1   111.0400475 552.288000
   1672   1673   1682     1   111.0400475 552.288000
   1672   1676   1679     1   111.0400475 552.288000
   1673   1672   1676     1   112.3500484 533.878400
   1673   1682   1686     1   111.0400475 529.694400
   1676   1679   1685     1   111.0400475 529.694400
   1679   1685   3431     1   115.1800491 558.982400
   1679   1685   1687     1   123.2000528 564.003200
   1682   1686   1688     1   123.2000528 564.003200
   1682   1686   3460     1   115.1800491 558.982400
   1685   3431   3433     1   120.6900519 530.531200
   1686   3460   3462     1   120.6900519 530.531200
   1687   1685   3431     1   123.0500530 620.905600
   1688   1686   3460     1   123.0500530 620.905600
   1691   1694   1714     1   111.6100477 551.451200
   1691   1697   1698     1   112.3500484 533.878400
   1691   1697   1701     1   112.3500484 533.878400
   1694   1691   1697     1   111.0400475 552.288000
   1697   1698   1707     1   111.0400475 552.288000
   1697   1701   1704     1   111.0400475 552.288000
   1698   1697   1701     1   112.3500484 533.878400
   1698   1707   1711     1   111.0400475 529.694400
   1701   1704   1710     1   111.0400475 529.694400
   1704   1710   3489     1   115.1800491 558.982400
   1704   1710   1712     1   123.2000528 564.003200
   1707   1711   1713     1   123.2000528 564.003200
   1707   1711   3518     1   115.1800491 558.982400
   1710   3489   3491     1   120.6900519 530.531200
   1711   3518   3520     1   120.6900519 530.531200
   1712   1710   3489     1   123.0500530 620.905600
   1713   1711   3518     1   123.0500530 620.905600
   1716   1719   1739     1   111.6100477 551.451200
   1716   1722   1723     1   112.3500484 533.878400
   1716   1722   1726     1   112.3500484 533.878400
   1719   1716   1722     1   111.0400475 552.288000
   1722   1723   1732     1   111.0400475 552.288000
   1722   1726   1729     1   111.0400475 552.288000
   1723   1722   1726     1   112.3500484 533.878400
   1723   1732   1736     1   111.0400475 529.694400
   1726   1729   1735     1   111.0400475 529.694400
   1729   1735   3547     1   115.1800491 558.982400
   1729   1735   1737     1   123.2000528 564.003200
   1732   1736   1738     1   123.2000528 564.003200
   1732   1736   3576     1   115.1800491 558.982400
   1735   3547   3549     1   120.6900519 530.531200
   1736   3576   3578     1   120.6900519 530.531200
   1737   1735   3547     1   123.0500530 620.905600
   1738   1736   3576     1   123.0500530 620.905600
   1741   1744   1764     1   111.6100477 551.451200
   1741   1747   1748     1   112.3500484 533.878400
   1741   1747   1751     1   112.3500484 533.878400
   1744   1741   1747     1   111.0400475 552.288000
   1747   1748   1757     1   111.0400475 552.288000
   1747   1751   1754     1   111.0400475 552.288000
   1748   1747   1751     1   112.3500484 533.878400
   1748   1757   1761     1   111.0400475 529.694400
   1751   1754   1760     1   111.0400475 529.694400
   1754   1760   3605     1   115.1800491 558.982400
   1754   1760   1762     1   123.2000528 564.003200
   1757   1761   1763     1   123.2000528 564.003200
   1757   1761   3634     1   115.1800491 558.982400
   1760   3605   3607     1   120.6900519 530.531200
   1761   3634   3636     1   120.6900519 530.531200
   1762   1760   3605     1   123.0500530 620.905600
   1763   1761   3634     1   123.0500530 620.905600
   1766   1769   1789     1   111.6100477 551.451200
   1766   1772   1773     1   112.3500484 533.878400
   1766   1772   1776     1   112.3500484 533.878400
   1769   1766   1772     1   111.0400475 552.288000
   1772   1773   1782     1   111.0400475 552.288000
   1772   1776   1779     1   111.0400475 552.288000
   1773   1772   1776     1   112.3500484 533.878400
   1773   1782   1786     1   111.0400475 529.694400
   1776   1779   1785     1   111.0400475 529.694400
   1779   1785   3663     1   115.1800491 558.982400
   1779   1785   1787     1   123.2000528 564.003200
   1782   1786   1788     1   123.2000528 564.003200
   1782   1786   3692     1   115.1800491 558.982400
   1785   3663   3665     1   120.6900519 530.531200
   1786   3692   3694     1   120.6900519 530.531200
   1787   1785   3663     1   123.0500530 620.905600
   1788   1786   3692     1   123.0500530 620.905600
   1791   1794   1814     1   111.6100477 551.451200
   1791   1797   1798     1   112.3500484 533.878400
   1791   1797   1801     1   112.3500484 533.878400
   1794   1791   1797     1   111.0400475 552.288000
   1797   1798   1807     1   111.0400475 552.288000
   1797   1801   1804     1   111.0400475 552.288000
   1798   1797   1801     1   112.3500484 533.878400
   1798   1807   1811     1   111.0400475 529.694400
   1801   1804   1810     1   111.0400475 529.694400
   1804   1810   3721     1   115.1800491 558.982400
   1804   1810   1812     1   123.2000528 564.003200
   1807   1811   1813     1   123.2000528 564.003200
   1807   1811   3750     1   115.1800491 558.982400
   1810   3721   3723     1   120.6900519 530.531200
   1811   3750   3752     1   120.6900519 530.531200
   1812   1810   3721     1   123.0500530 620.905600
   1813   1811   3750     1   123.0500530 620.905600
   1816   1819   1839     1   111.6100477 551.451200
   1816   1822   1823     1   112.3500484 533.878400
   1816   1822   1826     1   112.3500484 533.878400
   1819   1816   1822     1   111.0400475 552.288000
   1822   1823   1832     1   111.0400475 552.288000
   1822   1826   1829     1   111.0400475 552.288000
   1823   1822   1826     1   112.3500484 533.878400
   1823   1832   1836     1   111.0400475 529.694400
   1826   1829   1835     1   111.0400475 529.694400
   1829   1835   3779     1   115.1800491 558.982400
   1829   1835   1837     1   123.2000528 564.003200
   1832   1836   1838     1   123.2000528 564.003200
   1832   1836   3808     1   115.1800491 558.982400
   1835   3779   3781     1   120.6900519 530.531200
   1836   3808   3810     1   120.6900519 530.531200
   1837   1835   3779     1   123.0500530 620.905600
   1838   1836   3808     1   123.0500530 620.905600
   1841   1844   1864     1   111.6100477 551.451200
   1841   1847   1848     1   112.3500484 533.878400
   1841   1847   1851     1   112.3500484 533.878400
   1844   1841   1847     1   111.0400475 552.288000
   1847   1848   1857     1   111.0400475 552.288000
   1847   1851   1854     1   111.0400475 552.288000
   1848   1847   1851     1   112.3500484 533.878400
   1848   1857   1861     1   111.0400475 529.694400
   1851   1854   1860     1   111.0400475 529.694400
   1854   1860   3837     1   115.1800491 558.982400
   1854   1860   1862     1   123.2000528 564.003200
   1857   1861   1863     1   123.2000528 564.003200
   1857   1861   3866     1   115.1800491 558.982400
   1860   3837   3839     1   120.6900519 530.531200
   1861   3866   3868     1   120.6900519 530.531200
   1862   1860   3837     1   123.0500530 620.905600
   1863   1861   3866     1   123.0500530 620.905600
   1866   1869   1889     1   111.6100477 551.451200
   1866   1872   1873     1   112.3500484 533.878400
   1866   1872   1876     1   112.3500484 533.878400
   1869   1866   1872     1   111.0400475 552.288000
   1872   1873   1882     1   111.0400475 552.288000
   1872   1876   1879     1   111.0400475 552.288000
   1873   1872   1876     1   112.3500484 533.878400
   1873   1882   1886     1   111.0400475 529.694400
   1876   1879   1885     1   111.0400475 529.694400
   1879   1885   3895     1   115.1800491 558.982400
   1879   1885   1887     1   123.2000528 564.003200
   1882   1886   1888     1   123.2000528 564.003200
   1882   1886   3924     1   115.1800491 558.982400
   1885   3895   3897     1   120.6900519 530.531200
   1886   3924   3926     1   120.6900519 530.531200
   1887   1885   3895     1   123.0500530 620.905600
   1888   1886   3924     1   123.0500530 620.905600
   1891   1894   1914     1   111.6100477 551.451200
   1891   1897   1898     1   112.3500484 533.878400
   1891   1897   1901     1   112.3500484 533.878400
   1894   1891   1897     1   111.0400475 552.288000
   1897   1898   1907     1   111.0400475 552.288000
   1897   1901   1904     1   111.0400475 552.288000
   1898   1897   1901     1   112.3500484 533.878400
   1898   1907   1911     1   111.0400475 529.694400
   1901   1904   1910     1   111.0400475 529.694400
   1904   1910   3953     1   115.1800491 558.982400
   1904   1910   1912     1   123.2000528 564.003200
   1907   1911   1913     1   123.2000528 564.003200
   1907   1911   3982     1   115.1800491 558.982400
   1910   3953   3955     1   120.6900519 530.531200
   1911   3982   3984     1   120.6900519 530.531200
   1912   1910   3953     1   123.0500530 620.905600
   1913   1911   3982     1   123.0500530 620.905600
   1916   1919   1939     1   111.6100477 551.451200
   1916   1922   1923     1   112.3500484 533.878400
   1916   1922   1926     1   112.3500484 533.878400
   1919   1916   1922     1   111.0400475 552.288000
   1922   1923   1932     1   111.0400475 552.288000
   1922   1926   1929     1   111.0400475 552.288000
   1923   1922   1926     1   112.3500484 533.878400
   1923   1932   1936     1   111.0400475 529.694400
   1926   1929   1935     1   111.0400475 529.694400
   1929   1935   4011     1   115.1800491 558.982400
   1929   1935   1937     1   123.2000528 564.003200
   1932   1936   1938     1   123.2000528 564.003200
   1932   1936   4040     1   115.1800491 558.982400
   1935   4011   4013     1   120.6900519 530.531200
   1936   4040   4042     1   120.6900519 530.531200
   1937   1935   4011     1   123.0500530 620.905600
   1938   1936   4040     1   123.0500530 620.905600
   1941   1944   1964     1   111.6100477 551.451200
   1941   1947   1948     1   112.3500484 533.878400
   1941   1947   1951     1   112.3500484 533.878400
   1944   1941   1947     1   111.0400475 552.288000
   1947   1948   1957     1   111.0400475 552.288000
   1947   1951   1954     1   111.0400475 552.288000
   1948   1947   1951     1   112.3500484 533.878400
   1948   1957   1961     1   111.0400475 529.694400
   1951   1954   1960     1   111.0400475 529.694400
   1954   1960   4069     1   115.1800491 558.982400
   1954   1960   1962     1   123.2000528 564.003200
   1957   1961   1963     1   123.2000528 564.003200
   1957   1961   4098     1   115.1800491 558.982400
   1960   4069   4071     1   120.6900519 530.531200
   1961   4098   4100     1   120.6900519 530.531200
   1962   1960   4069     1   123.0500530 620.905600
   1963   1961   4098     1   123.0500530 620.905600
   1966   1969   1989     1   111.6100477 551.451200
   1966   1972   1973     1   112.3500484 533.878400
   1966   1972   1976     1   112.3500484 533.878400
   1969   1966   1972     1   111.0400475 552.288000
   1972   1973   1982     1   111.0400475 552.288000
   1972   1976   1979     1   111.0400475 552.288000
   1973   1972   1976     1   112.3500484 533.878400
   1973   1982   1986     1   111.0400475 529.694400
   1976   1979   1985     1   111.0400475 529.694400
   1979   1985   4127     1   115.1800491 558.982400
   1979   1985   1987     1   123.2000528 564.003200
   1982   1986   1988     1   123.2000528 564.003200
   1982   1986   4156     1   115.1800491 558.982400
   1985   4127   4129     1   120.6900519 530.531200
   1986   4156   4158     1   120.6900519 530.531200
   1987   1985   4127     1   123.0500530 620.905600
   1988   1986   4156     1   123.0500530 620.905600
   1991   1994   2014     1   111.6100477 551.451200
   1991   1997   1998     1   112.3500484 533.878400
   1991   1997   2001     1   112.3500484 533.878400
   1994   1991   1997     1   111.0400475 552.288000
   1997   1998   2007     1   111.0400475 552.288000
   1997   2001   2004     1   111.0400475 552.288000
   1998   1997   2001     1   112.3500484 533.878400
   1998   2007   2011     1   111.0400475 529.694400
   2001   2004   2010     1   111.0400475 529.694400
   2004   2010   4185     1   115.1800491 558.982400
   2004   2010   2012     1   123.2000528 564.003200
   2007   2011   2013     1   123.2000528 564.003200
   2007   2011   4214     1   115.1800491 558.982400
   2010   4185   4187     1   120.6900519 530.531200
   2011   4214   4216     1   120.6900519 530.531200
   2012   2010   4185     1   123.0500530 620.905600
   2013   2011   4214     1   123.0500530 620.905600
   2016   2019   2039     1   111.6100477 551.451200
   2016   2022   2023     1   112.3500484 533.878400
   2016   2022   2026     1   112.3500484 533.878400
   2019   2016   2022     1   111.0400475 552.288000
   2022   2023   2032     1   111.0400475 552.288000
   2022   2026   2029     1   111.0400475 552.288000
   2023   2022   2026     1   112.3500484 533.878400
   2023   2032   2036     1   111.0400475 529.694400
   2026   2029   2035     1   111.0400475 529.694400
   2029   2035   4243     1   115.1800491 558.982400
   2029   2035   2037     1   123.2000528 564.003200
   2032   2036   2038     1   123.2000528 564.003200
   2032   2036   4272     1   115.1800491 558.982400
   2035   4243   4245     1   120.6900519 530.531200
   2036   4272   4274     1   120.6900519 530.531200
   2037   2035   4243     1   123.0500530 620.905600
   2038   2036   4272     1   123.0500530 620.905600
   2041   2044   2064     1   111.6100477 551.451200
   2041   2047   2048     1   112.3500484 533.878400
   2041   2047   2051     1   112.3500484 533.878400
   2044   2041   2047     1   111.0400475 552.288000
   2047   2048   2057     1   111.0400475 552.288000
   2047   2051   2054     1   111.0400475 552.288000
   2048   2047   2051     1   112.3500484 533.878400
   2048   2057   2061     1   111.0400475 529.694400
   2051   2054   2060     1   111.0400475 529.694400
   2054   2060   4301     1   115.1800491 558.982400
   2054   2060   2062     1   123.2000528 564.003200
   2057   2061   2063     1   123.2000528 564.003200
   2057   2061   4330     1   115.1800491 558.982400
   2060   4301   4303     1   120.6900519 530.531200
   2061   4330   4332     1   120.6900519 530.531200
   2062   2060   4301     1   123.0500530 620.905600
   2063   2061   4330     1   123.0500530 620.905600
   2066   2069   2089     1   111.6100477 551.451200
   2066   2072   2073     1   112.3500484 533.878400
   2066   2072   2076     1   112.3500484 533.878400
   2069   2066   2072     1   111.0400475 552.288000
   2072   2073   2082     1   111.0400475 552.288000
   2072   2076   2079     1   111.0400475 552.288000
   2073   2072   2076     1   112.3500484 533.878400
   2073   2082   2086     1   111.0400475 529.694400
   2076   2079   2085     1   111.0400475 529.694400
   2079   2085   4359     1   115.1800491 558.982400
   2079   2085   2087     1   123.2000528 564.003200
   2082   2086   2088     1   123.2000528 564.003200
   2082   2086   4388     1   115.1800491 558.982400
   2085   4359   4361     1   120.6900519 530.531200
   2086   4388   4390     1   120.6900519 530.531200
   2087   2085   4359     1   123.0500530 620.905600
   2088   2086   4388     1   123.0500530 620.905600
   2091   2094   2114     1   111.6100477 551.451200
   2091   2097   2098     1   112.3500484 533.878400
   2091   2097   2101     1   112.3500484 533.878400
   2094   2091   2097     1   111.0400475 552.288000
   2097   2098   2107     1   111.0400475 552.288000
   2097   2101   2104     1   111.0400475 552.288000
   2098   2097   2101     1   112.3500484 533.878400
   2098   2107   2111     1   111.0400475 529.694400
   2101   2104   2110     1   111.0400475 529.694400
   2104   2110   4417     1   115.1800491 558.982400
   2104   2110   2112     1   123.2000528 564.003200
   2107   2111   2113     1   123.2000528 564.003200
   2107   2111   4446     1   115.1800491 558.982400
   2110   4417   4419     1   120.6900519 530.531200
   2111   4446   4448     1   120.6900519 530.531200
   2112   2110   4417     1   123.0500530 620.905600
   2113   2111   4446     1   123.0500530 620.905600
   2116   2119   2139     1   111.6100477 551.451200
   2116   2122   2123     1   112.3500484 533.878400
   2116   2122   2126     1   112.3500484 533.878400
   2119   2116   2122     1   111.0400475 552.288000
   2122   2123   2132     1   111.0400475 552.288000
   2122   2126   2129     1   111.0400475 552.288000
   2123   2122   2126     1   112.3500484 533.878400
   2123   2132   2136     1   111.0400475 529.694400
   2126   2129   2135     1   111.0400475 529.694400
   2129   2135   4475     1   115.1800491 558.982400
   2129   2135   2137     1   123.2000528 564.003200
   2132   2136   2138     1   123.2000528 564.003200
   2132   2136   4504     1   115.1800491 558.982400
   2135   4475   4477     1   120.6900519 530.531200
   2136   4504   4506     1   120.6900519 530.531200
   2137   2135   4475     1   123.0500530 620.905600
   2138   2136   4504     1   123.0500530 620.905600
   2141   2144   2164     1   111.6100477 551.451200
   2141   2147   2148     1   112.3500484 533.878400
   2141   2147   2151     1   112.3500484 533.878400
   2144   2141   2147     1   111.0400475 552.288000
   2147   2148   2157     1   111.0400475 552.288000
   2147   2151   2154     1   111.0400475 552.288000
   2148   2147   2151     1   112.3500484 533.878400
   2148   2157   2161     1   111.0400475 529.694400
   2151   2154   2160     1   111.0400475 529.694400
   2154   2160   4533     1   115.1800491 558.982400
   2154   2160   2162     1   123.2000528 564.003200
   2157   2161   2163     1   123.2000528 564.003200
   2157   2161   4562     1   115.1800491 558.982400
   2160   4533   4535     1   120.6900519 530.531200
   2161   4562   4564     1   120.6900519 530.531200
   2162   2160   4533     1   123.0500530 620.905600
   2163   2161   4562     1   123.0500530 620.905600
   2166   2169   2189     1   111.6100477 551.451200
   2166   2172   2173     1   112.3500484 533.878400
   2166   2172   2176     1   112.3500484 533.878400
   2169   2166   2172     1   111.0400475 552.288000
   2172   2173   2182     1   111.0400475 552.288000
   2172   2176   2179     1   111.0400475 552.288000
   2173   2172   2176     1   112.3500484 533.878400
   2173   2182   2186     1   111.0400475 529.694400
   2176   2179   2185     1   111.0400475 529.694400
   2179   2185   4591     1   115.1800491 558.982400
   2179   2185   2187     1   123.2000528 564.003200
   2182   2186   2188     1   123.2000528 564.003200
   2182   2186   4620     1   115.1800491 558.982400
   2185   4591   4593     1   120.6900519 530.531200
   2186   4620   4622     1   120.6900519 530.531200
   2187   2185   4591     1   123.0500530 620.905600
   2188   2186   4620     1   123.0500530 620.905600
   2191   2194   2214     1   111.6100477 551.451200
   2191   2197   2198     1   112.3500484 533.878400
   2191   2197   2201     1   112.3500484 533.878400
   2194   2191   2197     1   111.0400475 552.288000
   2197   2198   2207     1   111.0400475 552.288000
   2197   2201   2204     1   111.0400475 552.288000
   2198   2197   2201     1   112.3500484 533.878400
   2198   2207   2211     1   111.0400475 529.694400
   2201   2204   2210     1   111.0400475 529.694400
   2204   2210   4649     1   115.1800491 558.982400
   2204   2210   2212     1   123.2000528 564.003200
   2207   2211   2213     1   123.2000528 564.003200
   2207   2211   4678     1   115.1800491 558.982400
   2210   4649   4651     1   120.6900519 530.531200
   2211   4678   4680     1   120.6900519 530.531200
   2212   2210   4649     1   123.0500530 620.905600
   2213   2211   4678     1   123.0500530 620.905600
   2216   2219   2239     1   111.6100477 551.451200
   2216   2222   2223     1   112.3500484 533.878400
   2216   2222   2226     1   112.3500484 533.878400
   2219   2216   2222     1   111.0400475 552.288000
   2222   2223   2232     1   111.0400475 552.288000
   2222   2226   2229     1   111.0400475 552.288000
   2223   2222   2226     1   112.3500484 533.878400
   2223   2232   2236     1   111.0400475 529.694400
   2226   2229   2235     1   111.0400475 529.694400
   2229   2235   4707     1   115.1800491 558.982400
   2229   2235   2237     1   123.2000528 564.003200
   2232   2236   2238     1   123.2000528 564.003200
   2232   2236   4736     1   115.1800491 558.982400
   2235   4707   4709     1   120.6900519 530.531200
   2236   4736   4738     1   120.6900519 530.531200
   2237   2235   4707     1   123.0500530 620.905600
   2238   2236   4736     1   123.0500530 620.905600
   2241   2244   2264     1   111.6100477 551.451200
   2241   2247   2248     1   112.3500484 533.878400
   2241   2247   2251     1   112.3500484 533.878400
   2244   2241   2247     1   111.0400475 552.288000
   2247   2248   2257     1   111.0400475 552.288000
   2247   2251   2254     1   111.0400475 552.288000
   2248   2247   2251     1   112.3500484 533.878400
   2248   2257   2261     1   111.0400475 529.694400
   2251   2254   2260     1   111.0400475 529.694400
   2254   2260   4765     1   115.1800491 558.982400
   2254   2260   2262     1   123.2000528 564.003200
   2257   2261   2263     1   123.2000528 564.003200
   2257   2261   4794     1   115.1800491 558.982400
   2260   4765   4767     1   120.6900519 530.531200
   2261   4794   4796     1   120.6900519 530.531200
   2262   2260   4765     1   123.0500530 620.905600
   2263   2261   4794     1   123.0500530 620.905600
   2266   2269   2289     1   111.6100477 551.451200
   2266   2272   2273     1   112.3500484 533.878400
   2266   2272   2276     1   112.3500484 533.878400
   2269   2266   2272     1   111.0400475 552.288000
   2272   2273   2282     1   111.0400475 552.288000
   2272   2276   2279     1   111.0400475 552.288000
   2273   2272   2276     1   112.3500484 533.878400
   2273   2282   2286     1   111.0400475 529.694400
   2276   2279   2285     1   111.0400475 529.694400
   2279   2285   4823     1   115.1800491 558.982400
   2279   2285   2287     1   123.2000528 564.003200
   2282   2286   2288     1   123.2000528 564.003200
   2282   2286   4852     1   115.1800491 558.982400
   2285   4823   4825     1   120.6900519 530.531200
   2286   4852   4854     1   120.6900519 530.531200
   2287   2285   4823     1   123.0500530 620.905600
   2288   2286   4852     1   123.0500530 620.905600
   2291   2294   2314     1   111.6100477 551.451200
   2291   2297   2298     1   112.3500484 533.878400
   2291   2297   2301     1   112.3500484 533.878400
   2294   2291   2297     1   111.0400475 552.288000
   2297   2298   2307     1   111.0400475 552.288000
   2297   2301   2304     1   111.0400475 552.288000
   2298   2297   2301     1   112.3500484 533.878400
   2298   2307   2311     1   111.0400475 529.694400
   2301   2304   2310     1   111.0400475 529.694400
   2304   2310   4881     1   115.1800491 558.982400
   2304   2310   2312     1   123.2000528 564.003200
   2307   2311   2313     1   123.2000528 564.003200
   2307   2311   4910     1   115.1800491 558.982400
   2310   4881   4883     1   120.6900519 530.531200
   2311   4910   4912     1   120.6900519 530.531200
   2312   2310   4881     1   123.0500530 620.905600
   2313   2311   4910     1   123.0500530 620.905600
   2316   2319   2339     1   111.6100477 551.451200
   2316   2322   2323     1   112.3500484 533.878400
   2316   2322   2326     1   112.3500484 533.878400
   2319   2316   2322     1   111.0400475 552.288000
   2322   2323   2332     1   111.0400475 552.288000
   2322   2326   2329     1   111.0400475 552.288000
   2323   2322   2326     1   112.3500484 533.878400
   2323   2332   2336     1   111.0400475 529.694400
   2326   2329   2335     1   111.0400475 529.694400
   2329   2335   4939     1   115.1800491 558.982400
   2329   2335   2337     1   123.2000528 564.003200
   2332   2336   2338     1   123.2000528 564.003200
   2332   2336   4968     1   115.1800491 558.982400
   2335   4939   4941     1   120.6900519 530.531200
   2336   4968   4970     1   120.6900519 530.531200
   2337   2335   4939     1   123.0500530 620.905600
   2338   2336   4968     1   123.0500530 620.905600
   2341   2344   2364     1   111.6100477 551.451200
   2341   2347   2348     1   112.3500484 533.878400
   2341   2347   2351     1   112.3500484 533.878400
   2344   2341   2347     1   111.0400475 552.288000
   2347   2348   2357     1   111.0400475 552.288000
   2347   2351   2354     1   111.0400475 552.288000
   2348   2347   2351     1   112.3500484 533.878400
   2348   2357   2361     1   111.0400475 529.694400
   2351   2354   2360     1   111.0400475 529.694400
   2354   2360   4997     1   115.1800491 558.982400
   2354   2360   2362     1   123.2000528 564.003200
   2357   2361   2363     1   123.2000528 564.003200
   2357   2361   5026     1   115.1800491 558.982400
   2360   4997   4999     1   120.6900519 530.531200
   2361   5026   5028     1   120.6900519 530.531200
   2362   2360   4997     1   123.0500530 620.905600
   2363   2361   5026     1   123.0500530 620.905600
   2366   2369   2389     1   111.6100477 551.451200
   2366   2372   2373     1   112.3500484 533.878400
   2366   2372   2376     1   112.3500484 533.878400
   2369   2366   2372     1   111.0400475 552.288000
   2372   2373   2382     1   111.0400475 552.288000
   2372   2376   2379     1   111.0400475 552.288000
   2373   2372   2376     1   112.3500484 533.878400
   2373   2382   2386     1   111.0400475 529.694400
   2376   2379   2385     1   111.0400475 529.694400
   2379   2385   5055     1   115.1800491 558.982400
   2379   2385   2387     1   123.2000528 564.003200
   2382   2386   2388     1   123.2000528 564.003200
   2382   2386   5084     1   115.1800491 558.982400
   2385   5055   5057     1   120.6900519 530.531200
   2386   5084   5086     1   120.6900519 530.531200
   2387   2385   5055     1   123.0500530 620.905600
   2388   2386   5084     1   123.0500530 620.905600
   2391   2394   2414     1   111.6100477 551.451200
   2391   2397   2398     1   112.3500484 533.878400
   2391   2397   2401     1   112.3500484 533.878400
   2394   2391   2397     1   111.0400475 552.288000
   2397   2398   2407     1   111.0400475 552.288000
   2397   2401   2404     1   111.0400475 552.288000
   2398   2397   2401     1   112.3500484 533.878400
   2398   2407   2411     1   111.0400475 529.694400
   2401   2404   2410     1   111.0400475 529.694400
   2404   2410   5113     1   115.1800491 558.982400
   2404   2410   2412     1   123.2000528 564.003200
   2407   2411   2413     1   123.2000528 564.003200
   2407   2411   5142     1   115.1800491 558.982400
   2410   5113   5115     1   120.6900519 530.531200
   2411   5142   5144     1   120.6900519 530.531200
   2412   2410   5113     1   123.0500530 620.905600
   2413   2411   5142     1   123.0500530 620.905600
   2416   2419   2439     1   111.6100477 551.451200
   2416   2422   2423     1   112.3500484 533.878400
   2416   2422   2426     1   112.3500484 533.878400
   2419   2416   2422     1   111.0400475 552.288000
   2422   2423   2432     1   111.0400475 552.288000
   2422   2426   2429     1   111.0400475 552.288000
   2423   2422   2426     1   112.3500484 533.878400
   2423   2432   2436     1   111.0400475 529.694400
   2426   2429   2435     1   111.0400475 529.694400
   2429   2435   5171     1   115.1800491 558.982400
   2429   2435   2437     1   123.2000528 564.003200
   2432   2436   2438     1   123.2000528 564.003200
   2432   2436   5200     1   115.1800491 558.982400
   2435   5171   5173     1   120.6900519 530.531200
   2436   5200   5202     1   120.6900519 530.531200
   2437   2435   5171     1   123.0500530 620.905600
   2438   2436   5200     1   123.0500530 620.905600
   2441   2444   2464     1   111.6100477 551.451200
   2441   2447   2448     1   112.3500484 533.878400
   2441   2447   2451     1   112.3500484 533.878400
   2444   2441   2447     1   111.0400475 552.288000
   2447   2448   2457     1   111.0400475 552.288000
   2447   2451   2454     1   111.0400475 552.288000
   2448   2447   2451     1   112.3500484 533.878400
   2448   2457   2461     1   111.0400475 529.694400
   2451   2454   2460     1   111.0400475 529.694400
   2454   2460   5229     1   115.1800491 558.982400
   2454   2460   2462     1   123.2000528 564.003200
   2457   2461   2463     1   123.2000528 564.003200
   2457   2461   5258     1   115.1800491 558.982400
   2460   5229   5231     1   120.6900519 530.531200
   2461   5258   5260     1   120.6900519 530.531200
   2462   2460   5229     1   123.0500530 620.905600
   2463   2461   5258     1   123.0500530 620.905600
   2466   2469   2489     1   111.6100477 551.451200
   2466   2472   2473     1   112.3500484 533.878400
   2466   2472   2476     1   112.3500484 533.878400
   2469   2466   2472     1   111.0400475 552.288000
   2472   2473   2482     1   111.0400475 552.288000
   2472   2476   2479     1   111.0400475 552.288000
   2473   2472   2476     1   112.3500484 533.878400
   2473   2482   2486     1   111.0400475 529.694400
   2476   2479   2485     1   111.0400475 529.694400
   2479   2485   5287     1   115.1800491 558.982400
   2479   2485   2487     1   123.2000528 564.003200
   2482   2486   2488     1   123.2000528 564.003200
   2482   2486   5316     1   115.1800491 558.982400
   2485   5287   5289     1   120.6900519 530.531200
   2486   5316   5318     1   120.6900519 530.531200
   2487   2485   5287     1   123.0500530 620.905600
   2488   2486   5316     1   123.0500530 620.905600
   2491   2494   2514     1   111.6100477 551.451200
   2491   2497   2498     1   112.3500484 533.878400
   2491   2497   2501     1   112.3500484 533.878400
   2494   2491   2497     1   111.0400475 552.288000
   2497   2498   2507     1   111.0400475 552.288000
   2497   2501   2504     1   111.0400475 552.288000
   2498   2497   2501     1   112.3500484 533.878400
   2498   2507   2511     1   111.0400475 529.694400
   2501   2504   2510     1   111.0400475 529.694400
   2504   2510   5345     1   115.1800491 558.982400
   2504   2510   2512     1   123.2000528 564.003200
   2507   2511   2513     1   123.2000528 564.003200
   2507   2511   5374     1   115.1800491 558.982400
   2510   5345   5347     1   120.6900519 530.531200
   2511   5374   5376     1   120.6900519 530.531200
   2512   2510   5345     1   123.0500530 620.905600
   2513   2511   5374     1   123.0500530 620.905600
   2516   2519   2539     1   111.6100477 551.451200
   2516   2522   2523     1   112.3500484 533.878400
   2516   2522   2526     1   112.3500484 533.878400
   2519   2516   2522     1   111.0400475 552.288000
   2522   2523   2532     1   111.0400475 552.288000
   2522   2526   2529     1   111.0400475 552.288000
   2523   2522   2526     1   112.3500484 533.878400
   2523   2532   2536     1   111.0400475 529.694400
   2526   2529   2535     1   111.0400475 529.694400
   2529   2535   5403     1   115.1800491 558.982400
   2529   2535   2537     1   123.2000528 564.003200
   2532   2536   2538     1   123.2000528 564.003200
   2532   2536   5432     1   115.1800491 558.982400
   2535   5403   5405     1   120.6900519 530.531200
   2536   5432   5434     1   120.6900519 530.531200
   2537   2535   5403     1   123.0500530 620.905600
   2538   2536   5432     1   123.0500530 620.905600
   2541   2544   2564     1   111.6100477 551.451200
   2541   2547   2548     1   112.3500484 533.878400
   2541   2547   2551     1   112.3500484 533.878400
   2544   2541   2547     1   111.0400475 552.288000
   2547   2548   2557     1   111.0400475 552.288000
   2547   2551   2554     1   111.0400475 552.288000
   2548   2547   2551     1   112.3500484 533.878400
   2548   2557   2561     1   111.0400475 529.694400
   2551   2554   2560     1   111.0400475 529.694400
   2554   2560   5461     1   115.1800491 558.982400
   2554   2560   2562     1   123.2000528 564.003200
   2557   2561   2563     1   123.2000528 564.003200
   2557   2561   5490     1   115.1800491 558.982400
   2560   5461   5463     1   120.6900519 530.531200
   2561   5490   5492     1   120.6900519 530.531200
   2562   2560   5461     1   123.0500530 620.905600
   2563   2561   5490     1   123.0500530 620.905600
   2566   2569   2589     1   111.6100477 551.451200
   2566   2572   2573     1   112.3500484 533.878400
   2566   2572   2576     1   112.3500484 533.878400
   2569   2566   2572     1   111.0400475 552.288000
   2572   2573   2582     1   111.0400475 552.288000
   2572   2576   2579     1   111.0400475 552.288000
   2573   2572   2576     1   112.3500484 533.878400
   2573   2582   2586     1   111.0400475 529.694400
   2576   2579   2585     1   111.0400475 529.694400
   2579   2585   5519     1   115.1800491 558.982400
   2579   2585   2587     1   123.2000528 564.003200
   2582   2586   2588     1   123.2000528 564.003200
   2582   2586   5548     1   115.1800491 558.982400
   2585   5519   5521     1   120.6900519 530.531200
   2586   5548   5550     1   120.6900519 530.531200
   2587   2585   5519     1   123.0500530 620.905600
   2588   2586   5548     1   123.0500530 620.905600
   2591   2594   2614     1   111.6100477 551.451200
   2591   2597   2598     1   112.3500484 533.878400
   2591   2597   2601     1   112.3500484 533.878400
   2594   2591   2597     1   111.0400475 552.288000
   2597   2598   2607     1   111.0400475 552.288000
   2597   2601   2604     1   111.0400475 552.288000
   2598   2597   2601     1   112.3500484 533.878400
   2598   2607   2611     1   111.0400475 529.694400
   2601   2604   2610     1   111.0400475 529.694400
   2604   2610   5577     1   115.1800491 558.982400
   2604   2610   2612     1   123.2000528 564.003200
   2607   2611   2613     1   123.2000528 564.003200
   2607   2611   5606     1   115.1800491 558.982400
   2610   5577   5579     1   120.6900519 530.531200
   2611   5606   5608     1   120.6900519 530.531200
   2612   2610   5577     1   123.0500530 620.905600
   2613   2611   5606     1   123.0500530 620.905600
   2616   2619   2639     1   111.6100477 551.451200
   2616   2622   2623     1   112.3500484 533.878400
   2616   2622   2626     1   112.3500484 533.878400
   2619   2616   2622     1   111.0400475 552.288000
   2622   2623   2632     1   111.0400475 552.288000
   2622   2626   2629     1   111.0400475 552.288000
   2623   2622   2626     1   112.3500484 533.878400
   2623   2632   2636     1   111.0400475 529.694400
   2626   2629   2635     1   111.0400475 529.694400
   2629   2635   5635     1   115.1800491 558.982400
   2629   2635   2637     1   123.2000528 564.003200
   2632   2636   2638     1   123.2000528 564.003200
   2632   2636   5664     1   115.1800491 558.982400
   2635   5635   5637     1   120.6900519 530.531200
   2636   5664   5666     1   120.6900519 530.531200
   2637   2635   5635     1   123.0500530 620.905600
   2638   2636   5664     1   123.0500530 620.905600
   2641   2644   2664     1   111.6100477 551.451200
   2641   2647   2648     1   112.3500484 533.878400
   2641   2647   2651     1   112.3500484 533.878400
   2644   2641   2647     1   111.0400475 552.288000
   2647   2648   2657     1   111.0400475 552.288000
   2647   2651   2654     1   111.0400475 552.288000
   2648   2647   2651     1   112.3500484 533.878400
   2648   2657   2661     1   111.0400475 529.694400
   2651   2654   2660     1   111.0400475 529.694400
   2654   2660   5693     1   115.1800491 558.982400
   2654   2660   2662     1   123.2000528 564.003200
   2657   2661   2663     1   123.2000528 564.003200
   2657   2661   5722     1   115.1800491 558.982400
   2660   5693   5695     1   120.6900519 530.531200
   2661   5722   5724     1   120.6900519 530.531200
   2662   2660   5693     1   123.0500530 620.905600
   2663   2661   5722     1   123.0500530 620.905600
   2666   2669   2689     1   111.6100477 551.451200
   2666   2672   2673     1   112.3500484 533.878400
   2666   2672   2676     1   112.3500484 533.878400
   2669   2666   2672     1   111.0400475 552.288000
   2672   2673   2682     1   111.0400475 552.288000
   2672   2676   2679     1   111.0400475 552.288000
   2673   2672   2676     1   112.3500484 533.878400
   2673   2682   2686     1   111.0400475 529.694400
   2676   2679   2685     1   111.0400475 529.694400
   2679   2685   5751     1   115.1800491 558.982400
   2679   2685   2687     1   123.2000528 564.003200
   2682   2686   2688     1   123.2000528 564.003200
   2682   2686   5780     1   115.1800491 558.982400
   2685   5751   5753     1   120.6900519 530.531200
   2686   5780   5782     1   120.6900519 530.531200
   2687   2685   5751     1   123.0500530 620.905600
   2688   2686   5780     1   123.0500530 620.905600
   2691   2694   2714     1   111.6100477 551.451200
   2691   2697   2698     1   112.3500484 533.878400
   2691   2697   2701     1   112.3500484 533.878400
   2694   2691   2697     1   111.0400475 552.288000
   2697   2698   2707     1   111.0400475 552.288000
   2697   2701   2704     1   111.0400475 552.288000
   2698   2697   2701     1   112.3500484 533.878400
   2698   2707   2711     1   111.0400475 529.694400
   2701   2704   2710     1   111.0400475 529.694400
   2704   2710   5809     1   115.1800491 558.982400
   2704   2710   2712     1   123.2000528 564.003200
   2707   2711   2713     1   123.2000528 564.003200
   2707   2711   5838     1   115.1800491 558.982400
   2710   5809   5811     1   120.6900519 530.531200
   2711   5838   5840     1   120.6900519 530.531200
   2712   2710   5809     1   123.0500530 620.905600
   2713   2711   5838     1   123.0500530 620.905600
   2716   2719   2739     1   111.6100477 551.451200
   2716   2722   2723     1   112.3500484 533.878400
   2716   2722   2726     1   112.3500484 533.878400
   2719   2716   2722     1   111.0400475 552.288000
   2722   2723   2732     1   111.0400475 552.288000
   2722   2726   2729     1   111.0400475 552.288000
   2723   2722   2726     1   112.3500484 533.878400
   2723   2732   2736     1   111.0400475 529.694400
   2726   2729   2735     1   111.0400475 529.694400
   2729   2735   5867     1   115.1800491 558.982400
   2729   2735   2737     1   123.2000528 564.003200
   2732   2736   2738     1   123.2000528 564.003200
   2732   2736   5896     1   115.1800491 558.982400
   2735   5867   5869     1   120.6900519 530.531200
   2736   5896   5898     1   120.6900519 530.531200
   2737   2735   5867     1   123.0500530 620.905600
   2738   2736   5896     1   123.0500530 620.905600
   2741   2744   2764     1   111.6100477 551.451200
   2741   2747   2748     1   112.3500484 533.878400
   2741   2747   2751     1   112.3500484 533.878400
   2744   2741   2747     1   111.0400475 552.288000
   2747   2748   2757     1   111.0400475 552.288000
   2747   2751   2754     1   111.0400475 552.288000
   2748   2747   2751     1   112.3500484 533.878400
   2748   2757   2761     1   111.0400475 529.694400
   2751   2754   2760     1   111.0400475 529.694400
   2754   2760   5925     1   115.1800491 558.982400
   2754   2760   2762     1   123.2000528 564.003200
   2757   2761   2763     1   123.2000528 564.003200
   2757   2761   5954     1   115.1800491 558.982400
   2760   5925   5927     1   120.6900519 530.531200
   2761   5954   5956     1   120.6900519 530.531200
   2762   2760   5925     1   123.0500530 620.905600
   2763   2761   5954     1   123.0500530 620.905600
   2766   2769   2789     1   111.6100477 551.451200
   2766   2772   2773     1   112.3500484 533.878400
   2766   2772   2776     1   112.3500484 533.878400
   2769   2766   2772     1   111.0400475 552.288000
   2772   2773   2782     1   111.0400475 552.288000
   2772   2776   2779     1   111.0400475 552.288000
   2773   2772   2776     1   112.3500484 533.878400
   2773   2782   2786     1   111.0400475 529.694400
   2776   2779   2785     1   111.0400475 529.694400
   2779   2785   5983     1   115.1800491 558.982400
   2779   2785   2787     1   123.2000528 564.003200
   2782   2786   2788     1   123.2000528 564.003200
   2782   2786   6012     1   115.1800491 558.982400
   2785   5983   5985     1   120.6900519 530.531200
   2786   6012   6014     1   120.6900519 530.531200
   2787   2785   5983     1   123.0500530 620.905600
   2788   2786   6012     1   123.0500530 620.905600
   2791   2794   2814     1   111.6100477 551.451200
   2791   2797   2798     1   112.3500484 533.878400
   2791   2797   2801     1   112.3500484 533.878400
   2794   2791   2797     1   111.0400475 552.288000
   2797   2798   2807     1   111.0400475 552.288000
   2797   2801   2804     1   111.0400475 552.288000
   2798   2797   2801     1   112.3500484 533.878400
   2798   2807   2811     1   111.0400475 529.694400
   2801   2804   2810     1   111.0400475 529.694400
   2804   2810   6041     1   115.1800491 558.982400
   2804   2810   2812     1   123.2000528 564.003200
   2807   2811   2813     1   123.2000528 564.003200
   2807   2811   6070     1   115.1800491 558.982400
   2810   6041   6043     1   120.6900519 530.531200
   2811   6070   6072     1   120.6900519 530.531200
   2812   2810   6041     1   123.0500530 620.905600
   2813   2811   6070     1   123.0500530 620.905600
   2816   2819   2839     1   111.6100477 551.451200
   2816   2822   2823     1   112.3500484 533.878400
   2816   2822   2826     1   112.3500484 533.878400
   2819   2816   2822     1   111.0400475 552.288000
   2822   2823   2832     1   111.0400475 552.288000
   2822   2826   2829     1   111.0400475 552.288000
   2823   2822   2826     1   112.3500484 533.878400
   2823   2832   2836     1   111.0400475 529.694400
   2826   2829   2835     1   111.0400475 529.694400
   2829   2835   6099     1   115.1800491 558.982400
   2829   2835   2837     1   123.2000528 564.003200
   2832   2836   2838     1   123.2000528 564.003200
   2832   2836   6128     1   115.1800491 558.982400
   2835   6099   6101     1   120.6900519 530.531200
   2836   6128   6130     1   120.6900519 530.531200
   2837   2835   6099     1   123.0500530 620.905600
   2838   2836   6128     1   123.0500530 620.905600
   2841   2844   2864     1   111.6100477 551.451200
   2841   2847   2848     1   112.3500484 533.878400
   2841   2847   2851     1   112.3500484 533.878400
   2844   2841   2847     1   111.0400475 552.288000
   2847   2848   2857     1   111.0400475 552.288000
   2847   2851   2854     1   111.0400475 552.288000
   2848   2847   2851     1   112.3500484 533.878400
   2848   2857   2861     1   111.0400475 529.694400
   2851   2854   2860     1   111.0400475 529.694400
   2854   2860   6157     1   115.1800491 558.982400
   2854   2860   2862     1   123.2000528 564.003200
   2857   2861   2863     1   123.2000528 564.003200
   2857   2861   6186     1   115.1800491 558.982400
   2860   6157   6159     1   120.6900519 530.531200
   2861   6186   6188     1   120.6900519 530.531200
   2862   2860   6157     1   123.0500530 620.905600
   2863   2861   6186     1   123.0500530 620.905600
   2866   2869   2889     1   111.6100477 551.451200
   2866   2872   2873     1   112.3500484 533.878400
   2866   2872   2876     1   112.3500484 533.878400
   2869   2866   2872     1   111.0400475 552.288000
   2872   2873   2882     1   111.0400475 552.288000
   2872   2876   2879     1   111.0400475 552.288000
   2873   2872   2876     1   112.3500484 533.878400
   2873   2882   2886     1   111.0400475 529.694400
   2876   2879   2885     1   111.0400475 529.694400
   2879   2885   6215     1   115.1800491 558.982400
   2879   2885   2887     1   123.2000528 564.003200
   2882   2886   2888     1   123.2000528 564.003200
   2882   2886   6244     1   115.1800491 558.982400
   2885   6215   6217     1   120.6900519 530.531200
   2886   6244   6246     1   120.6900519 530.531200
   2887   2885   6215     1   123.0500530 620.905600
   2888   2886   6244     1   123.0500530 620.905600
   2891   2894   2914     1   111.6100477 551.451200
   2891   2897   2898     1   112.3500484 533.878400
   2891   2897   2901     1   112.3500484 533.878400
   2894   2891   2897     1   111.0400475 552.288000
   2897   2898   2907     1   111.0400475 552.288000
   2897   2901   2904     1   111.0400475 552.288000
   2898   2897   2901     1   112.3500484 533.878400
   2898   2907   2911     1   111.0400475 529.694400
   2901   2904   2910     1   111.0400475 529.694400
   2904   2910   6273     1   115.1800491 558.982400
   2904   2910   2912     1   123.2000528 564.003200
   2907   2911   2913     1   123.2000528 564.003200
   2907   2911   6302     1   115.1800491 558.982400
   2910   6273   6275     1   120.6900519 530.531200
   2911   6302   6304     1   120.6900519 530.531200
   2912   2910   6273     1   123.0500530 620.905600
   2913   2911   6302     1   123.0500530 620.905600
   2916   2919   2939     1   111.6100477 551.451200
   2916   2922   2923     1   112.3500484 533.878400
   2916   2922   2926     1   112.3500484 533.878400
   2919   2916   2922     1   111.0400475 552.288000
   2922   2923   2932     1   111.0400475 552.288000
   2922   2926   2929     1   111.0400475 552.288000
   2923   2922   2926     1   112.3500484 533.878400
   2923   2932   2936     1   111.0400475 529.694400
   2926   2929   2935     1   111.0400475 529.694400
   2929   2935   6331     1   115.1800491 558.982400
   2929   2935   2937     1   123.2000528 564.003200
   2932   2936   2938     1   123.2000528 564.003200
   2932   2936   6360     1   115.1800491 558.982400
   2935   6331   6333     1   120.6900519 530.531200
   2936   6360   6362     1   120.6900519 530.531200
   2937   2935   6331     1   123.0500530 620.905600
   2938   2936   6360     1   123.0500530 620.905600
   2941   2944   2964     1   111.6100477 551.451200
   2941   2947   2948     1   112.3500484 533.878400
   2941   2947   2951     1   112.3500484 533.878400
   2944   2941   2947     1   111.0400475 552.288000
   2947   2948   2957     1   111.0400475 552.288000
   2947   2951   2954     1   111.0400475 552.288000
   2948   2947   2951     1   112.3500484 533.878400
   2948   2957   2961     1   111.0400475 529.694400
   2951   2954   2960     1   111.0400475 529.694400
   2954   2960   6389     1   115.1800491 558.982400
   2954   2960   2962     1   123.2000528 564.003200
   2957   2961   2963     1   123.2000528 564.003200
   2957   2961   6418     1   115.1800491 558.982400
   2960   6389   6391     1   120.6900519 530.531200
   2961   6418   6420     1   120.6900519 530.531200
   2962   2960   6389     1   123.0500530 620.905600
   2963   2961   6418     1   123.0500530 620.905600
   2966   2969   2989     1   111.6100477 551.451200
   2966   2972   2973     1   112.3500484 533.878400
   2966   2972   2976     1   112.3500484 533.878400
   2969   2966   2972     1   111.0400475 552.288000
   2972   2973   2982     1   111.0400475 552.288000
   2972   2976   2979     1   111.0400475 552.288000
   2973   2972   2976     1   112.3500484 533.878400
   2973   2982   2986     1   111.0400475 529.694400
   2976   2979   2985     1   111.0400475 529.694400
   2979   2985   6447     1   115.1800491 558.982400
   2979   2985   2987     1   123.2000528 564.003200
   2982   2986   2988     1   123.2000528 564.003200
   2982   2986   6476     1   115.1800491 558.982400
   2985   6447   6449     1   120.6900519 530.531200
   2986   6476   6478     1   120.6900519 530.531200
   2987   2985   6447     1   123.0500530 620.905600
   2988   2986   6476     1   123.0500530 620.905600
   2991   2994   3014     1   111.6100477 551.451200
   2991   2997   2998     1   112.3500484 533.878400
   2991   2997   3001     1   112.3500484 533.878400
   2994   2991   2997     1   111.0400475 552.288000
   2997   2998   3007     1   111.0400475 552.288000
   2997   3001   3004     1   111.0400475 552.288000
   2998   2997   3001     1   112.3500484 533.878400
   2998   3007   3011     1   111.0400475 529.694400
   3001   3004   3010     1   111.0400475 529.694400
   3004   3010   6505     1   115.1800491 558.982400
   3004   3010   3012     1   123.2000528 564.003200
   3007   3011   3013     1   123.2000528 564.003200
   3007   3011   6534     1   115.1800491 558.982400
   3010   6505   6507     1   120.6900519 530.531200
   3011   6534   6536     1   120.6900519 530.531200
   3012   3010   6505     1   123.0500530 620.905600
   3013   3011   6534     1   123.0500530 620.905600
   3016   3019   3039     1   111.6100477 551.451200
   3016   3022   3023     1   112.3500484 533.878400
   3016   3022   3026     1   112.3500484 533.878400
   3019   3016   3022     1   111.0400475 552.288000
   3022   3023   3032     1   111.0400475 552.288000
   3022   3026   3029     1   111.0400475 552.288000
   3023   3022   3026     1   112.3500484 533.878400
   3023   3032   3036     1   111.0400475 529.694400
   3026   3029   3035     1   111.0400475 529.694400
   3029   3035   6563     1   115.1800491 558.982400
   3029   3035   3037     1   123.2000528 564.003200
   3032   3036   3038     1   123.2000528 564.003200
   3032   3036   6592     1   115.1800491 558.982400
   3035   6563   6565     1   120.6900519 530.531200
   3036   6592   6594     1   120.6900519 530.531200
   3037   3035   6563     1   123.0500530 620.905600
   3038   3036   6592     1   123.0500530 620.905600
   3041   3044   3064     1   111.6100477 551.451200
   3041   3047   3048     1   112.3500484 533.878400
   3041   3047   3051     1   112.3500484 533.878400
   3044   3041   3047     1   111.0400475 552.288000
   3047   3048   3057     1   111.0400475 552.288000
   3047   3051   3054     1   111.0400475 552.288000
   3048   3047   3051     1   112.3500484 533.878400
   3048   3057   3061     1   111.0400475 529.694400
   3051   3054   3060     1   111.0400475 529.694400
   3054   3060   6621     1   115.1800491 558.982400
   3054   3060   3062     1   123.2000528 564.003200
   3057   3061   3063     1   123.2000528 564.003200
   3057   3061   6650     1   115.1800491 558.982400
   3060   6621   6623     1   120.6900519 530.531200
   3061   6650   6652     1   120.6900519 530.531200
   3062   3060   6621     1   123.0500530 620.905600
   3063   3061   6650     1   123.0500530 620.905600
   3066   3069   3089     1   111.6100477 551.451200
   3066   3072   3073     1   112.3500484 533.878400
   3066   3072   3076     1   112.3500484 533.878400
   3069   3066   3072     1   111.0400475 552.288000
   3072   3073   3082     1   111.0400475 552.288000
   3072   3076   3079     1   111.0400475 552.288000
   3073   3072   3076     1   112.3500484 533.878400
   3073   3082   3086     1   111.0400475 529.694400
   3076   3079   3085     1   111.0400475 529.694400
   3079   3085   6679     1   115.1800491 558.982400
   3079   3085   3087     1   123.2000528 564.003200
   3082   3086   3088     1   123.2000528 564.003200
   3082   3086   6708     1   115.1800491 558.982400
   3085   6679   6681     1   120.6900519 530.531200
   3086   6708   6710     1   120.6900519 530.531200
   3087   3085   6679     1   123.0500530 620.905600
   3088   3086   6708     1   123.0500530 620.905600
   3091   3094   3114     1   111.6100477 551.451200
   3091   3097   3098     1   112.3500484 533.878400
   3091   3097   3101     1   112.3500484 533.878400
   3094   3091   3097     1   111.0400475 552.288000
   3097   3098   3107     1   111.0400475 552.288000
   3097   3101   3104     1   111.0400475 552.288000
   3098   3097   3101     1   112.3500484 533.878400
   3098   3107   3111     1   111.0400475 529.694400
   3101   3104   3110     1   111.0400475 529.694400
   3104   3110   6737     1   115.1800491 558.982400
   3104   3110   3112     1   123.2000528 564.003200
   3107   3111   3113     1   123.2000528 564.003200
   3107   3111   6766     1   115.1800491 558.982400
   3110   6737   6739     1   120.6900519 530.531200
   3111   6766   6768     1   120.6900519 530.531200
   3112   3110   6737     1   123.0500530 620.905600
   3113   3111   6766     1   123.0500530 620.905600
   3116   3119   3139     1   111.6100477 551.451200
   3116   3122   3123     1   112.3500484 533.878400
   3116   3122   3126     1   112.3500484 533.878400
   3119   3116   3122     1   111.0400475 552.288000
   3122   3123   3132     1   111.0400475 552.288000
   3122   3126   3129     1   111.0400475 552.288000
   3123   3122   3126     1   112.3500484 533.878400
   3123   3132   3136     1   111.0400475 529.694400
   3126   3129   3135     1   111.0400475 529.694400
   3129   3135   6795     1   115.1800491 558.982400
   3129   3135   3137     1   123.2000528 564.003200
   3132   3136   6824     1   115.1800491 558.982400
   3132   3136   3138     1   123.2000528 564.003200
   3135   6795   6797     1   120.6900519 530.531200
   3136   6824   6826     1   120.6900519 530.531200
   3137   3135   6795     1   123.0500530 620.905600
   3138   3136   6824     1   123.0500530 620.905600
   3141   3143   3145     1   111.6100477 551.451200
   3143   3145   3149     1   111.0400475 552.288000
   3145   3149   3150     1   112.3500484 533.878400
   3145   3149   3151     1   112.3500484 533.878400
   3149   3150   3162     1   111.0400475 552.288000
   3149   3151   3153     1   111.0400475 552.288000
   3150   3149   3151     1   112.3500484 533.878400
   3150   3162   3165     1   111.0400475 529.694400
   3151   3153   3157     1   111.0400475 529.694400
   3153   3157   3158     1   112.7300484 572.371200
   3153   3157   3159     1   123.2000528 564.003200
   3158   3157   3159     1   122.1000523 635.131200
   3162   3165   3166     1   123.2000528 564.003200
   3162   3165   3167     1   112.7300484 572.371200
   3166   3165   3167     1   122.1000523 635.131200
   3170   3172   3174     1   111.6100477 551.451200
   3172   3174   3178     1   111.0400475 552.288000
   3174   3178   3179     1   112.3500484 533.878400
   3174   3178   3180     1   112.3500484 533.878400
   3178   3179   3191     1   111.0400475 552.288000
   3178   3180   3182     1   111.0400475 552.288000
   3179   3191   3194     1   111.0400475 529.694400
   3179   3178   3180     1   112.3500484 533.878400
   3180   3182   3186     1   111.0400475 529.694400
   3182   3186   3187     1   112.7300484 572.371200
   3182   3186   3188     1   123.2000528 564.003200
   3187   3186   3188     1   122.1000523 635.131200
   3191   3194   3195     1   123.2000528 564.003200
   3191   3194   3196     1   112.7300484 572.371200
   3195   3194   3196     1   122.1000523 635.131200
   3199   3201   3203     1   111.6100477 551.451200
   3201   3203   3207     1   111.0400475 552.288000
   3203   3207   3208     1   112.3500484 533.878400
   3203   3207   3209     1   112.3500484 533.878400
   3207   3208   3220     1   111.0400475 552.288000
   3207   3209   3211     1   111.0400475 552.288000
   3208   3207   3209     1   112.3500484 533.878400
   3208   3220   3223     1   111.0400475 529.694400
   3209   3211   3215     1   111.0400475 529.694400
   3211   3215   3216     1   112.7300484 572.371200
   3211   3215   3217     1   123.2000528 564.003200
   3216   3215   3217     1   122.1000523 635.131200
   3220   3223   3224     1   123.2000528 564.003200
   3220   3223   3225     1   112.7300484 572.371200
   3224   3223   3225     1   122.1000523 635.131200
   3228   3230   3232     1   111.6100477 551.451200
   3230   3232   3236     1   111.0400475 552.288000
   3232   3236   3237     1   112.3500484 533.878400
   3232   3236   3238     1   112.3500484 533.878400
   3236   3237   3249     1   111.0400475 552.288000
   3236   3238   3240     1   111.0400475 552.288000
   3237   3249   3252     1   111.0400475 529.694400
   3237   3236   3238     1   112.3500484 533.878400
   3238   3240   3244     1   111.0400475 529.694400
   3240   3244   3245     1   112.7300484 572.371200
   3240   3244   3246     1   123.2000528 564.003200
   3245   3244   3246     1   122.1000523 635.131200
   3249   3252   3253     1   123.2000528 564.003200
   3249   3252   3254     1   112.7300484 572.371200
   3253   3252   3254     1   122.1000523 635.131200
   3257   3259   3261     1   111.6100477 551.451200
   3259   3261   3265     1   111.0400475 552.288000
   3261   3265   3266     1   112.3500484 533.878400
   3261   3265   3267     1   112.3500484 533.878400
   3265   3266   3278     1   111.0400475 552.288000
   3265   3267   3269     1   111.0400475 552.288000
   3266   3265   3267     1   112.3500484 533.878400
   3266   3278   3281     1   111.0400475 529.694400
   3267   3269   3273     1   111.0400475 529.694400
   3269   3273   3274     1   112.7300484 572.371200
   3269   3273   3275     1   123.2000528 564.003200
   3274   3273   3275     1   122.1000523 635.131200
   3278   3281   3282     1   123.2000528 564.003200
   3278   3281   3283     1   112.7300484 572.371200
   3282   3281   3283     1   122.1000523 635.131200
   3286   3288   3290     1   111.6100477 551.451200
   3288   3290   3294     1   111.0400475 552.288000
   3290   3294   3295     1   112.3500484 533.878400
   3290   3294   3296     1   112.3500484 533.878400
   3294   3295   3307     1   111.0400475 552.288000
   3294   3296   3298     1   111.0400475 552.288000
   3295   3307   3310     1   111.0400475 529.694400
   3295   3294   3296     1   112.3500484 533.878400
   3296   3298   3302     1   111.0400475 529.694400
   3298   3302   3303     1   112.7300484 572.371200
   3298   3302   3304     1   123.2000528 564.003200
   3303   3302   3304     1   122.1000523 635.131200
   3307   3310   3311     1   123.2000528 564.003200
   3307   3310   3312     1   112.7300484 572.371200
   3311   3310   3312     1   122.1000523 635.131200
   3315   3317   3319     1   111.6100477 551.451200
   3317   3319   3323     1   111.0400475 552.288000
   3319   3323   3324     1   112.3500484 533.878400
   3319   3323   3325     1   112.3500484 533.878400
   3323   3324   3336     1   111.0400475 552.288000
   3323   3325   3327     1   111.0400475 552.288000
   3324   3323   3325     1   112.3500484 533.878400
   3324   3336   3339     1   111.0400475 529.694400
   3325   3327   3331     1   111.0400475 529.694400
   3327   3331   3332     1   112.7300484 572.371200
   3327   3331   3333     1   123.2000528 564.003200
   3332   3331   3333     1   122.1000523 635.131200
   3336   3339   3340     1   123.2000528 564.003200
   3336   3339   3341     1   112.7300484 572.371200
   3340   3339   3341     1   122.1000523 635.131200
   3344   3346   3348     1   111.6100477 551.451200
   3346   3348   3352     1   111.0400475 552.288000
   3348   3352   3353     1   112.3500484 533.878400
   3348   3352   3354     1   112.3500484 533.878400
   3352   3353   3365     1   111.0400475 552.288000
   3352   3354   3356     1   111.0400475 552.288000
   3353   3365   3368     1   111.0400475 529.694400
   3353   3352   3354     1   112.3500484 533.878400
   3354   3356   3360     1   111.0400475 529.694400
   3356   3360   3361     1   112.7300484 572.371200
   3356   3360   3362     1   123.2000528 564.003200
   3361   3360   3362     1   122.1000523 635.131200
   3365   3368   3369     1   123.2000528 564.003200
   3365   3368   3370     1   112.7300484 572.371200
   3369   3368   3370     1   122.1000523 635.131200
   3373   3375   3377     1   111.6100477 551.451200
   3375   3377   3381     1   111.0400475 552.288000
   3377   3381   3382     1   112.3500484 533.878400
   3377   3381   3383     1   112.3500484 533.878400
   3381   3382   3394     1   111.0400475 552.288000
   3381   3383   3385     1   111.0400475 552.288000
   3382   3381   3383     1   112.3500484 533.878400
   3382   3394   3397     1   111.0400475 529.694400
   3383   3385   3389     1   111.0400475 529.694400
   3385   3389   3390     1   112.7300484 572.371200
   3385   3389   3391     1   123.2000528 564.003200
   3390   3389   3391     1   122.1000523 635.131200
   3394   3397   3398     1   123.2000528 564.003200
   3394   3397   3399     1   112.7300484 572.371200
   3398   3397   3399     1   122.1000523 635.131200
   3402   3404   3406     1   111.6100477 551.451200
   3404   3406   3410     1   111.0400475 552.288000
   3406   3410   3411     1   112.3500484 533.878400
   3406   3410   3412     1   112.3500484 533.878400
   3410   3411   3423     1   111.0400475 552.288000
   3410   3412   3414     1   111.0400475 552.288000
   3411   3423   3426     1   111.0400475 529.694400
   3411   3410   3412     1   112.3500484 533.878400
   3412   3414   3418     1   111.0400475 529.694400
   3414   3418   3419     1   112.7300484 572.371200
   3414   3418   3420     1   123.2000528 564.003200
   3419   3418   3420     1   122.1000523 635.131200
   3423   3426   3427     1   123.2000528 564.003200
   3423   3426   3428     1   112.7300484 572.371200
   3427   3426   3428     1   122.1000523 635.131200
   3431   3433   3435     1   111.6100477 551.451200
   3433   3435   3439     1   111.0400475 552.288000
   3435   3439   3440     1   112.3500484 533.878400
   3435   3439   3441     1   112.3500484 533.878400
   3439   3440   3452     1   111.0400475 552.288000
   3439   3441   3443     1   111.0400475 552.288000
   3440   3439   3441     1   112.3500484 533.878400
   3440   3452   3455     1   111.0400475 529.694400
   3441   3443   3447     1   111.0400475 529.694400
   3443   3447   3448     1   112.7300484 572.371200
   3443   3447   3449     1   123.2000528 564.003200
   3448   3447   3449     1   122.1000523 635.131200
   3452   3455   3456     1   123.2000528 564.003200
   3452   3455   3457     1   112.7300484 572.371200
   3456   3455   3457     1   122.1000523 635.131200
   3460   3462   3464     1   111.6100477 551.451200
   3462   3464   3468     1   111.0400475 552.288000
   3464   3468   3469     1   112.3500484 533.878400
   3464   3468   3470     1   112.3500484 533.878400
   3468   3469   3481     1   111.0400475 552.288000
   3468   3470   3472     1   111.0400475 552.288000
   3469   3481   3484     1   111.0400475 529.694400
   3469   3468   3470     1   112.3500484 533.878400
   3470   3472   3476     1   111.0400475 529.694400
   3472   3476   3477     1   112.7300484 572.371200
   3472   3476   3478     1   123.2000528 564.003200
   3477   3476   3478     1   122.1000523 635.131200
   3481   3484   3485     1   123.2000528 564.003200
   3481   3484   3486     1   112.7300484 572.371200
   3485   3484   3486     1   122.1000523 635.131200
   3489   3491   3493     1   111.6100477 551.451200
   3491   3493   3497     1   111.0400475 552.288000
   3493   3497   3498     1   112.3500484 533.878400
   3493   3497   3499     1   112.3500484 533.878400
   3497   3498   3510     1   111.0400475 552.288000
   3497   3499   3501     1   111.0400475 552.288000
   3498   3497   3499     1   112.3500484 533.878400
   3498   3510   3513     1   111.0400475 529.694400
   3499   3501   3505     1   111.0400475 529.694400
   3501   3505   3506     1   112.7300484 572.371200
   3501   3505   3507     1   123.2000528 564.003200
   3506   3505   3507     1   122.1000523 635.131200
   3510   3513   3514     1   123.2000528 564.003200
   3510   3513   3515     1   112.7300484 572.371200
   3514   3513   3515     1   122.1000523 635.131200
   3518   3520   3522     1   111.6100477 551.451200
   3520   3522   3526     1   111.0400475 552.288000
   3522   3526   3527     1   112.3500484 533.878400
   3522   3526   3528     1   112.3500484 533.878400
   3526   3527   3539     1   111.0400475 552.288000
   3526   3528   3530     1   111.0400475 552.288000
   3527   3539   3542     1   111.0400475 529.694400
   3527   3526   3528     1   112.3500484 533.878400
   3528   3530   3534     1   111.0400475 529.694400
   3530   3534   3535     1   112.7300484 572.371200
   3530   3534   3536     1   123.2000528 564.003200
   3535   3534   3536     1   122.1000523 635.131200
   3539   3542   3543     1   123.2000528 564.003200
   3539   3542   3544     1   112.7300484 572.371200
   3543   3542   3544     1   122.1000523 635.131200
   3547   3549   3551     1   111.6100477 551.451200
   3549   3551   3555     1   111.0400475 552.288000
   3551   3555   3556     1   112.3500484 533.878400
   3551   3555   3557     1   112.3500484 533.878400
   3555   3556   3568     1   111.0400475 552.288000
   3555   3557   3559     1   111.0400475 552.288000
   3556   3555   3557     1   112.3500484 533.878400
   3556   3568   3571     1   111.0400475 529.694400
   3557   3559   3563     1   111.0400475 529.694400
   3559   3563   3564     1   112.7300484 572.371200
   3559   3563   3565     1   123.2000528 564.003200
   3564   3563   3565     1   122.1000523 635.131200
   3568   3571   3572     1   123.2000528 564.003200
   3568   3571   3573     1   112.7300484 572.371200
   3572   3571   3573     1   122.1000523 635.131200
   3576   3578   3580     1   111.6100477 551.451200
   3578   3580   3584     1   111.0400475 552.288000
   3580   3584   3585     1   112.3500484 533.878400
   3580   3584   3586     1   112.3500484 533.878400
   3584   3585   3597     1   111.0400475 552.288000
   3584   3586   3588     1   111.0400475 552.288000
   3585   3597   3600     1   111.0400475 529.694400
   3585   3584   3586     1   112.3500484 533.878400
   3586   3588   3592     1   111.0400475 529.694400
   3588   3592   3593     1   112.7300484 572.371200
   3588   3592   3594     1   123.2000528 564.003200
   3593   3592   3594     1   122.1000523 635.131200
   3597   3600   3601     1   123.2000528 564.003200
   3597   3600   3602     1   112.7300484 572.371200
   3601   3600   3602     1   122.1000523 635.131200
   3605   3607   3609     1   111.6100477 551.451200
   3607   3609   3613     1   111.0400475 552.288000
   3609   3613   3614     1   112.3500484 533.878400
   3609   3613   3615     1   112.3500484 533.878400
   3613   3614   3626     1   111.0400475 552.288000
   3613   3615   3617     1   111.0400475 552.288000
   3614   3613   3615     1   112.3500484 533.878400
   3614   3626   3629     1   111.0400475 529.694400
   3615   3617   3621     1   111.0400475 529.694400
   3617   3621   3622     1   112.7300484 572.371200
   3617   3621   3623     1   123.2000528 564.003200
   3622   3621   3623     1   122.1000523 635.131200
   3626   3629   3630     1   123.2000528 564.003200
   3626   3629   3631     1   112.7300484 572.371200
   3630   3629   3631     1   122.1000523 635.131200
   3634   3636   3638     1   111.6100477 551.451200
   3636   3638   3642     1   111.0400475 552.288000
   3638   3642   3643     1   112.3500484 533.878400
   3638   3642   3644     1   112.3500484 533.878400
   3642   3643   3655     1   111.0400475 552.288000
   3642   3644   3646     1   111.0400475 552.288000
   3643   3655   3658     1   111.0400475 529.694400
   3643   3642   3644     1   112.3500484 533.878400
   3644   3646   3650     1   111.0400475 529.694400
   3646   3650   3651     1   112.7300484 572.371200
   3646   3650   3652     1   123.2000528 564.003200
   3651   3650   3652     1   122.1000523 635.131200
   3655   3658   3659     1   123.2000528 564.003200
   3655   3658   3660     1   112.7300484 572.371200
   3659   3658   3660     1   122.1000523 635.131200
   3663   3665   3667     1   111.6100477 551.451200
   3665   3667   3671     1   111.0400475 552.288000
   3667   3671   3672     1   112.3500484 533.878400
   3667   3671   3673     1   112.3500484 533.878400
   3671   3672   3684     1   111.0400475 552.288000
   3671   3673   3675     1   111.0400475 552.288000
   3672   3671   3673     1   112.3500484 533.878400
   3672   3684   3687     1   111.0400475 529.694400
   3673   3675   3679     1   111.0400475 529.694400
   3675   3679   3680     1   112.7300484 572.371200
   3675   3679   3681     1   123.2000528 564.003200
   3680   3679   3681     1   122.1000523 635.131200
   3684   3687   3688     1   123.2000528 564.003200
   3684   3687   3689     1   112.7300484 572.371200
   3688   3687   3689     1   122.1000523 635.131200
   3692   3694   3696     1   111.6100477 551.451200
   3694   3696   3700     1   111.0400475 552.288000
   3696   3700   3701     1   112.3500484 533.878400
   3696   3700   3702     1   112.3500484 533.878400
   3700   3701   3713     1   111.0400475 552.288000
   3700   3702   3704     1   111.0400475 552.288000
   3701   3713   3716     1   111.0400475 529.694400
   3701   3700   3702     1   112.3500484 533.878400
   3702   3704   3708     1   111.0400475 529.694400
   3704   3708   3709     1   112.7300484 572.371200
   3704   3708   3710     1   123.2000528 564.003200
   3709   3708   3710     1   122.1000523 635.131200
   3713   3716   3717     1   123.2000528 564.003200
   3713   3716   3718     1   112.7300484 572.371200
   3717   3716   3718     1   122.1000523 635.131200
   3721   3723   3725     1   111.6100477 551.451200
   3723   3725   3729     1   111.0400475 552.288000
   3725   3729   3730     1   112.3500484 533.878400
   3725   3729   3731     1   112.3500484 533.878400
   3729   3730   3742     1   111.0400475 552.288000
   3729   3731   3733     1   111.0400475 552.288000
   3730   3729   3731     1   112.3500484 533.878400
   3730   3742   3745     1   111.0400475 529.694400
   3731   3733   3737     1   111.0400475 529.694400
   3733   3737   3738     1   112.7300484 572.371200
   3733   3737   3739     1   123.2000528 564.003200
   3738   3737   3739     1   122.1000523 635.131200
   3742   3745   3746     1   123.2000528 564.003200
   3742   3745   3747     1   112.7300484 572.371200
   3746   3745   3747     1   122.1000523 635.131200
   3750   3752   3754     1   111.6100477 551.451200
   3752   3754   3758     1   111.0400475 552.288000
   3754   3758   3759     1   112.3500484 533.878400
   3754   3758   3760     1   112.3500484 533.878400
   3758   3759   3771     1   111.0400475 552.288000
   3758   3760   3762     1   111.0400475 552.288000
   3759   3771   3774     1   111.0400475 529.694400
   3759   3758   3760     1   112.3500484 533.878400
   3760   3762   3766     1   111.0400475 529.694400
   3762   3766   3767     1   112.7300484 572.371200
   3762   3766   3768     1   123.2000528 564.003200
   3767   3766   3768     1   122.1000523 635.131200
   3771   3774   3775     1   123.2000528 564.003200
   3771   3774   3776     1   112.7300484 572.371200
   3775   3774   3776     1   122.1000523 635.131200
   3779   3781   3783     1   111.6100477 551.451200
   3781   3783   3787     1   111.0400475 552.288000
   3783   3787   3788     1   112.3500484 533.878400
   3783   3787   3789     1   112.3500484 533.878400
   3787   3788   3800     1   111.0400475 552.288000
   3787   3789   3791     1   111.0400475 552.288000
   3788   3787   3789     1   112.3500484 533.878400
   3788   3800   3803     1   111.0400475 529.694400
   3789   3791   3795     1   111.0400475 529.694400
   3791   3795   3796     1   112.7300484 572.371200
   3791   3795   3797     1   123.2000528 564.003200
   3796   3795   3797     1   122.1000523 635.131200
   3800   3803   3804     1   123.2000528 564.003200
   3800   3803   3805     1   112.7300484 572.371200
   3804   3803   3805     1   122.1000523 635.131200
   3808   3810   3812     1   111.6100477 551.451200
   3810   3812   3816     1   111.0400475 552.288000
   3812   3816   3817     1   112.3500484 533.878400
   3812   3816   3818     1   112.3500484 533.878400
   3816   3817   3829     1   111.0400475 552.288000
   3816   3818   3820     1   111.0400475 552.288000
   3817   3829   3832     1   111.0400475 529.694400
   3817   3816   3818     1   112.3500484 533.878400
   3818   3820   3824     1   111.0400475 529.694400
   3820   3824   3825     1   112.7300484 572.371200
   3820   3824   3826     1   123.2000528 564.003200
   3825   3824   3826     1   122.1000523 635.131200
   3829   3832   3833     1   123.2000528 564.003200
   3829   3832   3834     1   112.7300484 572.371200
   3833   3832   3834     1   122.1000523 635.131200
   3837   3839   3841     1   111.6100477 551.451200
   3839   3841   3845     1   111.0400475 552.288000
   3841   3845   3846     1   112.3500484 533.878400
   3841   3845   3847     1   112.3500484 533.878400
   3845   3846   3858     1   111.0400475 552.288000
   3845   3847   3849     1   111.0400475 552.288000
   3846   3845   3847     1   112.3500484 533.878400
   3846   3858   3861     1   111.0400475 529.694400
   3847   3849   3853     1   111.0400475 529.694400
   3849   3853   3854     1   112.7300484 572.371200
   3849   3853   3855     1   123.2000528 564.003200
   3854   3853   3855     1   122.1000523 635.131200
   3858   3861   3862     1   123.2000528 564.003200
   3858   3861   3863     1   112.7300484 572.371200
   3862   3861   3863     1   122.1000523 635.131200
   3866   3868   3870     1   111.6100477 551.451200
   3868   3870   3874     1   111.0400475 552.288000
   3870   3874   3875     1   112.3500484 533.878400
   3870   3874   3876     1   112.3500484 533.878400
   3874   3875   3887     1   111.0400475 552.288000
   3874   3876   3878     1   111.0400475 552.288000
   3875   3887   3890     1   111.0400475 529.694400
   3875   3874   3876     1   112.3500484 533.878400
   3876   3878   3882     1   111.0400475 529.694400
   3878   3882   3883     1   112.7300484 572.371200
   3878   3882   3884     1   123.2000528 564.003200
   3883   3882   3884     1   122.1000523 635.131200
   3887   3890   3891     1   123.2000528 564.003200
   3887   3890   3892     1   112.7300484 572.371200
   3891   3890   3892     1   122.1000523 635.131200
   3895   3897   3899     1   111.6100477 551.451200
   3897   3899   3903     1   111.0400475 552.288000
   3899   3903   3904     1   112.3500484 533.878400
   3899   3903   3905     1   112.3500484 533.878400
   3903   3904   3916     1   111.0400475 552.288000
   3903   3905   3907     1   111.0400475 552.288000
   3904   3903   3905     1   112.3500484 533.878400
   3904   3916   3919     1   111.0400475 529.694400
   3905   3907   3911     1   111.0400475 529.694400
   3907   3911   3912     1   112.7300484 572.371200
   3907   3911   3913     1   123.2000528 564.003200
   3912   3911   3913     1   122.1000523 635.131200
   3916   3919   3920     1   123.2000528 564.003200
   3916   3919   3921     1   112.7300484 572.371200
   3920   3919   3921     1   122.1000523 635.131200
   3924   3926   3928     1   111.6100477 551.451200
   3926   3928   3932     1   111.0400475 552.288000
   3928   3932   3933     1   112.3500484 533.878400
   3928   3932   3934     1   112.3500484 533.878400
   3932   3933   3945     1   111.0400475 552.288000
   3932   3934   3936     1   111.0400475 552.288000
   3933   3945   3948     1   111.0400475 529.694400
   3933   3932   3934     1   112.3500484 533.878400
   3934   3936   3940     1   111.0400475 529.694400
   3936   3940   3941     1   112.7300484 572.371200
   3936   3940   3942     1   123.2000528 564.003200
   3941   3940   3942     1   122.1000523 635.131200
   3945   3948   3949     1   123.2000528 564.003200
   3945   3948   3950     1   112.7300484 572.371200
   3949   3948   3950     1   122.1000523 635.131200
   3953   3955   3957     1   111.6100477 551.451200
   3955   3957   3961     1   111.0400475 552.288000
   3957   3961   3962     1   112.3500484 533.878400
   3957   3961   3963     1   112.3500484 533.878400
   3961   3962   3974     1   111.0400475 552.288000
   3961   3963   3965     1   111.0400475 552.288000
   3962   3961   3963     1   112.3500484 533.878400
   3962   3974   3977     1   111.0400475 529.694400
   3963   3965   3969     1   111.0400475 529.694400
   3965   3969   3970     1   112.7300484 572.371200
   3965   3969   3971     1   123.2000528 564.003200
   3970   3969   3971     1   122.1000523 635.131200
   3974   3977   3978     1   123.2000528 564.003200
   3974   3977   3979     1   112.7300484 572.371200
   3978   3977   3979     1   122.1000523 635.131200
   3982   3984   3986     1   111.6100477 551.451200
   3984   3986   3990     1   111.0400475 552.288000
   3986   3990   3991     1   112.3500484 533.878400
   3986   3990   3992     1   112.3500484 533.878400
   3990   3991   4003     1   111.0400475 552.288000
   3990   3992   3994     1   111.0400475 552.288000
   3991   4003   4006     1   111.0400475 529.694400
   3991   3990   3992     1   112.3500484 533.878400
   3992   3994   3998     1   111.0400475 529.694400
   3994   3998   3999     1   112.7300484 572.371200
   3994   3998   4000     1   123.2000528 564.003200
   3999   3998   4000     1   122.1000523 635.131200
   4003   4006   4007     1   123.2000528 564.003200
   4003   4006   4008     1   112.7300484 572.371200
   4007   4006   4008     1   122.1000523 635.131200
   4011   4013   4015     1   111.6100477 551.451200
   4013   4015   4019     1   111.0400475 552.288000
   4015   4019   4020     1   112.3500484 533.878400
   4015   4019   4021     1   112.3500484 533.878400
   4019   4020   4032     1   111.0400475 552.288000
   4019   4021   4023     1   111.0400475 552.288000
   4020   4019   4021     1   112.3500484 533.878400
   4020   4032   4035     1   111.0400475 529.694400
   4021   4023   4027     1   111.0400475 529.694400
   4023   4027   4028     1   112.7300484 572.371200
   4023   4027   4029     1   123.2000528 564.003200
   4028   4027   4029     1   122.1000523 635.131200
   4032   4035   4036     1   123.2000528 564.003200
   4032   4035   4037     1   112.7300484 572.371200
   4036   4035   4037     1   122.1000523 635.131200
   4040   4042   4044     1   111.6100477 551.451200
   4042   4044   4048     1   111.0400475 552.288000
   4044   4048   4049     1   112.3500484 533.878400
   4044   4048   4050     1   112.3500484 533.878400
   4048   4049   4061     1   111.0400475 552.288000
   4048   4050   4052     1   111.0400475 552.288000
   4049   4061   4064     1   111.0400475 529.694400
   4049   4048   4050     1   112.3500484 533.878400
   4050   4052   4056     1   111.0400475 529.694400
   4052   4056   4057     1   112.7300484 572.371200
   4052   4056   4058     1   123.2000528 564.003200
   4057   4056   4058     1   122.1000523 635.131200
   4061   4064   4065     1   123.2000528 564.003200
   4061   4064   4066     1   112.7300484 572.371200
   4065   4064   4066     1   122.1000523 635.131200
   4069   4071   4073     1   111.6100477 551.451200
   4071   4073   4077     1   111.0400475 552.288000
   4073   4077   4078     1   112.3500484 533.878400
   4073   4077   4079     1   112.3500484 533.878400
   4077   4078   4090     1   111.0400475 552.288000
   4077   4079   4081     1   111.0400475 552.288000
   4078   4077   4079     1   112.3500484 533.878400
   4078   4090   4093     1   111.0400475 529.694400
   4079   4081   4085     1   111.0400475 529.694400
   4081   4085   4086     1   112.7300484 572.371200
   4081   4085   4087     1   123.2000528 564.003200
   4086   4085   4087     1   122.1000523 635.131200
   4090   4093   4094     1   123.2000528 564.003200
   4090   4093   4095     1   112.7300484 572.371200
   4094   4093   4095     1   122.1000523 635.131200
   4098   4100   4102     1   111.6100477 551.451200
   4100   4102   4106     1   111.0400475 552.288000
   4102   4106   4107     1   112.3500484 533.878400
   4102   4106   4108     1   112.3500484 533.878400
   4106   4107   4119     1   111.0400475 552.288000
   4106   4108   4110     1   111.0400475 552.288000
   4107   4119   4122     1   111.0400475 529.694400
   4107   4106   4108     1   112.3500484 533.878400
   4108   4110   4114     1   111.0400475 529.694400
   4110   4114   4115     1   112.7300484 572.371200
   4110   4114   4116     1   123.2000528 564.003200
   4115   4114   4116     1   122.1000523 635.131200
   4119   4122   4123     1   123.2000528 564.003200
   4119   4122   4124     1   112.7300484 572.371200
   4123   4122   4124     1   122.1000523 635.131200
   4127   4129   4131     1   111.6100477 551.451200
   4129   4131   4135     1   111.0400475 552.288000
   4131   4135   4136     1   112.3500484 533.878400
   4131   4135   4137     1   112.3500484 533.878400
   4135   4136   4148     1   111.0400475 552.288000
   4135   4137   4139     1   111.0400475 552.288000
   4136   4135   4137     1   112.3500484 533.878400
   4136   4148   4151     1   111.0400475 529.694400
   4137   4139   4143     1   111.0400475 529.694400
   4139   4143   4144     1   112.7300484 572.371200
   4139   4143   4145     1   123.2000528 564.003200
   4144   4143   4145     1   122.1000523 635.131200
   4148   4151   4152     1   123.2000528 564.003200
   4148   4151   4153     1   112.7300484 572.371200
   4152   4151   4153     1   122.1000523 635.131200
   4156   4158   4160     1   111.6100477 551.451200
   4158   4160   4164     1   111.0400475 552.288000
   4160   4164   4165     1   112.3500484 533.878400
   4160   4164   4166     1   112.3500484 533.878400
   4164   4165   4177     1   111.0400475 552.288000
   4164   4166   4168     1   111.0400475 552.288000
   4165   4177   4180     1   111.0400475 529.694400
   4165   4164   4166     1   112.3500484 533.878400
   4166   4168   4172     1   111.0400475 529.694400
   4168   4172   4173     1   112.7300484 572.371200
   4168   4172   4174     1   123.2000528 564.003200
   4173   4172   4174     1   122.1000523 635.131200
   4177   4180   4181     1   123.2000528 564.003200
   4177   4180   4182     1   112.7300484 572.371200
   4181   4180   4182     1   122.1000523 635.131200
   4185   4187   4189     1   111.6100477 551.451200
   4187   4189   4193     1   111.0400475 552.288000
   4189   4193   4194     1   112.3500484 533.878400
   4189   4193   4195     1   112.3500484 533.878400
   4193   4194   4206     1   111.0400475 552.288000
   4193   4195   4197     1   111.0400475 552.288000
   4194   4193   4195     1   112.3500484 533.878400
   4194   4206   4209     1   111.0400475 529.694400
   4195   4197   4201     1   111.0400475 529.694400
   4197   4201   4202     1   112.7300484 572.371200
   4197   4201   4203     1   123.2000528 564.003200
   4202   4201   4203     1   122.1000523 635.131200
   4206   4209   4210     1   123.2000528 564.003200
   4206   4209   4211     1   112.7300484 572.371200
   4210   4209   4211     1   122.1000523 635.131200
   4214   4216   4218     1   111.6100477 551.451200
   4216   4218   4222     1   111.0400475 552.288000
   4218   4222   4223     1   112.3500484 533.878400
   4218   4222   4224     1   112.3500484 533.878400
   4222   4223   4235     1   111.0400475 552.288000
   4222   4224   4226     1   111.0400475 552.288000
   4223   4235   4238     1   111.0400475 529.694400
   4223   4222   4224     1   112.3500484 533.878400
   4224   4226   4230     1   111.0400475 529.694400
   4226   4230   4231     1   112.7300484 572.371200
   4226   4230   4232     1   123.2000528 564.003200
   4231   4230   4232     1   122.1000523 635.131200
   4235   4238   4239     1   123.2000528 564.003200
   4235   4238   4240     1   112.7300484 572.371200
   4239   4238   4240     1   122.1000523 635.131200
   4243   4245   4247     1   111.6100477 551.451200
   4245   4247   4251     1   111.0400475 552.288000
   4247   4251   4252     1   112.3500484 533.878400
   4247   4251   4253     1   112.3500484 533.878400
   4251   4252   4264     1   111.0400475 552.288000
   4251   4253   4255     1   111.0400475 552.288000
   4252   4251   4253     1   112.3500484 533.878400
   4252   4264   4267     1   111.0400475 529.694400
   4253   4255   4259     1   111.0400475 529.694400
   4255   4259   4260     1   112.7300484 572.371200
   4255   4259   4261     1   123.2000528 564.003200
   4260   4259   4261     1   122.1000523 635.131200
   4264   4267   4268     1   123.2000528 564.003200
   4264   4267   4269     1   112.7300484 572.371200
   4268   4267   4269     1   122.1000523 635.131200
   4272   4274   4276     1   111.6100477 551.451200
   4274   4276   4280     1   111.0400475 552.288000
   4276   4280   4281     1   112.3500484 533.878400
   4276   4280   4282     1   112.3500484 533.878400
   4280   4281   4293     1   111.0400475 552.288000
   4280   4282   4284     1   111.0400475 552.288000
   4281   4293   4296     1   111.0400475 529.694400
   4281   4280   4282     1   112.3500484 533.878400
   4282   4284   4288     1   111.0400475 529.694400
   4284   4288   4289     1   112.7300484 572.371200
   4284   4288   4290     1   123.2000528 564.003200
   4289   4288   4290     1   122.1000523 635.131200
   4293   4296   4297     1   123.2000528 564.003200
   4293   4296   4298     1   112.7300484 572.371200
   4297   4296   4298     1   122.1000523 635.131200
   4301   4303   4305     1   111.6100477 551.451200
   4303   4305   4309     1   111.0400475 552.288000
   4305   4309   4310     1   112.3500484 533.878400
   4305   4309   4311     1   112.3500484 533.878400
   4309   4310   4322     1   111.0400475 552.288000
   4309   4311   4313     1   111.0400475 552.288000
   4310   4309   4311     1   112.3500484 533.878400
   4310   4322   4325     1   111.0400475 529.694400
   4311   4313   4317     1   111.0400475 529.694400
   4313   4317   4318     1   112.7300484 572.371200
   4313   4317   4319     1   123.2000528 564.003200
   4318   4317   4319     1   122.1000523 635.131200
   4322   4325   4326     1   123.2000528 564.003200
   4322   4325   4327     1   112.7300484 572.371200
   4326   4325   4327     1   122.1000523 635.131200
   4330   4332   4334     1   111.6100477 551.451200
   4332   4334   4338     1   111.0400475 552.288000
   4334   4338   4339     1   112.3500484 533.878400
   4334   4338   4340     1   112.3500484 533.878400
   4338   4339   4351     1   111.0400475 552.288000
   4338   4340   4342     1   111.0400475 552.288000
   4339   4351   4354     1   111.0400475 529.694400
   4339   4338   4340     1   112.3500484 533.878400
   4340   4342   4346     1   111.0400475 529.694400
   4342   4346   4347     1   112.7300484 572.371200
   4342   4346   4348     1   123.2000528 564.003200
   4347   4346   4348     1   122.1000523 635.131200
   4351   4354   4355     1   123.2000528 564.003200
   4351   4354   4356     1   112.7300484 572.371200
   4355   4354   4356     1   122.1000523 635.131200
   4359   4361   4363     1   111.6100477 551.451200
   4361   4363   4367     1   111.0400475 552.288000
   4363   4367   4368     1   112.3500484 533.878400
   4363   4367   4369     1   112.3500484 533.878400
   4367   4368   4380     1   111.0400475 552.288000
   4367   4369   4371     1   111.0400475 552.288000
   4368   4367   4369     1   112.3500484 533.878400
   4368   4380   4383     1   111.0400475 529.694400
   4369   4371   4375     1   111.0400475 529.694400
   4371   4375   4376     1   112.7300484 572.371200
   4371   4375   4377     1   123.2000528 564.003200
   4376   4375   4377     1   122.1000523 635.131200
   4380   4383   4384     1   123.2000528 564.003200
   4380   4383   4385     1   112.7300484 572.371200
   4384   4383   4385     1   122.1000523 635.131200
   4388   4390   4392     1   111.6100477 551.451200
   4390   4392   4396     1   111.0400475 552.288000
   4392   4396   4397     1   112.3500484 533.878400
   4392   4396   4398     1   112.3500484 533.878400
   4396   4397   4409     1   111.0400475 552.288000
   4396   4398   4400     1   111.0400475 552.288000
   4397   4409   4412     1   111.0400475 529.694400
   4397   4396   4398     1   112.3500484 533.878400
   4398   4400   4404     1   111.0400475 529.694400
   4400   4404   4405     1   112.7300484 572.371200
   4400   4404   4406     1   123.2000528 564.003200
   4405   4404   4406     1   122.1000523 635.131200
   4409   4412   4413     1   123.2000528 564.003200
   4409   4412   4414     1   112.7300484 572.371200
   4413   4412   4414     1   122.1000523 635.131200
   4417   4419   4421     1   111.6100477 551.451200
   4419   4421   4425     1   111.0400475 552.288000
   4421   4425   4426     1   112.3500484 533.878400
   4421   4425   4427     1   112.3500484 533.878400
   4425   4426   4438     1   111.0400475 552.288000
   4425   4427   4429     1   111.0400475 552.288000
   4426   4425   4427     1   112.3500484 533.878400
   4426   4438   4441     1   111.0400475 529.694400
   4427   4429   4433     1   111.0400475 529.694400
   4429   4433   4434     1   112.7300484 572.371200
   4429   4433   4435     1   123.2000528 564.003200
   4434   4433   4435     1   122.1000523 635.131200
   4438   4441   4442     1   123.2000528 564.003200
   4438   4441   4443     1   112.7300484 572.371200
   4442   4441   4443     1   122.1000523 635.131200
   4446   4448   4450     1   111.6100477 551.451200
   4448   4450   4454     1   111.0400475 552.288000
   4450   4454   4455     1   112.3500484 533.878400
   4450   4454   4456     1   112.3500484 533.878400
   4454   4455   4467     1   111.0400475 552.288000
   4454   4456   4458     1   111.0400475 552.288000
   4455   4467   4470     1   111.0400475 529.694400
   4455   4454   4456     1   112.3500484 533.878400
   4456   4458   4462     1   111.0400475 529.694400
   4458   4462   4463     1   112.7300484 572.371200
   4458   4462   4464     1   123.2000528 564.003200
   4463   4462   4464     1   122.1000523 635.131200
   4467   4470   4471     1   123.2000528 564.003200
   4467   4470   4472     1   112.7300484 572.371200
   4471   4470   4472     1   122.1000523 635.131200
   4475   4477   4479     1   111.6100477 551.451200
   4477   4479   4483     1   111.0400475 552.288000
   4479   4483   4484     1   112.3500484 533.878400
   4479   4483   4485     1   112.3500484 533.878400
   4483   4484   4496     1   111.0400475 552.288000
   4483   4485   4487     1   111.0400475 552.288000
   4484   4483   4485     1   112.3500484 533.878400
   4484   4496   4499     1   111.0400475 529.694400
   4485   4487   4491     1   111.0400475 529.694400
   4487   4491   4492     1   112.7300484 572.371200
   4487   4491   4493     1   123.2000528 564.003200
   4492   4491   4493     1   122.1000523 635.131200
   4496   4499   4500     1   123.2000528 564.003200
   4496   4499   4501     1   112.7300484 572.371200
   4500   4499   4501     1   122.1000523 635.131200
   4504   4506   4508     1   111.6100477 551.451200
   4506   4508   4512     1   111.0400475 552.288000
   4508   4512   4513     1   112.3500484 533.878400
   4508   4512   4514     1   112.3500484 533.878400
   4512   4513   4525     1   111.0400475 552.288000
   4512   4514   4516     1   111.0400475 552.288000
   4513   4525   4528     1   111.0400475 529.694400
   4513   4512   4514     1   112.3500484 533.878400
   4514   4516   4520     1   111.0400475 529.694400
   4516   4520   4521     1   112.7300484 572.371200
   4516   4520   4522     1   123.2000528 564.003200
   4521   4520   4522     1   122.1000523 635.131200
   4525   4528   4529     1   123.2000528 564.003200
   4525   4528   4530     1   112.7300484 572.371200
   4529   4528   4530     1   122.1000523 635.131200
   4533   4535   4537     1   111.6100477 551.451200
   4535   4537   4541     1   111.0400475 552.288000
   4537   4541   4542     1   112.3500484 533.878400
   4537   4541   4543     1   112.3500484 533.878400
   4541   4542   4554     1   111.0400475 552.288000
   4541   4543   4545     1   111.0400475 552.288000
   4542   4541   4543     1   112.3500484 533.878400
   4542   4554   4557     1   111.0400475 529.694400
   4543   4545   4549     1   111.0400475 529.694400
   4545   4549   4550     1   112.7300484 572.371200
   4545   4549   4551     1   123.2000528 564.003200
   4550   4549   4551     1   122.1000523 635.131200
   4554   4557   4558     1   123.2000528 564.003200
   4554   4557   4559     1   112.7300484 572.371200
   4558   4557   4559     1   122.1000523 635.131200
   4562   4564   4566     1   111.6100477 551.451200
   4564   4566   4570     1   111.0400475 552.288000
   4566   4570   4571     1   112.3500484 533.878400
   4566   4570   4572     1   112.3500484 533.878400
   4570   4571   4583     1   111.0400475 552.288000
   4570   4572   4574     1   111.0400475 552.288000
   4571   4583   4586     1   111.0400475 529.694400
   4571   4570   4572     1   112.3500484 533.878400
   4572   4574   4578     1   111.0400475 529.694400
   4574   4578   4579     1   112.7300484 572.371200
   4574   4578   4580     1   123.2000528 564.003200
   4579   4578   4580     1   122.1000523 635.131200
   4583   4586   4587     1   123.2000528 564.003200
   4583   4586   4588     1   112.7300484 572.371200
   4587   4586   4588     1   122.1000523 635.131200
   4591   4593   4595     1   111.6100477 551.451200
   4593   4595   4599     1   111.0400475 552.288000
   4595   4599   4600     1   112.3500484 533.878400
   4595   4599   4601     1   112.3500484 533.878400
   4599   4600   4612     1   111.0400475 552.288000
   4599   4601   4603     1   111.0400475 552.288000
   4600   4599   4601     1   112.3500484 533.878400
   4600   4612   4615     1   111.0400475 529.694400
   4601   4603   4607     1   111.0400475 529.694400
   4603   4607   4608     1   112.7300484 572.371200
   4603   4607   4609     1   123.2000528 564.003200
   4608   4607   4609     1   122.1000523 635.131200
   4612   4615   4616     1   123.2000528 564.003200
   4612   4615   4617     1   112.7300484 572.371200
   4616   4615   4617     1   122.1000523 635.131200
   4620   4622   4624     1   111.6100477 551.451200
   4622   4624   4628     1   111.0400475 552.288000
   4624   4628   4629     1   112.3500484 533.878400
   4624   4628   4630     1   112.3500484 533.878400
   4628   4629   4641     1   111.0400475 552.288000
   4628   4630   4632     1   111.0400475 552.288000
   4629   4641   4644     1   111.0400475 529.694400
   4629   4628   4630     1   112.3500484 533.878400
   4630   4632   4636     1   111.0400475 529.694400
   4632   4636   4637     1   112.7300484 572.371200
   4632   4636   4638     1   123.2000528 564.003200
   4637   4636   4638     1   122.1000523 635.131200
   4641   4644   4645     1   123.2000528 564.003200
   4641   4644   4646     1   112.7300484 572.371200
   4645   4644   4646     1   122.1000523 635.131200
   4649   4651   4653     1   111.6100477 551.451200
   4651   4653   4657     1   111.0400475 552.288000
   4653   4657   4658     1   112.3500484 533.878400
   4653   4657   4659     1   112.3500484 533.878400
   4657   4658   4670     1   111.0400475 552.288000
   4657   4659   4661     1   111.0400475 552.288000
   4658   4657   4659     1   112.3500484 533.878400
   4658   4670   4673     1   111.0400475 529.694400
   4659   4661   4665     1   111.0400475 529.694400
   4661   4665   4666     1   112.7300484 572.371200
   4661   4665   4667     1   123.2000528 564.003200
   4666   4665   4667     1   122.1000523 635.131200
   4670   4673   4674     1   123.2000528 564.003200
   4670   4673   4675     1   112.7300484 572.371200
   4674   4673   4675     1   122.1000523 635.131200
   4678   4680   4682     1   111.6100477 551.451200
   4680   4682   4686     1   111.0400475 552.288000
   4682   4686   4687     1   112.3500484 533.878400
   4682   4686   4688     1   112.3500484 533.878400
   4686   4687   4699     1   111.0400475 552.288000
   4686   4688   4690     1   111.0400475 552.288000
   4687   4699   4702     1   111.0400475 529.694400
   4687   4686   4688     1   112.3500484 533.878400
   4688   4690   4694     1   111.0400475 529.694400
   4690   4694   4695     1   112.7300484 572.371200
   4690   4694   4696     1   123.2000528 564.003200
   4695   4694   4696     1   122.1000523 635.131200
   4699   4702   4703     1   123.2000528 564.003200
   4699   4702   4704     1   112.7300484 572.371200
   4703   4702   4704     1   122.1000523 635.131200
   4707   4709   4711     1   111.6100477 551.451200
   4709   4711   4715     1   111.0400475 552.288000
   4711   4715   4716     1   112.3500484 533.878400
   4711   4715   4717     1   112.3500484 533.878400
   4715   4716   4728     1   111.0400475 552.288000
   4715   4717   4719     1   111.0400475 552.288000
   4716   4715   4717     1   112.3500484 533.878400
   4716   4728   4731     1   111.0400475 529.694400
   4717   4719   4723     1   111.0400475 529.694400
   4719   4723   4724     1   112.7300484 572.371200
   4719   4723   4725     1   123.2000528 564.003200
   4724   4723   4725     1   122.1000523 635.131200
   4728   4731   4732     1   123.2000528 564.003200
   4728   4731   4733     1   112.7300484 572.371200
   4732   4731   4733     1   122.1000523 635.131200
   4736   4738   4740     1   111.6100477 551.451200
   4738   4740   4744     1   111.0400475 552.288000
   4740   4744   4745     1   112.3500484 533.878400
   4740   4744   4746     1   112.3500484 533.878400
   4744   4745   4757     1   111.0400475 552.288000
   4744   4746   4748     1   111.0400475 552.288000
   4745   4757   4760     1   111.0400475 529.694400
   4745   4744   4746     1   112.3500484 533.878400
   4746   4748   4752     1   111.0400475 529.694400
   4748   4752   4753     1   112.7300484 572.371200
   4748   4752   4754     1   123.2000528 564.003200
   4753   4752   4754     1   122.1000523 635.131200
   4757   4760   4761     1   123.2000528 564.003200
   4757   4760   4762     1   112.7300484 572.371200
   4761   4760   4762     1   122.1000523 635.131200
   4765   4767   4769     1   111.6100477 551.451200
   4767   4769   4773     1   111.0400475 552.288000
   4769   4773   4774     1   112.3500484 533.878400
   4769   4773   4775     1   112.3500484 533.878400
   4773   4774   4786     1   111.0400475 552.288000
   4773   4775   4777     1   111.0400475 552.288000
   4774   4773   4775     1   112.3500484 533.878400
   4774   4786   4789     1   111.0400475 529.694400
   4775   4777   4781     1   111.0400475 529.694400
   4777   4781   4782     1   112.7300484 572.371200
   4777   4781   4783     1   123.2000528 564.003200
   4782   4781   4783     1   122.1000523 635.131200
   4786   4789   4790     1   123.2000528 564.003200
   4786   4789   4791     1   112.7300484 572.371200
   4790   4789   4791     1   122.1000523 635.131200
   4794   4796   4798     1   111.6100477 551.451200
   4796   4798   4802     1   111.0400475 552.288000
   4798   4802   4803     1   112.3500484 533.878400
   4798   4802   4804     1   112.3500484 533.878400
   4802   4803   4815     1   111.0400475 552.288000
   4802   4804   4806     1   111.0400475 552.288000
   4803   4815   4818     1   111.0400475 529.694400
   4803   4802   4804     1   112.3500484 533.878400
   4804   4806   4810     1   111.0400475 529.694400
   4806   4810   4811     1   112.7300484 572.371200
   4806   4810   4812     1   123.2000528 564.003200
   4811   4810   4812     1   122.1000523 635.131200
   4815   4818   4819     1   123.2000528 564.003200
   4815   4818   4820     1   112.7300484 572.371200
   4819   4818   4820     1   122.1000523 635.131200
   4823   4825   4827     1   111.6100477 551.451200
   4825   4827   4831     1   111.0400475 552.288000
   4827   4831   4832     1   112.3500484 533.878400
   4827   4831   4833     1   112.3500484 533.878400
   4831   4832   4844     1   111.0400475 552.288000
   4831   4833   4835     1   111.0400475 552.288000
   4832   4831   4833     1   112.3500484 533.878400
   4832   4844   4847     1   111.0400475 529.694400
   4833   4835   4839     1   111.0400475 529.694400
   4835   4839   4840     1   112.7300484 572.371200
   4835   4839   4841     1   123.2000528 564.003200
   4840   4839   4841     1   122.1000523 635.131200
   4844   4847   4848     1   123.2000528 564.003200
   4844   4847   4849     1   112.7300484 572.371200
   4848   4847   4849     1   122.1000523 635.131200
   4852   4854   4856     1   111.6100477 551.451200
   4854   4856   4860     1   111.0400475 552.288000
   4856   4860   4861     1   112.3500484 533.878400
   4856   4860   4862     1   112.3500484 533.878400
   4860   4861   4873     1   111.0400475 552.288000
   4860   4862   4864     1   111.0400475 552.288000
   4861   4873   4876     1   111.0400475 529.694400
   4861   4860   4862     1   112.3500484 533.878400
   4862   4864   4868     1   111.0400475 529.694400
   4864   4868   4869     1   112.7300484 572.371200
   4864   4868   4870     1   123.2000528 564.003200
   4869   4868   4870     1   122.1000523 635.131200
   4873   4876   4877     1   123.2000528 564.003200
   4873   4876   4878     1   112.7300484 572.371200
   4877   4876   4878     1   122.1000523 635.131200
   4881   4883   4885     1   111.6100477 551.451200
   4883   4885   4889     1   111.0400475 552.288000
   4885   4889   4890     1   112.3500484 533.878400
   4885   4889   4891     1   112.3500484 533.878400
   4889   4890   4902     1   111.0400475 552.288000
   4889   4891   4893     1   111.0400475 552.288000
   4890   4889   4891     1   112.3500484 533.878400
   4890   4902   4905     1   111.0400475 529.694400
   4891   4893   4897     1   111.0400475 529.694400
   4893   4897   4898     1   112.7300484 572.371200
   4893   4897   4899     1   123.2000528 564.003200
   4898   4897   4899     1   122.1000523 635.131200
   4902   4905   4906     1   123.2000528 564.003200
   4902   4905   4907     1   112.7300484 572.371200
   4906   4905   4907     1   122.1000523 635.131200
   4910   4912   4914     1   111.6100477 551.451200
   4912   4914   4918     1   111.0400475 552.288000
   4914   4918   4919     1   112.3500484 533.878400
   4914   4918   4920     1   112.3500484 533.878400
   4918   4919   4931     1   111.0400475 552.288000
   4918   4920   4922     1   111.0400475 552.288000
   4919   4931   4934     1   111.0400475 529.694400
   4919   4918   4920     1   112.3500484 533.878400
   4920   4922   4926     1   111.0400475 529.694400
   4922   4926   4927     1   112.7300484 572.371200
   4922   4926   4928     1   123.2000528 564.003200
   4927   4926   4928     1   122.1000523 635.131200
   4931   4934   4935     1   123.2000528 564.003200
   4931   4934   4936     1   112.7300484 572.371200
   4935   4934   4936     1   122.1000523 635.131200
   4939   4941   4943     1   111.6100477 551.451200
   4941   4943   4947     1   111.0400475 552.288000
   4943   4947   4948     1   112.3500484 533.878400
   4943   4947   4949     1   112.3500484 533.878400
   4947   4948   4960     1   111.0400475 552.288000
   4947   4949   4951     1   111.0400475 552.288000
   4948   4947   4949     1   112.3500484 533.878400
   4948   4960   4963     1   111.0400475 529.694400
   4949   4951   4955     1   111.0400475 529.694400
   4951   4955   4956     1   112.7300484 572.371200
   4951   4955   4957     1   123.2000528 564.003200
   4956   4955   4957     1   122.1000523 635.131200
   4960   4963   4964     1   123.2000528 564.003200
   4960   4963   4965     1   112.7300484 572.371200
   4964   4963   4965     1   122.1000523 635.131200
   4968   4970   4972     1   111.6100477 551.451200
   4970   4972   4976     1   111.0400475 552.288000
   4972   4976   4977     1   112.3500484 533.878400
   4972   4976   4978     1   112.3500484 533.878400
   4976   4977   4989     1   111.0400475 552.288000
   4976   4978   4980     1   111.0400475 552.288000
   4977   4989   4992     1   111.0400475 529.694400
   4977   4976   4978     1   112.3500484 533.878400
   4978   4980   4984     1   111.0400475 529.694400
   4980   4984   4985     1   112.7300484 572.371200
   4980   4984   4986     1   123.2000528 564.003200
   4985   4984   4986     1   122.1000523 635.131200
   4989   4992   4993     1   123.2000528 564.003200
   4989   4992   4994     1   112.7300484 572.371200
   4993   4992   4994     1   122.1000523 635.131200
   4997   4999   5001     1   111.6100477 551.451200
   4999   5001   5005     1   111.0400475 552.288000
   5001   5005   5006     1   112.3500484 533.878400
   5001   5005   5007     1   112.3500484 533.878400
   5005   5006   5018     1   111.0400475 552.288000
   5005   5007   5009     1   111.0400475 552.288000
   5006   5005   5007     1   112.3500484 533.878400
   5006   5018   5021     1   111.0400475 529.694400
   5007   5009   5013     1   111.0400475 529.694400
   5009   5013   5014     1   112.7300484 572.371200
   5009   5013   5015     1   123.2000528 564.003200
   5014   5013   5015     1   122.1000523 635.131200
   5018   5021   5022     1   123.2000528 564.003200
   5018   5021   5023     1   112.7300484 572.371200
   5022   5021   5023     1   122.1000523 635.131200
   5026   5028   5030     1   111.6100477 551.451200
   5028   5030   5034     1   111.0400475 552.288000
   5030   5034   5035     1   112.3500484 533.878400
   5030   5034   5036     1   112.3500484 533.878400
   5034   5035   5047     1   111.0400475 552.288000
   5034   5036   5038     1   111.0400475 552.288000
   5035   5047   5050     1   111.0400475 529.694400
   5035   5034   5036     1   112.3500484 533.878400
   5036   5038   5042     1   111.0400475 529.694400
   5038   5042   5043     1   112.7300484 572.371200
   5038   5042   5044     1   123.2000528 564.003200
   5043   5042   5044     1   122.1000523 635.131200
   5047   5050   5051     1   123.2000528 564.003200
   5047   5050   5052     1   112.7300484 572.371200
   5051   5050   5052     1   122.1000523 635.131200
   5055   5057   5059     1   111.6100477 551.451200
   5057   5059   5063     1   111.0400475 552.288000
   5059   5063   5064     1   112.3500484 533.878400
   5059   5063   5065     1   112.3500484 533.878400
   5063   5064   5076     1   111.0400475 552.288000
   5063   5065   5067     1   111.0400475 552.288000
   5064   5063   5065     1   112.3500484 533.878400
   5064   5076   5079     1   111.0400475 529.694400
   5065   5067   5071     1   111.0400475 529.694400
   5067   5071   5072     1   112.7300484 572.371200
   5067   5071   5073     1   123.2000528 564.003200
   5072   5071   5073     1   122.1000523 635.131200
   5076   5079   5080     1   123.2000528 564.003200
   5076   5079   5081     1   112.7300484 572.371200
   5080   5079   5081     1   122.1000523 635.131200
   5084   5086   5088     1   111.6100477 551.451200
   5086   5088   5092     1   111.0400475 552.288000
   5088   5092   5093     1   112.3500484 533.878400
   5088   5092   5094     1   112.3500484 533.878400
   5092   5093   5105     1   111.0400475 552.288000
   5092   5094   5096     1   111.0400475 552.288000
   5093   5105   5108     1   111.0400475 529.694400
   5093   5092   5094     1   112.3500484 533.878400
   5094   5096   5100     1   111.0400475 529.694400
   5096   5100   5101     1   112.7300484 572.371200
   5096   5100   5102     1   123.2000528 564.003200
   5101   5100   5102     1   122.1000523 635.131200
   5105   5108   5109     1   123.2000528 564.003200
   5105   5108   5110     1   112.7300484 572.371200
   5109   5108   5110     1   122.1000523 635.131200
   5113   5115   5117     1   111.6100477 551.451200
   5115   5117   5121     1   111.0400475 552.288000
   5117   5121   5122     1   112.3500484 533.878400
   5117   5121   5123     1   112.3500484 533.878400
   5121   5122   5134     1   111.0400475 552.288000
   5121   5123   5125     1   111.0400475 552.288000
   5122   5121   5123     1   112.3500484 533.878400
   5122   5134   5137     1   111.0400475 529.694400
   5123   5125   5129     1   111.0400475 529.694400
   5125   5129   5130     1   112.7300484 572.371200
   5125   5129   5131     1   123.2000528 564.003200
   5130   5129   5131     1   122.1000523 635.131200
   5134   5137   5138     1   123.2000528 564.003200
   5134   5137   5139     1   112.7300484 572.371200
   5138   5137   5139     1   122.1000523 635.131200
   5142   5144   5146     1   111.6100477 551.451200
   5144   5146   5150     1   111.0400475 552.288000
   5146   5150   5151     1   112.3500484 533.878400
   5146   5150   5152     1   112.3500484 533.878400
   5150   5151   5163     1   111.0400475 552.288000
   5150   5152   5154     1   111.0400475 552.288000
   5151   5163   5166     1   111.0400475 529.694400
   5151   5150   5152     1   112.3500484 533.878400
   5152   5154   5158     1   111.0400475 529.694400
   5154   5158   5159     1   112.7300484 572.371200
   5154   5158   5160     1   123.2000528 564.003200
   5159   5158   5160     1   122.1000523 635.131200
   5163   5166   5167     1   123.2000528 564.003200
   5163   5166   5168     1   112.7300484 572.371200
   5167   5166   5168     1   122.1000523 635.131200
   5171   5173   5175     1   111.6100477 551.451200
   5173   5175   5179     1   111.0400475 552.288000
   5175   5179   5180     1   112.3500484 533.878400
   5175   5179   5181     1   112.3500484 533.878400
   5179   5180   5192     1   111.0400475 552.288000
   5179   5181   5183     1   111.0400475 552.288000
   5180   5179   5181     1   112.3500484 533.878400
   5180   5192   5195     1   111.0400475 529.694400
   5181   5183   5187     1   111.0400475 529.694400
   5183   5187   5188     1   112.7300484 572.371200
   5183   5187   5189     1   123.2000528 564.003200
   5188   5187   5189     1   122.1000523 635.131200
   5192   5195   5196     1   123.2000528 564.003200
   5192   5195   5197     1   112.7300484 572.371200
   5196   5195   5197     1   122.1000523 635.131200
   5200   5202   5204     1   111.6100477 551.451200
   5202   5204   5208     1   111.0400475 552.288000
   5204   5208   5209     1   112.3500484 533.878400
   5204   5208   5210     1   112.3500484 533.878400
   5208   5209   5221     1   111.0400475 552.288000
   5208   5210   5212     1   111.0400475 552.288000
   5209   5221   5224     1   111.0400475 529.694400
   5209   5208   5210     1   112.3500484 533.878400
   5210   5212   5216     1   111.0400475 529.694400
   5212   5216   5217     1   112.7300484 572.371200
   5212   5216   5218     1   123.2000528 564.003200
   5217   5216   5218     1   122.1000523 635.131200
   5221   5224   5225     1   123.2000528 564.003200
   5221   5224   5226     1   112.7300484 572.371200
   5225   5224   5226     1   122.1000523 635.131200
   5229   5231   5233     1   111.6100477 551.451200
   5231   5233   5237     1   111.0400475 552.288000
   5233   5237   5238     1   112.3500484 533.878400
   5233   5237   5239     1   112.3500484 533.878400
   5237   5238   5250     1   111.0400475 552.288000
   5237   5239   5241     1   111.0400475 552.288000
   5238   5237   5239     1   112.3500484 533.878400
   5238   5250   5253     1   111.0400475 529.694400
   5239   5241   5245     1   111.0400475 529.694400
   5241   5245   5246     1   112.7300484 572.371200
   5241   5245   5247     1   123.2000528 564.003200
   5246   5245   5247     1   122.1000523 635.131200
   5250   5253   5254     1   123.2000528 564.003200
   5250   5253   5255     1   112.7300484 572.371200
   5254   5253   5255     1   122.1000523 635.131200
   5258   5260   5262     1   111.6100477 551.451200
   5260   5262   5266     1   111.0400475 552.288000
   5262   5266   5267     1   112.3500484 533.878400
   5262   5266   5268     1   112.3500484 533.878400
   5266   5267   5279     1   111.0400475 552.288000
   5266   5268   5270     1   111.0400475 552.288000
   5267   5279   5282     1   111.0400475 529.694400
   5267   5266   5268     1   112.3500484 533.878400
   5268   5270   5274     1   111.0400475 529.694400
   5270   5274   5275     1   112.7300484 572.371200
   5270   5274   5276     1   123.2000528 564.003200
   5275   5274   5276     1   122.1000523 635.131200
   5279   5282   5283     1   123.2000528 564.003200
   5279   5282   5284     1   112.7300484 572.371200
   5283   5282   5284     1   122.1000523 635.131200
   5287   5289   5291     1   111.6100477 551.451200
   5289   5291   5295     1   111.0400475 552.288000
   5291   5295   5296     1   112.3500484 533.878400
   5291   5295   5297     1   112.3500484 533.878400
   5295   5296   5308     1   111.0400475 552.288000
   5295   5297   5299     1   111.0400475 552.288000
   5296   5295   5297     1   112.3500484 533.878400
   5296   5308   5311     1   111.0400475 529.694400
   5297   5299   5303     1   111.0400475 529.694400
   5299   5303   5304     1   112.7300484 572.371200
   5299   5303   5305     1   123.2000528 564.003200
   5304   5303   5305     1   122.1000523 635.131200
   5308   5311   5312     1   123.2000528 564.003200
   5308   5311   5313     1   112.7300484 572.371200
   5312   5311   5313     1   122.1000523 635.131200
   5316   5318   5320     1   111.6100477 551.451200
   5318   5320   5324     1   111.0400475 552.288000
   5320   5324   5325     1   112.3500484 533.878400
   5320   5324   5326     1   112.3500484 533.878400
   5324   5325   5337     1   111.0400475 552.288000
   5324   5326   5328     1   111.0400475 552.288000
   5325   5337   5340     1   111.0400475 529.694400
   5325   5324   5326     1   112.3500484 533.878400
   5326   5328   5332     1   111.0400475 529.694400
   5328   5332   5333     1   112.7300484 572.371200
   5328   5332   5334     1   123.2000528 564.003200
   5333   5332   5334     1   122.1000523 635.131200
   5337   5340   5341     1   123.2000528 564.003200
   5337   5340   5342     1   112.7300484 572.371200
   5341   5340   5342     1   122.1000523 635.131200
   5345   5347   5349     1   111.6100477 551.451200
   5347   5349   5353     1   111.0400475 552.288000
   5349   5353   5354     1   112.3500484 533.878400
   5349   5353   5355     1   112.3500484 533.878400
   5353   5354   5366     1   111.0400475 552.288000
   5353   5355   5357     1   111.0400475 552.288000
   5354   5353   5355     1   112.3500484 533.878400
   5354   5366   5369     1   111.0400475 529.694400
   5355   5357   5361     1   111.0400475 529.694400
   5357   5361   5362     1   112.7300484 572.371200
   5357   5361   5363     1   123.2000528 564.003200
   5362   5361   5363     1   122.1000523 635.131200
   5366   5369   5370     1   123.2000528 564.003200
   5366   5369   5371     1   112.7300484 572.371200
   5370   5369   5371     1   122.1000523 635.131200
   5374   5376   5378     1   111.6100477 551.451200
   5376   5378   5382     1   111.0400475 552.288000
   5378   5382   5383     1   112.3500484 533.878400
   5378   5382   5384     1   112.3500484 533.878400
   5382   5383   5395     1   111.0400475 552.288000
   5382   5384   5386     1   111.0400475 552.288000
   5383   5395   5398     1   111.0400475 529.694400
   5383   5382   5384     1   112.3500484 533.878400
   5384   5386   5390     1   111.0400475 529.694400
   5386   5390   5391     1   112.7300484 572.371200
   5386   5390   5392     1   123.2000528 564.003200
   5391   5390   5392     1   122.1000523 635.131200
   5395   5398   5399     1   123.2000528 564.003200
   5395   5398   5400     1   112.7300484 572.371200
   5399   5398   5400     1   122.1000523 635.131200
   5403   5405   5407     1   111.6100477 551.451200
   5405   5407   5411     1   111.0400475 552.288000
   5407   5411   5412     1   112.3500484 533.878400
   5407   5411   5413     1   112.3500484 533.878400
   5411   5412   5424     1   111.0400475 552.288000
   5411   5413   5415     1   111.0400475 552.288000
   5412   5411   5413     1   112.3500484 533.878400
   5412   5424   5427     1   111.0400475 529.694400
   5413   5415   5419     1   111.0400475 529.694400
   5415   5419   5420     1   112.7300484 572.371200
   5415   5419   5421     1   123.2000528 564.003200
   5420   5419   5421     1   122.1000523 635.131200
   5424   5427   5428     1   123.2000528 564.003200
   5424   5427   5429     1   112.7300484 572.371200
   5428   5427   5429     1   122.1000523 635.131200
   5432   5434   5436     1   111.6100477 551.451200
   5434   5436   5440     1   111.0400475 552.288000
   5436   5440   5441     1   112.3500484 533.878400
   5436   5440   5442     1   112.3500484 533.878400
   5440   5441   5453     1   111.0400475 552.288000
   5440   5442   5444     1   111.0400475 552.288000
   5441   5453   5456     1   111.0400475 529.694400
   5441   5440   5442     1   112.3500484 533.878400
   5442   5444   5448     1   111.0400475 529.694400
   5444   5448   5449     1   112.7300484 572.371200
   5444   5448   5450     1   123.2000528 564.003200
   5449   5448   5450     1   122.1000523 635.131200
   5453   5456   5457     1   123.2000528 564.003200
   5453   5456   5458     1   112.7300484 572.371200
   5457   5456   5458     1   122.1000523 635.131200
   5461   5463   5465     1   111.6100477 551.451200
   5463   5465   5469     1   111.0400475 552.288000
   5465   5469   5470     1   112.3500484 533.878400
   5465   5469   5471     1   112.3500484 533.878400
   5469   5470   5482     1   111.0400475 552.288000
   5469   5471   5473     1   111.0400475 552.288000
   5470   5469   5471     1   112.3500484 533.878400
   5470   5482   5485     1   111.0400475 529.694400
   5471   5473   5477     1   111.0400475 529.694400
   5473   5477   5478     1   112.7300484 572.371200
   5473   5477   5479     1   123.2000528 564.003200
   5478   5477   5479     1   122.1000523 635.131200
   5482   5485   5486     1   123.2000528 564.003200
   5482   5485   5487     1   112.7300484 572.371200
   5486   5485   5487     1   122.1000523 635.131200
   5490   5492   5494     1   111.6100477 551.451200
   5492   5494   5498     1   111.0400475 552.288000
   5494   5498   5499     1   112.3500484 533.878400
   5494   5498   5500     1   112.3500484 533.878400
   5498   5499   5511     1   111.0400475 552.288000
   5498   5500   5502     1   111.0400475 552.288000
   5499   5511   5514     1   111.0400475 529.694400
   5499   5498   5500     1   112.3500484 533.878400
   5500   5502   5506     1   111.0400475 529.694400
   5502   5506   5507     1   112.7300484 572.371200
   5502   5506   5508     1   123.2000528 564.003200
   5507   5506   5508     1   122.1000523 635.131200
   5511   5514   5515     1   123.2000528 564.003200
   5511   5514   5516     1   112.7300484 572.371200
   5515   5514   5516     1   122.1000523 635.131200
   5519   5521   5523     1   111.6100477 551.451200
   5521   5523   5527     1   111.0400475 552.288000
   5523   5527   5528     1   112.3500484 533.878400
   5523   5527   5529     1   112.3500484 533.878400
   5527   5528   5540     1   111.0400475 552.288000
   5527   5529   5531     1   111.0400475 552.288000
   5528   5527   5529     1   112.3500484 533.878400
   5528   5540   5543     1   111.0400475 529.694400
   5529   5531   5535     1   111.0400475 529.694400
   5531   5535   5536     1   112.7300484 572.371200
   5531   5535   5537     1   123.2000528 564.003200
   5536   5535   5537     1   122.1000523 635.131200
   5540   5543   5544     1   123.2000528 564.003200
   5540   5543   5545     1   112.7300484 572.371200
   5544   5543   5545     1   122.1000523 635.131200
   5548   5550   5552     1   111.6100477 551.451200
   5550   5552   5556     1   111.0400475 552.288000
   5552   5556   5557     1   112.3500484 533.878400
   5552   5556   5558     1   112.3500484 533.878400
   5556   5557   5569     1   111.0400475 552.288000
   5556   5558   5560     1   111.0400475 552.288000
   5557   5569   5572     1   111.0400475 529.694400
   5557   5556   5558     1   112.3500484 533.878400
   5558   5560   5564     1   111.0400475 529.694400
   5560   5564   5565     1   112.7300484 572.371200
   5560   5564   5566     1   123.2000528 564.003200
   5565   5564   5566     1   122.1000523 635.131200
   5569   5572   5573     1   123.2000528 564.003200
   5569   5572   5574     1   112.7300484 572.371200
   5573   5572   5574     1   122.1000523 635.131200
   5577   5579   5581     1   111.6100477 551.451200
   5579   5581   5585     1   111.0400475 552.288000
   5581   5585   5586     1   112.3500484 533.878400
   5581   5585   5587     1   112.3500484 533.878400
   5585   5586   5598     1   111.0400475 552.288000
   5585   5587   5589     1   111.0400475 552.288000
   5586   5585   5587     1   112.3500484 533.878400
   5586   5598   5601     1   111.0400475 529.694400
   5587   5589   5593     1   111.0400475 529.694400
   5589   5593   5594     1   112.7300484 572.371200
   5589   5593   5595     1   123.2000528 564.003200
   5594   5593   5595     1   122.1000523 635.131200
   5598   5601   5602     1   123.2000528 564.003200
   5598   5601   5603     1   112.7300484 572.371200
   5602   5601   5603     1   122.1000523 635.131200
   5606   5608   5610     1   111.6100477 551.451200
   5608   5610   5614     1   111.0400475 552.288000
   5610   5614   5615     1   112.3500484 533.878400
   5610   5614   5616     1   112.3500484 533.878400
   5614   5615   5627     1   111.0400475 552.288000
   5614   5616   5618     1   111.0400475 552.288000
   5615   5627   5630     1   111.0400475 529.694400
   5615   5614   5616     1   112.3500484 533.878400
   5616   5618   5622     1   111.0400475 529.694400
   5618   5622   5623     1   112.7300484 572.371200
   5618   5622   5624     1   123.2000528 564.003200
   5623   5622   5624     1   122.1000523 635.131200
   5627   5630   5631     1   123.2000528 564.003200
   5627   5630   5632     1   112.7300484 572.371200
   5631   5630   5632     1   122.1000523 635.131200
   5635   5637   5639     1   111.6100477 551.451200
   5637   5639   5643     1   111.0400475 552.288000
   5639   5643   5644     1   112.3500484 533.878400
   5639   5643   5645     1   112.3500484 533.878400
   5643   5644   5656     1   111.0400475 552.288000
   5643   5645   5647     1   111.0400475 552.288000
   5644   5643   5645     1   112.3500484 533.878400
   5644   5656   5659     1   111.0400475 529.694400
   5645   5647   5651     1   111.0400475 529.694400
   5647   5651   5652     1   112.7300484 572.371200
   5647   5651   5653     1   123.2000528 564.003200
   5652   5651   5653     1   122.1000523 635.131200
   5656   5659   5660     1   123.2000528 564.003200
   5656   5659   5661     1   112.7300484 572.371200
   5660   5659   5661     1   122.1000523 635.131200
   5664   5666   5668     1   111.6100477 551.451200
   5666   5668   5672     1   111.0400475 552.288000
   5668   5672   5673     1   112.3500484 533.878400
   5668   5672   5674     1   112.3500484 533.878400
   5672   5673   5685     1   111.0400475 552.288000
   5672   5674   5676     1   111.0400475 552.288000
   5673   5685   5688     1   111.0400475 529.694400
   5673   5672   5674     1   112.3500484 533.878400
   5674   5676   5680     1   111.0400475 529.694400
   5676   5680   5681     1   112.7300484 572.371200
   5676   5680   5682     1   123.2000528 564.003200
   5681   5680   5682     1   122.1000523 635.131200
   5685   5688   5689     1   123.2000528 564.003200
   5685   5688   5690     1   112.7300484 572.371200
   5689   5688   5690     1   122.1000523 635.131200
   5693   5695   5697     1   111.6100477 551.451200
   5695   5697   5701     1   111.0400475 552.288000
   5697   5701   5702     1   112.3500484 533.878400
   5697   5701   5703     1   112.3500484 533.878400
   5701   5702   5714     1   111.0400475 552.288000
   5701   5703   5705     1   111.0400475 552.288000
   5702   5701   5703     1   112.3500484 533.878400
   5702   5714   5717     1   111.0400475 529.694400
   5703   5705   5709     1   111.0400475 529.694400
   5705   5709   5710     1   112.7300484 572.371200
   5705   5709   5711     1   123.2000528 564.003200
   5710   5709   5711     1   122.1000523 635.131200
   5714   5717   5718     1   123.2000528 564.003200
   5714   5717   5719     1   112.7300484 572.371200
   5718   5717   5719     1   122.1000523 635.131200
   5722   5724   5726     1   111.6100477 551.451200
   5724   5726   5730     1   111.0400475 552.288000
   5726   5730   5731     1   112.3500484 533.878400
   5726   5730   5732     1   112.3500484 533.878400
   5730   5731   5743     1   111.0400475 552.288000
   5730   5732   5734     1   111.0400475 552.288000
   5731   5743   5746     1   111.0400475 529.694400
   5731   5730   5732     1   112.3500484 533.878400
   5732   5734   5738     1   111.0400475 529.694400
   5734   5738   5739     1   112.7300484 572.371200
   5734   5738   5740     1   123.2000528 564.003200
   5739   5738   5740     1   122.1000523 635.131200
   5743   5746   5747     1   123.2000528 564.003200
   5743   5746   5748     1   112.7300484 572.371200
   5747   5746   5748     1   122.1000523 635.131200
   5751   5753   5755     1   111.6100477 551.451200
   5753   5755   5759     1   111.0400475 552.288000
   5755   5759   5760     1   112.3500484 533.878400
   5755   5759   5761     1   112.3500484 533.878400
   5759   5760   5772     1   111.0400475 552.288000
   5759   5761   5763     1   111.0400475 552.288000
   5760   5759   5761     1   112.3500484 533.878400
   5760   5772   5775     1   111.0400475 529.694400
   5761   5763   5767     1   111.0400475 529.694400
   5763   5767   5768     1   112.7300484 572.371200
   5763   5767   5769     1   123.2000528 564.003200
   5768   5767   5769     1   122.1000523 635.131200
   5772   5775   5776     1   123.2000528 564.003200
   5772   5775   5777     1   112.7300484 572.371200
   5776   5775   5777     1   122.1000523 635.131200
   5780   5782   5784     1   111.6100477 551.451200
   5782   5784   5788     1   111.0400475 552.288000
   5784   5788   5789     1   112.3500484 533.878400
   5784   5788   5790     1   112.3500484 533.878400
   5788   5789   5801     1   111.0400475 552.288000
   5788   5790   5792     1   111.0400475 552.288000
   5789   5801   5804     1   111.0400475 529.694400
   5789   5788   5790     1   112.3500484 533.878400
   5790   5792   5796     1   111.0400475 529.694400
   5792   5796   5797     1   112.7300484 572.371200
   5792   5796   5798     1   123.2000528 564.003200
   5797   5796   5798     1   122.1000523 635.131200
   5801   5804   5805     1   123.2000528 564.003200
   5801   5804   5806     1   112.7300484 572.371200
   5805   5804   5806     1   122.1000523 635.131200
   5809   5811   5813     1   111.6100477 551.451200
   5811   5813   5817     1   111.0400475 552.288000
   5813   5817   5818     1   112.3500484 533.878400
   5813   5817   5819     1   112.3500484 533.878400
   5817   5818   5830     1   111.0400475 552.288000
   5817   5819   5821     1   111.0400475 552.288000
   5818   5817   5819     1   112.3500484 533.878400
   5818   5830   5833     1   111.0400475 529.694400
   5819   5821   5825     1   111.0400475 529.694400
   5821   5825   5826     1   112.7300484 572.371200
   5821   5825   5827     1   123.2000528 564.003200
   5826   5825   5827     1   122.1000523 635.131200
   5830   5833   5834     1   123.2000528 564.003200
   5830   5833   5835     1   112.7300484 572.371200
   5834   5833   5835     1   122.1000523 635.131200
   5838   5840   5842     1   111.6100477 551.451200
   5840   5842   5846     1   111.0400475 552.288000
   5842   5846   5847     1   112.3500484 533.878400
   5842   5846   5848     1   112.3500484 533.878400
   5846   5847   5859     1   111.0400475 552.288000
   5846   5848   5850     1   111.0400475 552.288000
   5847   5859   5862     1   111.0400475 529.694400
   5847   5846   5848     1   112.3500484 533.878400
   5848   5850   5854     1   111.0400475 529.694400
   5850   5854   5855     1   112.7300484 572.371200
   5850   5854   5856     1   123.2000528 564.003200
   5855   5854   5856     1   122.1000523 635.131200
   5859   5862   5863     1   123.2000528 564.003200
   5859   5862   5864     1   112.7300484 572.371200
   5863   5862   5864     1   122.1000523 635.131200
   5867   5869   5871     1   111.6100477 551.451200
   5869   5871   5875     1   111.0400475 552.288000
   5871   5875   5876     1   112.3500484 533.878400
   5871   5875   5877     1   112.3500484 533.878400
   5875   5876   5888     1   111.0400475 552.288000
   5875   5877   5879     1   111.0400475 552.288000
   5876   5875   5877     1   112.3500484 533.878400
   5876   5888   5891     1   111.0400475 529.694400
   5877   5879   5883     1   111.0400475 529.694400
   5879   5883   5884     1   112.7300484 572.371200
   5879   5883   5885     1   123.2000528 564.003200
   5884   5883   5885     1   122.1000523 635.131200
   5888   5891   5892     1   123.2000528 564.003200
   5888   5891   5893     1   112.7300484 572.371200
   5892   5891   5893     1   122.1000523 635.131200
   5896   5898   5900     1   111.6100477 551.451200
   5898   5900   5904     1   111.0400475 552.288000
   5900   5904   5905     1   112.3500484 533.878400
   5900   5904   5906     1   112.3500484 533.878400
   5904   5905   5917     1   111.0400475 552.288000
   5904   5906   5908     1   111.0400475 552.288000
   5905   5917   5920     1   111.0400475 529.694400
   5905   5904   5906     1   112.3500484 533.878400
   5906   5908   5912     1   111.0400475 529.694400
   5908   5912   5913     1   112.7300484 572.371200
   5908   5912   5914     1   123.2000528 564.003200
   5913   5912   5914     1   122.1000523 635.131200
   5917   5920   5921     1   123.2000528 564.003200
   5917   5920   5922     1   112.7300484 572.371200
   5921   5920   5922     1   122.1000523 635.131200
   5925   5927   5929     1   111.6100477 551.451200
   5927   5929   5933     1   111.0400475 552.288000
   5929   5933   5934     1   112.3500484 533.878400
   5929   5933   5935     1   112.3500484 533.878400
   5933   5934   5946     1   111.0400475 552.288000
   5933   5935   5937     1   111.0400475 552.288000
   5934   5933   5935     1   112.3500484 533.878400
   5934   5946   5949     1   111.0400475 529.694400
   5935   5937   5941     1   111.0400475 529.694400
   5937   5941   5942     1   112.7300484 572.371200
   5937   5941   5943     1   123.2000528 564.003200
   5942   5941   5943     1   122.1000523 635.131200
   5946   5949   5950     1   123.2000528 564.003200
   5946   5949   5951     1   112.7300484 572.371200
   5950   5949   5951     1   122.1000523 635.131200
   5954   5956   5958     1   111.6100477 551.451200
   5956   5958   5962     1   111.0400475 552.288000
   5958   5962   5963     1   112.3500484 533.878400
   5958   5962   5964     1   112.3500484 533.878400
   5962   5963   5975     1   111.0400475 552.288000
   5962   5964   5966     1   111.0400475 552.288000
   5963   5975   5978     1   111.0400475 529.694400
   5963   5962   5964     1   112.3500484 533.878400
   5964   5966   5970     1   111.0400475 529.694400
   5966   5970   5971     1   112.7300484 572.371200
   5966   5970   5972     1   123.2000528 564.003200
   5971   5970   5972     1   122.1000523 635.131200
   5975   5978   5979     1   123.2000528 564.003200
   5975   5978   5980     1   112.7300484 572.371200
   5979   5978   5980     1   122.1000523 635.131200
   5983   5985   5987     1   111.6100477 551.451200
   5985   5987   5991     1   111.0400475 552.288000
   5987   5991   5992     1   112.3500484 533.878400
   5987   5991   5993     1   112.3500484 533.878400
   5991   5992   6004     1   111.0400475 552.288000
   5991   5993   5995     1   111.0400475 552.288000
   5992   5991   5993     1   112.3500484 533.878400
   5992   6004   6007     1   111.0400475 529.694400
   5993   5995   5999     1   111.0400475 529.694400
   5995   5999   6000     1   112.7300484 572.371200
   5995   5999   6001     1   123.2000528 564.003200
   6000   5999   6001     1   122.1000523 635.131200
   6004   6007   6008     1   123.2000528 564.003200
   6004   6007   6009     1   112.7300484 572.371200
   6008   6007   6009     1   122.1000523 635.131200
   6012   6014   6016     1   111.6100477 551.451200
   6014   6016   6020     1   111.0400475 552.288000
   6016   6020   6021     1   112.3500484 533.878400
   6016   6020   6022     1   112.3500484 533.878400
   6020   6021   6033     1   111.0400475 552.288000
   6020   6022   6024     1   111.0400475 552.288000
   6021   6033   6036     1   111.0400475 529.694400
   6021   6020   6022     1   112.3500484 533.878400
   6022   6024   6028     1   111.0400475 529.694400
   6024   6028   6029     1   112.7300484 572.371200
   6024   6028   6030     1   123.2000528 564.003200
   6029   6028   6030     1   122.1000523 635.131200
   6033   6036   6037     1   123.2000528 564.003200
   6033   6036   6038     1   112.7300484 572.371200
   6037   6036   6038     1   122.1000523 635.131200
   6041   6043   6045     1   111.6100477 551.451200
   6043   6045   6049     1   111.0400475 552.288000
   6045   6049   6050     1   112.3500484 533.878400
   6045   6049   6051     1   112.3500484 533.878400
   6049   6050   6062     1   111.0400475 552.288000
   6049   6051   6053     1   111.0400475 552.288000
   6050   6049   6051     1   112.3500484 533.878400
   6050   6062   6065     1   111.0400475 529.694400
   6051   6053   6057     1   111.0400475 529.694400
   6053   6057   6058     1   112.7300484 572.371200
   6053   6057   6059     1   123.2000528 564.003200
   6058   6057   6059     1   122.1000523 635.131200
   6062   6065   6066     1   123.2000528 564.003200
   6062   6065   6067     1   112.7300484 572.371200
   6066   6065   6067     1   122.1000523 635.131200
   6070   6072   6074     1   111.6100477 551.451200
   6072   6074   6078     1   111.0400475 552.288000
   6074   6078   6079     1   112.3500484 533.878400
   6074   6078   6080     1   112.3500484 533.878400
   6078   6079   6091     1   111.0400475 552.288000
   6078   6080   6082     1   111.0400475 552.288000
   6079   6091   6094     1   111.0400475 529.694400
   6079   6078   6080     1   112.3500484 533.878400
   6080   6082   6086     1   111.0400475 529.694400
   6082   6086   6087     1   112.7300484 572.371200
   6082   6086   6088     1   123.2000528 564.003200
   6087   6086   6088     1   122.1000523 635.131200
   6091   6094   6095     1   123.2000528 564.003200
   6091   6094   6096     1   112.7300484 572.371200
   6095   6094   6096     1   122.1000523 635.131200
   6099   6101   6103     1   111.6100477 551.451200
   6101   6103   6107     1   111.0400475 552.288000
   6103   6107   6108     1   112.3500484 533.878400
   6103   6107   6109     1   112.3500484 533.878400
   6107   6108   6120     1   111.0400475 552.288000
   6107   6109   6111     1   111.0400475 552.288000
   6108   6107   6109     1   112.3500484 533.878400
   6108   6120   6123     1   111.0400475 529.694400
   6109   6111   6115     1   111.0400475 529.694400
   6111   6115   6116     1   112.7300484 572.371200
   6111   6115   6117     1   123.2000528 564.003200
   6116   6115   6117     1   122.1000523 635.131200
   6120   6123   6124     1   123.2000528 564.003200
   6120   6123   6125     1   112.7300484 572.371200
   6124   6123   6125     1   122.1000523 635.131200
   6128   6130   6132     1   111.6100477 551.451200
   6130   6132   6136     1   111.0400475 552.288000
   6132   6136   6137     1   112.3500484 533.878400
   6132   6136   6138     1   112.3500484 533.878400
   6136   6137   6149     1   111.0400475 552.288000
   6136   6138   6140     1   111.0400475 552.288000
   6137   6149   6152     1   111.0400475 529.694400
   6137   6136   6138     1   112.3500484 533.878400
   6138   6140   6144     1   111.0400475 529.694400
   6140   6144   6145     1   112.7300484 572.371200
   6140   6144   6146     1   123.2000528 564.003200
   6145   6144   6146     1   122.1000523 635.131200
   6149   6152   6153     1   123.2000528 564.003200
   6149   6152   6154     1   112.7300484 572.371200
   6153   6152   6154     1   122.1000523 635.131200
   6157   6159   6161     1   111.6100477 551.451200
   6159   6161   6165     1   111.0400475 552.288000
   6161   6165   6166     1   112.3500484 533.878400
   6161   6165   6167     1   112.3500484 533.878400
   6165   6166   6178     1   111.0400475 552.288000
   6165   6167   6169     1   111.0400475 552.288000
   6166   6165   6167     1   112.3500484 533.878400
   6166   6178   6181     1   111.0400475 529.694400
   6167   6169   6173     1   111.0400475 529.694400
   6169   6173   6174     1   112.7300484 572.371200
   6169   6173   6175     1   123.2000528 564.003200
   6174   6173   6175     1   122.1000523 635.131200
   6178   6181   6182     1   123.2000528 564.003200
   6178   6181   6183     1   112.7300484 572.371200
   6182   6181   6183     1   122.1000523 635.131200
   6186   6188   6190     1   111.6100477 551.451200
   6188   6190   6194     1   111.0400475 552.288000
   6190   6194   6195     1   112.3500484 533.878400
   6190   6194   6196     1   112.3500484 533.878400
   6194   6195   6207     1   111.0400475 552.288000
   6194   6196   6198     1   111.0400475 552.288000
   6195   6207   6210     1   111.0400475 529.694400
   6195   6194   6196     1   112.3500484 533.878400
   6196   6198   6202     1   111.0400475 529.694400
   6198   6202   6203     1   112.7300484 572.371200
   6198   6202   6204     1   123.2000528 564.003200
   6203   6202   6204     1   122.1000523 635.131200
   6207   6210   6211     1   123.2000528 564.003200
   6207   6210   6212     1   112.7300484 572.371200
   6211   6210   6212     1   122.1000523 635.131200
   6215   6217   6219     1   111.6100477 551.451200
   6217   6219   6223     1   111.0400475 552.288000
   6219   6223   6224     1   112.3500484 533.878400
   6219   6223   6225     1   112.3500484 533.878400
   6223   6224   6236     1   111.0400475 552.288000
   6223   6225   6227     1   111.0400475 552.288000
   6224   6223   6225     1   112.3500484 533.878400
   6224   6236   6239     1   111.0400475 529.694400
   6225   6227   6231     1   111.0400475 529.694400
   6227   6231   6232     1   112.7300484 572.371200
   6227   6231   6233     1   123.2000528 564.003200
   6232   6231   6233     1   122.1000523 635.131200
   6236   6239   6240     1   123.2000528 564.003200
   6236   6239   6241     1   112.7300484 572.371200
   6240   6239   6241     1   122.1000523 635.131200
   6244   6246   6248     1   111.6100477 551.451200
   6246   6248   6252     1   111.0400475 552.288000
   6248   6252   6253     1   112.3500484 533.878400
   6248   6252   6254     1   112.3500484 533.878400
   6252   6253   6265     1   111.0400475 552.288000
   6252   6254   6256     1   111.0400475 552.288000
   6253   6265   6268     1   111.0400475 529.694400
   6253   6252   6254     1   112.3500484 533.878400
   6254   6256   6260     1   111.0400475 529.694400
   6256   6260   6261     1   112.7300484 572.371200
   6256   6260   6262     1   123.2000528 564.003200
   6261   6260   6262     1   122.1000523 635.131200
   6265   6268   6269     1   123.2000528 564.003200
   6265   6268   6270     1   112.7300484 572.371200
   6269   6268   6270     1   122.1000523 635.131200
   6273   6275   6277     1   111.6100477 551.451200
   6275   6277   6281     1   111.0400475 552.288000
   6277   6281   6282     1   112.3500484 533.878400
   6277   6281   6283     1   112.3500484 533.878400
   6281   6282   6294     1   111.0400475 552.288000
   6281   6283   6285     1   111.0400475 552.288000
   6282   6281   6283     1   112.3500484 533.878400
   6282   6294   6297     1   111.0400475 529.694400
   6283   6285   6289     1   111.0400475 529.694400
   6285   6289   6290     1   112.7300484 572.371200
   6285   6289   6291     1   123.2000528 564.003200
   6290   6289   6291     1   122.1000523 635.131200
   6294   6297   6298     1   123.2000528 564.003200
   6294   6297   6299     1   112.7300484 572.371200
   6298   6297   6299     1   122.1000523 635.131200
   6302   6304   6306     1   111.6100477 551.451200
   6304   6306   6310     1   111.0400475 552.288000
   6306   6310   6311     1   112.3500484 533.878400
   6306   6310   6312     1   112.3500484 533.878400
   6310   6311   6323     1   111.0400475 552.288000
   6310   6312   6314     1   111.0400475 552.288000
   6311   6323   6326     1   111.0400475 529.694400
   6311   6310   6312     1   112.3500484 533.878400
   6312   6314   6318     1   111.0400475 529.694400
   6314   6318   6319     1   112.7300484 572.371200
   6314   6318   6320     1   123.2000528 564.003200
   6319   6318   6320     1   122.1000523 635.131200
   6323   6326   6327     1   123.2000528 564.003200
   6323   6326   6328     1   112.7300484 572.371200
   6327   6326   6328     1   122.1000523 635.131200
   6331   6333   6335     1   111.6100477 551.451200
   6333   6335   6339     1   111.0400475 552.288000
   6335   6339   6340     1   112.3500484 533.878400
   6335   6339   6341     1   112.3500484 533.878400
   6339   6340   6352     1   111.0400475 552.288000
   6339   6341   6343     1   111.0400475 552.288000
   6340   6339   6341     1   112.3500484 533.878400
   6340   6352   6355     1   111.0400475 529.694400
   6341   6343   6347     1   111.0400475 529.694400
   6343   6347   6348     1   112.7300484 572.371200
   6343   6347   6349     1   123.2000528 564.003200
   6348   6347   6349     1   122.1000523 635.131200
   6352   6355   6356     1   123.2000528 564.003200
   6352   6355   6357     1   112.7300484 572.371200
   6356   6355   6357     1   122.1000523 635.131200
   6360   6362   6364     1   111.6100477 551.451200
   6362   6364   6368     1   111.0400475 552.288000
   6364   6368   6369     1   112.3500484 533.878400
   6364   6368   6370     1   112.3500484 533.878400
   6368   6369   6381     1   111.0400475 552.288000
   6368   6370   6372     1   111.0400475 552.288000
   6369   6381   6384     1   111.0400475 529.694400
   6369   6368   6370     1   112.3500484 533.878400
   6370   6372   6376     1   111.0400475 529.694400
   6372   6376   6377     1   112.7300484 572.371200
   6372   6376   6378     1   123.2000528 564.003200
   6377   6376   6378     1   122.1000523 635.131200
   6381   6384   6385     1   123.2000528 564.003200
   6381   6384   6386     1   112.7300484 572.371200
   6385   6384   6386     1   122.1000523 635.131200
   6389   6391   6393     1   111.6100477 551.451200
   6391   6393   6397     1   111.0400475 552.288000
   6393   6397   6398     1   112.3500484 533.878400
   6393   6397   6399     1   112.3500484 533.878400
   6397   6398   6410     1   111.0400475 552.288000
   6397   6399   6401     1   111.0400475 552.288000
   6398   6397   6399     1   112.3500484 533.878400
   6398   6410   6413     1   111.0400475 529.694400
   6399   6401   6405     1   111.0400475 529.694400
   6401   6405   6406     1   112.7300484 572.371200
   6401   6405   6407     1   123.2000528 564.003200
   6406   6405   6407     1   122.1000523 635.131200
   6410   6413   6414     1   123.2000528 564.003200
   6410   6413   6415     1   112.7300484 572.371200
   6414   6413   6415     1   122.1000523 635.131200
   6418   6420   6422     1   111.6100477 551.451200
   6420   6422   6426     1   111.0400475 552.288000
   6422   6426   6427     1   112.3500484 533.878400
   6422   6426   6428     1   112.3500484 533.878400
   6426   6427   6439     1   111.0400475 552.288000
   6426   6428   6430     1   111.0400475 552.288000
   6427   6439   6442     1   111.0400475 529.694400
   6427   6426   6428     1   112.3500484 533.878400
   6428   6430   6434     1   111.0400475 529.694400
   6430   6434   6435     1   112.7300484 572.371200
   6430   6434   6436     1   123.2000528 564.003200
   6435   6434   6436     1   122.1000523 635.131200
   6439   6442   6443     1   123.2000528 564.003200
   6439   6442   6444     1   112.7300484 572.371200
   6443   6442   6444     1   122.1000523 635.131200
   6447   6449   6451     1   111.6100477 551.451200
   6449   6451   6455     1   111.0400475 552.288000
   6451   6455   6456     1   112.3500484 533.878400
   6451   6455   6457     1   112.3500484 533.878400
   6455   6456   6468     1   111.0400475 552.288000
   6455   6457   6459     1   111.0400475 552.288000
   6456   6455   6457     1   112.3500484 533.878400
   6456   6468   6471     1   111.0400475 529.694400
   6457   6459   6463     1   111.0400475 529.694400
   6459   6463   6464     1   112.7300484 572.371200
   6459   6463   6465     1   123.2000528 564.003200
   6464   6463   6465     1   122.1000523 635.131200
   6468   6471   6472     1   123.2000528 564.003200
   6468   6471   6473     1   112.7300484 572.371200
   6472   6471   6473     1   122.1000523 635.131200
   6476   6478   6480     1   111.6100477 551.451200
   6478   6480   6484     1   111.0400475 552.288000
   6480   6484   6485     1   112.3500484 533.878400
   6480   6484   6486     1   112.3500484 533.878400
   6484   6485   6497     1   111.0400475 552.288000
   6484   6486   6488     1   111.0400475 552.288000
   6485   6497   6500     1   111.0400475 529.694400
   6485   6484   6486     1   112.3500484 533.878400
   6486   6488   6492     1   111.0400475 529.694400
   6488   6492   6493     1   112.7300484 572.371200
   6488   6492   6494     1   123.2000528 564.003200
   6493   6492   6494     1   122.1000523 635.131200
   6497   6500   6501     1   123.2000528 564.003200
   6497   6500   6502     1   112.7300484 572.371200
   6501   6500   6502     1   122.1000523 635.131200
   6505   6507   6509     1   111.6100477 551.451200
   6507   6509   6513     1   111.0400475 552.288000
   6509   6513   6514     1   112.3500484 533.878400
   6509   6513   6515     1   112.3500484 533.878400
   6513   6514   6526     1   111.0400475 552.288000
   6513   6515   6517     1   111.0400475 552.288000
   6514   6513   6515     1   112.3500484 533.878400
   6514   6526   6529     1   111.0400475 529.694400
   6515   6517   6521     1   111.0400475 529.694400
   6517   6521   6522     1   112.7300484 572.371200
   6517   6521   6523     1   123.2000528 564.003200
   6522   6521   6523     1   122.1000523 635.131200
   6526   6529   6530     1   123.2000528 564.003200
   6526   6529   6531     1   112.7300484 572.371200
   6530   6529   6531     1   122.1000523 635.131200
   6534   6536   6538     1   111.6100477 551.451200
   6536   6538   6542     1   111.0400475 552.288000
   6538   6542   6543     1   112.3500484 533.878400
   6538   6542   6544     1   112.3500484 533.878400
   6542   6543   6555     1   111.0400475 552.288000
   6542   6544   6546     1   111.0400475 552.288000
   6543   6555   6558     1   111.0400475 529.694400
   6543   6542   6544     1   112.3500484 533.878400
   6544   6546   6550     1   111.0400475 529.694400
   6546   6550   6551     1   112.7300484 572.371200
   6546   6550   6552     1   123.2000528 564.003200
   6551   6550   6552     1   122.1000523 635.131200
   6555   6558   6559     1   123.2000528 564.003200
   6555   6558   6560     1   112.7300484 572.371200
   6559   6558   6560     1   122.1000523 635.131200
   6563   6565   6567     1   111.6100477 551.451200
   6565   6567   6571     1   111.0400475 552.288000
   6567   6571   6572     1   112.3500484 533.878400
   6567   6571   6573     1   112.3500484 533.878400
   6571   6572   6584     1   111.0400475 552.288000
   6571   6573   6575     1   111.0400475 552.288000
   6572   6571   6573     1   112.3500484 533.878400
   6572   6584   6587     1   111.0400475 529.694400
   6573   6575   6579     1   111.0400475 529.694400
   6575   6579   6580     1   112.7300484 572.371200
   6575   6579   6581     1   123.2000528 564.003200
   6580   6579   6581     1   122.1000523 635.131200
   6584   6587   6588     1   123.2000528 564.003200
   6584   6587   6589     1   112.7300484 572.371200
   6588   6587   6589     1   122.1000523 635.131200
   6592   6594   6596     1   111.6100477 551.451200
   6594   6596   6600     1   111.0400475 552.288000
   6596   6600   6601     1   112.3500484 533.878400
   6596   6600   6602     1   112.3500484 533.878400
   6600   6601   6613     1   111.0400475 552.288000
   6600   6602   6604     1   111.0400475 552.288000
   6601   6613   6616     1   111.0400475 529.694400
   6601   6600   6602     1   112.3500484 533.878400
   6602   6604   6608     1   111.0400475 529.694400
   6604   6608   6609     1   112.7300484 572.371200
   6604   6608   6610     1   123.2000528 564.003200
   6609   6608   6610     1   122.1000523 635.131200
   6613   6616   6617     1   123.2000528 564.003200
   6613   6616   6618     1   112.7300484 572.371200
   6617   6616   6618     1   122.1000523 635.131200
   6621   6623   6625     1   111.6100477 551.451200
   6623   6625   6629     1   111.0400475 552.288000
   6625   6629   6630     1   112.3500484 533.878400
   6625   6629   6631     1   112.3500484 533.878400
   6629   6630   6642     1   111.0400475 552.288000
   6629   6631   6633     1   111.0400475 552.288000
   6630   6629   6631     1   112.3500484 533.878400
   6630   6642   6645     1   111.0400475 529.694400
   6631   6633   6637     1   111.0400475 529.694400
   6633   6637   6638     1   112.7300484 572.371200
   6633   6637   6639     1   123.2000528 564.003200
   6638   6637   6639     1   122.1000523 635.131200
   6642   6645   6646     1   123.2000528 564.003200
   6642   6645   6647     1   112.7300484 572.371200
   6646   6645   6647     1   122.1000523 635.131200
   6650   6652   6654     1   111.6100477 551.451200
   6652   6654   6658     1   111.0400475 552.288000
   6654   6658   6659     1   112.3500484 533.878400
   6654   6658   6660     1   112.3500484 533.878400
   6658   6659   6671     1   111.0400475 552.288000
   6658   6660   6662     1   111.0400475 552.288000
   6659   6671   6674     1   111.0400475 529.694400
   6659   6658   6660     1   112.3500484 533.878400
   6660   6662   6666     1   111.0400475 529.694400
   6662   6666   6667     1   112.7300484 572.371200
   6662   6666   6668     1   123.2000528 564.003200
   6667   6666   6668     1   122.1000523 635.131200
   6671   6674   6675     1   123.2000528 564.003200
   6671   6674   6676     1   112.7300484 572.371200
   6675   6674   6676     1   122.1000523 635.131200
   6679   6681   6683     1   111.6100477 551.451200
   6681   6683   6687     1   111.0400475 552.288000
   6683   6687   6688     1   112.3500484 533.878400
   6683   6687   6689     1   112.3500484 533.878400
   6687   6688   6700     1   111.0400475 552.288000
   6687   6689   6691     1   111.0400475 552.288000
   6688   6687   6689     1   112.3500484 533.878400
   6688   6700   6703     1   111.0400475 529.694400
   6689   6691   6695     1   111.0400475 529.694400
   6691   6695   6696     1   112.7300484 572.371200
   6691   6695   6697     1   123.2000528 564.003200
   6696   6695   6697     1   122.1000523 635.131200
   6700   6703   6704     1   123.2000528 564.003200
   6700   6703   6705     1   112.7300484 572.371200
   6704   6703   6705     1   122.1000523 635.131200
   6708   6710   6712     1   111.6100477 551.451200
   6710   6712   6716     1   111.0400475 552.288000
   6712   6716   6717     1   112.3500484 533.878400
   6712   6716   6718     1   112.3500484 533.878400
   6716   6717   6729     1   111.0400475 552.288000
   6716   6718   6720     1   111.0400475 552.288000
   6717   6729   6732     1   111.0400475 529.694400
   6717   6716   6718     1   112.3500484 533.878400
   6718   6720   6724     1   111.0400475 529.694400
   6720   6724   6725     1   112.7300484 572.371200
   6720   6724   6726     1   123.2000528 564.003200
   6725   6724   6726     1   122.1000523 635.131200
   6729   6732   6733     1   123.2000528 564.003200
   6729   6732   6734     1   112.7300484 572.371200
   6733   6732   6734     1   122.1000523 635.131200
   6737   6739   6741     1   111.6100477 551.451200
   6739   6741   6745     1   111.0400475 552.288000
   6741   6745   6746     1   112.3500484 533.878400
   6741   6745   6747     1   112.3500484 533.878400
   6745   6746   6758     1   111.0400475 552.288000
   6745   6747   6749     1   111.0400475 552.288000
   6746   6745   6747     1   112.3500484 533.878400
   6746   6758   6761     1   111.0400475 529.694400
   6747   6749   6753     1   111.0400475 529.694400
   6749   6753   6754     1   112.7300484 572.371200
   6749   6753   6755     1   123.2000528 564.003200
   6754   6753   6755     1   122.1000523 635.131200
   6758   6761   6762     1   123.2000528 564.003200
   6758   6761   6763     1   112.7300484 572.371200
   6762   6761   6763     1   122.1000523 635.131200
   6766   6768   6770     1   111.6100477 551.451200
   6768   6770   6774     1   111.0400475 552.288000
   6770   6774   6775     1   112.3500484 533.878400
   6770   6774   6776     1   112.3500484 533.878400
   6774   6775   6787     1   111.0400475 552.288000
   6774   6776   6778     1   111.0400475 552.288000
   6775   6787   6790     1   111.0400475 529.694400
   6775   6774   6776     1   112.3500484 533.878400
   6776   6778   6782     1   111.0400475 529.694400
   6778   6782   6783     1   112.7300484 572.371200
   6778   6782   6784     1   123.2000528 564.003200
   6783   6782   6784     1   122.1000523 635.131200
   6787   6790   6791     1   123.2000528 564.003200
   6787   6790   6792     1   112.7300484 572.371200
   6791   6790   6792     1   122.1000523 635.131200
   6795   6797   6799     1   111.6100477 551.451200
   6797   6799   6803     1   111.0400475 552.288000
   6799   6803   6804     1   112.3500484 533.878400
   6799   6803   6805     1   112.3500484 533.878400
   6803   6804   6816     1   111.0400475 552.288000
   6803   6805   6807     1   111.0400475 552.288000
   6804   6803   6805     1   112.3500484 533.878400
   6804   6816   6819     1   111.0400475 529.694400
   6805   6807   6811     1   111.0400475 529.694400
   6807   6811   6812     1   112.7300484 572.371200
   6807   6811   6813     1   123.2000528 564.003200
   6812   6811   6813     1   122.1000523 635.131200
   6816   6819   6820     1   123.2000528 564.003200
   6816   6819   6821     1   112.7300484 572.371200
   6820   6819   6821     1   122.1000523 635.131200
   6824   6826   6828     1   111.6100477 551.451200
   6826   6828   6832     1   111.0400475 552.288000
   6828   6832   6833     1   112.3500484 533.878400
   6828   6832   6834     1   112.3500484 533.878400
   6832   6833   6845     1   111.0400475 552.288000
   6832   6834   6836     1   111.0400475 552.288000
   6833   6845   6848     1   111.0400475 529.694400
   6833   6832   6834     1   112.3500484 533.878400
   6834   6836   6840     1   111.0400475 529.694400
   6836   6840   6841     1   112.7300484 572.371200
   6836   6840   6842     1   123.2000528 564.003200
   6841   6840   6842     1   122.1000523 635.131200
   6845   6848   6849     1   123.2000528 564.003200
   6845   6848   6850     1   112.7300484 572.371200
   6849   6848   6850     1   122.1000523 635.131200
      1      4      5     1   109.5600471 388.275200
      1      4      6     1   109.5600471 388.275200
      2      1      4     1   109.5600471 388.275200
      2      1      8     1   109.8800469 414.216000
      2      1      3     1   108.4600466 328.025600
      3      1      4     1   109.5600471 388.275200
      3      1      8     1   109.8800469 414.216000
      5      4      7     1   109.8800469 414.216000
      5      4      6     1   108.4600466 328.025600
      6      4      7     1   109.8800469 414.216000
      7     15     16     1   109.8800469 414.216000
      7     15     17     1   109.8800469 414.216000
      7     18     19     1   109.8800469 414.216000
      7     18     20     1   109.8800469 414.216000
      8      9     10     1   109.8800469 414.216000
      8      9     11     1   109.8800469 414.216000
      8     12     13     1   109.8800469 414.216000
      8     12     14     1   109.8800469 414.216000
      9     30     31     1   109.8000471 387.438400
      9     30     32     1   109.8000471 387.438400
     10      9     30     1   109.5600471 388.275200
     10      9     11     1   108.4600466 328.025600
     11      9     30     1   109.5600471 388.275200
     12     27     28     1   109.8000471 387.438400
     12     27     29     1   109.8000471 387.438400
     13     12     27     1   109.5600471 388.275200
     13     12     14     1   108.4600466 328.025600
     14     12     27     1   109.5600471 388.275200
     15     21     22     1   109.8000471 387.438400
     15     21     23     1   109.8000471 387.438400
     16     15     21     1   109.5600471 388.275200
     16     15     17     1   108.4600466 328.025600
     17     15     21     1   109.5600471 388.275200
     18     24     25     1   109.8000471 387.438400
     18     24     26     1   109.8000471 387.438400
     19     18     24     1   109.5600471 388.275200
     19     18     20     1   108.4600466 328.025600
     20     18     24     1   109.5600471 388.275200
     22     21     35     1   108.7700466 392.459200
     22     21     23     1   107.5800459 329.699200
     23     21     35     1   108.7700466 392.459200
     25     24     36     1   108.7700466 392.459200
     25     24     26     1   107.5800459 329.699200
     26     24     36     1   108.7700466 392.459200
     28     27     33     1   108.7700466 392.459200
     28     27     29     1   107.5800459 329.699200
     29     27     33     1   108.7700466 392.459200
     31     30     34     1   108.7700466 392.459200
     31     30     32     1   107.5800459 329.699200
     32     30     34     1   108.7700466 392.459200
     33     64     65     1   117.5500507 404.174400
     34     89     90     1   117.5500507 404.174400
     35    114    115     1   117.5500507 404.174400
     36    139    140     1   117.5500507 404.174400
     41     44     45     1   109.5600471 388.275200
     41     44     46     1   109.5600471 388.275200
     42     41     44     1   109.5600471 388.275200
     42     41     47     1   109.8800469 414.216000
     42     41     43     1   108.4600466 328.025600
     43     41     44     1   109.5600471 388.275200
     43     41     47     1   109.8800469 414.216000
     44     64     65     1   117.6800502 383.254400
     45     44     64     1   108.8800464 416.726400
     45     44     46     1   108.4600466 328.025600
     46     44     64     1   108.8800464 416.726400
     47     48     49     1   109.8800469 414.216000
     47     48     50     1   109.8800469 414.216000
     47     51     52     1   109.8800469 414.216000
     47     51     53     1   109.8800469 414.216000
     48     57     58     1   109.8000471 387.438400
     48     57     59     1   109.8000471 387.438400
     49     48     57     1   109.5600471 388.275200
     49     48     50     1   108.4600466 328.025600
     50     48     57     1   109.5600471 388.275200
     51     54     55     1   109.8000471 387.438400
     51     54     56     1   109.8000471 387.438400
     52     51     54     1   109.5600471 388.275200
     52     51     53     1   108.4600466 328.025600
     53     51     54     1   109.5600471 388.275200
     55     54     60     1   108.7700466 392.459200
     55     54     56     1   107.5800459 329.699200
     56     54     60     1   108.7700466 392.459200
     58     57     61     1   108.7700466 392.459200
     58     57     59     1   107.5800459 329.699200
     59     57     61     1   108.7700466 392.459200
     60    164    165     1   117.5500507 404.174400
     61    189    190     1   117.5500507 404.174400
     66     69     70     1   109.5600471 388.275200
     66     69     71     1   109.5600471 388.275200
     67     66     69     1   109.5600471 388.275200
     67     66     72     1   109.8800469 414.216000
     67     66     68     1   108.4600466 328.025600
     68     66     69     1   109.5600471 388.275200
     68     66     72     1   109.8800469 414.216000
     69     89     90     1   117.6800502 383.254400
     70     69     89     1   108.8800464 416.726400
     70     69     71     1   108.4600466 328.025600
     71     69     89     1   108.8800464 416.726400
     72     73     74     1   109.8800469 414.216000
     72     73     75     1   109.8800469 414.216000
     72     76     77     1   109.8800469 414.216000
     72     76     78     1   109.8800469 414.216000
     73     82     83     1   109.8000471 387.438400
     73     82     84     1   109.8000471 387.438400
     74     73     82     1   109.5600471 388.275200
     74     73     75     1   108.4600466 328.025600
     75     73     82     1   109.5600471 388.275200
     76     79     80     1   109.8000471 387.438400
     76     79     81     1   109.8000471 387.438400
     77     76     79     1   109.5600471 388.275200
     77     76     78     1   108.4600466 328.025600
     78     76     79     1   109.5600471 388.275200
     80     79     85     1   108.7700466 392.459200
     80     79     81     1   107.5800459 329.699200
     81     79     85     1   108.7700466 392.459200
     83     82     86     1   108.7700466 392.459200
     83     82     84     1   107.5800459 329.699200
     84     82     86     1   108.7700466 392.459200
     85    214    215     1   117.5500507 404.174400
     86    239    240     1   117.5500507 404.174400
     91     94     95     1   109.5600471 388.275200
     91     94     96     1   109.5600471 388.275200
     92     91     94     1   109.5600471 388.275200
     92     91     97     1   109.8800469 414.216000
     92     91     93     1   108.4600466 328.025600
     93     91     94     1   109.5600471 388.275200
     93     91     97     1   109.8800469 414.216000
     94    114    115     1   117.6800502 383.254400
     95     94    114     1   108.8800464 416.726400
     95     94     96     1   108.4600466 328.025600
     96     94    114     1   108.8800464 416.726400
     97     98     99     1   109.8800469 414.216000
     97     98    100     1   109.8800469 414.216000
     97    101    102     1   109.8800469 414.216000
     97    101    103     1   109.8800469 414.216000
     98    107    108     1   109.8000471 387.438400
     98    107    109     1   109.8000471 387.438400
     99     98    107     1   109.5600471 388.275200
     99     98    100     1   108.4600466 328.025600
    100     98    107     1   109.5600471 388.275200
    101    104    105     1   109.8000471 387.438400
    101    104    106     1   109.8000471 387.438400
    102    101    104     1   109.5600471 388.275200
    102    101    103     1   108.4600466 328.025600
    103    101    104     1   109.5600471 388.275200
    105    104    110     1   108.7700466 392.459200
    105    104    106     1   107.5800459 329.699200
    106    104    110     1   108.7700466 392.459200
    108    107    111     1   108.7700466 392.459200
    108    107    109     1   107.5800459 329.699200
    109    107    111     1   108.7700466 392.459200
    110    264    265     1   117.5500507 404.174400
    111    289    290     1   117.5500507 404.174400
    116    119    120     1   109.5600471 388.275200
    116    119    121     1   109.5600471 388.275200
    117    116    119     1   109.5600471 388.275200
    117    116    122     1   109.8800469 414.216000
    117    116    118     1   108.4600466 328.025600
    118    116    119     1   109.5600471 388.275200
    118    116    122     1   109.8800469 414.216000
    119    139    140     1   117.6800502 383.254400
    120    119    139     1   108.8800464 416.726400
    120    119    121     1   108.4600466 328.025600
    121    119    139     1   108.8800464 416.726400
    122    123    124     1   109.8800469 414.216000
    122    123    125     1   109.8800469 414.216000
    122    126    127     1   109.8800469 414.216000
    122    126    128     1   109.8800469 414.216000
    123    132    133     1   109.8000471 387.438400
    123    132    134     1   109.8000471 387.438400
    124    123    132     1   109.5600471 388.275200
    124    123    125     1   108.4600466 328.025600
    125    123    132     1   109.5600471 388.275200
    126    129    130     1   109.8000471 387.438400
    126    129    131     1   109.8000471 387.438400
    127    126    129     1   109.5600471 388.275200
    127    126    128     1   108.4600466 328.025600
    128    126    129     1   109.5600471 388.275200
    130    129    135     1   108.7700466 392.459200
    130    129    131     1   107.5800459 329.699200
    131    129    135     1   108.7700466 392.459200
    133    132    136     1   108.7700466 392.459200
    133    132    134     1   107.5800459 329.699200
    134    132    136     1   108.7700466 392.459200
    135    314    315     1   117.5500507 404.174400
    136    339    340     1   117.5500507 404.174400
    141    144    145     1   109.5600471 388.275200
    141    144    146     1   109.5600471 388.275200
    142    141    144     1   109.5600471 388.275200
    142    141    147     1   109.8800469 414.216000
    142    141    143     1   108.4600466 328.025600
    143    141    144     1   109.5600471 388.275200
    143    141    147     1   109.8800469 414.216000
    144    164    165     1   117.6800502 383.254400
    145    144    164     1   108.8800464 416.726400
    145    144    146     1   108.4600466 328.025600
    146    144    164     1   108.8800464 416.726400
    147    148    149     1   109.8800469 414.216000
    147    148    150     1   109.8800469 414.216000
    147    151    152     1   109.8800469 414.216000
    147    151    153     1   109.8800469 414.216000
    148    157    158     1   109.8000471 387.438400
    148    157    159     1   109.8000471 387.438400
    149    148    157     1   109.5600471 388.275200
    149    148    150     1   108.4600466 328.025600
    150    148    157     1   109.5600471 388.275200
    151    154    155     1   109.8000471 387.438400
    151    154    156     1   109.8000471 387.438400
    152    151    154     1   109.5600471 388.275200
    152    151    153     1   108.4600466 328.025600
    153    151    154     1   109.5600471 388.275200
    155    154    160     1   108.7700466 392.459200
    155    154    156     1   107.5800459 329.699200
    156    154    160     1   108.7700466 392.459200
    158    157    161     1   108.7700466 392.459200
    158    157    159     1   107.5800459 329.699200
    159    157    161     1   108.7700466 392.459200
    160    364    365     1   117.5500507 404.174400
    161    389    390     1   117.5500507 404.174400
    166    169    170     1   109.5600471 388.275200
    166    169    171     1   109.5600471 388.275200
    167    166    169     1   109.5600471 388.275200
    167    166    172     1   109.8800469 414.216000
    167    166    168     1   108.4600466 328.025600
    168    166    169     1   109.5600471 388.275200
    168    166    172     1   109.8800469 414.216000
    169    189    190     1   117.6800502 383.254400
    170    169    189     1   108.8800464 416.726400
    170    169    171     1   108.4600466 328.025600
    171    169    189     1   108.8800464 416.726400
    172    173    174     1   109.8800469 414.216000
    172    173    175     1   109.8800469 414.216000
    172    176    177     1   109.8800469 414.216000
    172    176    178     1   109.8800469 414.216000
    173    182    183     1   109.8000471 387.438400
    173    182    184     1   109.8000471 387.438400
    174    173    182     1   109.5600471 388.275200
    174    173    175     1   108.4600466 328.025600
    175    173    182     1   109.5600471 388.275200
    176    179    180     1   109.8000471 387.438400
    176    179    181     1   109.8000471 387.438400
    177    176    179     1   109.5600471 388.275200
    177    176    178     1   108.4600466 328.025600
    178    176    179     1   109.5600471 388.275200
    180    179    185     1   108.7700466 392.459200
    180    179    181     1   107.5800459 329.699200
    181    179    185     1   108.7700466 392.459200
    183    182    186     1   108.7700466 392.459200
    183    182    184     1   107.5800459 329.699200
    184    182    186     1   108.7700466 392.459200
    185    414    415     1   117.5500507 404.174400
    186    439    440     1   117.5500507 404.174400
    191    194    195     1   109.5600471 388.275200
    191    194    196     1   109.5600471 388.275200
    192    191    194     1   109.5600471 388.275200
    192    191    197     1   109.8800469 414.216000
    192    191    193     1   108.4600466 328.025600
    193    191    194     1   109.5600471 388.275200
    193    191    197     1   109.8800469 414.216000
    194    214    215     1   117.6800502 383.254400
    195    194    214     1   108.8800464 416.726400
    195    194    196     1   108.4600466 328.025600
    196    194    214     1   108.8800464 416.726400
    197    198    199     1   109.8800469 414.216000
    197    198    200     1   109.8800469 414.216000
    197    201    202     1   109.8800469 414.216000
    197    201    203     1   109.8800469 414.216000
    198    207    208     1   109.8000471 387.438400
    198    207    209     1   109.8000471 387.438400
    199    198    207     1   109.5600471 388.275200
    199    198    200     1   108.4600466 328.025600
    200    198    207     1   109.5600471 388.275200
    201    204    205     1   109.8000471 387.438400
    201    204    206     1   109.8000471 387.438400
    202    201    204     1   109.5600471 388.275200
    202    201    203     1   108.4600466 328.025600
    203    201    204     1   109.5600471 388.275200
    205    204    210     1   108.7700466 392.459200
    205    204    206     1   107.5800459 329.699200
    206    204    210     1   108.7700466 392.459200
    208    207    211     1   108.7700466 392.459200
    208    207    209     1   107.5800459 329.699200
    209    207    211     1   108.7700466 392.459200
    210    464    465     1   117.5500507 404.174400
    211    489    490     1   117.5500507 404.174400
    216    219    220     1   109.5600471 388.275200
    216    219    221     1   109.5600471 388.275200
    217    216    219     1   109.5600471 388.275200
    217    216    222     1   109.8800469 414.216000
    217    216    218     1   108.4600466 328.025600
    218    216    219     1   109.5600471 388.275200
    218    216    222     1   109.8800469 414.216000
    219    239    240     1   117.6800502 383.254400
    220    219    239     1   108.8800464 416.726400
    220    219    221     1   108.4600466 328.025600
    221    219    239     1   108.8800464 416.726400
    222    223    224     1   109.8800469 414.216000
    222    223    225     1   109.8800469 414.216000
    222    226    227     1   109.8800469 414.216000
    222    226    228     1   109.8800469 414.216000
    223    232    233     1   109.8000471 387.438400
    223    232    234     1   109.8000471 387.438400
    224    223    232     1   109.5600471 388.275200
    224    223    225     1   108.4600466 328.025600
    225    223    232     1   109.5600471 388.275200
    226    229    230     1   109.8000471 387.438400
    226    229    231     1   109.8000471 387.438400
    227    226    229     1   109.5600471 388.275200
    227    226    228     1   108.4600466 328.025600
    228    226    229     1   109.5600471 388.275200
    230    229    235     1   108.7700466 392.459200
    230    229    231     1   107.5800459 329.699200
    231    229    235     1   108.7700466 392.459200
    233    232    236     1   108.7700466 392.459200
    233    232    234     1   107.5800459 329.699200
    234    232    236     1   108.7700466 392.459200
    235    514    515     1   117.5500507 404.174400
    236    539    540     1   117.5500507 404.174400
    241    244    245     1   109.5600471 388.275200
    241    244    246     1   109.5600471 388.275200
    242    241    244     1   109.5600471 388.275200
    242    241    247     1   109.8800469 414.216000
    242    241    243     1   108.4600466 328.025600
    243    241    244     1   109.5600471 388.275200
    243    241    247     1   109.8800469 414.216000
    244    264    265     1   117.6800502 383.254400
    245    244    264     1   108.8800464 416.726400
    245    244    246     1   108.4600466 328.025600
    246    244    264     1   108.8800464 416.726400
    247    248    249     1   109.8800469 414.216000
    247    248    250     1   109.8800469 414.216000
    247    251    252     1   109.8800469 414.216000
    247    251    253     1   109.8800469 414.216000
    248    257    258     1   109.8000471 387.438400
    248    257    259     1   109.8000471 387.438400
    249    248    257     1   109.5600471 388.275200
    249    248    250     1   108.4600466 328.025600
    250    248    257     1   109.5600471 388.275200
    251    254    255     1   109.8000471 387.438400
    251    254    256     1   109.8000471 387.438400
    252    251    254     1   109.5600471 388.275200
    252    251    253     1   108.4600466 328.025600
    253    251    254     1   109.5600471 388.275200
    255    254    260     1   108.7700466 392.459200
    255    254    256     1   107.5800459 329.699200
    256    254    260     1   108.7700466 392.459200
    258    257    261     1   108.7700466 392.459200
    258    257    259     1   107.5800459 329.699200
    259    257    261     1   108.7700466 392.459200
    260    564    565     1   117.5500507 404.174400
    261    589    590     1   117.5500507 404.174400
    266    269    270     1   109.5600471 388.275200
    266    269    271     1   109.5600471 388.275200
    267    266    269     1   109.5600471 388.275200
    267    266    272     1   109.8800469 414.216000
    267    266    268     1   108.4600466 328.025600
    268    266    269     1   109.5600471 388.275200
    268    266    272     1   109.8800469 414.216000
    269    289    290     1   117.6800502 383.254400
    270    269    289     1   108.8800464 416.726400
    270    269    271     1   108.4600466 328.025600
    271    269    289     1   108.8800464 416.726400
    272    273    274     1   109.8800469 414.216000
    272    273    275     1   109.8800469 414.216000
    272    276    277     1   109.8800469 414.216000
    272    276    278     1   109.8800469 414.216000
    273    282    283     1   109.8000471 387.438400
    273    282    284     1   109.8000471 387.438400
    274    273    282     1   109.5600471 388.275200
    274    273    275     1   108.4600466 328.025600
    275    273    282     1   109.5600471 388.275200
    276    279    280     1   109.8000471 387.438400
    276    279    281     1   109.8000471 387.438400
    277    276    279     1   109.5600471 388.275200
    277    276    278     1   108.4600466 328.025600
    278    276    279     1   109.5600471 388.275200
    280    279    285     1   108.7700466 392.459200
    280    279    281     1   107.5800459 329.699200
    281    279    285     1   108.7700466 392.459200
    283    282    286     1   108.7700466 392.459200
    283    282    284     1   107.5800459 329.699200
    284    282    286     1   108.7700466 392.459200
    285    614    615     1   117.5500507 404.174400
    286    639    640     1   117.5500507 404.174400
    291    294    295     1   109.5600471 388.275200
    291    294    296     1   109.5600471 388.275200
    292    291    294     1   109.5600471 388.275200
    292    291    297     1   109.8800469 414.216000
    292    291    293     1   108.4600466 328.025600
    293    291    294     1   109.5600471 388.275200
    293    291    297     1   109.8800469 414.216000
    294    314    315     1   117.6800502 383.254400
    295    294    314     1   108.8800464 416.726400
    295    294    296     1   108.4600466 328.025600
    296    294    314     1   108.8800464 416.726400
    297    298    299     1   109.8800469 414.216000
    297    298    300     1   109.8800469 414.216000
    297    301    302     1   109.8800469 414.216000
    297    301    303     1   109.8800469 414.216000
    298    307    308     1   109.8000471 387.438400
    298    307    309     1   109.8000471 387.438400
    299    298    307     1   109.5600471 388.275200
    299    298    300     1   108.4600466 328.025600
    300    298    307     1   109.5600471 388.275200
    301    304    305     1   109.8000471 387.438400
    301    304    306     1   109.8000471 387.438400
    302    301    304     1   109.5600471 388.275200
    302    301    303     1   108.4600466 328.025600
    303    301    304     1   109.5600471 388.275200
    305    304    310     1   108.7700466 392.459200
    305    304    306     1   107.5800459 329.699200
    306    304    310     1   108.7700466 392.459200
    308    307    311     1   108.7700466 392.459200
    308    307    309     1   107.5800459 329.699200
    309    307    311     1   108.7700466 392.459200
    310    664    665     1   117.5500507 404.174400
    311    689    690     1   117.5500507 404.174400
    316    319    320     1   109.5600471 388.275200
    316    319    321     1   109.5600471 388.275200
    317    316    319     1   109.5600471 388.275200
    317    316    322     1   109.8800469 414.216000
    317    316    318     1   108.4600466 328.025600
    318    316    319     1   109.5600471 388.275200
    318    316    322     1   109.8800469 414.216000
    319    339    340     1   117.6800502 383.254400
    320    319    339     1   108.8800464 416.726400
    320    319    321     1   108.4600466 328.025600
    321    319    339     1   108.8800464 416.726400
    322    323    324     1   109.8800469 414.216000
    322    323    325     1   109.8800469 414.216000
    322    326    327     1   109.8800469 414.216000
    322    326    328     1   109.8800469 414.216000
    323    332    333     1   109.8000471 387.438400
    323    332    334     1   109.8000471 387.438400
    324    323    332     1   109.5600471 388.275200
    324    323    325     1   108.4600466 328.025600
    325    323    332     1   109.5600471 388.275200
    326    329    330     1   109.8000471 387.438400
    326    329    331     1   109.8000471 387.438400
    327    326    329     1   109.5600471 388.275200
    327    326    328     1   108.4600466 328.025600
    328    326    329     1   109.5600471 388.275200
    330    329    335     1   108.7700466 392.459200
    330    329    331     1   107.5800459 329.699200
    331    329    335     1   108.7700466 392.459200
    333    332    336     1   108.7700466 392.459200
    333    332    334     1   107.5800459 329.699200
    334    332    336     1   108.7700466 392.459200
    335    714    715     1   117.5500507 404.174400
    336    739    740     1   117.5500507 404.174400
    341    344    345     1   109.5600471 388.275200
    341    344    346     1   109.5600471 388.275200
    342    341    344     1   109.5600471 388.275200
    342    341    347     1   109.8800469 414.216000
    342    341    343     1   108.4600466 328.025600
    343    341    344     1   109.5600471 388.275200
    343    341    347     1   109.8800469 414.216000
    344    364    365     1   117.6800502 383.254400
    345    344    364     1   108.8800464 416.726400
    345    344    346     1   108.4600466 328.025600
    346    344    364     1   108.8800464 416.726400
    347    348    349     1   109.8800469 414.216000
    347    348    350     1   109.8800469 414.216000
    347    351    352     1   109.8800469 414.216000
    347    351    353     1   109.8800469 414.216000
    348    357    358     1   109.8000471 387.438400
    348    357    359     1   109.8000471 387.438400
    349    348    357     1   109.5600471 388.275200
    349    348    350     1   108.4600466 328.025600
    350    348    357     1   109.5600471 388.275200
    351    354    355     1   109.8000471 387.438400
    351    354    356     1   109.8000471 387.438400
    352    351    354     1   109.5600471 388.275200
    352    351    353     1   108.4600466 328.025600
    353    351    354     1   109.5600471 388.275200
    355    354    360     1   108.7700466 392.459200
    355    354    356     1   107.5800459 329.699200
    356    354    360     1   108.7700466 392.459200
    358    357    361     1   108.7700466 392.459200
    358    357    359     1   107.5800459 329.699200
    359    357    361     1   108.7700466 392.459200
    360    764    765     1   117.5500507 404.174400
    361    789    790     1   117.5500507 404.174400
    366    369    370     1   109.5600471 388.275200
    366    369    371     1   109.5600471 388.275200
    367    366    369     1   109.5600471 388.275200
    367    366    372     1   109.8800469 414.216000
    367    366    368     1   108.4600466 328.025600
    368    366    369     1   109.5600471 388.275200
    368    366    372     1   109.8800469 414.216000
    369    389    390     1   117.6800502 383.254400
    370    369    389     1   108.8800464 416.726400
    370    369    371     1   108.4600466 328.025600
    371    369    389     1   108.8800464 416.726400
    372    373    374     1   109.8800469 414.216000
    372    373    375     1   109.8800469 414.216000
    372    376    377     1   109.8800469 414.216000
    372    376    378     1   109.8800469 414.216000
    373    382    383     1   109.8000471 387.438400
    373    382    384     1   109.8000471 387.438400
    374    373    382     1   109.5600471 388.275200
    374    373    375     1   108.4600466 328.025600
    375    373    382     1   109.5600471 388.275200
    376    379    380     1   109.8000471 387.438400
    376    379    381     1   109.8000471 387.438400
    377    376    379     1   109.5600471 388.275200
    377    376    378     1   108.4600466 328.025600
    378    376    379     1   109.5600471 388.275200
    380    379    385     1   108.7700466 392.459200
    380    379    381     1   107.5800459 329.699200
    381    379    385     1   108.7700466 392.459200
    383    382    386     1   108.7700466 392.459200
    383    382    384     1   107.5800459 329.699200
    384    382    386     1   108.7700466 392.459200
    385    814    815     1   117.5500507 404.174400
    386    839    840     1   117.5500507 404.174400
    391    394    395     1   109.5600471 388.275200
    391    394    396     1   109.5600471 388.275200
    392    391    394     1   109.5600471 388.275200
    392    391    397     1   109.8800469 414.216000
    392    391    393     1   108.4600466 328.025600
    393    391    394     1   109.5600471 388.275200
    393    391    397     1   109.8800469 414.216000
    394    414    415     1   117.6800502 383.254400
    395    394    414     1   108.8800464 416.726400
    395    394    396     1   108.4600466 328.025600
    396    394    414     1   108.8800464 416.726400
    397    398    399     1   109.8800469 414.216000
    397    398    400     1   109.8800469 414.216000
    397    401    402     1   109.8800469 414.216000
    397    401    403     1   109.8800469 414.216000
    398    407    408     1   109.8000471 387.438400
    398    407    409     1   109.8000471 387.438400
    399    398    407     1   109.5600471 388.275200
    399    398    400     1   108.4600466 328.025600
    400    398    407     1   109.5600471 388.275200
    401    404    405     1   109.8000471 387.438400
    401    404    406     1   109.8000471 387.438400
    402    401    404     1   109.5600471 388.275200
    402    401    403     1   108.4600466 328.025600
    403    401    404     1   109.5600471 388.275200
    405    404    410     1   108.7700466 392.459200
    405    404    406     1   107.5800459 329.699200
    406    404    410     1   108.7700466 392.459200
    408    407    411     1   108.7700466 392.459200
    408    407    409     1   107.5800459 329.699200
    409    407    411     1   108.7700466 392.459200
    410    864    865     1   117.5500507 404.174400
    411    889    890     1   117.5500507 404.174400
    416    419    420     1   109.5600471 388.275200
    416    419    421     1   109.5600471 388.275200
    417    416    419     1   109.5600471 388.275200
    417    416    422     1   109.8800469 414.216000
    417    416    418     1   108.4600466 328.025600
    418    416    419     1   109.5600471 388.275200
    418    416    422     1   109.8800469 414.216000
    419    439    440     1   117.6800502 383.254400
    420    419    439     1   108.8800464 416.726400
    420    419    421     1   108.4600466 328.025600
    421    419    439     1   108.8800464 416.726400
    422    423    424     1   109.8800469 414.216000
    422    423    425     1   109.8800469 414.216000
    422    426    427     1   109.8800469 414.216000
    422    426    428     1   109.8800469 414.216000
    423    432    433     1   109.8000471 387.438400
    423    432    434     1   109.8000471 387.438400
    424    423    432     1   109.5600471 388.275200
    424    423    425     1   108.4600466 328.025600
    425    423    432     1   109.5600471 388.275200
    426    429    430     1   109.8000471 387.438400
    426    429    431     1   109.8000471 387.438400
    427    426    429     1   109.5600471 388.275200
    427    426    428     1   108.4600466 328.025600
    428    426    429     1   109.5600471 388.275200
    430    429    435     1   108.7700466 392.459200
    430    429    431     1   107.5800459 329.699200
    431    429    435     1   108.7700466 392.459200
    433    432    436     1   108.7700466 392.459200
    433    432    434     1   107.5800459 329.699200
    434    432    436     1   108.7700466 392.459200
    435    914    915     1   117.5500507 404.174400
    436    939    940     1   117.5500507 404.174400
    441    444    445     1   109.5600471 388.275200
    441    444    446     1   109.5600471 388.275200
    442    441    444     1   109.5600471 388.275200
    442    441    447     1   109.8800469 414.216000
    442    441    443     1   108.4600466 328.025600
    443    441    444     1   109.5600471 388.275200
    443    441    447     1   109.8800469 414.216000
    444    464    465     1   117.6800502 383.254400
    445    444    464     1   108.8800464 416.726400
    445    444    446     1   108.4600466 328.025600
    446    444    464     1   108.8800464 416.726400
    447    448    449     1   109.8800469 414.216000
    447    448    450     1   109.8800469 414.216000
    447    451    452     1   109.8800469 414.216000
    447    451    453     1   109.8800469 414.216000
    448    457    458     1   109.8000471 387.438400
    448    457    459     1   109.8000471 387.438400
    449    448    457     1   109.5600471 388.275200
    449    448    450     1   108.4600466 328.025600
    450    448    457     1   109.5600471 388.275200
    451    454    455     1   109.8000471 387.438400
    451    454    456     1   109.8000471 387.438400
    452    451    454     1   109.5600471 388.275200
    452    451    453     1   108.4600466 328.025600
    453    451    454     1   109.5600471 388.275200
    455    454    460     1   108.7700466 392.459200
    455    454    456     1   107.5800459 329.699200
    456    454    460     1   108.7700466 392.459200
    458    457    461     1   108.7700466 392.459200
    458    457    459     1   107.5800459 329.699200
    459    457    461     1   108.7700466 392.459200
    460    964    965     1   117.5500507 404.174400
    461    989    990     1   117.5500507 404.174400
    466    469    470     1   109.5600471 388.275200
    466    469    471     1   109.5600471 388.275200
    467    466    469     1   109.5600471 388.275200
    467    466    472     1   109.8800469 414.216000
    467    466    468     1   108.4600466 328.025600
    468    466    469     1   109.5600471 388.275200
    468    466    472     1   109.8800469 414.216000
    469    489    490     1   117.6800502 383.254400
    470    469    489     1   108.8800464 416.726400
    470    469    471     1   108.4600466 328.025600
    471    469    489     1   108.8800464 416.726400
    472    473    474     1   109.8800469 414.216000
    472    473    475     1   109.8800469 414.216000
    472    476    477     1   109.8800469 414.216000
    472    476    478     1   109.8800469 414.216000
    473    482    483     1   109.8000471 387.438400
    473    482    484     1   109.8000471 387.438400
    474    473    482     1   109.5600471 388.275200
    474    473    475     1   108.4600466 328.025600
    475    473    482     1   109.5600471 388.275200
    476    479    480     1   109.8000471 387.438400
    476    479    481     1   109.8000471 387.438400
    477    476    479     1   109.5600471 388.275200
    477    476    478     1   108.4600466 328.025600
    478    476    479     1   109.5600471 388.275200
    480    479    485     1   108.7700466 392.459200
    480    479    481     1   107.5800459 329.699200
    481    479    485     1   108.7700466 392.459200
    483    482    486     1   108.7700466 392.459200
    483    482    484     1   107.5800459 329.699200
    484    482    486     1   108.7700466 392.459200
    485   1014   1015     1   117.5500507 404.174400
    486   1039   1040     1   117.5500507 404.174400
    491    494    495     1   109.5600471 388.275200
    491    494    496     1   109.5600471 388.275200
    492    491    494     1   109.5600471 388.275200
    492    491    497     1   109.8800469 414.216000
    492    491    493     1   108.4600466 328.025600
    493    491    494     1   109.5600471 388.275200
    493    491    497     1   109.8800469 414.216000
    494    514    515     1   117.6800502 383.254400
    495    494    514     1   108.8800464 416.726400
    495    494    496     1   108.4600466 328.025600
    496    494    514     1   108.8800464 416.726400
    497    498    499     1   109.8800469 414.216000
    497    498    500     1   109.8800469 414.216000
    497    501    502     1   109.8800469 414.216000
    497    501    503     1   109.8800469 414.216000
    498    507    508     1   109.8000471 387.438400
    498    507    509     1   109.8000471 387.438400
    499    498    507     1   109.5600471 388.275200
    499    498    500     1   108.4600466 328.025600
    500    498    507     1   109.5600471 388.275200
    501    504    505     1   109.8000471 387.438400
    501    504    506     1   109.8000471 387.438400
    502    501    504     1   109.5600471 388.275200
    502    501    503     1   108.4600466 328.025600
    503    501    504     1   109.5600471 388.275200
    505    504    510     1   108.7700466 392.459200
    505    504    506     1   107.5800459 329.699200
    506    504    510     1   108.7700466 392.459200
    508    507    511     1   108.7700466 392.459200
    508    507    509     1   107.5800459 329.699200
    509    507    511     1   108.7700466 392.459200
    510   1064   1065     1   117.5500507 404.174400
    511   1089   1090     1   117.5500507 404.174400
    516    519    520     1   109.5600471 388.275200
    516    519    521     1   109.5600471 388.275200
    517    516    519     1   109.5600471 388.275200
    517    516    522     1   109.8800469 414.216000
    517    516    518     1   108.4600466 328.025600
    518    516    519     1   109.5600471 388.275200
    518    516    522     1   109.8800469 414.216000
    519    539    540     1   117.6800502 383.254400
    520    519    539     1   108.8800464 416.726400
    520    519    521     1   108.4600466 328.025600
    521    519    539     1   108.8800464 416.726400
    522    523    524     1   109.8800469 414.216000
    522    523    525     1   109.8800469 414.216000
    522    526    527     1   109.8800469 414.216000
    522    526    528     1   109.8800469 414.216000
    523    532    533     1   109.8000471 387.438400
    523    532    534     1   109.8000471 387.438400
    524    523    532     1   109.5600471 388.275200
    524    523    525     1   108.4600466 328.025600
    525    523    532     1   109.5600471 388.275200
    526    529    530     1   109.8000471 387.438400
    526    529    531     1   109.8000471 387.438400
    527    526    529     1   109.5600471 388.275200
    527    526    528     1   108.4600466 328.025600
    528    526    529     1   109.5600471 388.275200
    530    529    535     1   108.7700466 392.459200
    530    529    531     1   107.5800459 329.699200
    531    529    535     1   108.7700466 392.459200
    533    532    536     1   108.7700466 392.459200
    533    532    534     1   107.5800459 329.699200
    534    532    536     1   108.7700466 392.459200
    535   1114   1115     1   117.5500507 404.174400
    536   1139   1140     1   117.5500507 404.174400
    541    544    545     1   109.5600471 388.275200
    541    544    546     1   109.5600471 388.275200
    542    541    544     1   109.5600471 388.275200
    542    541    547     1   109.8800469 414.216000
    542    541    543     1   108.4600466 328.025600
    543    541    544     1   109.5600471 388.275200
    543    541    547     1   109.8800469 414.216000
    544    564    565     1   117.6800502 383.254400
    545    544    564     1   108.8800464 416.726400
    545    544    546     1   108.4600466 328.025600
    546    544    564     1   108.8800464 416.726400
    547    548    549     1   109.8800469 414.216000
    547    548    550     1   109.8800469 414.216000
    547    551    552     1   109.8800469 414.216000
    547    551    553     1   109.8800469 414.216000
    548    557    558     1   109.8000471 387.438400
    548    557    559     1   109.8000471 387.438400
    549    548    557     1   109.5600471 388.275200
    549    548    550     1   108.4600466 328.025600
    550    548    557     1   109.5600471 388.275200
    551    554    555     1   109.8000471 387.438400
    551    554    556     1   109.8000471 387.438400
    552    551    554     1   109.5600471 388.275200
    552    551    553     1   108.4600466 328.025600
    553    551    554     1   109.5600471 388.275200
    555    554    560     1   108.7700466 392.459200
    555    554    556     1   107.5800459 329.699200
    556    554    560     1   108.7700466 392.459200
    558    557    561     1   108.7700466 392.459200
    558    557    559     1   107.5800459 329.699200
    559    557    561     1   108.7700466 392.459200
    560   1164   1165     1   117.5500507 404.174400
    561   1189   1190     1   117.5500507 404.174400
    566    569    570     1   109.5600471 388.275200
    566    569    571     1   109.5600471 388.275200
    567    566    569     1   109.5600471 388.275200
    567    566    572     1   109.8800469 414.216000
    567    566    568     1   108.4600466 328.025600
    568    566    569     1   109.5600471 388.275200
    568    566    572     1   109.8800469 414.216000
    569    589    590     1   117.6800502 383.254400
    570    569    589     1   108.8800464 416.726400
    570    569    571     1   108.4600466 328.025600
    571    569    589     1   108.8800464 416.726400
    572    573    574     1   109.8800469 414.216000
    572    573    575     1   109.8800469 414.216000
    572    576    577     1   109.8800469 414.216000
    572    576    578     1   109.8800469 414.216000
    573    582    583     1   109.8000471 387.438400
    573    582    584     1   109.8000471 387.438400
    574    573    582     1   109.5600471 388.275200
    574    573    575     1   108.4600466 328.025600
    575    573    582     1   109.5600471 388.275200
    576    579    580     1   109.8000471 387.438400
    576    579    581     1   109.8000471 387.438400
    577    576    579     1   109.5600471 388.275200
    577    576    578     1   108.4600466 328.025600
    578    576    579     1   109.5600471 388.275200
    580    579    585     1   108.7700466 392.459200
    580    579    581     1   107.5800459 329.699200
    581    579    585     1   108.7700466 392.459200
    583    582    586     1   108.7700466 392.459200
    583    582    584     1   107.5800459 329.699200
    584    582    586     1   108.7700466 392.459200
    585   1214   1215     1   117.5500507 404.174400
    586   1239   1240     1   117.5500507 404.174400
    591    594    595     1   109.5600471 388.275200
    591    594    596     1   109.5600471 388.275200
    592    591    594     1   109.5600471 388.275200
    592    591    597     1   109.8800469 414.216000
    592    591    593     1   108.4600466 328.025600
    593    591    594     1   109.5600471 388.275200
    593    591    597     1   109.8800469 414.216000
    594    614    615     1   117.6800502 383.254400
    595    594    614     1   108.8800464 416.726400
    595    594    596     1   108.4600466 328.025600
    596    594    614     1   108.8800464 416.726400
    597    598    599     1   109.8800469 414.216000
    597    598    600     1   109.8800469 414.216000
    597    601    602     1   109.8800469 414.216000
    597    601    603     1   109.8800469 414.216000
    598    607    608     1   109.8000471 387.438400
    598    607    609     1   109.8000471 387.438400
    599    598    607     1   109.5600471 388.275200
    599    598    600     1   108.4600466 328.025600
    600    598    607     1   109.5600471 388.275200
    601    604    605     1   109.8000471 387.438400
    601    604    606     1   109.8000471 387.438400
    602    601    604     1   109.5600471 388.275200
    602    601    603     1   108.4600466 328.025600
    603    601    604     1   109.5600471 388.275200
    605    604    610     1   108.7700466 392.459200
    605    604    606     1   107.5800459 329.699200
    606    604    610     1   108.7700466 392.459200
    608    607    611     1   108.7700466 392.459200
    608    607    609     1   107.5800459 329.699200
    609    607    611     1   108.7700466 392.459200
    610   1264   1265     1   117.5500507 404.174400
    611   1289   1290     1   117.5500507 404.174400
    616    619    620     1   109.5600471 388.275200
    616    619    621     1   109.5600471 388.275200
    617    616    619     1   109.5600471 388.275200
    617    616    622     1   109.8800469 414.216000
    617    616    618     1   108.4600466 328.025600
    618    616    619     1   109.5600471 388.275200
    618    616    622     1   109.8800469 414.216000
    619    639    640     1   117.6800502 383.254400
    620    619    639     1   108.8800464 416.726400
    620    619    621     1   108.4600466 328.025600
    621    619    639     1   108.8800464 416.726400
    622    623    624     1   109.8800469 414.216000
    622    623    625     1   109.8800469 414.216000
    622    626    627     1   109.8800469 414.216000
    622    626    628     1   109.8800469 414.216000
    623    632    633     1   109.8000471 387.438400
    623    632    634     1   109.8000471 387.438400
    624    623    632     1   109.5600471 388.275200
    624    623    625     1   108.4600466 328.025600
    625    623    632     1   109.5600471 388.275200
    626    629    630     1   109.8000471 387.438400
    626    629    631     1   109.8000471 387.438400
    627    626    629     1   109.5600471 388.275200
    627    626    628     1   108.4600466 328.025600
    628    626    629     1   109.5600471 388.275200
    630    629    635     1   108.7700466 392.459200
    630    629    631     1   107.5800459 329.699200
    631    629    635     1   108.7700466 392.459200
    633    632    636     1   108.7700466 392.459200
    633    632    634     1   107.5800459 329.699200
    634    632    636     1   108.7700466 392.459200
    635   1314   1315     1   117.5500507 404.174400
    636   1339   1340     1   117.5500507 404.174400
    641    644    645     1   109.5600471 388.275200
    641    644    646     1   109.5600471 388.275200
    642    641    644     1   109.5600471 388.275200
    642    641    647     1   109.8800469 414.216000
    642    641    643     1   108.4600466 328.025600
    643    641    644     1   109.5600471 388.275200
    643    641    647     1   109.8800469 414.216000
    644    664    665     1   117.6800502 383.254400
    645    644    664     1   108.8800464 416.726400
    645    644    646     1   108.4600466 328.025600
    646    644    664     1   108.8800464 416.726400
    647    648    649     1   109.8800469 414.216000
    647    648    650     1   109.8800469 414.216000
    647    651    652     1   109.8800469 414.216000
    647    651    653     1   109.8800469 414.216000
    648    657    658     1   109.8000471 387.438400
    648    657    659     1   109.8000471 387.438400
    649    648    657     1   109.5600471 388.275200
    649    648    650     1   108.4600466 328.025600
    650    648    657     1   109.5600471 388.275200
    651    654    655     1   109.8000471 387.438400
    651    654    656     1   109.8000471 387.438400
    652    651    654     1   109.5600471 388.275200
    652    651    653     1   108.4600466 328.025600
    653    651    654     1   109.5600471 388.275200
    655    654    660     1   108.7700466 392.459200
    655    654    656     1   107.5800459 329.699200
    656    654    660     1   108.7700466 392.459200
    658    657    661     1   108.7700466 392.459200
    658    657    659     1   107.5800459 329.699200
    659    657    661     1   108.7700466 392.459200
    660   1364   1365     1   117.5500507 404.174400
    661   1389   1390     1   117.5500507 404.174400
    666    669    670     1   109.5600471 388.275200
    666    669    671     1   109.5600471 388.275200
    667    666    669     1   109.5600471 388.275200
    667    666    672     1   109.8800469 414.216000
    667    666    668     1   108.4600466 328.025600
    668    666    669     1   109.5600471 388.275200
    668    666    672     1   109.8800469 414.216000
    669    689    690     1   117.6800502 383.254400
    670    669    689     1   108.8800464 416.726400
    670    669    671     1   108.4600466 328.025600
    671    669    689     1   108.8800464 416.726400
    672    673    674     1   109.8800469 414.216000
    672    673    675     1   109.8800469 414.216000
    672    676    677     1   109.8800469 414.216000
    672    676    678     1   109.8800469 414.216000
    673    682    683     1   109.8000471 387.438400
    673    682    684     1   109.8000471 387.438400
    674    673    682     1   109.5600471 388.275200
    674    673    675     1   108.4600466 328.025600
    675    673    682     1   109.5600471 388.275200
    676    679    680     1   109.8000471 387.438400
    676    679    681     1   109.8000471 387.438400
    677    676    679     1   109.5600471 388.275200
    677    676    678     1   108.4600466 328.025600
    678    676    679     1   109.5600471 388.275200
    680    679    685     1   108.7700466 392.459200
    680    679    681     1   107.5800459 329.699200
    681    679    685     1   108.7700466 392.459200
    683    682    686     1   108.7700466 392.459200
    683    682    684     1   107.5800459 329.699200
    684    682    686     1   108.7700466 392.459200
    685   1414   1415     1   117.5500507 404.174400
    686   1439   1440     1   117.5500507 404.174400
    691    694    695     1   109.5600471 388.275200
    691    694    696     1   109.5600471 388.275200
    692    691    694     1   109.5600471 388.275200
    692    691    697     1   109.8800469 414.216000
    692    691    693     1   108.4600466 328.025600
    693    691    694     1   109.5600471 388.275200
    693    691    697     1   109.8800469 414.216000
    694    714    715     1   117.6800502 383.254400
    695    694    714     1   108.8800464 416.726400
    695    694    696     1   108.4600466 328.025600
    696    694    714     1   108.8800464 416.726400
    697    698    699     1   109.8800469 414.216000
    697    698    700     1   109.8800469 414.216000
    697    701    702     1   109.8800469 414.216000
    697    701    703     1   109.8800469 414.216000
    698    707    708     1   109.8000471 387.438400
    698    707    709     1   109.8000471 387.438400
    699    698    707     1   109.5600471 388.275200
    699    698    700     1   108.4600466 328.025600
    700    698    707     1   109.5600471 388.275200
    701    704    705     1   109.8000471 387.438400
    701    704    706     1   109.8000471 387.438400
    702    701    704     1   109.5600471 388.275200
    702    701    703     1   108.4600466 328.025600
    703    701    704     1   109.5600471 388.275200
    705    704    710     1   108.7700466 392.459200
    705    704    706     1   107.5800459 329.699200
    706    704    710     1   108.7700466 392.459200
    708    707    711     1   108.7700466 392.459200
    708    707    709     1   107.5800459 329.699200
    709    707    711     1   108.7700466 392.459200
    710   1464   1465     1   117.5500507 404.174400
    711   1489   1490     1   117.5500507 404.174400
    716    719    720     1   109.5600471 388.275200
    716    719    721     1   109.5600471 388.275200
    717    716    719     1   109.5600471 388.275200
    717    716    722     1   109.8800469 414.216000
    717    716    718     1   108.4600466 328.025600
    718    716    719     1   109.5600471 388.275200
    718    716    722     1   109.8800469 414.216000
    719    739    740     1   117.6800502 383.254400
    720    719    739     1   108.8800464 416.726400
    720    719    721     1   108.4600466 328.025600
    721    719    739     1   108.8800464 416.726400
    722    723    724     1   109.8800469 414.216000
    722    723    725     1   109.8800469 414.216000
    722    726    727     1   109.8800469 414.216000
    722    726    728     1   109.8800469 414.216000
    723    732    733     1   109.8000471 387.438400
    723    732    734     1   109.8000471 387.438400
    724    723    732     1   109.5600471 388.275200
    724    723    725     1   108.4600466 328.025600
    725    723    732     1   109.5600471 388.275200
    726    729    730     1   109.8000471 387.438400
    726    729    731     1   109.8000471 387.438400
    727    726    729     1   109.5600471 388.275200
    727    726    728     1   108.4600466 328.025600
    728    726    729     1   109.5600471 388.275200
    730    729    735     1   108.7700466 392.459200
    730    729    731     1   107.5800459 329.699200
    731    729    735     1   108.7700466 392.459200
    733    732    736     1   108.7700466 392.459200
    733    732    734     1   107.5800459 329.699200
    734    732    736     1   108.7700466 392.459200
    735   1514   1515     1   117.5500507 404.174400
    736   1539   1540     1   117.5500507 404.174400
    741    744    745     1   109.5600471 388.275200
    741    744    746     1   109.5600471 388.275200
    742    741    744     1   109.5600471 388.275200
    742    741    747     1   109.8800469 414.216000
    742    741    743     1   108.4600466 328.025600
    743    741    744     1   109.5600471 388.275200
    743    741    747     1   109.8800469 414.216000
    744    764    765     1   117.6800502 383.254400
    745    744    764     1   108.8800464 416.726400
    745    744    746     1   108.4600466 328.025600
    746    744    764     1   108.8800464 416.726400
    747    748    749     1   109.8800469 414.216000
    747    748    750     1   109.8800469 414.216000
    747    751    752     1   109.8800469 414.216000
    747    751    753     1   109.8800469 414.216000
    748    757    758     1   109.8000471 387.438400
    748    757    759     1   109.8000471 387.438400
    749    748    757     1   109.5600471 388.275200
    749    748    750     1   108.4600466 328.025600
    750    748    757     1   109.5600471 388.275200
    751    754    755     1   109.8000471 387.438400
    751    754    756     1   109.8000471 387.438400
    752    751    754     1   109.5600471 388.275200
    752    751    753     1   108.4600466 328.025600
    753    751    754     1   109.5600471 388.275200
    755    754    760     1   108.7700466 392.459200
    755    754    756     1   107.5800459 329.699200
    756    754    760     1   108.7700466 392.459200
    758    757    761     1   108.7700466 392.459200
    758    757    759     1   107.5800459 329.699200
    759    757    761     1   108.7700466 392.459200
    760   1564   1565     1   117.5500507 404.174400
    761   1589   1590     1   117.5500507 404.174400
    766    769    770     1   109.5600471 388.275200
    766    769    771     1   109.5600471 388.275200
    767    766    769     1   109.5600471 388.275200
    767    766    772     1   109.8800469 414.216000
    767    766    768     1   108.4600466 328.025600
    768    766    769     1   109.5600471 388.275200
    768    766    772     1   109.8800469 414.216000
    769    789    790     1   117.6800502 383.254400
    770    769    789     1   108.8800464 416.726400
    770    769    771     1   108.4600466 328.025600
    771    769    789     1   108.8800464 416.726400
    772    773    774     1   109.8800469 414.216000
    772    773    775     1   109.8800469 414.216000
    772    776    777     1   109.8800469 414.216000
    772    776    778     1   109.8800469 414.216000
    773    782    783     1   109.8000471 387.438400
    773    782    784     1   109.8000471 387.438400
    774    773    782     1   109.5600471 388.275200
    774    773    775     1   108.4600466 328.025600
    775    773    782     1   109.5600471 388.275200
    776    779    780     1   109.8000471 387.438400
    776    779    781     1   109.8000471 387.438400
    777    776    779     1   109.5600471 388.275200
    777    776    778     1   108.4600466 328.025600
    778    776    779     1   109.5600471 388.275200
    780    779    785     1   108.7700466 392.459200
    780    779    781     1   107.5800459 329.699200
    781    779    785     1   108.7700466 392.459200
    783    782    786     1   108.7700466 392.459200
    783    782    784     1   107.5800459 329.699200
    784    782    786     1   108.7700466 392.459200
    785   1614   1615     1   117.5500507 404.174400
    786   1639   1640     1   117.5500507 404.174400
    791    794    795     1   109.5600471 388.275200
    791    794    796     1   109.5600471 388.275200
    792    791    794     1   109.5600471 388.275200
    792    791    797     1   109.8800469 414.216000
    792    791    793     1   108.4600466 328.025600
    793    791    794     1   109.5600471 388.275200
    793    791    797     1   109.8800469 414.216000
    794    814    815     1   117.6800502 383.254400
    795    794    814     1   108.8800464 416.726400
    795    794    796     1   108.4600466 328.025600
    796    794    814     1   108.8800464 416.726400
    797    798    799     1   109.8800469 414.216000
    797    798    800     1   109.8800469 414.216000
    797    801    802     1   109.8800469 414.216000
    797    801    803     1   109.8800469 414.216000
    798    807    808     1   109.8000471 387.438400
    798    807    809     1   109.8000471 387.438400
    799    798    807     1   109.5600471 388.275200
    799    798    800     1   108.4600466 328.025600
    800    798    807     1   109.5600471 388.275200
    801    804    805     1   109.8000471 387.438400
    801    804    806     1   109.8000471 387.438400
    802    801    804     1   109.5600471 388.275200
    802    801    803     1   108.4600466 328.025600
    803    801    804     1   109.5600471 388.275200
    805    804    810     1   108.7700466 392.459200
    805    804    806     1   107.5800459 329.699200
    806    804    810     1   108.7700466 392.459200
    808    807    811     1   108.7700466 392.459200
    808    807    809     1   107.5800459 329.699200
    809    807    811     1   108.7700466 392.459200
    810   1664   1665     1   117.5500507 404.174400
    811   1689   1690     1   117.5500507 404.174400
    816    819    820     1   109.5600471 388.275200
    816    819    821     1   109.5600471 388.275200
    817    816    819     1   109.5600471 388.275200
    817    816    822     1   109.8800469 414.216000
    817    816    818     1   108.4600466 328.025600
    818    816    819     1   109.5600471 388.275200
    818    816    822     1   109.8800469 414.216000
    819    839    840     1   117.6800502 383.254400
    820    819    839     1   108.8800464 416.726400
    820    819    821     1   108.4600466 328.025600
    821    819    839     1   108.8800464 416.726400
    822    823    824     1   109.8800469 414.216000
    822    823    825     1   109.8800469 414.216000
    822    826    827     1   109.8800469 414.216000
    822    826    828     1   109.8800469 414.216000
    823    832    833     1   109.8000471 387.438400
    823    832    834     1   109.8000471 387.438400
    824    823    832     1   109.5600471 388.275200
    824    823    825     1   108.4600466 328.025600
    825    823    832     1   109.5600471 388.275200
    826    829    830     1   109.8000471 387.438400
    826    829    831     1   109.8000471 387.438400
    827    826    829     1   109.5600471 388.275200
    827    826    828     1   108.4600466 328.025600
    828    826    829     1   109.5600471 388.275200
    830    829    835     1   108.7700466 392.459200
    830    829    831     1   107.5800459 329.699200
    831    829    835     1   108.7700466 392.459200
    833    832    836     1   108.7700466 392.459200
    833    832    834     1   107.5800459 329.699200
    834    832    836     1   108.7700466 392.459200
    835   1714   1715     1   117.5500507 404.174400
    836   1739   1740     1   117.5500507 404.174400
    841    844    845     1   109.5600471 388.275200
    841    844    846     1   109.5600471 388.275200
    842    841    844     1   109.5600471 388.275200
    842    841    847     1   109.8800469 414.216000
    842    841    843     1   108.4600466 328.025600
    843    841    844     1   109.5600471 388.275200
    843    841    847     1   109.8800469 414.216000
    844    864    865     1   117.6800502 383.254400
    845    844    864     1   108.8800464 416.726400
    845    844    846     1   108.4600466 328.025600
    846    844    864     1   108.8800464 416.726400
    847    848    849     1   109.8800469 414.216000
    847    848    850     1   109.8800469 414.216000
    847    851    852     1   109.8800469 414.216000
    847    851    853     1   109.8800469 414.216000
    848    857    858     1   109.8000471 387.438400
    848    857    859     1   109.8000471 387.438400
    849    848    857     1   109.5600471 388.275200
    849    848    850     1   108.4600466 328.025600
    850    848    857     1   109.5600471 388.275200
    851    854    855     1   109.8000471 387.438400
    851    854    856     1   109.8000471 387.438400
    852    851    854     1   109.5600471 388.275200
    852    851    853     1   108.4600466 328.025600
    853    851    854     1   109.5600471 388.275200
    855    854    860     1   108.7700466 392.459200
    855    854    856     1   107.5800459 329.699200
    856    854    860     1   108.7700466 392.459200
    858    857    861     1   108.7700466 392.459200
    858    857    859     1   107.5800459 329.699200
    859    857    861     1   108.7700466 392.459200
    860   1764   1765     1   117.5500507 404.174400
    861   1789   1790     1   117.5500507 404.174400
    866    869    870     1   109.5600471 388.275200
    866    869    871     1   109.5600471 388.275200
    867    866    869     1   109.5600471 388.275200
    867    866    872     1   109.8800469 414.216000
    867    866    868     1   108.4600466 328.025600
    868    866    869     1   109.5600471 388.275200
    868    866    872     1   109.8800469 414.216000
    869    889    890     1   117.6800502 383.254400
    870    869    889     1   108.8800464 416.726400
    870    869    871     1   108.4600466 328.025600
    871    869    889     1   108.8800464 416.726400
    872    873    874     1   109.8800469 414.216000
    872    873    875     1   109.8800469 414.216000
    872    876    877     1   109.8800469 414.216000
    872    876    878     1   109.8800469 414.216000
    873    882    883     1   109.8000471 387.438400
    873    882    884     1   109.8000471 387.438400
    874    873    882     1   109.5600471 388.275200
    874    873    875     1   108.4600466 328.025600
    875    873    882     1   109.5600471 388.275200
    876    879    880     1   109.8000471 387.438400
    876    879    881     1   109.8000471 387.438400
    877    876    879     1   109.5600471 388.275200
    877    876    878     1   108.4600466 328.025600
    878    876    879     1   109.5600471 388.275200
    880    879    885     1   108.7700466 392.459200
    880    879    881     1   107.5800459 329.699200
    881    879    885     1   108.7700466 392.459200
    883    882    886     1   108.7700466 392.459200
    883    882    884     1   107.5800459 329.699200
    884    882    886     1   108.7700466 392.459200
    885   1814   1815     1   117.5500507 404.174400
    886   1839   1840     1   117.5500507 404.174400
    891    894    895     1   109.5600471 388.275200
    891    894    896     1   109.5600471 388.275200
    892    891    894     1   109.5600471 388.275200
    892    891    897     1   109.8800469 414.216000
    892    891    893     1   108.4600466 328.025600
    893    891    894     1   109.5600471 388.275200
    893    891    897     1   109.8800469 414.216000
    894    914    915     1   117.6800502 383.254400
    895    894    914     1   108.8800464 416.726400
    895    894    896     1   108.4600466 328.025600
    896    894    914     1   108.8800464 416.726400
    897    898    899     1   109.8800469 414.216000
    897    898    900     1   109.8800469 414.216000
    897    901    902     1   109.8800469 414.216000
    897    901    903     1   109.8800469 414.216000
    898    907    908     1   109.8000471 387.438400
    898    907    909     1   109.8000471 387.438400
    899    898    907     1   109.5600471 388.275200
    899    898    900     1   108.4600466 328.025600
    900    898    907     1   109.5600471 388.275200
    901    904    905     1   109.8000471 387.438400
    901    904    906     1   109.8000471 387.438400
    902    901    904     1   109.5600471 388.275200
    902    901    903     1   108.4600466 328.025600
    903    901    904     1   109.5600471 388.275200
    905    904    910     1   108.7700466 392.459200
    905    904    906     1   107.5800459 329.699200
    906    904    910     1   108.7700466 392.459200
    908    907    911     1   108.7700466 392.459200
    908    907    909     1   107.5800459 329.699200
    909    907    911     1   108.7700466 392.459200
    910   1864   1865     1   117.5500507 404.174400
    911   1889   1890     1   117.5500507 404.174400
    916    919    920     1   109.5600471 388.275200
    916    919    921     1   109.5600471 388.275200
    917    916    919     1   109.5600471 388.275200
    917    916    922     1   109.8800469 414.216000
    917    916    918     1   108.4600466 328.025600
    918    916    919     1   109.5600471 388.275200
    918    916    922     1   109.8800469 414.216000
    919    939    940     1   117.6800502 383.254400
    920    919    939     1   108.8800464 416.726400
    920    919    921     1   108.4600466 328.025600
    921    919    939     1   108.8800464 416.726400
    922    923    924     1   109.8800469 414.216000
    922    923    925     1   109.8800469 414.216000
    922    926    927     1   109.8800469 414.216000
    922    926    928     1   109.8800469 414.216000
    923    932    933     1   109.8000471 387.438400
    923    932    934     1   109.8000471 387.438400
    924    923    932     1   109.5600471 388.275200
    924    923    925     1   108.4600466 328.025600
    925    923    932     1   109.5600471 388.275200
    926    929    930     1   109.8000471 387.438400
    926    929    931     1   109.8000471 387.438400
    927    926    929     1   109.5600471 388.275200
    927    926    928     1   108.4600466 328.025600
    928    926    929     1   109.5600471 388.275200
    930    929    935     1   108.7700466 392.459200
    930    929    931     1   107.5800459 329.699200
    931    929    935     1   108.7700466 392.459200
    933    932    936     1   108.7700466 392.459200
    933    932    934     1   107.5800459 329.699200
    934    932    936     1   108.7700466 392.459200
    935   1914   1915     1   117.5500507 404.174400
    936   1939   1940     1   117.5500507 404.174400
    941    944    945     1   109.5600471 388.275200
    941    944    946     1   109.5600471 388.275200
    942    941    944     1   109.5600471 388.275200
    942    941    947     1   109.8800469 414.216000
    942    941    943     1   108.4600466 328.025600
    943    941    944     1   109.5600471 388.275200
    943    941    947     1   109.8800469 414.216000
    944    964    965     1   117.6800502 383.254400
    945    944    964     1   108.8800464 416.726400
    945    944    946     1   108.4600466 328.025600
    946    944    964     1   108.8800464 416.726400
    947    948    949     1   109.8800469 414.216000
    947    948    950     1   109.8800469 414.216000
    947    951    952     1   109.8800469 414.216000
    947    951    953     1   109.8800469 414.216000
    948    957    958     1   109.8000471 387.438400
    948    957    959     1   109.8000471 387.438400
    949    948    957     1   109.5600471 388.275200
    949    948    950     1   108.4600466 328.025600
    950    948    957     1   109.5600471 388.275200
    951    954    955     1   109.8000471 387.438400
    951    954    956     1   109.8000471 387.438400
    952    951    954     1   109.5600471 388.275200
    952    951    953     1   108.4600466 328.025600
    953    951    954     1   109.5600471 388.275200
    955    954    960     1   108.7700466 392.459200
    955    954    956     1   107.5800459 329.699200
    956    954    960     1   108.7700466 392.459200
    958    957    961     1   108.7700466 392.459200
    958    957    959     1   107.5800459 329.699200
    959    957    961     1   108.7700466 392.459200
    960   1964   1965     1   117.5500507 404.174400
    961   1989   1990     1   117.5500507 404.174400
    966    969    970     1   109.5600471 388.275200
    966    969    971     1   109.5600471 388.275200
    967    966    969     1   109.5600471 388.275200
    967    966    972     1   109.8800469 414.216000
    967    966    968     1   108.4600466 328.025600
    968    966    969     1   109.5600471 388.275200
    968    966    972     1   109.8800469 414.216000
    969    989    990     1   117.6800502 383.254400
    970    969    989     1   108.8800464 416.726400
    970    969    971     1   108.4600466 328.025600
    971    969    989     1   108.8800464 416.726400
    972    973    974     1   109.8800469 414.216000
    972    973    975     1   109.8800469 414.216000
    972    976    977     1   109.8800469 414.216000
    972    976    978     1   109.8800469 414.216000
    973    982    983     1   109.8000471 387.438400
    973    982    984     1   109.8000471 387.438400
    974    973    982     1   109.5600471 388.275200
    974    973    975     1   108.4600466 328.025600
    975    973    982     1   109.5600471 388.275200
    976    979    980     1   109.8000471 387.438400
    976    979    981     1   109.8000471 387.438400
    977    976    979     1   109.5600471 388.275200
    977    976    978     1   108.4600466 328.025600
    978    976    979     1   109.5600471 388.275200
    980    979    985     1   108.7700466 392.459200
    980    979    981     1   107.5800459 329.699200
    981    979    985     1   108.7700466 392.459200
    983    982    986     1   108.7700466 392.459200
    983    982    984     1   107.5800459 329.699200
    984    982    986     1   108.7700466 392.459200
    985   2014   2015     1   117.5500507 404.174400
    986   2039   2040     1   117.5500507 404.174400
    991    994    995     1   109.5600471 388.275200
    991    994    996     1   109.5600471 388.275200
    992    991    994     1   109.5600471 388.275200
    992    991    997     1   109.8800469 414.216000
    992    991    993     1   108.4600466 328.025600
    993    991    994     1   109.5600471 388.275200
    993    991    997     1   109.8800469 414.216000
    994   1014   1015     1   117.6800502 383.254400
    995    994   1014     1   108.8800464 416.726400
    995    994    996     1   108.4600466 328.025600
    996    994   1014     1   108.8800464 416.726400
    997    998    999     1   109.8800469 414.216000
    997    998   1000     1   109.8800469 414.216000
    997   1001   1002     1   109.8800469 414.216000
    997   1001   1003     1   109.8800469 414.216000
    998   1007   1008     1   109.8000471 387.438400
    998   1007   1009     1   109.8000471 387.438400
    999    998   1007     1   109.5600471 388.275200
    999    998   1000     1   108.4600466 328.025600
   1000    998   1007     1   109.5600471 388.275200
   1001   1004   1005     1   109.8000471 387.438400
   1001   1004   1006     1   109.8000471 387.438400
   1002   1001   1004     1   109.5600471 388.275200
   1002   1001   1003     1   108.4600466 328.025600
   1003   1001   1004     1   109.5600471 388.275200
   1005   1004   1010     1   108.7700466 392.459200
   1005   1004   1006     1   107.5800459 329.699200
   1006   1004   1010     1   108.7700466 392.459200
   1008   1007   1011     1   108.7700466 392.459200
   1008   1007   1009     1   107.5800459 329.699200
   1009   1007   1011     1   108.7700466 392.459200
   1010   2064   2065     1   117.5500507 404.174400
   1011   2089   2090     1   117.5500507 404.174400
   1016   1019   1020     1   109.5600471 388.275200
   1016   1019   1021     1   109.5600471 388.275200
   1017   1016   1019     1   109.5600471 388.275200
   1017   1016   1022     1   109.8800469 414.216000
   1017   1016   1018     1   108.4600466 328.025600
   1018   1016   1019     1   109.5600471 388.275200
   1018   1016   1022     1   109.8800469 414.216000
   1019   1039   1040     1   117.6800502 383.254400
   1020   1019   1039     1   108.8800464 416.726400
   1020   1019   1021     1   108.4600466 328.025600
   1021   1019   1039     1   108.8800464 416.726400
   1022   1023   1024     1   109.8800469 414.216000
   1022   1023   1025     1   109.8800469 414.216000
   1022   1026   1027     1   109.8800469 414.216000
   1022   1026   1028     1   109.8800469 414.216000
   1023   1032   1033     1   109.8000471 387.438400
   1023   1032   1034     1   109.8000471 387.438400
   1024   1023   1032     1   109.5600471 388.275200
   1024   1023   1025     1   108.4600466 328.025600
   1025   1023   1032     1   109.5600471 388.275200
   1026   1029   1030     1   109.8000471 387.438400
   1026   1029   1031     1   109.8000471 387.438400
   1027   1026   1029     1   109.5600471 388.275200
   1027   1026   1028     1   108.4600466 328.025600
   1028   1026   1029     1   109.5600471 388.275200
   1030   1029   1035     1   108.7700466 392.459200
   1030   1029   1031     1   107.5800459 329.699200
   1031   1029   1035     1   108.7700466 392.459200
   1033   1032   1036     1   108.7700466 392.459200
   1033   1032   1034     1   107.5800459 329.699200
   1034   1032   1036     1   108.7700466 392.459200
   1035   2114   2115     1   117.5500507 404.174400
   1036   2139   2140     1   117.5500507 404.174400
   1041   1044   1045     1   109.5600471 388.275200
   1041   1044   1046     1   109.5600471 388.275200
   1042   1041   1044     1   109.5600471 388.275200
   1042   1041   1047     1   109.8800469 414.216000
   1042   1041   1043     1   108.4600466 328.025600
   1043   1041   1044     1   109.5600471 388.275200
   1043   1041   1047     1   109.8800469 414.216000
   1044   1064   1065     1   117.6800502 383.254400
   1045   1044   1064     1   108.8800464 416.726400
   1045   1044   1046     1   108.4600466 328.025600
   1046   1044   1064     1   108.8800464 416.726400
   1047   1048   1049     1   109.8800469 414.216000
   1047   1048   1050     1   109.8800469 414.216000
   1047   1051   1052     1   109.8800469 414.216000
   1047   1051   1053     1   109.8800469 414.216000
   1048   1057   1058     1   109.8000471 387.438400
   1048   1057   1059     1   109.8000471 387.438400
   1049   1048   1057     1   109.5600471 388.275200
   1049   1048   1050     1   108.4600466 328.025600
   1050   1048   1057     1   109.5600471 388.275200
   1051   1054   1055     1   109.8000471 387.438400
   1051   1054   1056     1   109.8000471 387.438400
   1052   1051   1054     1   109.5600471 388.275200
   1052   1051   1053     1   108.4600466 328.025600
   1053   1051   1054     1   109.5600471 388.275200
   1055   1054   1060     1   108.7700466 392.459200
   1055   1054   1056     1   107.5800459 329.699200
   1056   1054   1060     1   108.7700466 392.459200
   1058   1057   1061     1   108.7700466 392.459200
   1058   1057   1059     1   107.5800459 329.699200
   1059   1057   1061     1   108.7700466 392.459200
   1060   2164   2165     1   117.5500507 404.174400
   1061   2189   2190     1   117.5500507 404.174400
   1066   1069   1070     1   109.5600471 388.275200
   1066   1069   1071     1   109.5600471 388.275200
   1067   1066   1069     1   109.5600471 388.275200
   1067   1066   1072     1   109.8800469 414.216000
   1067   1066   1068     1   108.4600466 328.025600
   1068   1066   1069     1   109.5600471 388.275200
   1068   1066   1072     1   109.8800469 414.216000
   1069   1089   1090     1   117.6800502 383.254400
   1070   1069   1089     1   108.8800464 416.726400
   1070   1069   1071     1   108.4600466 328.025600
   1071   1069   1089     1   108.8800464 416.726400
   1072   1073   1074     1   109.8800469 414.216000
   1072   1073   1075     1   109.8800469 414.216000
   1072   1076   1077     1   109.8800469 414.216000
   1072   1076   1078     1   109.8800469 414.216000
   1073   1082   1083     1   109.8000471 387.438400
   1073   1082   1084     1   109.8000471 387.438400
   1074   1073   1082     1   109.5600471 388.275200
   1074   1073   1075     1   108.4600466 328.025600
   1075   1073   1082     1   109.5600471 388.275200
   1076   1079   1080     1   109.8000471 387.438400
   1076   1079   1081     1   109.8000471 387.438400
   1077   1076   1079     1   109.5600471 388.275200
   1077   1076   1078     1   108.4600466 328.025600
   1078   1076   1079     1   109.5600471 388.275200
   1080   1079   1085     1   108.7700466 392.459200
   1080   1079   1081     1   107.5800459 329.699200
   1081   1079   1085     1   108.7700466 392.459200
   1083   1082   1086     1   108.7700466 392.459200
   1083   1082   1084     1   107.5800459 329.699200
   1084   1082   1086     1   108.7700466 392.459200
   1085   2214   2215     1   117.5500507 404.174400
   1086   2239   2240     1   117.5500507 404.174400
   1091   1094   1095     1   109.5600471 388.275200
   1091   1094   1096     1   109.5600471 388.275200
   1092   1091   1094     1   109.5600471 388.275200
   1092   1091   1097     1   109.8800469 414.216000
   1092   1091   1093     1   108.4600466 328.025600
   1093   1091   1094     1   109.5600471 388.275200
   1093   1091   1097     1   109.8800469 414.216000
   1094   1114   1115     1   117.6800502 383.254400
   1095   1094   1114     1   108.8800464 416.726400
   1095   1094   1096     1   108.4600466 328.025600
   1096   1094   1114     1   108.8800464 416.726400
   1097   1098   1099     1   109.8800469 414.216000
   1097   1098   1100     1   109.8800469 414.216000
   1097   1101   1102     1   109.8800469 414.216000
   1097   1101   1103     1   109.8800469 414.216000
   1098   1107   1108     1   109.8000471 387.438400
   1098   1107   1109     1   109.8000471 387.438400
   1099   1098   1107     1   109.5600471 388.275200
   1099   1098   1100     1   108.4600466 328.025600
   1100   1098   1107     1   109.5600471 388.275200
   1101   1104   1105     1   109.8000471 387.438400
   1101   1104   1106     1   109.8000471 387.438400
   1102   1101   1104     1   109.5600471 388.275200
   1102   1101   1103     1   108.4600466 328.025600
   1103   1101   1104     1   109.5600471 388.275200
   1105   1104   1110     1   108.7700466 392.459200
   1105   1104   1106     1   107.5800459 329.699200
   1106   1104   1110     1   108.7700466 392.459200
   1108   1107   1111     1   108.7700466 392.459200
   1108   1107   1109     1   107.5800459 329.699200
   1109   1107   1111     1   108.7700466 392.459200
   1110   2264   2265     1   117.5500507 404.174400
   1111   2289   2290     1   117.5500507 404.174400
   1116   1119   1120     1   109.5600471 388.275200
   1116   1119   1121     1   109.5600471 388.275200
   1117   1116   1119     1   109.5600471 388.275200
   1117   1116   1122     1   109.8800469 414.216000
   1117   1116   1118     1   108.4600466 328.025600
   1118   1116   1119     1   109.5600471 388.275200
   1118   1116   1122     1   109.8800469 414.216000
   1119   1139   1140     1   117.6800502 383.254400
   1120   1119   1139     1   108.8800464 416.726400
   1120   1119   1121     1   108.4600466 328.025600
   1121   1119   1139     1   108.8800464 416.726400
   1122   1123   1124     1   109.8800469 414.216000
   1122   1123   1125     1   109.8800469 414.216000
   1122   1126   1127     1   109.8800469 414.216000
   1122   1126   1128     1   109.8800469 414.216000
   1123   1132   1133     1   109.8000471 387.438400
   1123   1132   1134     1   109.8000471 387.438400
   1124   1123   1132     1   109.5600471 388.275200
   1124   1123   1125     1   108.4600466 328.025600
   1125   1123   1132     1   109.5600471 388.275200
   1126   1129   1130     1   109.8000471 387.438400
   1126   1129   1131     1   109.8000471 387.438400
   1127   1126   1129     1   109.5600471 388.275200
   1127   1126   1128     1   108.4600466 328.025600
   1128   1126   1129     1   109.5600471 388.275200
   1130   1129   1135     1   108.7700466 392.459200
   1130   1129   1131     1   107.5800459 329.699200
   1131   1129   1135     1   108.7700466 392.459200
   1133   1132   1136     1   108.7700466 392.459200
   1133   1132   1134     1   107.5800459 329.699200
   1134   1132   1136     1   108.7700466 392.459200
   1135   2314   2315     1   117.5500507 404.174400
   1136   2339   2340     1   117.5500507 404.174400
   1141   1144   1145     1   109.5600471 388.275200
   1141   1144   1146     1   109.5600471 388.275200
   1142   1141   1144     1   109.5600471 388.275200
   1142   1141   1147     1   109.8800469 414.216000
   1142   1141   1143     1   108.4600466 328.025600
   1143   1141   1144     1   109.5600471 388.275200
   1143   1141   1147     1   109.8800469 414.216000
   1144   1164   1165     1   117.6800502 383.254400
   1145   1144   1164     1   108.8800464 416.726400
   1145   1144   1146     1   108.4600466 328.025600
   1146   1144   1164     1   108.8800464 416.726400
   1147   1148   1149     1   109.8800469 414.216000
   1147   1148   1150     1   109.8800469 414.216000
   1147   1151   1152     1   109.8800469 414.216000
   1147   1151   1153     1   109.8800469 414.216000
   1148   1157   1158     1   109.8000471 387.438400
   1148   1157   1159     1   109.8000471 387.438400
   1149   1148   1157     1   109.5600471 388.275200
   1149   1148   1150     1   108.4600466 328.025600
   1150   1148   1157     1   109.5600471 388.275200
   1151   1154   1155     1   109.8000471 387.438400
   1151   1154   1156     1   109.8000471 387.438400
   1152   1151   1154     1   109.5600471 388.275200
   1152   1151   1153     1   108.4600466 328.025600
   1153   1151   1154     1   109.5600471 388.275200
   1155   1154   1160     1   108.7700466 392.459200
   1155   1154   1156     1   107.5800459 329.699200
   1156   1154   1160     1   108.7700466 392.459200
   1158   1157   1161     1   108.7700466 392.459200
   1158   1157   1159     1   107.5800459 329.699200
   1159   1157   1161     1   108.7700466 392.459200
   1160   2364   2365     1   117.5500507 404.174400
   1161   2389   2390     1   117.5500507 404.174400
   1166   1169   1170     1   109.5600471 388.275200
   1166   1169   1171     1   109.5600471 388.275200
   1167   1166   1169     1   109.5600471 388.275200
   1167   1166   1172     1   109.8800469 414.216000
   1167   1166   1168     1   108.4600466 328.025600
   1168   1166   1169     1   109.5600471 388.275200
   1168   1166   1172     1   109.8800469 414.216000
   1169   1189   1190     1   117.6800502 383.254400
   1170   1169   1189     1   108.8800464 416.726400
   1170   1169   1171     1   108.4600466 328.025600
   1171   1169   1189     1   108.8800464 416.726400
   1172   1173   1174     1   109.8800469 414.216000
   1172   1173   1175     1   109.8800469 414.216000
   1172   1176   1177     1   109.8800469 414.216000
   1172   1176   1178     1   109.8800469 414.216000
   1173   1182   1183     1   109.8000471 387.438400
   1173   1182   1184     1   109.8000471 387.438400
   1174   1173   1182     1   109.5600471 388.275200
   1174   1173   1175     1   108.4600466 328.025600
   1175   1173   1182     1   109.5600471 388.275200
   1176   1179   1180     1   109.8000471 387.438400
   1176   1179   1181     1   109.8000471 387.438400
   1177   1176   1179     1   109.5600471 388.275200
   1177   1176   1178     1   108.4600466 328.025600
   1178   1176   1179     1   109.5600471 388.275200
   1180   1179   1185     1   108.7700466 392.459200
   1180   1179   1181     1   107.5800459 329.699200
   1181   1179   1185     1   108.7700466 392.459200
   1183   1182   1186     1   108.7700466 392.459200
   1183   1182   1184     1   107.5800459 329.699200
   1184   1182   1186     1   108.7700466 392.459200
   1185   2414   2415     1   117.5500507 404.174400
   1186   2439   2440     1   117.5500507 404.174400
   1191   1194   1195     1   109.5600471 388.275200
   1191   1194   1196     1   109.5600471 388.275200
   1192   1191   1194     1   109.5600471 388.275200
   1192   1191   1197     1   109.8800469 414.216000
   1192   1191   1193     1   108.4600466 328.025600
   1193   1191   1194     1   109.5600471 388.275200
   1193   1191   1197     1   109.8800469 414.216000
   1194   1214   1215     1   117.6800502 383.254400
   1195   1194   1214     1   108.8800464 416.726400
   1195   1194   1196     1   108.4600466 328.025600
   1196   1194   1214     1   108.8800464 416.726400
   1197   1198   1199     1   109.8800469 414.216000
   1197   1198   1200     1   109.8800469 414.216000
   1197   1201   1202     1   109.8800469 414.216000
   1197   1201   1203     1   109.8800469 414.216000
   1198   1207   1208     1   109.8000471 387.438400
   1198   1207   1209     1   109.8000471 387.438400
   1199   1198   1207     1   109.5600471 388.275200
   1199   1198   1200     1   108.4600466 328.025600
   1200   1198   1207     1   109.5600471 388.275200
   1201   1204   1205     1   109.8000471 387.438400
   1201   1204   1206     1   109.8000471 387.438400
   1202   1201   1204     1   109.5600471 388.275200
   1202   1201   1203     1   108.4600466 328.025600
   1203   1201   1204     1   109.5600471 388.275200
   1205   1204   1210     1   108.7700466 392.459200
   1205   1204   1206     1   107.5800459 329.699200
   1206   1204   1210     1   108.7700466 392.459200
   1208   1207   1211     1   108.7700466 392.459200
   1208   1207   1209     1   107.5800459 329.699200
   1209   1207   1211     1   108.7700466 392.459200
   1210   2464   2465     1   117.5500507 404.174400
   1211   2489   2490     1   117.5500507 404.174400
   1216   1219   1220     1   109.5600471 388.275200
   1216   1219   1221     1   109.5600471 388.275200
   1217   1216   1219     1   109.5600471 388.275200
   1217   1216   1222     1   109.8800469 414.216000
   1217   1216   1218     1   108.4600466 328.025600
   1218   1216   1219     1   109.5600471 388.275200
   1218   1216   1222     1   109.8800469 414.216000
   1219   1239   1240     1   117.6800502 383.254400
   1220   1219   1239     1   108.8800464 416.726400
   1220   1219   1221     1   108.4600466 328.025600
   1221   1219   1239     1   108.8800464 416.726400
   1222   1223   1224     1   109.8800469 414.216000
   1222   1223   1225     1   109.8800469 414.216000
   1222   1226   1227     1   109.8800469 414.216000
   1222   1226   1228     1   109.8800469 414.216000
   1223   1232   1233     1   109.8000471 387.438400
   1223   1232   1234     1   109.8000471 387.438400
   1224   1223   1232     1   109.5600471 388.275200
   1224   1223   1225     1   108.4600466 328.025600
   1225   1223   1232     1   109.5600471 388.275200
   1226   1229   1230     1   109.8000471 387.438400
   1226   1229   1231     1   109.8000471 387.438400
   1227   1226   1229     1   109.5600471 388.275200
   1227   1226   1228     1   108.4600466 328.025600
   1228   1226   1229     1   109.5600471 388.275200
   1230   1229   1235     1   108.7700466 392.459200
   1230   1229   1231     1   107.5800459 329.699200
   1231   1229   1235     1   108.7700466 392.459200
   1233   1232   1236     1   108.7700466 392.459200
   1233   1232   1234     1   107.5800459 329.699200
   1234   1232   1236     1   108.7700466 392.459200
   1235   2514   2515     1   117.5500507 404.174400
   1236   2539   2540     1   117.5500507 404.174400
   1241   1244   1245     1   109.5600471 388.275200
   1241   1244   1246     1   109.5600471 388.275200
   1242   1241   1244     1   109.5600471 388.275200
   1242   1241   1247     1   109.8800469 414.216000
   1242   1241   1243     1   108.4600466 328.025600
   1243   1241   1244     1   109.5600471 388.275200
   1243   1241   1247     1   109.8800469 414.216000
   1244   1264   1265     1   117.6800502 383.254400
   1245   1244   1264     1   108.8800464 416.726400
   1245   1244   1246     1   108.4600466 328.025600
   1246   1244   1264     1   108.8800464 416.726400
   1247   1248   1249     1   109.8800469 414.216000
   1247   1248   1250     1   109.8800469 414.216000
   1247   1251   1252     1   109.8800469 414.216000
   1247   1251   1253     1   109.8800469 414.216000
   1248   1257   1258     1   109.8000471 387.438400
   1248   1257   1259     1   109.8000471 387.438400
   1249   1248   1257     1   109.5600471 388.275200
   1249   1248   1250     1   108.4600466 328.025600
   1250   1248   1257     1   109.5600471 388.275200
   1251   1254   1255     1   109.8000471 387.438400
   1251   1254   1256     1   109.8000471 387.438400
   1252   1251   1254     1   109.5600471 388.275200
   1252   1251   1253     1   108.4600466 328.025600
   1253   1251   1254     1   109.5600471 388.275200
   1255   1254   1260     1   108.7700466 392.459200
   1255   1254   1256     1   107.5800459 329.699200
   1256   1254   1260     1   108.7700466 392.459200
   1258   1257   1261     1   108.7700466 392.459200
   1258   1257   1259     1   107.5800459 329.699200
   1259   1257   1261     1   108.7700466 392.459200
   1260   2564   2565     1   117.5500507 404.174400
   1261   2589   2590     1   117.5500507 404.174400
   1266   1269   1270     1   109.5600471 388.275200
   1266   1269   1271     1   109.5600471 388.275200
   1267   1266   1269     1   109.5600471 388.275200
   1267   1266   1272     1   109.8800469 414.216000
   1267   1266   1268     1   108.4600466 328.025600
   1268   1266   1269     1   109.5600471 388.275200
   1268   1266   1272     1   109.8800469 414.216000
   1269   1289   1290     1   117.6800502 383.254400
   1270   1269   1289     1   108.8800464 416.726400
   1270   1269   1271     1   108.4600466 328.025600
   1271   1269   1289     1   108.8800464 416.726400
   1272   1273   1274     1   109.8800469 414.216000
   1272   1273   1275     1   109.8800469 414.216000
   1272   1276   1277     1   109.8800469 414.216000
   1272   1276   1278     1   109.8800469 414.216000
   1273   1282   1283     1   109.8000471 387.438400
   1273   1282   1284     1   109.8000471 387.438400
   1274   1273   1282     1   109.5600471 388.275200
   1274   1273   1275     1   108.4600466 328.025600
   1275   1273   1282     1   109.5600471 388.275200
   1276   1279   1280     1   109.8000471 387.438400
   1276   1279   1281     1   109.8000471 387.438400
   1277   1276   1279     1   109.5600471 388.275200
   1277   1276   1278     1   108.4600466 328.025600
   1278   1276   1279     1   109.5600471 388.275200
   1280   1279   1285     1   108.7700466 392.459200
   1280   1279   1281     1   107.5800459 329.699200
   1281   1279   1285     1   108.7700466 392.459200
   1283   1282   1286     1   108.7700466 392.459200
   1283   1282   1284     1   107.5800459 329.699200
   1284   1282   1286     1   108.7700466 392.459200
   1285   2614   2615     1   117.5500507 404.174400
   1286   2639   2640     1   117.5500507 404.174400
   1291   1294   1295     1   109.5600471 388.275200
   1291   1294   1296     1   109.5600471 388.275200
   1292   1291   1294     1   109.5600471 388.275200
   1292   1291   1297     1   109.8800469 414.216000
   1292   1291   1293     1   108.4600466 328.025600
   1293   1291   1294     1   109.5600471 388.275200
   1293   1291   1297     1   109.8800469 414.216000
   1294   1314   1315     1   117.6800502 383.254400
   1295   1294   1314     1   108.8800464 416.726400
   1295   1294   1296     1   108.4600466 328.025600
   1296   1294   1314     1   108.8800464 416.726400
   1297   1298   1299     1   109.8800469 414.216000
   1297   1298   1300     1   109.8800469 414.216000
   1297   1301   1302     1   109.8800469 414.216000
   1297   1301   1303     1   109.8800469 414.216000
   1298   1307   1308     1   109.8000471 387.438400
   1298   1307   1309     1   109.8000471 387.438400
   1299   1298   1307     1   109.5600471 388.275200
   1299   1298   1300     1   108.4600466 328.025600
   1300   1298   1307     1   109.5600471 388.275200
   1301   1304   1305     1   109.8000471 387.438400
   1301   1304   1306     1   109.8000471 387.438400
   1302   1301   1304     1   109.5600471 388.275200
   1302   1301   1303     1   108.4600466 328.025600
   1303   1301   1304     1   109.5600471 388.275200
   1305   1304   1310     1   108.7700466 392.459200
   1305   1304   1306     1   107.5800459 329.699200
   1306   1304   1310     1   108.7700466 392.459200
   1308   1307   1311     1   108.7700466 392.459200
   1308   1307   1309     1   107.5800459 329.699200
   1309   1307   1311     1   108.7700466 392.459200
   1310   2664   2665     1   117.5500507 404.174400
   1311   2689   2690     1   117.5500507 404.174400
   1316   1319   1320     1   109.5600471 388.275200
   1316   1319   1321     1   109.5600471 388.275200
   1317   1316   1319     1   109.5600471 388.275200
   1317   1316   1322     1   109.8800469 414.216000
   1317   1316   1318     1   108.4600466 328.025600
   1318   1316   1319     1   109.5600471 388.275200
   1318   1316   1322     1   109.8800469 414.216000
   1319   1339   1340     1   117.6800502 383.254400
   1320   1319   1339     1   108.8800464 416.726400
   1320   1319   1321     1   108.4600466 328.025600
   1321   1319   1339     1   108.8800464 416.726400
   1322   1323   1324     1   109.8800469 414.216000
   1322   1323   1325     1   109.8800469 414.216000
   1322   1326   1327     1   109.8800469 414.216000
   1322   1326   1328     1   109.8800469 414.216000
   1323   1332   1333     1   109.8000471 387.438400
   1323   1332   1334     1   109.8000471 387.438400
   1324   1323   1332     1   109.5600471 388.275200
   1324   1323   1325     1   108.4600466 328.025600
   1325   1323   1332     1   109.5600471 388.275200
   1326   1329   1330     1   109.8000471 387.438400
   1326   1329   1331     1   109.8000471 387.438400
   1327   1326   1329     1   109.5600471 388.275200
   1327   1326   1328     1   108.4600466 328.025600
   1328   1326   1329     1   109.5600471 388.275200
   1330   1329   1335     1   108.7700466 392.459200
   1330   1329   1331     1   107.5800459 329.699200
   1331   1329   1335     1   108.7700466 392.459200
   1333   1332   1336     1   108.7700466 392.459200
   1333   1332   1334     1   107.5800459 329.699200
   1334   1332   1336     1   108.7700466 392.459200
   1335   2714   2715     1   117.5500507 404.174400
   1336   2739   2740     1   117.5500507 404.174400
   1341   1344   1345     1   109.5600471 388.275200
   1341   1344   1346     1   109.5600471 388.275200
   1342   1341   1344     1   109.5600471 388.275200
   1342   1341   1347     1   109.8800469 414.216000
   1342   1341   1343     1   108.4600466 328.025600
   1343   1341   1344     1   109.5600471 388.275200
   1343   1341   1347     1   109.8800469 414.216000
   1344   1364   1365     1   117.6800502 383.254400
   1345   1344   1364     1   108.8800464 416.726400
   1345   1344   1346     1   108.4600466 328.025600
   1346   1344   1364     1   108.8800464 416.726400
   1347   1348   1349     1   109.8800469 414.216000
   1347   1348   1350     1   109.8800469 414.216000
   1347   1351   1352     1   109.8800469 414.216000
   1347   1351   1353     1   109.8800469 414.216000
   1348   1357   1358     1   109.8000471 387.438400
   1348   1357   1359     1   109.8000471 387.438400
   1349   1348   1357     1   109.5600471 388.275200
   1349   1348   1350     1   108.4600466 328.025600
   1350   1348   1357     1   109.5600471 388.275200
   1351   1354   1355     1   109.8000471 387.438400
   1351   1354   1356     1   109.8000471 387.438400
   1352   1351   1354     1   109.5600471 388.275200
   1352   1351   1353     1   108.4600466 328.025600
   1353   1351   1354     1   109.5600471 388.275200
   1355   1354   1360     1   108.7700466 392.459200
   1355   1354   1356     1   107.5800459 329.699200
   1356   1354   1360     1   108.7700466 392.459200
   1358   1357   1361     1   108.7700466 392.459200
   1358   1357   1359     1   107.5800459 329.699200
   1359   1357   1361     1   108.7700466 392.459200
   1360   2764   2765     1   117.5500507 404.174400
   1361   2789   2790     1   117.5500507 404.174400
   1366   1369   1370     1   109.5600471 388.275200
   1366   1369   1371     1   109.5600471 388.275200
   1367   1366   1369     1   109.5600471 388.275200
   1367   1366   1372     1   109.8800469 414.216000
   1367   1366   1368     1   108.4600466 328.025600
   1368   1366   1369     1   109.5600471 388.275200
   1368   1366   1372     1   109.8800469 414.216000
   1369   1389   1390     1   117.6800502 383.254400
   1370   1369   1389     1   108.8800464 416.726400
   1370   1369   1371     1   108.4600466 328.025600
   1371   1369   1389     1   108.8800464 416.726400
   1372   1373   1374     1   109.8800469 414.216000
   1372   1373   1375     1   109.8800469 414.216000
   1372   1376   1377     1   109.8800469 414.216000
   1372   1376   1378     1   109.8800469 414.216000
   1373   1382   1383     1   109.8000471 387.438400
   1373   1382   1384     1   109.8000471 387.438400
   1374   1373   1382     1   109.5600471 388.275200
   1374   1373   1375     1   108.4600466 328.025600
   1375   1373   1382     1   109.5600471 388.275200
   1376   1379   1380     1   109.8000471 387.438400
   1376   1379   1381     1   109.8000471 387.438400
   1377   1376   1379     1   109.5600471 388.275200
   1377   1376   1378     1   108.4600466 328.025600
   1378   1376   1379     1   109.5600471 388.275200
   1380   1379   1385     1   108.7700466 392.459200
   1380   1379   1381     1   107.5800459 329.699200
   1381   1379   1385     1   108.7700466 392.459200
   1383   1382   1386     1   108.7700466 392.459200
   1383   1382   1384     1   107.5800459 329.699200
   1384   1382   1386     1   108.7700466 392.459200
   1385   2814   2815     1   117.5500507 404.174400
   1386   2839   2840     1   117.5500507 404.174400
   1391   1394   1395     1   109.5600471 388.275200
   1391   1394   1396     1   109.5600471 388.275200
   1392   1391   1394     1   109.5600471 388.275200
   1392   1391   1397     1   109.8800469 414.216000
   1392   1391   1393     1   108.4600466 328.025600
   1393   1391   1394     1   109.5600471 388.275200
   1393   1391   1397     1   109.8800469 414.216000
   1394   1414   1415     1   117.6800502 383.254400
   1395   1394   1414     1   108.8800464 416.726400
   1395   1394   1396     1   108.4600466 328.025600
   1396   1394   1414     1   108.8800464 416.726400
   1397   1398   1399     1   109.8800469 414.216000
   1397   1398   1400     1   109.8800469 414.216000
   1397   1401   1402     1   109.8800469 414.216000
   1397   1401   1403     1   109.8800469 414.216000
   1398   1407   1408     1   109.8000471 387.438400
   1398   1407   1409     1   109.8000471 387.438400
   1399   1398   1407     1   109.5600471 388.275200
   1399   1398   1400     1   108.4600466 328.025600
   1400   1398   1407     1   109.5600471 388.275200
   1401   1404   1405     1   109.8000471 387.438400
   1401   1404   1406     1   109.8000471 387.438400
   1402   1401   1404     1   109.5600471 388.275200
   1402   1401   1403     1   108.4600466 328.025600
   1403   1401   1404     1   109.5600471 388.275200
   1405   1404   1410     1   108.7700466 392.459200
   1405   1404   1406     1   107.5800459 329.699200
   1406   1404   1410     1   108.7700466 392.459200
   1408   1407   1411     1   108.7700466 392.459200
   1408   1407   1409     1   107.5800459 329.699200
   1409   1407   1411     1   108.7700466 392.459200
   1410   2864   2865     1   117.5500507 404.174400
   1411   2889   2890     1   117.5500507 404.174400
   1416   1419   1420     1   109.5600471 388.275200
   1416   1419   1421     1   109.5600471 388.275200
   1417   1416   1419     1   109.5600471 388.275200
   1417   1416   1422     1   109.8800469 414.216000
   1417   1416   1418     1   108.4600466 328.025600
   1418   1416   1419     1   109.5600471 388.275200
   1418   1416   1422     1   109.8800469 414.216000
   1419   1439   1440     1   117.6800502 383.254400
   1420   1419   1439     1   108.8800464 416.726400
   1420   1419   1421     1   108.4600466 328.025600
   1421   1419   1439     1   108.8800464 416.726400
   1422   1423   1424     1   109.8800469 414.216000
   1422   1423   1425     1   109.8800469 414.216000
   1422   1426   1427     1   109.8800469 414.216000
   1422   1426   1428     1   109.8800469 414.216000
   1423   1432   1433     1   109.8000471 387.438400
   1423   1432   1434     1   109.8000471 387.438400
   1424   1423   1432     1   109.5600471 388.275200
   1424   1423   1425     1   108.4600466 328.025600
   1425   1423   1432     1   109.5600471 388.275200
   1426   1429   1430     1   109.8000471 387.438400
   1426   1429   1431     1   109.8000471 387.438400
   1427   1426   1429     1   109.5600471 388.275200
   1427   1426   1428     1   108.4600466 328.025600
   1428   1426   1429     1   109.5600471 388.275200
   1430   1429   1435     1   108.7700466 392.459200
   1430   1429   1431     1   107.5800459 329.699200
   1431   1429   1435     1   108.7700466 392.459200
   1433   1432   1436     1   108.7700466 392.459200
   1433   1432   1434     1   107.5800459 329.699200
   1434   1432   1436     1   108.7700466 392.459200
   1435   2914   2915     1   117.5500507 404.174400
   1436   2939   2940     1   117.5500507 404.174400
   1441   1444   1445     1   109.5600471 388.275200
   1441   1444   1446     1   109.5600471 388.275200
   1442   1441   1444     1   109.5600471 388.275200
   1442   1441   1447     1   109.8800469 414.216000
   1442   1441   1443     1   108.4600466 328.025600
   1443   1441   1444     1   109.5600471 388.275200
   1443   1441   1447     1   109.8800469 414.216000
   1444   1464   1465     1   117.6800502 383.254400
   1445   1444   1464     1   108.8800464 416.726400
   1445   1444   1446     1   108.4600466 328.025600
   1446   1444   1464     1   108.8800464 416.726400
   1447   1448   1449     1   109.8800469 414.216000
   1447   1448   1450     1   109.8800469 414.216000
   1447   1451   1452     1   109.8800469 414.216000
   1447   1451   1453     1   109.8800469 414.216000
   1448   1457   1458     1   109.8000471 387.438400
   1448   1457   1459     1   109.8000471 387.438400
   1449   1448   1457     1   109.5600471 388.275200
   1449   1448   1450     1   108.4600466 328.025600
   1450   1448   1457     1   109.5600471 388.275200
   1451   1454   1455     1   109.8000471 387.438400
   1451   1454   1456     1   109.8000471 387.438400
   1452   1451   1454     1   109.5600471 388.275200
   1452   1451   1453     1   108.4600466 328.025600
   1453   1451   1454     1   109.5600471 388.275200
   1455   1454   1460     1   108.7700466 392.459200
   1455   1454   1456     1   107.5800459 329.699200
   1456   1454   1460     1   108.7700466 392.459200
   1458   1457   1461     1   108.7700466 392.459200
   1458   1457   1459     1   107.5800459 329.699200
   1459   1457   1461     1   108.7700466 392.459200
   1460   2964   2965     1   117.5500507 404.174400
   1461   2989   2990     1   117.5500507 404.174400
   1466   1469   1470     1   109.5600471 388.275200
   1466   1469   1471     1   109.5600471 388.275200
   1467   1466   1469     1   109.5600471 388.275200
   1467   1466   1472     1   109.8800469 414.216000
   1467   1466   1468     1   108.4600466 328.025600
   1468   1466   1469     1   109.5600471 388.275200
   1468   1466   1472     1   109.8800469 414.216000
   1469   1489   1490     1   117.6800502 383.254400
   1470   1469   1489     1   108.8800464 416.726400
   1470   1469   1471     1   108.4600466 328.025600
   1471   1469   1489     1   108.8800464 416.726400
   1472   1473   1474     1   109.8800469 414.216000
   1472   1473   1475     1   109.8800469 414.216000
   1472   1476   1477     1   109.8800469 414.216000
   1472   1476   1478     1   109.8800469 414.216000
   1473   1482   1483     1   109.8000471 387.438400
   1473   1482   1484     1   109.8000471 387.438400
   1474   1473   1482     1   109.5600471 388.275200
   1474   1473   1475     1   108.4600466 328.025600
   1475   1473   1482     1   109.5600471 388.275200
   1476   1479   1480     1   109.8000471 387.438400
   1476   1479   1481     1   109.8000471 387.438400
   1477   1476   1479     1   109.5600471 388.275200
   1477   1476   1478     1   108.4600466 328.025600
   1478   1476   1479     1   109.5600471 388.275200
   1480   1479   1485     1   108.7700466 392.459200
   1480   1479   1481     1   107.5800459 329.699200
   1481   1479   1485     1   108.7700466 392.459200
   1483   1482   1486     1   108.7700466 392.459200
   1483   1482   1484     1   107.5800459 329.699200
   1484   1482   1486     1   108.7700466 392.459200
   1485   3014   3015     1   117.5500507 404.174400
   1486   3039   3040     1   117.5500507 404.174400
   1491   1494   1495     1   109.5600471 388.275200
   1491   1494   1496     1   109.5600471 388.275200
   1492   1491   1494     1   109.5600471 388.275200
   1492   1491   1497     1   109.8800469 414.216000
   1492   1491   1493     1   108.4600466 328.025600
   1493   1491   1494     1   109.5600471 388.275200
   1493   1491   1497     1   109.8800469 414.216000
   1494   1514   1515     1   117.6800502 383.254400
   1495   1494   1514     1   108.8800464 416.726400
   1495   1494   1496     1   108.4600466 328.025600
   1496   1494   1514     1   108.8800464 416.726400
   1497   1498   1499     1   109.8800469 414.216000
   1497   1498   1500     1   109.8800469 414.216000
   1497   1501   1502     1   109.8800469 414.216000
   1497   1501   1503     1   109.8800469 414.216000
   1498   1507   1508     1   109.8000471 387.438400
   1498   1507   1509     1   109.8000471 387.438400
   1499   1498   1507     1   109.5600471 388.275200
   1499   1498   1500     1   108.4600466 328.025600
   1500   1498   1507     1   109.5600471 388.275200
   1501   1504   1505     1   109.8000471 387.438400
   1501   1504   1506     1   109.8000471 387.438400
   1502   1501   1504     1   109.5600471 388.275200
   1502   1501   1503     1   108.4600466 328.025600
   1503   1501   1504     1   109.5600471 388.275200
   1505   1504   1510     1   108.7700466 392.459200
   1505   1504   1506     1   107.5800459 329.699200
   1506   1504   1510     1   108.7700466 392.459200
   1508   1507   1511     1   108.7700466 392.459200
   1508   1507   1509     1   107.5800459 329.699200
   1509   1507   1511     1   108.7700466 392.459200
   1510   3064   3065     1   117.5500507 404.174400
   1511   3089   3090     1   117.5500507 404.174400
   1516   1519   1520     1   109.5600471 388.275200
   1516   1519   1521     1   109.5600471 388.275200
   1517   1516   1519     1   109.5600471 388.275200
   1517   1516   1522     1   109.8800469 414.216000
   1517   1516   1518     1   108.4600466 328.025600
   1518   1516   1519     1   109.5600471 388.275200
   1518   1516   1522     1   109.8800469 414.216000
   1519   1539   1540     1   117.6800502 383.254400
   1520   1519   1539     1   108.8800464 416.726400
   1520   1519   1521     1   108.4600466 328.025600
   1521   1519   1539     1   108.8800464 416.726400
   1522   1523   1524     1   109.8800469 414.216000
   1522   1523   1525     1   109.8800469 414.216000
   1522   1526   1527     1   109.8800469 414.216000
   1522   1526   1528     1   109.8800469 414.216000
   1523   1532   1533     1   109.8000471 387.438400
   1523   1532   1534     1   109.8000471 387.438400
   1524   1523   1532     1   109.5600471 388.275200
   1524   1523   1525     1   108.4600466 328.025600
   1525   1523   1532     1   109.5600471 388.275200
   1526   1529   1530     1   109.8000471 387.438400
   1526   1529   1531     1   109.8000471 387.438400
   1527   1526   1529     1   109.5600471 388.275200
   1527   1526   1528     1   108.4600466 328.025600
   1528   1526   1529     1   109.5600471 388.275200
   1530   1529   1535     1   108.7700466 392.459200
   1530   1529   1531     1   107.5800459 329.699200
   1531   1529   1535     1   108.7700466 392.459200
   1533   1532   1536     1   108.7700466 392.459200
   1533   1532   1534     1   107.5800459 329.699200
   1534   1532   1536     1   108.7700466 392.459200
   1535   3114   3115     1   117.5500507 404.174400
   1536   3139   3140     1   117.5500507 404.174400
   1541   1544   1545     1   109.5600471 388.275200
   1541   1544   1546     1   109.5600471 388.275200
   1542   1541   1544     1   109.5600471 388.275200
   1542   1541   1547     1   109.8800469 414.216000
   1542   1541   1543     1   108.4600466 328.025600
   1543   1541   1544     1   109.5600471 388.275200
   1543   1541   1547     1   109.8800469 414.216000
   1544   1564   1565     1   117.6800502 383.254400
   1545   1544   1564     1   108.8800464 416.726400
   1545   1544   1546     1   108.4600466 328.025600
   1546   1544   1564     1   108.8800464 416.726400
   1547   1548   1549     1   109.8800469 414.216000
   1547   1548   1550     1   109.8800469 414.216000
   1547   1551   1552     1   109.8800469 414.216000
   1547   1551   1553     1   109.8800469 414.216000
   1548   1557   1558     1   109.8000471 387.438400
   1548   1557   1559     1   109.8000471 387.438400
   1549   1548   1557     1   109.5600471 388.275200
   1549   1548   1550     1   108.4600466 328.025600
   1550   1548   1557     1   109.5600471 388.275200
   1551   1554   1555     1   109.8000471 387.438400
   1551   1554   1556     1   109.8000471 387.438400
   1552   1551   1554     1   109.5600471 388.275200
   1552   1551   1553     1   108.4600466 328.025600
   1553   1551   1554     1   109.5600471 388.275200
   1555   1554   1560     1   108.7700466 392.459200
   1555   1554   1556     1   107.5800459 329.699200
   1556   1554   1560     1   108.7700466 392.459200
   1558   1557   1561     1   108.7700466 392.459200
   1558   1557   1559     1   107.5800459 329.699200
   1559   1557   1561     1   108.7700466 392.459200
   1560   3141   3142     1   117.5500507 404.174400
   1561   3170   3171     1   117.5500507 404.174400
   1566   1569   1570     1   109.5600471 388.275200
   1566   1569   1571     1   109.5600471 388.275200
   1567   1566   1569     1   109.5600471 388.275200
   1567   1566   1572     1   109.8800469 414.216000
   1567   1566   1568     1   108.4600466 328.025600
   1568   1566   1569     1   109.5600471 388.275200
   1568   1566   1572     1   109.8800469 414.216000
   1569   1589   1590     1   117.6800502 383.254400
   1570   1569   1589     1   108.8800464 416.726400
   1570   1569   1571     1   108.4600466 328.025600
   1571   1569   1589     1   108.8800464 416.726400
   1572   1573   1574     1   109.8800469 414.216000
   1572   1573   1575     1   109.8800469 414.216000
   1572   1576   1577     1   109.8800469 414.216000
   1572   1576   1578     1   109.8800469 414.216000
   1573   1582   1583     1   109.8000471 387.438400
   1573   1582   1584     1   109.8000471 387.438400
   1574   1573   1582     1   109.5600471 388.275200
   1574   1573   1575     1   108.4600466 328.025600
   1575   1573   1582     1   109.5600471 388.275200
   1576   1579   1580     1   109.8000471 387.438400
   1576   1579   1581     1   109.8000471 387.438400
   1577   1576   1579     1   109.5600471 388.275200
   1577   1576   1578     1   108.4600466 328.025600
   1578   1576   1579     1   109.5600471 388.275200
   1580   1579   1585     1   108.7700466 392.459200
   1580   1579   1581     1   107.5800459 329.699200
   1581   1579   1585     1   108.7700466 392.459200
   1583   1582   1586     1   108.7700466 392.459200
   1583   1582   1584     1   107.5800459 329.699200
   1584   1582   1586     1   108.7700466 392.459200
   1585   3199   3200     1   117.5500507 404.174400
   1586   3228   3229     1   117.5500507 404.174400
   1591   1594   1595     1   109.5600471 388.275200
   1591   1594   1596     1   109.5600471 388.275200
   1592   1591   1594     1   109.5600471 388.275200
   1592   1591   1597     1   109.8800469 414.216000
   1592   1591   1593     1   108.4600466 328.025600
   1593   1591   1594     1   109.5600471 388.275200
   1593   1591   1597     1   109.8800469 414.216000
   1594   1614   1615     1   117.6800502 383.254400
   1595   1594   1614     1   108.8800464 416.726400
   1595   1594   1596     1   108.4600466 328.025600
   1596   1594   1614     1   108.8800464 416.726400
   1597   1598   1599     1   109.8800469 414.216000
   1597   1598   1600     1   109.8800469 414.216000
   1597   1601   1602     1   109.8800469 414.216000
   1597   1601   1603     1   109.8800469 414.216000
   1598   1607   1608     1   109.8000471 387.438400
   1598   1607   1609     1   109.8000471 387.438400
   1599   1598   1607     1   109.5600471 388.275200
   1599   1598   1600     1   108.4600466 328.025600
   1600   1598   1607     1   109.5600471 388.275200
   1601   1604   1605     1   109.8000471 387.438400
   1601   1604   1606     1   109.8000471 387.438400
   1602   1601   1604     1   109.5600471 388.275200
   1602   1601   1603     1   108.4600466 328.025600
   1603   1601   1604     1   109.5600471 388.275200
   1605   1604   1610     1   108.7700466 392.459200
   1605   1604   1606     1   107.5800459 329.699200
   1606   1604   1610     1   108.7700466 392.459200
   1608   1607   1611     1   108.7700466 392.459200
   1608   1607   1609     1   107.5800459 329.699200
   1609   1607   1611     1   108.7700466 392.459200
   1610   3257   3258     1   117.5500507 404.174400
   1611   3286   3287     1   117.5500507 404.174400
   1616   1619   1620     1   109.5600471 388.275200
   1616   1619   1621     1   109.5600471 388.275200
   1617   1616   1619     1   109.5600471 388.275200
   1617   1616   1622     1   109.8800469 414.216000
   1617   1616   1618     1   108.4600466 328.025600
   1618   1616   1619     1   109.5600471 388.275200
   1618   1616   1622     1   109.8800469 414.216000
   1619   1639   1640     1   117.6800502 383.254400
   1620   1619   1639     1   108.8800464 416.726400
   1620   1619   1621     1   108.4600466 328.025600
   1621   1619   1639     1   108.8800464 416.726400
   1622   1623   1624     1   109.8800469 414.216000
   1622   1623   1625     1   109.8800469 414.216000
   1622   1626   1627     1   109.8800469 414.216000
   1622   1626   1628     1   109.8800469 414.216000
   1623   1632   1633     1   109.8000471 387.438400
   1623   1632   1634     1   109.8000471 387.438400
   1624   1623   1632     1   109.5600471 388.275200
   1624   1623   1625     1   108.4600466 328.025600
   1625   1623   1632     1   109.5600471 388.275200
   1626   1629   1630     1   109.8000471 387.438400
   1626   1629   1631     1   109.8000471 387.438400
   1627   1626   1629     1   109.5600471 388.275200
   1627   1626   1628     1   108.4600466 328.025600
   1628   1626   1629     1   109.5600471 388.275200
   1630   1629   1635     1   108.7700466 392.459200
   1630   1629   1631     1   107.5800459 329.699200
   1631   1629   1635     1   108.7700466 392.459200
   1633   1632   1636     1   108.7700466 392.459200
   1633   1632   1634     1   107.5800459 329.699200
   1634   1632   1636     1   108.7700466 392.459200
   1635   3315   3316     1   117.5500507 404.174400
   1636   3344   3345     1   117.5500507 404.174400
   1641   1644   1645     1   109.5600471 388.275200
   1641   1644   1646     1   109.5600471 388.275200
   1642   1641   1644     1   109.5600471 388.275200
   1642   1641   1647     1   109.8800469 414.216000
   1642   1641   1643     1   108.4600466 328.025600
   1643   1641   1644     1   109.5600471 388.275200
   1643   1641   1647     1   109.8800469 414.216000
   1644   1664   1665     1   117.6800502 383.254400
   1645   1644   1664     1   108.8800464 416.726400
   1645   1644   1646     1   108.4600466 328.025600
   1646   1644   1664     1   108.8800464 416.726400
   1647   1648   1649     1   109.8800469 414.216000
   1647   1648   1650     1   109.8800469 414.216000
   1647   1651   1652     1   109.8800469 414.216000
   1647   1651   1653     1   109.8800469 414.216000
   1648   1657   1658     1   109.8000471 387.438400
   1648   1657   1659     1   109.8000471 387.438400
   1649   1648   1657     1   109.5600471 388.275200
   1649   1648   1650     1   108.4600466 328.025600
   1650   1648   1657     1   109.5600471 388.275200
   1651   1654   1655     1   109.8000471 387.438400
   1651   1654   1656     1   109.8000471 387.438400
   1652   1651   1654     1   109.5600471 388.275200
   1652   1651   1653     1   108.4600466 328.025600
   1653   1651   1654     1   109.5600471 388.275200
   1655   1654   1660     1   108.7700466 392.459200
   1655   1654   1656     1   107.5800459 329.699200
   1656   1654   1660     1   108.7700466 392.459200
   1658   1657   1661     1   108.7700466 392.459200
   1658   1657   1659     1   107.5800459 329.699200
   1659   1657   1661     1   108.7700466 392.459200
   1660   3373   3374     1   117.5500507 404.174400
   1661   3402   3403     1   117.5500507 404.174400
   1666   1669   1670     1   109.5600471 388.275200
   1666   1669   1671     1   109.5600471 388.275200
   1667   1666   1669     1   109.5600471 388.275200
   1667   1666   1672     1   109.8800469 414.216000
   1667   1666   1668     1   108.4600466 328.025600
   1668   1666   1669     1   109.5600471 388.275200
   1668   1666   1672     1   109.8800469 414.216000
   1669   1689   1690     1   117.6800502 383.254400
   1670   1669   1689     1   108.8800464 416.726400
   1670   1669   1671     1   108.4600466 328.025600
   1671   1669   1689     1   108.8800464 416.726400
   1672   1673   1674     1   109.8800469 414.216000
   1672   1673   1675     1   109.8800469 414.216000
   1672   1676   1677     1   109.8800469 414.216000
   1672   1676   1678     1   109.8800469 414.216000
   1673   1682   1683     1   109.8000471 387.438400
   1673   1682   1684     1   109.8000471 387.438400
   1674   1673   1682     1   109.5600471 388.275200
   1674   1673   1675     1   108.4600466 328.025600
   1675   1673   1682     1   109.5600471 388.275200
   1676   1679   1680     1   109.8000471 387.438400
   1676   1679   1681     1   109.8000471 387.438400
   1677   1676   1679     1   109.5600471 388.275200
   1677   1676   1678     1   108.4600466 328.025600
   1678   1676   1679     1   109.5600471 388.275200
   1680   1679   1685     1   108.7700466 392.459200
   1680   1679   1681     1   107.5800459 329.699200
   1681   1679   1685     1   108.7700466 392.459200
   1683   1682   1686     1   108.7700466 392.459200
   1683   1682   1684     1   107.5800459 329.699200
   1684   1682   1686     1   108.7700466 392.459200
   1685   3431   3432     1   117.5500507 404.174400
   1686   3460   3461     1   117.5500507 404.174400
   1691   1694   1695     1   109.5600471 388.275200
   1691   1694   1696     1   109.5600471 388.275200
   1692   1691   1694     1   109.5600471 388.275200
   1692   1691   1697     1   109.8800469 414.216000
   1692   1691   1693     1   108.4600466 328.025600
   1693   1691   1694     1   109.5600471 388.275200
   1693   1691   1697     1   109.8800469 414.216000
   1694   1714   1715     1   117.6800502 383.254400
   1695   1694   1714     1   108.8800464 416.726400
   1695   1694   1696     1   108.4600466 328.025600
   1696   1694   1714     1   108.8800464 416.726400
   1697   1698   1699     1   109.8800469 414.216000
   1697   1698   1700     1   109.8800469 414.216000
   1697   1701   1702     1   109.8800469 414.216000
   1697   1701   1703     1   109.8800469 414.216000
   1698   1707   1708     1   109.8000471 387.438400
   1698   1707   1709     1   109.8000471 387.438400
   1699   1698   1707     1   109.5600471 388.275200
   1699   1698   1700     1   108.4600466 328.025600
   1700   1698   1707     1   109.5600471 388.275200
   1701   1704   1705     1   109.8000471 387.438400
   1701   1704   1706     1   109.8000471 387.438400
   1702   1701   1704     1   109.5600471 388.275200
   1702   1701   1703     1   108.4600466 328.025600
   1703   1701   1704     1   109.5600471 388.275200
   1705   1704   1710     1   108.7700466 392.459200
   1705   1704   1706     1   107.5800459 329.699200
   1706   1704   1710     1   108.7700466 392.459200
   1708   1707   1711     1   108.7700466 392.459200
   1708   1707   1709     1   107.5800459 329.699200
   1709   1707   1711     1   108.7700466 392.459200
   1710   3489   3490     1   117.5500507 404.174400
   1711   3518   3519     1   117.5500507 404.174400
   1716   1719   1720     1   109.5600471 388.275200
   1716   1719   1721     1   109.5600471 388.275200
   1717   1716   1719     1   109.5600471 388.275200
   1717   1716   1722     1   109.8800469 414.216000
   1717   1716   1718     1   108.4600466 328.025600
   1718   1716   1719     1   109.5600471 388.275200
   1718   1716   1722     1   109.8800469 414.216000
   1719   1739   1740     1   117.6800502 383.254400
   1720   1719   1739     1   108.8800464 416.726400
   1720   1719   1721     1   108.4600466 328.025600
   1721   1719   1739     1   108.8800464 416.726400
   1722   1723   1724     1   109.8800469 414.216000
   1722   1723   1725     1   109.8800469 414.216000
   1722   1726   1727     1   109.8800469 414.216000
   1722   1726   1728     1   109.8800469 414.216000
   1723   1732   1733     1   109.8000471 387.438400
   1723   1732   1734     1   109.8000471 387.438400
   1724   1723   1732     1   109.5600471 388.275200
   1724   1723   1725     1   108.4600466 328.025600
   1725   1723   1732     1   109.5600471 388.275200
   1726   1729   1730     1   109.8000471 387.438400
   1726   1729   1731     1   109.8000471 387.438400
   1727   1726   1729     1   109.5600471 388.275200
   1727   1726   1728     1   108.4600466 328.025600
   1728   1726   1729     1   109.5600471 388.275200
   1730   1729   1735     1   108.7700466 392.459200
   1730   1729   1731     1   107.5800459 329.699200
   1731   1729   1735     1   108.7700466 392.459200
   1733   1732   1736     1   108.7700466 392.459200
   1733   1732   1734     1   107.5800459 329.699200
   1734   1732   1736     1   108.7700466 392.459200
   1735   3547   3548     1   117.5500507 404.174400
   1736   3576   3577     1   117.5500507 404.174400
   1741   1744   1745     1   109.5600471 388.275200
   1741   1744   1746     1   109.5600471 388.275200
   1742   1741   1744     1   109.5600471 388.275200
   1742   1741   1747     1   109.8800469 414.216000
   1742   1741   1743     1   108.4600466 328.025600
   1743   1741   1744     1   109.5600471 388.275200
   1743   1741   1747     1   109.8800469 414.216000
   1744   1764   1765     1   117.6800502 383.254400
   1745   1744   1764     1   108.8800464 416.726400
   1745   1744   1746     1   108.4600466 328.025600
   1746   1744   1764     1   108.8800464 416.726400
   1747   1748   1749     1   109.8800469 414.216000
   1747   1748   1750     1   109.8800469 414.216000
   1747   1751   1752     1   109.8800469 414.216000
   1747   1751   1753     1   109.8800469 414.216000
   1748   1757   1758     1   109.8000471 387.438400
   1748   1757   1759     1   109.8000471 387.438400
   1749   1748   1757     1   109.5600471 388.275200
   1749   1748   1750     1   108.4600466 328.025600
   1750   1748   1757     1   109.5600471 388.275200
   1751   1754   1755     1   109.8000471 387.438400
   1751   1754   1756     1   109.8000471 387.438400
   1752   1751   1754     1   109.5600471 388.275200
   1752   1751   1753     1   108.4600466 328.025600
   1753   1751   1754     1   109.5600471 388.275200
   1755   1754   1760     1   108.7700466 392.459200
   1755   1754   1756     1   107.5800459 329.699200
   1756   1754   1760     1   108.7700466 392.459200
   1758   1757   1761     1   108.7700466 392.459200
   1758   1757   1759     1   107.5800459 329.699200
   1759   1757   1761     1   108.7700466 392.459200
   1760   3605   3606     1   117.5500507 404.174400
   1761   3634   3635     1   117.5500507 404.174400
   1766   1769   1770     1   109.5600471 388.275200
   1766   1769   1771     1   109.5600471 388.275200
   1767   1766   1769     1   109.5600471 388.275200
   1767   1766   1772     1   109.8800469 414.216000
   1767   1766   1768     1   108.4600466 328.025600
   1768   1766   1769     1   109.5600471 388.275200
   1768   1766   1772     1   109.8800469 414.216000
   1769   1789   1790     1   117.6800502 383.254400
   1770   1769   1789     1   108.8800464 416.726400
   1770   1769   1771     1   108.4600466 328.025600
   1771   1769   1789     1   108.8800464 416.726400
   1772   1773   1774     1   109.8800469 414.216000
   1772   1773   1775     1   109.8800469 414.216000
   1772   1776   1777     1   109.8800469 414.216000
   1772   1776   1778     1   109.8800469 414.216000
   1773   1782   1783     1   109.8000471 387.438400
   1773   1782   1784     1   109.8000471 387.438400
   1774   1773   1782     1   109.5600471 388.275200
   1774   1773   1775     1   108.4600466 328.025600
   1775   1773   1782     1   109.5600471 388.275200
   1776   1779   1780     1   109.8000471 387.438400
   1776   1779   1781     1   109.8000471 387.438400
   1777   1776   1779     1   109.5600471 388.275200
   1777   1776   1778     1   108.4600466 328.025600
   1778   1776   1779     1   109.5600471 388.275200
   1780   1779   1785     1   108.7700466 392.459200
   1780   1779   1781     1   107.5800459 329.699200
   1781   1779   1785     1   108.7700466 392.459200
   1783   1782   1786     1   108.7700466 392.459200
   1783   1782   1784     1   107.5800459 329.699200
   1784   1782   1786     1   108.7700466 392.459200
   1785   3663   3664     1   117.5500507 404.174400
   1786   3692   3693     1   117.5500507 404.174400
   1791   1794   1795     1   109.5600471 388.275200
   1791   1794   1796     1   109.5600471 388.275200
   1792   1791   1794     1   109.5600471 388.275200
   1792   1791   1797     1   109.8800469 414.216000
   1792   1791   1793     1   108.4600466 328.025600
   1793   1791   1794     1   109.5600471 388.275200
   1793   1791   1797     1   109.8800469 414.216000
   1794   1814   1815     1   117.6800502 383.254400
   1795   1794   1814     1   108.8800464 416.726400
   1795   1794   1796     1   108.4600466 328.025600
   1796   1794   1814     1   108.8800464 416.726400
   1797   1798   1799     1   109.8800469 414.216000
   1797   1798   1800     1   109.8800469 414.216000
   1797   1801   1802     1   109.8800469 414.216000
   1797   1801   1803     1   109.8800469 414.216000
   1798   1807   1808     1   109.8000471 387.438400
   1798   1807   1809     1   109.8000471 387.438400
   1799   1798   1807     1   109.5600471 388.275200
   1799   1798   1800     1   108.4600466 328.025600
   1800   1798   1807     1   109.5600471 388.275200
   1801   1804   1805     1   109.8000471 387.438400
   1801   1804   1806     1   109.8000471 387.438400
   1802   1801   1804     1   109.5600471 388.275200
   1802   1801   1803     1   108.4600466 328.025600
   1803   1801   1804     1   109.5600471 388.275200
   1805   1804   1810     1   108.7700466 392.459200
   1805   1804   1806     1   107.5800459 329.699200
   1806   1804   1810     1   108.7700466 392.459200
   1808   1807   1811     1   108.7700466 392.459200
   1808   1807   1809     1   107.5800459 329.699200
   1809   1807   1811     1   108.7700466 392.459200
   1810   3721   3722     1   117.5500507 404.174400
   1811   3750   3751     1   117.5500507 404.174400
   1816   1819   1820     1   109.5600471 388.275200
   1816   1819   1821     1   109.5600471 388.275200
   1817   1816   1819     1   109.5600471 388.275200
   1817   1816   1822     1   109.8800469 414.216000
   1817   1816   1818     1   108.4600466 328.025600
   1818   1816   1819     1   109.5600471 388.275200
   1818   1816   1822     1   109.8800469 414.216000
   1819   1839   1840     1   117.6800502 383.254400
   1820   1819   1839     1   108.8800464 416.726400
   1820   1819   1821     1   108.4600466 328.025600
   1821   1819   1839     1   108.8800464 416.726400
   1822   1823   1824     1   109.8800469 414.216000
   1822   1823   1825     1   109.8800469 414.216000
   1822   1826   1827     1   109.8800469 414.216000
   1822   1826   1828     1   109.8800469 414.216000
   1823   1832   1833     1   109.8000471 387.438400
   1823   1832   1834     1   109.8000471 387.438400
   1824   1823   1832     1   109.5600471 388.275200
   1824   1823   1825     1   108.4600466 328.025600
   1825   1823   1832     1   109.5600471 388.275200
   1826   1829   1830     1   109.8000471 387.438400
   1826   1829   1831     1   109.8000471 387.438400
   1827   1826   1829     1   109.5600471 388.275200
   1827   1826   1828     1   108.4600466 328.025600
   1828   1826   1829     1   109.5600471 388.275200
   1830   1829   1835     1   108.7700466 392.459200
   1830   1829   1831     1   107.5800459 329.699200
   1831   1829   1835     1   108.7700466 392.459200
   1833   1832   1836     1   108.7700466 392.459200
   1833   1832   1834     1   107.5800459 329.699200
   1834   1832   1836     1   108.7700466 392.459200
   1835   3779   3780     1   117.5500507 404.174400
   1836   3808   3809     1   117.5500507 404.174400
   1841   1844   1845     1   109.5600471 388.275200
   1841   1844   1846     1   109.5600471 388.275200
   1842   1841   1844     1   109.5600471 388.275200
   1842   1841   1847     1   109.8800469 414.216000
   1842   1841   1843     1   108.4600466 328.025600
   1843   1841   1844     1   109.5600471 388.275200
   1843   1841   1847     1   109.8800469 414.216000
   1844   1864   1865     1   117.6800502 383.254400
   1845   1844   1864     1   108.8800464 416.726400
   1845   1844   1846     1   108.4600466 328.025600
   1846   1844   1864     1   108.8800464 416.726400
   1847   1848   1849     1   109.8800469 414.216000
   1847   1848   1850     1   109.8800469 414.216000
   1847   1851   1852     1   109.8800469 414.216000
   1847   1851   1853     1   109.8800469 414.216000
   1848   1857   1858     1   109.8000471 387.438400
   1848   1857   1859     1   109.8000471 387.438400
   1849   1848   1857     1   109.5600471 388.275200
   1849   1848   1850     1   108.4600466 328.025600
   1850   1848   1857     1   109.5600471 388.275200
   1851   1854   1855     1   109.8000471 387.438400
   1851   1854   1856     1   109.8000471 387.438400
   1852   1851   1854     1   109.5600471 388.275200
   1852   1851   1853     1   108.4600466 328.025600
   1853   1851   1854     1   109.5600471 388.275200
   1855   1854   1860     1   108.7700466 392.459200
   1855   1854   1856     1   107.5800459 329.699200
   1856   1854   1860     1   108.7700466 392.459200
   1858   1857   1861     1   108.7700466 392.459200
   1858   1857   1859     1   107.5800459 329.699200
   1859   1857   1861     1   108.7700466 392.459200
   1860   3837   3838     1   117.5500507 404.174400
   1861   3866   3867     1   117.5500507 404.174400
   1866   1869   1870     1   109.5600471 388.275200
   1866   1869   1871     1   109.5600471 388.275200
   1867   1866   1869     1   109.5600471 388.275200
   1867   1866   1872     1   109.8800469 414.216000
   1867   1866   1868     1   108.4600466 328.025600
   1868   1866   1869     1   109.5600471 388.275200
   1868   1866   1872     1   109.8800469 414.216000
   1869   1889   1890     1   117.6800502 383.254400
   1870   1869   1889     1   108.8800464 416.726400
   1870   1869   1871     1   108.4600466 328.025600
   1871   1869   1889     1   108.8800464 416.726400
   1872   1873   1874     1   109.8800469 414.216000
   1872   1873   1875     1   109.8800469 414.216000
   1872   1876   1877     1   109.8800469 414.216000
   1872   1876   1878     1   109.8800469 414.216000
   1873   1882   1883     1   109.8000471 387.438400
   1873   1882   1884     1   109.8000471 387.438400
   1874   1873   1882     1   109.5600471 388.275200
   1874   1873   1875     1   108.4600466 328.025600
   1875   1873   1882     1   109.5600471 388.275200
   1876   1879   1880     1   109.8000471 387.438400
   1876   1879   1881     1   109.8000471 387.438400
   1877   1876   1879     1   109.5600471 388.275200
   1877   1876   1878     1   108.4600466 328.025600
   1878   1876   1879     1   109.5600471 388.275200
   1880   1879   1885     1   108.7700466 392.459200
   1880   1879   1881     1   107.5800459 329.699200
   1881   1879   1885     1   108.7700466 392.459200
   1883   1882   1886     1   108.7700466 392.459200
   1883   1882   1884     1   107.5800459 329.699200
   1884   1882   1886     1   108.7700466 392.459200
   1885   3895   3896     1   117.5500507 404.174400
   1886   3924   3925     1   117.5500507 404.174400
   1891   1894   1895     1   109.5600471 388.275200
   1891   1894   1896     1   109.5600471 388.275200
   1892   1891   1894     1   109.5600471 388.275200
   1892   1891   1897     1   109.8800469 414.216000
   1892   1891   1893     1   108.4600466 328.025600
   1893   1891   1894     1   109.5600471 388.275200
   1893   1891   1897     1   109.8800469 414.216000
   1894   1914   1915     1   117.6800502 383.254400
   1895   1894   1914     1   108.8800464 416.726400
   1895   1894   1896     1   108.4600466 328.025600
   1896   1894   1914     1   108.8800464 416.726400
   1897   1898   1899     1   109.8800469 414.216000
   1897   1898   1900     1   109.8800469 414.216000
   1897   1901   1902     1   109.8800469 414.216000
   1897   1901   1903     1   109.8800469 414.216000
   1898   1907   1908     1   109.8000471 387.438400
   1898   1907   1909     1   109.8000471 387.438400
   1899   1898   1907     1   109.5600471 388.275200
   1899   1898   1900     1   108.4600466 328.025600
   1900   1898   1907     1   109.5600471 388.275200
   1901   1904   1905     1   109.8000471 387.438400
   1901   1904   1906     1   109.8000471 387.438400
   1902   1901   1904     1   109.5600471 388.275200
   1902   1901   1903     1   108.4600466 328.025600
   1903   1901   1904     1   109.5600471 388.275200
   1905   1904   1910     1   108.7700466 392.459200
   1905   1904   1906     1   107.5800459 329.699200
   1906   1904   1910     1   108.7700466 392.459200
   1908   1907   1911     1   108.7700466 392.459200
   1908   1907   1909     1   107.5800459 329.699200
   1909   1907   1911     1   108.7700466 392.459200
   1910   3953   3954     1   117.5500507 404.174400
   1911   3982   3983     1   117.5500507 404.174400
   1916   1919   1920     1   109.5600471 388.275200
   1916   1919   1921     1   109.5600471 388.275200
   1917   1916   1919     1   109.5600471 388.275200
   1917   1916   1922     1   109.8800469 414.216000
   1917   1916   1918     1   108.4600466 328.025600
   1918   1916   1919     1   109.5600471 388.275200
   1918   1916   1922     1   109.8800469 414.216000
   1919   1939   1940     1   117.6800502 383.254400
   1920   1919   1939     1   108.8800464 416.726400
   1920   1919   1921     1   108.4600466 328.025600
   1921   1919   1939     1   108.8800464 416.726400
   1922   1923   1924     1   109.8800469 414.216000
   1922   1923   1925     1   109.8800469 414.216000
   1922   1926   1927     1   109.8800469 414.216000
   1922   1926   1928     1   109.8800469 414.216000
   1923   1932   1933     1   109.8000471 387.438400
   1923   1932   1934     1   109.8000471 387.438400
   1924   1923   1932     1   109.5600471 388.275200
   1924   1923   1925     1   108.4600466 328.025600
   1925   1923   1932     1   109.5600471 388.275200
   1926   1929   1930     1   109.8000471 387.438400
   1926   1929   1931     1   109.8000471 387.438400
   1927   1926   1929     1   109.5600471 388.275200
   1927   1926   1928     1   108.4600466 328.025600
   1928   1926   1929     1   109.5600471 388.275200
   1930   1929   1935     1   108.7700466 392.459200
   1930   1929   1931     1   107.5800459 329.699200
   1931   1929   1935     1   108.7700466 392.459200
   1933   1932   1936     1   108.7700466 392.459200
   1933   1932   1934     1   107.5800459 329.699200
   1934   1932   1936     1   108.7700466 392.459200
   1935   4011   4012     1   117.5500507 404.174400
   1936   4040   4041     1   117.5500507 404.174400
   1941   1944   1945     1   109.5600471 388.275200
   1941   1944   1946     1   109.5600471 388.275200
   1942   1941   1944     1   109.5600471 388.275200
   1942   1941   1947     1   109.8800469 414.216000
   1942   1941   1943     1   108.4600466 328.025600
   1943   1941   1944     1   109.5600471 388.275200
   1943   1941   1947     1   109.8800469 414.216000
   1944   1964   1965     1   117.6800502 383.254400
   1945   1944   1964     1   108.8800464 416.726400
   1945   1944   1946     1   108.4600466 328.025600
   1946   1944   1964     1   108.8800464 416.726400
   1947   1948   1949     1   109.8800469 414.216000
   1947   1948   1950     1   109.8800469 414.216000
   1947   1951   1952     1   109.8800469 414.216000
   1947   1951   1953     1   109.8800469 414.216000
   1948   1957   1958     1   109.8000471 387.438400
   1948   1957   1959     1   109.8000471 387.438400
   1949   1948   1957     1   109.5600471 388.275200
   1949   1948   1950     1   108.4600466 328.025600
   1950   1948   1957     1   109.5600471 388.275200
   1951   1954   1955     1   109.8000471 387.438400
   1951   1954   1956     1   109.8000471 387.438400
   1952   1951   1954     1   109.5600471 388.275200
   1952   1951   1953     1   108.4600466 328.025600
   1953   1951   1954     1   109.5600471 388.275200
   1955   1954   1960     1   108.7700466 392.459200
   1955   1954   1956     1   107.5800459 329.699200
   1956   1954   1960     1   108.7700466 392.459200
   1958   1957   1961     1   108.7700466 392.459200
   1958   1957   1959     1   107.5800459 329.699200
   1959   1957   1961     1   108.7700466 392.459200
   1960   4069   4070     1   117.5500507 404.174400
   1961   4098   4099     1   117.5500507 404.174400
   1966   1969   1970     1   109.5600471 388.275200
   1966   1969   1971     1   109.5600471 388.275200
   1967   1966   1969     1   109.5600471 388.275200
   1967   1966   1972     1   109.8800469 414.216000
   1967   1966   1968     1   108.4600466 328.025600
   1968   1966   1969     1   109.5600471 388.275200
   1968   1966   1972     1   109.8800469 414.216000
   1969   1989   1990     1   117.6800502 383.254400
   1970   1969   1989     1   108.8800464 416.726400
   1970   1969   1971     1   108.4600466 328.025600
   1971   1969   1989     1   108.8800464 416.726400
   1972   1973   1974     1   109.8800469 414.216000
   1972   1973   1975     1   109.8800469 414.216000
   1972   1976   1977     1   109.8800469 414.216000
   1972   1976   1978     1   109.8800469 414.216000
   1973   1982   1983     1   109.8000471 387.438400
   1973   1982   1984     1   109.8000471 387.438400
   1974   1973   1982     1   109.5600471 388.275200
   1974   1973   1975     1   108.4600466 328.025600
   1975   1973   1982     1   109.5600471 388.275200
   1976   1979   1980     1   109.8000471 387.438400
   1976   1979   1981     1   109.8000471 387.438400
   1977   1976   1979     1   109.5600471 388.275200
   1977   1976   1978     1   108.4600466 328.025600
   1978   1976   1979     1   109.5600471 388.275200
   1980   1979   1985     1   108.7700466 392.459200
   1980   1979   1981     1   107.5800459 329.699200
   1981   1979   1985     1   108.7700466 392.459200
   1983   1982   1986     1   108.7700466 392.459200
   1983   1982   1984     1   107.5800459 329.699200
   1984   1982   1986     1   108.7700466 392.459200
   1985   4127   4128     1   117.5500507 404.174400
   1986   4156   4157     1   117.5500507 404.174400
   1991   1994   1995     1   109.5600471 388.275200
   1991   1994   1996     1   109.5600471 388.275200
   1992   1991   1994     1   109.5600471 388.275200
   1992   1991   1997     1   109.8800469 414.216000
   1992   1991   1993     1   108.4600466 328.025600
   1993   1991   1994     1   109.5600471 388.275200
   1993   1991   1997     1   109.8800469 414.216000
   1994   2014   2015     1   117.6800502 383.254400
   1995   1994   2014     1   108.8800464 416.726400
   1995   1994   1996     1   108.4600466 328.025600
   1996   1994   2014     1   108.8800464 416.726400
   1997   1998   1999     1   109.8800469 414.216000
   1997   1998   2000     1   109.8800469 414.216000
   1997   2001   2002     1   109.8800469 414.216000
   1997   2001   2003     1   109.8800469 414.216000
   1998   2007   2008     1   109.8000471 387.438400
   1998   2007   2009     1   109.8000471 387.438400
   1999   1998   2007     1   109.5600471 388.275200
   1999   1998   2000     1   108.4600466 328.025600
   2000   1998   2007     1   109.5600471 388.275200
   2001   2004   2005     1   109.8000471 387.438400
   2001   2004   2006     1   109.8000471 387.438400
   2002   2001   2004     1   109.5600471 388.275200
   2002   2001   2003     1   108.4600466 328.025600
   2003   2001   2004     1   109.5600471 388.275200
   2005   2004   2010     1   108.7700466 392.459200
   2005   2004   2006     1   107.5800459 329.699200
   2006   2004   2010     1   108.7700466 392.459200
   2008   2007   2011     1   108.7700466 392.459200
   2008   2007   2009     1   107.5800459 329.699200
   2009   2007   2011     1   108.7700466 392.459200
   2010   4185   4186     1   117.5500507 404.174400
   2011   4214   4215     1   117.5500507 404.174400
   2016   2019   2020     1   109.5600471 388.275200
   2016   2019   2021     1   109.5600471 388.275200
   2017   2016   2019     1   109.5600471 388.275200
   2017   2016   2022     1   109.8800469 414.216000
   2017   2016   2018     1   108.4600466 328.025600
   2018   2016   2019     1   109.5600471 388.275200
   2018   2016   2022     1   109.8800469 414.216000
   2019   2039   2040     1   117.6800502 383.254400
   2020   2019   2039     1   108.8800464 416.726400
   2020   2019   2021     1   108.4600466 328.025600
   2021   2019   2039     1   108.8800464 416.726400
   2022   2023   2024     1   109.8800469 414.216000
   2022   2023   2025     1   109.8800469 414.216000
   2022   2026   2027     1   109.8800469 414.216000
   2022   2026   2028     1   109.8800469 414.216000
   2023   2032   2033     1   109.8000471 387.438400
   2023   2032   2034     1   109.8000471 387.438400
   2024   2023   2032     1   109.5600471 388.275200
   2024   2023   2025     1   108.4600466 328.025600
   2025   2023   2032     1   109.5600471 388.275200
   2026   2029   2030     1   109.8000471 387.438400
   2026   2029   2031     1   109.8000471 387.438400
   2027   2026   2029     1   109.5600471 388.275200
   2027   2026   2028     1   108.4600466 328.025600
   2028   2026   2029     1   109.5600471 388.275200
   2030   2029   2035     1   108.7700466 392.459200
   2030   2029   2031     1   107.5800459 329.699200
   2031   2029   2035     1   108.7700466 392.459200
   2033   2032   2036     1   108.7700466 392.459200
   2033   2032   2034     1   107.5800459 329.699200
   2034   2032   2036     1   108.7700466 392.459200
   2035   4243   4244     1   117.5500507 404.174400
   2036   4272   4273     1   117.5500507 404.174400
   2041   2044   2045     1   109.5600471 388.275200
   2041   2044   2046     1   109.5600471 388.275200
   2042   2041   2044     1   109.5600471 388.275200
   2042   2041   2047     1   109.8800469 414.216000
   2042   2041   2043     1   108.4600466 328.025600
   2043   2041   2044     1   109.5600471 388.275200
   2043   2041   2047     1   109.8800469 414.216000
   2044   2064   2065     1   117.6800502 383.254400
   2045   2044   2064     1   108.8800464 416.726400
   2045   2044   2046     1   108.4600466 328.025600
   2046   2044   2064     1   108.8800464 416.726400
   2047   2048   2049     1   109.8800469 414.216000
   2047   2048   2050     1   109.8800469 414.216000
   2047   2051   2052     1   109.8800469 414.216000
   2047   2051   2053     1   109.8800469 414.216000
   2048   2057   2058     1   109.8000471 387.438400
   2048   2057   2059     1   109.8000471 387.438400
   2049   2048   2057     1   109.5600471 388.275200
   2049   2048   2050     1   108.4600466 328.025600
   2050   2048   2057     1   109.5600471 388.275200
   2051   2054   2055     1   109.8000471 387.438400
   2051   2054   2056     1   109.8000471 387.438400
   2052   2051   2054     1   109.5600471 388.275200
   2052   2051   2053     1   108.4600466 328.025600
   2053   2051   2054     1   109.5600471 388.275200
   2055   2054   2060     1   108.7700466 392.459200
   2055   2054   2056     1   107.5800459 329.699200
   2056   2054   2060     1   108.7700466 392.459200
   2058   2057   2061     1   108.7700466 392.459200
   2058   2057   2059     1   107.5800459 329.699200
   2059   2057   2061     1   108.7700466 392.459200
   2060   4301   4302     1   117.5500507 404.174400
   2061   4330   4331     1   117.5500507 404.174400
   2066   2069   2070     1   109.5600471 388.275200
   2066   2069   2071     1   109.5600471 388.275200
   2067   2066   2069     1   109.5600471 388.275200
   2067   2066   2072     1   109.8800469 414.216000
   2067   2066   2068     1   108.4600466 328.025600
   2068   2066   2069     1   109.5600471 388.275200
   2068   2066   2072     1   109.8800469 414.216000
   2069   2089   2090     1   117.6800502 383.254400
   2070   2069   2089     1   108.8800464 416.726400
   2070   2069   2071     1   108.4600466 328.025600
   2071   2069   2089     1   108.8800464 416.726400
   2072   2073   2074     1   109.8800469 414.216000
   2072   2073   2075     1   109.8800469 414.216000
   2072   2076   2077     1   109.8800469 414.216000
   2072   2076   2078     1   109.8800469 414.216000
   2073   2082   2083     1   109.8000471 387.438400
   2073   2082   2084     1   109.8000471 387.438400
   2074   2073   2082     1   109.5600471 388.275200
   2074   2073   2075     1   108.4600466 328.025600
   2075   2073   2082     1   109.5600471 388.275200
   2076   2079   2080     1   109.8000471 387.438400
   2076   2079   2081     1   109.8000471 387.438400
   2077   2076   2079     1   109.5600471 388.275200
   2077   2076   2078     1   108.4600466 328.025600
   2078   2076   2079     1   109.5600471 388.275200
   2080   2079   2085     1   108.7700466 392.459200
   2080   2079   2081     1   107.5800459 329.699200
   2081   2079   2085     1   108.7700466 392.459200
   2083   2082   2086     1   108.7700466 392.459200
   2083   2082   2084     1   107.5800459 329.699200
   2084   2082   2086     1   108.7700466 392.459200
   2085   4359   4360     1   117.5500507 404.174400
   2086   4388   4389     1   117.5500507 404.174400
   2091   2094   2095     1   109.5600471 388.275200
   2091   2094   2096     1   109.5600471 388.275200
   2092   2091   2094     1   109.5600471 388.275200
   2092   2091   2097     1   109.8800469 414.216000
   2092   2091   2093     1   108.4600466 328.025600
   2093   2091   2094     1   109.5600471 388.275200
   2093   2091   2097     1   109.8800469 414.216000
   2094   2114   2115     1   117.6800502 383.254400
   2095   2094   2114     1   108.8800464 416.726400
   2095   2094   2096     1   108.4600466 328.025600
   2096   2094   2114     1   108.8800464 416.726400
   2097   2098   2099     1   109.8800469 414.216000
   2097   2098   2100     1   109.8800469 414.216000
   2097   2101   2102     1   109.8800469 414.216000
   2097   2101   2103     1   109.8800469 414.216000
   2098   2107   2108     1   109.8000471 387.438400
   2098   2107   2109     1   109.8000471 387.438400
   2099   2098   2107     1   109.5600471 388.275200
   2099   2098   2100     1   108.4600466 328.025600
   2100   2098   2107     1   109.5600471 388.275200
   2101   2104   2105     1   109.8000471 387.438400
   2101   2104   2106     1   109.8000471 387.438400
   2102   2101   2104     1   109.5600471 388.275200
   2102   2101   2103     1   108.4600466 328.025600
   2103   2101   2104     1   109.5600471 388.275200
   2105   2104   2110     1   108.7700466 392.459200
   2105   2104   2106     1   107.5800459 329.699200
   2106   2104   2110     1   108.7700466 392.459200
   2108   2107   2111     1   108.7700466 392.459200
   2108   2107   2109     1   107.5800459 329.699200
   2109   2107   2111     1   108.7700466 392.459200
   2110   4417   4418     1   117.5500507 404.174400
   2111   4446   4447     1   117.5500507 404.174400
   2116   2119   2120     1   109.5600471 388.275200
   2116   2119   2121     1   109.5600471 388.275200
   2117   2116   2119     1   109.5600471 388.275200
   2117   2116   2122     1   109.8800469 414.216000
   2117   2116   2118     1   108.4600466 328.025600
   2118   2116   2119     1   109.5600471 388.275200
   2118   2116   2122     1   109.8800469 414.216000
   2119   2139   2140     1   117.6800502 383.254400
   2120   2119   2139     1   108.8800464 416.726400
   2120   2119   2121     1   108.4600466 328.025600
   2121   2119   2139     1   108.8800464 416.726400
   2122   2123   2124     1   109.8800469 414.216000
   2122   2123   2125     1   109.8800469 414.216000
   2122   2126   2127     1   109.8800469 414.216000
   2122   2126   2128     1   109.8800469 414.216000
   2123   2132   2133     1   109.8000471 387.438400
   2123   2132   2134     1   109.8000471 387.438400
   2124   2123   2132     1   109.5600471 388.275200
   2124   2123   2125     1   108.4600466 328.025600
   2125   2123   2132     1   109.5600471 388.275200
   2126   2129   2130     1   109.8000471 387.438400
   2126   2129   2131     1   109.8000471 387.438400
   2127   2126   2129     1   109.5600471 388.275200
   2127   2126   2128     1   108.4600466 328.025600
   2128   2126   2129     1   109.5600471 388.275200
   2130   2129   2135     1   108.7700466 392.459200
   2130   2129   2131     1   107.5800459 329.699200
   2131   2129   2135     1   108.7700466 392.459200
   2133   2132   2136     1   108.7700466 392.459200
   2133   2132   2134     1   107.5800459 329.699200
   2134   2132   2136     1   108.7700466 392.459200
   2135   4475   4476     1   117.5500507 404.174400
   2136   4504   4505     1   117.5500507 404.174400
   2141   2144   2145     1   109.5600471 388.275200
   2141   2144   2146     1   109.5600471 388.275200
   2142   2141   2144     1   109.5600471 388.275200
   2142   2141   2147     1   109.8800469 414.216000
   2142   2141   2143     1   108.4600466 328.025600
   2143   2141   2144     1   109.5600471 388.275200
   2143   2141   2147     1   109.8800469 414.216000
   2144   2164   2165     1   117.6800502 383.254400
   2145   2144   2164     1   108.8800464 416.726400
   2145   2144   2146     1   108.4600466 328.025600
   2146   2144   2164     1   108.8800464 416.726400
   2147   2148   2149     1   109.8800469 414.216000
   2147   2148   2150     1   109.8800469 414.216000
   2147   2151   2152     1   109.8800469 414.216000
   2147   2151   2153     1   109.8800469 414.216000
   2148   2157   2158     1   109.8000471 387.438400
   2148   2157   2159     1   109.8000471 387.438400
   2149   2148   2157     1   109.5600471 388.275200
   2149   2148   2150     1   108.4600466 328.025600
   2150   2148   2157     1   109.5600471 388.275200
   2151   2154   2155     1   109.8000471 387.438400
   2151   2154   2156     1   109.8000471 387.438400
   2152   2151   2154     1   109.5600471 388.275200
   2152   2151   2153     1   108.4600466 328.025600
   2153   2151   2154     1   109.5600471 388.275200
   2155   2154   2160     1   108.7700466 392.459200
   2155   2154   2156     1   107.5800459 329.699200
   2156   2154   2160     1   108.7700466 392.459200
   2158   2157   2161     1   108.7700466 392.459200
   2158   2157   2159     1   107.5800459 329.699200
   2159   2157   2161     1   108.7700466 392.459200
   2160   4533   4534     1   117.5500507 404.174400
   2161   4562   4563     1   117.5500507 404.174400
   2166   2169   2170     1   109.5600471 388.275200
   2166   2169   2171     1   109.5600471 388.275200
   2167   2166   2169     1   109.5600471 388.275200
   2167   2166   2172     1   109.8800469 414.216000
   2167   2166   2168     1   108.4600466 328.025600
   2168   2166   2169     1   109.5600471 388.275200
   2168   2166   2172     1   109.8800469 414.216000
   2169   2189   2190     1   117.6800502 383.254400
   2170   2169   2189     1   108.8800464 416.726400
   2170   2169   2171     1   108.4600466 328.025600
   2171   2169   2189     1   108.8800464 416.726400
   2172   2173   2174     1   109.8800469 414.216000
   2172   2173   2175     1   109.8800469 414.216000
   2172   2176   2177     1   109.8800469 414.216000
   2172   2176   2178     1   109.8800469 414.216000
   2173   2182   2183     1   109.8000471 387.438400
   2173   2182   2184     1   109.8000471 387.438400
   2174   2173   2182     1   109.5600471 388.275200
   2174   2173   2175     1   108.4600466 328.025600
   2175   2173   2182     1   109.5600471 388.275200
   2176   2179   2180     1   109.8000471 387.438400
   2176   2179   2181     1   109.8000471 387.438400
   2177   2176   2179     1   109.5600471 388.275200
   2177   2176   2178     1   108.4600466 328.025600
   2178   2176   2179     1   109.5600471 388.275200
   2180   2179   2185     1   108.7700466 392.459200
   2180   2179   2181     1   107.5800459 329.699200
   2181   2179   2185     1   108.7700466 392.459200
   2183   2182   2186     1   108.7700466 392.459200
   2183   2182   2184     1   107.5800459 329.699200
   2184   2182   2186     1   108.7700466 392.459200
   2185   4591   4592     1   117.5500507 404.174400
   2186   4620   4621     1   117.5500507 404.174400
   2191   2194   2195     1   109.5600471 388.275200
   2191   2194   2196     1   109.5600471 388.275200
   2192   2191   2194     1   109.5600471 388.275200
   2192   2191   2197     1   109.8800469 414.216000
   2192   2191   2193     1   108.4600466 328.025600
   2193   2191   2194     1   109.5600471 388.275200
   2193   2191   2197     1   109.8800469 414.216000
   2194   2214   2215     1   117.6800502 383.254400
   2195   2194   2214     1   108.8800464 416.726400
   2195   2194   2196     1   108.4600466 328.025600
   2196   2194   2214     1   108.8800464 416.726400
   2197   2198   2199     1   109.8800469 414.216000
   2197   2198   2200     1   109.8800469 414.216000
   2197   2201   2202     1   109.8800469 414.216000
   2197   2201   2203     1   109.8800469 414.216000
   2198   2207   2208     1   109.8000471 387.438400
   2198   2207   2209     1   109.8000471 387.438400
   2199   2198   2207     1   109.5600471 388.275200
   2199   2198   2200     1   108.4600466 328.025600
   2200   2198   2207     1   109.5600471 388.275200
   2201   2204   2205     1   109.8000471 387.438400
   2201   2204   2206     1   109.8000471 387.438400
   2202   2201   2204     1   109.5600471 388.275200
   2202   2201   2203     1   108.4600466 328.025600
   2203   2201   2204     1   109.5600471 388.275200
   2205   2204   2210     1   108.7700466 392.459200
   2205   2204   2206     1   107.5800459 329.699200
   2206   2204   2210     1   108.7700466 392.459200
   2208   2207   2211     1   108.7700466 392.459200
   2208   2207   2209     1   107.5800459 329.699200
   2209   2207   2211     1   108.7700466 392.459200
   2210   4649   4650     1   117.5500507 404.174400
   2211   4678   4679     1   117.5500507 404.174400
   2216   2219   2220     1   109.5600471 388.275200
   2216   2219   2221     1   109.5600471 388.275200
   2217   2216   2219     1   109.5600471 388.275200
   2217   2216   2222     1   109.8800469 414.216000
   2217   2216   2218     1   108.4600466 328.025600
   2218   2216   2219     1   109.5600471 388.275200
   2218   2216   2222     1   109.8800469 414.216000
   2219   2239   2240     1   117.6800502 383.254400
   2220   2219   2239     1   108.8800464 416.726400
   2220   2219   2221     1   108.4600466 328.025600
   2221   2219   2239     1   108.8800464 416.726400
   2222   2223   2224     1   109.8800469 414.216000
   2222   2223   2225     1   109.8800469 414.216000
   2222   2226   2227     1   109.8800469 414.216000
   2222   2226   2228     1   109.8800469 414.216000
   2223   2232   2233     1   109.8000471 387.438400
   2223   2232   2234     1   109.8000471 387.438400
   2224   2223   2232     1   109.5600471 388.275200
   2224   2223   2225     1   108.4600466 328.025600
   2225   2223   2232     1   109.5600471 388.275200
   2226   2229   2230     1   109.8000471 387.438400
   2226   2229   2231     1   109.8000471 387.438400
   2227   2226   2229     1   109.5600471 388.275200
   2227   2226   2228     1   108.4600466 328.025600
   2228   2226   2229     1   109.5600471 388.275200
   2230   2229   2235     1   108.7700466 392.459200
   2230   2229   2231     1   107.5800459 329.699200
   2231   2229   2235     1   108.7700466 392.459200
   2233   2232   2236     1   108.7700466 392.459200
   2233   2232   2234     1   107.5800459 329.699200
   2234   2232   2236     1   108.7700466 392.459200
   2235   4707   4708     1   117.5500507 404.174400
   2236   4736   4737     1   117.5500507 404.174400
   2241   2244   2245     1   109.5600471 388.275200
   2241   2244   2246     1   109.5600471 388.275200
   2242   2241   2244     1   109.5600471 388.275200
   2242   2241   2247     1   109.8800469 414.216000
   2242   2241   2243     1   108.4600466 328.025600
   2243   2241   2244     1   109.5600471 388.275200
   2243   2241   2247     1   109.8800469 414.216000
   2244   2264   2265     1   117.6800502 383.254400
   2245   2244   2264     1   108.8800464 416.726400
   2245   2244   2246     1   108.4600466 328.025600
   2246   2244   2264     1   108.8800464 416.726400
   2247   2248   2249     1   109.8800469 414.216000
   2247   2248   2250     1   109.8800469 414.216000
   2247   2251   2252     1   109.8800469 414.216000
   2247   2251   2253     1   109.8800469 414.216000
   2248   2257   2258     1   109.8000471 387.438400
   2248   2257   2259     1   109.8000471 387.438400
   2249   2248   2257     1   109.5600471 388.275200
   2249   2248   2250     1   108.4600466 328.025600
   2250   2248   2257     1   109.5600471 388.275200
   2251   2254   2255     1   109.8000471 387.438400
   2251   2254   2256     1   109.8000471 387.438400
   2252   2251   2254     1   109.5600471 388.275200
   2252   2251   2253     1   108.4600466 328.025600
   2253   2251   2254     1   109.5600471 388.275200
   2255   2254   2260     1   108.7700466 392.459200
   2255   2254   2256     1   107.5800459 329.699200
   2256   2254   2260     1   108.7700466 392.459200
   2258   2257   2261     1   108.7700466 392.459200
   2258   2257   2259     1   107.5800459 329.699200
   2259   2257   2261     1   108.7700466 392.459200
   2260   4765   4766     1   117.5500507 404.174400
   2261   4794   4795     1   117.5500507 404.174400
   2266   2269   2270     1   109.5600471 388.275200
   2266   2269   2271     1   109.5600471 388.275200
   2267   2266   2269     1   109.5600471 388.275200
   2267   2266   2272     1   109.8800469 414.216000
   2267   2266   2268     1   108.4600466 328.025600
   2268   2266   2269     1   109.5600471 388.275200
   2268   2266   2272     1   109.8800469 414.216000
   2269   2289   2290     1   117.6800502 383.254400
   2270   2269   2289     1   108.8800464 416.726400
   2270   2269   2271     1   108.4600466 328.025600
   2271   2269   2289     1   108.8800464 416.726400
   2272   2273   2274     1   109.8800469 414.216000
   2272   2273   2275     1   109.8800469 414.216000
   2272   2276   2277     1   109.8800469 414.216000
   2272   2276   2278     1   109.8800469 414.216000
   2273   2282   2283     1   109.8000471 387.438400
   2273   2282   2284     1   109.8000471 387.438400
   2274   2273   2282     1   109.5600471 388.275200
   2274   2273   2275     1   108.4600466 328.025600
   2275   2273   2282     1   109.5600471 388.275200
   2276   2279   2280     1   109.8000471 387.438400
   2276   2279   2281     1   109.8000471 387.438400
   2277   2276   2279     1   109.5600471 388.275200
   2277   2276   2278     1   108.4600466 328.025600
   2278   2276   2279     1   109.5600471 388.275200
   2280   2279   2285     1   108.7700466 392.459200
   2280   2279   2281     1   107.5800459 329.699200
   2281   2279   2285     1   108.7700466 392.459200
   2283   2282   2286     1   108.7700466 392.459200
   2283   2282   2284     1   107.5800459 329.699200
   2284   2282   2286     1   108.7700466 392.459200
   2285   4823   4824     1   117.5500507 404.174400
   2286   4852   4853     1   117.5500507 404.174400
   2291   2294   2295     1   109.5600471 388.275200
   2291   2294   2296     1   109.5600471 388.275200
   2292   2291   2294     1   109.5600471 388.275200
   2292   2291   2297     1   109.8800469 414.216000
   2292   2291   2293     1   108.4600466 328.025600
   2293   2291   2294     1   109.5600471 388.275200
   2293   2291   2297     1   109.8800469 414.216000
   2294   2314   2315     1   117.6800502 383.254400
   2295   2294   2314     1   108.8800464 416.726400
   2295   2294   2296     1   108.4600466 328.025600
   2296   2294   2314     1   108.8800464 416.726400
   2297   2298   2299     1   109.8800469 414.216000
   2297   2298   2300     1   109.8800469 414.216000
   2297   2301   2302     1   109.8800469 414.216000
   2297   2301   2303     1   109.8800469 414.216000
   2298   2307   2308     1   109.8000471 387.438400
   2298   2307   2309     1   109.8000471 387.438400
   2299   2298   2307     1   109.5600471 388.275200
   2299   2298   2300     1   108.4600466 328.025600
   2300   2298   2307     1   109.5600471 388.275200
   2301   2304   2305     1   109.8000471 387.438400
   2301   2304   2306     1   109.8000471 387.438400
   2302   2301   2304     1   109.5600471 388.275200
   2302   2301   2303     1   108.4600466 328.025600
   2303   2301   2304     1   109.5600471 388.275200
   2305   2304   2310     1   108.7700466 392.459200
   2305   2304   2306     1   107.5800459 329.699200
   2306   2304   2310     1   108.7700466 392.459200
   2308   2307   2311     1   108.7700466 392.459200
   2308   2307   2309     1   107.5800459 329.699200
   2309   2307   2311     1   108.7700466 392.459200
   2310   4881   4882     1   117.5500507 404.174400
   2311   4910   4911     1   117.5500507 404.174400
   2316   2319   2320     1   109.5600471 388.275200
   2316   2319   2321     1   109.5600471 388.275200
   2317   2316   2319     1   109.5600471 388.275200
   2317   2316   2322     1   109.8800469 414.216000
   2317   2316   2318     1   108.4600466 328.025600
   2318   2316   2319     1   109.5600471 388.275200
   2318   2316   2322     1   109.8800469 414.216000
   2319   2339   2340     1   117.6800502 383.254400
   2320   2319   2339     1   108.8800464 416.726400
   2320   2319   2321     1   108.4600466 328.025600
   2321   2319   2339     1   108.8800464 416.726400
   2322   2323   2324     1   109.8800469 414.216000
   2322   2323   2325     1   109.8800469 414.216000
   2322   2326   2327     1   109.8800469 414.216000
   2322   2326   2328     1   109.8800469 414.216000
   2323   2332   2333     1   109.8000471 387.438400
   2323   2332   2334     1   109.8000471 387.438400
   2324   2323   2332     1   109.5600471 388.275200
   2324   2323   2325     1   108.4600466 328.025600
   2325   2323   2332     1   109.5600471 388.275200
   2326   2329   2330     1   109.8000471 387.438400
   2326   2329   2331     1   109.8000471 387.438400
   2327   2326   2329     1   109.5600471 388.275200
   2327   2326   2328     1   108.4600466 328.025600
   2328   2326   2329     1   109.5600471 388.275200
   2330   2329   2335     1   108.7700466 392.459200
   2330   2329   2331     1   107.5800459 329.699200
   2331   2329   2335     1   108.7700466 392.459200
   2333   2332   2336     1   108.7700466 392.459200
   2333   2332   2334     1   107.5800459 329.699200
   2334   2332   2336     1   108.7700466 392.459200
   2335   4939   4940     1   117.5500507 404.174400
   2336   4968   4969     1   117.5500507 404.174400
   2341   2344   2345     1   109.5600471 388.275200
   2341   2344   2346     1   109.5600471 388.275200
   2342   2341   2344     1   109.5600471 388.275200
   2342   2341   2347     1   109.8800469 414.216000
   2342   2341   2343     1   108.4600466 328.025600
   2343   2341   2344     1   109.5600471 388.275200
   2343   2341   2347     1   109.8800469 414.216000
   2344   2364   2365     1   117.6800502 383.254400
   2345   2344   2364     1   108.8800464 416.726400
   2345   2344   2346     1   108.4600466 328.025600
   2346   2344   2364     1   108.8800464 416.726400
   2347   2348   2349     1   109.8800469 414.216000
   2347   2348   2350     1   109.8800469 414.216000
   2347   2351   2352     1   109.8800469 414.216000
   2347   2351   2353     1   109.8800469 414.216000
   2348   2357   2358     1   109.8000471 387.438400
   2348   2357   2359     1   109.8000471 387.438400
   2349   2348   2357     1   109.5600471 388.275200
   2349   2348   2350     1   108.4600466 328.025600
   2350   2348   2357     1   109.5600471 388.275200
   2351   2354   2355     1   109.8000471 387.438400
   2351   2354   2356     1   109.8000471 387.438400
   2352   2351   2354     1   109.5600471 388.275200
   2352   2351   2353     1   108.4600466 328.025600
   2353   2351   2354     1   109.5600471 388.275200
   2355   2354   2360     1   108.7700466 392.459200
   2355   2354   2356     1   107.5800459 329.699200
   2356   2354   2360     1   108.7700466 392.459200
   2358   2357   2361     1   108.7700466 392.459200
   2358   2357   2359     1   107.5800459 329.699200
   2359   2357   2361     1   108.7700466 392.459200
   2360   4997   4998     1   117.5500507 404.174400
   2361   5026   5027     1   117.5500507 404.174400
   2366   2369   2370     1   109.5600471 388.275200
   2366   2369   2371     1   109.5600471 388.275200
   2367   2366   2369     1   109.5600471 388.275200
   2367   2366   2372     1   109.8800469 414.216000
   2367   2366   2368     1   108.4600466 328.025600
   2368   2366   2369     1   109.5600471 388.275200
   2368   2366   2372     1   109.8800469 414.216000
   2369   2389   2390     1   117.6800502 383.254400
   2370   2369   2389     1   108.8800464 416.726400
   2370   2369   2371     1   108.4600466 328.025600
   2371   2369   2389     1   108.8800464 416.726400
   2372   2373   2374     1   109.8800469 414.216000
   2372   2373   2375     1   109.8800469 414.216000
   2372   2376   2377     1   109.8800469 414.216000
   2372   2376   2378     1   109.8800469 414.216000
   2373   2382   2383     1   109.8000471 387.438400
   2373   2382   2384     1   109.8000471 387.438400
   2374   2373   2382     1   109.5600471 388.275200
   2374   2373   2375     1   108.4600466 328.025600
   2375   2373   2382     1   109.5600471 388.275200
   2376   2379   2380     1   109.8000471 387.438400
   2376   2379   2381     1   109.8000471 387.438400
   2377   2376   2379     1   109.5600471 388.275200
   2377   2376   2378     1   108.4600466 328.025600
   2378   2376   2379     1   109.5600471 388.275200
   2380   2379   2385     1   108.7700466 392.459200
   2380   2379   2381     1   107.5800459 329.699200
   2381   2379   2385     1   108.7700466 392.459200
   2383   2382   2386     1   108.7700466 392.459200
   2383   2382   2384     1   107.5800459 329.699200
   2384   2382   2386     1   108.7700466 392.459200
   2385   5055   5056     1   117.5500507 404.174400
   2386   5084   5085     1   117.5500507 404.174400
   2391   2394   2395     1   109.5600471 388.275200
   2391   2394   2396     1   109.5600471 388.275200
   2392   2391   2394     1   109.5600471 388.275200
   2392   2391   2397     1   109.8800469 414.216000
   2392   2391   2393     1   108.4600466 328.025600
   2393   2391   2394     1   109.5600471 388.275200
   2393   2391   2397     1   109.8800469 414.216000
   2394   2414   2415     1   117.6800502 383.254400
   2395   2394   2414     1   108.8800464 416.726400
   2395   2394   2396     1   108.4600466 328.025600
   2396   2394   2414     1   108.8800464 416.726400
   2397   2398   2399     1   109.8800469 414.216000
   2397   2398   2400     1   109.8800469 414.216000
   2397   2401   2402     1   109.8800469 414.216000
   2397   2401   2403     1   109.8800469 414.216000
   2398   2407   2408     1   109.8000471 387.438400
   2398   2407   2409     1   109.8000471 387.438400
   2399   2398   2407     1   109.5600471 388.275200
   2399   2398   2400     1   108.4600466 328.025600
   2400   2398   2407     1   109.5600471 388.275200
   2401   2404   2405     1   109.8000471 387.438400
   2401   2404   2406     1   109.8000471 387.438400
   2402   2401   2404     1   109.5600471 388.275200
   2402   2401   2403     1   108.4600466 328.025600
   2403   2401   2404     1   109.5600471 388.275200
   2405   2404   2410     1   108.7700466 392.459200
   2405   2404   2406     1   107.5800459 329.699200
   2406   2404   2410     1   108.7700466 392.459200
   2408   2407   2411     1   108.7700466 392.459200
   2408   2407   2409     1   107.5800459 329.699200
   2409   2407   2411     1   108.7700466 392.459200
   2410   5113   5114     1   117.5500507 404.174400
   2411   5142   5143     1   117.5500507 404.174400
   2416   2419   2420     1   109.5600471 388.275200
   2416   2419   2421     1   109.5600471 388.275200
   2417   2416   2419     1   109.5600471 388.275200
   2417   2416   2422     1   109.8800469 414.216000
   2417   2416   2418     1   108.4600466 328.025600
   2418   2416   2419     1   109.5600471 388.275200
   2418   2416   2422     1   109.8800469 414.216000
   2419   2439   2440     1   117.6800502 383.254400
   2420   2419   2439     1   108.8800464 416.726400
   2420   2419   2421     1   108.4600466 328.025600
   2421   2419   2439     1   108.8800464 416.726400
   2422   2423   2424     1   109.8800469 414.216000
   2422   2423   2425     1   109.8800469 414.216000
   2422   2426   2427     1   109.8800469 414.216000
   2422   2426   2428     1   109.8800469 414.216000
   2423   2432   2433     1   109.8000471 387.438400
   2423   2432   2434     1   109.8000471 387.438400
   2424   2423   2432     1   109.5600471 388.275200
   2424   2423   2425     1   108.4600466 328.025600
   2425   2423   2432     1   109.5600471 388.275200
   2426   2429   2430     1   109.8000471 387.438400
   2426   2429   2431     1   109.8000471 387.438400
   2427   2426   2429     1   109.5600471 388.275200
   2427   2426   2428     1   108.4600466 328.025600
   2428   2426   2429     1   109.5600471 388.275200
   2430   2429   2435     1   108.7700466 392.459200
   2430   2429   2431     1   107.5800459 329.699200
   2431   2429   2435     1   108.7700466 392.459200
   2433   2432   2436     1   108.7700466 392.459200
   2433   2432   2434     1   107.5800459 329.699200
   2434   2432   2436     1   108.7700466 392.459200
   2435   5171   5172     1   117.5500507 404.174400
   2436   5200   5201     1   117.5500507 404.174400
   2441   2444   2445     1   109.5600471 388.275200
   2441   2444   2446     1   109.5600471 388.275200
   2442   2441   2444     1   109.5600471 388.275200
   2442   2441   2447     1   109.8800469 414.216000
   2442   2441   2443     1   108.4600466 328.025600
   2443   2441   2444     1   109.5600471 388.275200
   2443   2441   2447     1   109.8800469 414.216000
   2444   2464   2465     1   117.6800502 383.254400
   2445   2444   2464     1   108.8800464 416.726400
   2445   2444   2446     1   108.4600466 328.025600
   2446   2444   2464     1   108.8800464 416.726400
   2447   2448   2449     1   109.8800469 414.216000
   2447   2448   2450     1   109.8800469 414.216000
   2447   2451   2452     1   109.8800469 414.216000
   2447   2451   2453     1   109.8800469 414.216000
   2448   2457   2458     1   109.8000471 387.438400
   2448   2457   2459     1   109.8000471 387.438400
   2449   2448   2457     1   109.5600471 388.275200
   2449   2448   2450     1   108.4600466 328.025600
   2450   2448   2457     1   109.5600471 388.275200
   2451   2454   2455     1   109.8000471 387.438400
   2451   2454   2456     1   109.8000471 387.438400
   2452   2451   2454     1   109.5600471 388.275200
   2452   2451   2453     1   108.4600466 328.025600
   2453   2451   2454     1   109.5600471 388.275200
   2455   2454   2460     1   108.7700466 392.459200
   2455   2454   2456     1   107.5800459 329.699200
   2456   2454   2460     1   108.7700466 392.459200
   2458   2457   2461     1   108.7700466 392.459200
   2458   2457   2459     1   107.5800459 329.699200
   2459   2457   2461     1   108.7700466 392.459200
   2460   5229   5230     1   117.5500507 404.174400
   2461   5258   5259     1   117.5500507 404.174400
   2466   2469   2470     1   109.5600471 388.275200
   2466   2469   2471     1   109.5600471 388.275200
   2467   2466   2469     1   109.5600471 388.275200
   2467   2466   2472     1   109.8800469 414.216000
   2467   2466   2468     1   108.4600466 328.025600
   2468   2466   2469     1   109.5600471 388.275200
   2468   2466   2472     1   109.8800469 414.216000
   2469   2489   2490     1   117.6800502 383.254400
   2470   2469   2489     1   108.8800464 416.726400
   2470   2469   2471     1   108.4600466 328.025600
   2471   2469   2489     1   108.8800464 416.726400
   2472   2473   2474     1   109.8800469 414.216000
   2472   2473   2475     1   109.8800469 414.216000
   2472   2476   2477     1   109.8800469 414.216000
   2472   2476   2478     1   109.8800469 414.216000
   2473   2482   2483     1   109.8000471 387.438400
   2473   2482   2484     1   109.8000471 387.438400
   2474   2473   2482     1   109.5600471 388.275200
   2474   2473   2475     1   108.4600466 328.025600
   2475   2473   2482     1   109.5600471 388.275200
   2476   2479   2480     1   109.8000471 387.438400
   2476   2479   2481     1   109.8000471 387.438400
   2477   2476   2479     1   109.5600471 388.275200
   2477   2476   2478     1   108.4600466 328.025600
   2478   2476   2479     1   109.5600471 388.275200
   2480   2479   2485     1   108.7700466 392.459200
   2480   2479   2481     1   107.5800459 329.699200
   2481   2479   2485     1   108.7700466 392.459200
   2483   2482   2486     1   108.7700466 392.459200
   2483   2482   2484     1   107.5800459 329.699200
   2484   2482   2486     1   108.7700466 392.459200
   2485   5287   5288     1   117.5500507 404.174400
   2486   5316   5317     1   117.5500507 404.174400
   2491   2494   2495     1   109.5600471 388.275200
   2491   2494   2496     1   109.5600471 388.275200
   2492   2491   2494     1   109.5600471 388.275200
   2492   2491   2497     1   109.8800469 414.216000
   2492   2491   2493     1   108.4600466 328.025600
   2493   2491   2494     1   109.5600471 388.275200
   2493   2491   2497     1   109.8800469 414.216000
   2494   2514   2515     1   117.6800502 383.254400
   2495   2494   2514     1   108.8800464 416.726400
   2495   2494   2496     1   108.4600466 328.025600
   2496   2494   2514     1   108.8800464 416.726400
   2497   2498   2499     1   109.8800469 414.216000
   2497   2498   2500     1   109.8800469 414.216000
   2497   2501   2502     1   109.8800469 414.216000
   2497   2501   2503     1   109.8800469 414.216000
   2498   2507   2508     1   109.8000471 387.438400
   2498   2507   2509     1   109.8000471 387.438400
   2499   2498   2507     1   109.5600471 388.275200
   2499   2498   2500     1   108.4600466 328.025600
   2500   2498   2507     1   109.5600471 388.275200
   2501   2504   2505     1   109.8000471 387.438400
   2501   2504   2506     1   109.8000471 387.438400
   2502   2501   2504     1   109.5600471 388.275200
   2502   2501   2503     1   108.4600466 328.025600
   2503   2501   2504     1   109.5600471 388.275200
   2505   2504   2510     1   108.7700466 392.459200
   2505   2504   2506     1   107.5800459 329.699200
   2506   2504   2510     1   108.7700466 392.459200
   2508   2507   2511     1   108.7700466 392.459200
   2508   2507   2509     1   107.5800459 329.699200
   2509   2507   2511     1   108.7700466 392.459200
   2510   5345   5346     1   117.5500507 404.174400
   2511   5374   5375     1   117.5500507 404.174400
   2516   2519   2520     1   109.5600471 388.275200
   2516   2519   2521     1   109.5600471 388.275200
   2517   2516   2519     1   109.5600471 388.275200
   2517   2516   2522     1   109.8800469 414.216000
   2517   2516   2518     1   108.4600466 328.025600
   2518   2516   2519     1   109.5600471 388.275200
   2518   2516   2522     1   109.8800469 414.216000
   2519   2539   2540     1   117.6800502 383.254400
   2520   2519   2539     1   108.8800464 416.726400
   2520   2519   2521     1   108.4600466 328.025600
   2521   2519   2539     1   108.8800464 416.726400
   2522   2523   2524     1   109.8800469 414.216000
   2522   2523   2525     1   109.8800469 414.216000
   2522   2526   2527     1   109.8800469 414.216000
   2522   2526   2528     1   109.8800469 414.216000
   2523   2532   2533     1   109.8000471 387.438400
   2523   2532   2534     1   109.8000471 387.438400
   2524   2523   2532     1   109.5600471 388.275200
   2524   2523   2525     1   108.4600466 328.025600
   2525   2523   2532     1   109.5600471 388.275200
   2526   2529   2530     1   109.8000471 387.438400
   2526   2529   2531     1   109.8000471 387.438400
   2527   2526   2529     1   109.5600471 388.275200
   2527   2526   2528     1   108.4600466 328.025600
   2528   2526   2529     1   109.5600471 388.275200
   2530   2529   2535     1   108.7700466 392.459200
   2530   2529   2531     1   107.5800459 329.699200
   2531   2529   2535     1   108.7700466 392.459200
   2533   2532   2536     1   108.7700466 392.459200
   2533   2532   2534     1   107.5800459 329.699200
   2534   2532   2536     1   108.7700466 392.459200
   2535   5403   5404     1   117.5500507 404.174400
   2536   5432   5433     1   117.5500507 404.174400
   2541   2544   2545     1   109.5600471 388.275200
   2541   2544   2546     1   109.5600471 388.275200
   2542   2541   2544     1   109.5600471 388.275200
   2542   2541   2547     1   109.8800469 414.216000
   2542   2541   2543     1   108.4600466 328.025600
   2543   2541   2544     1   109.5600471 388.275200
   2543   2541   2547     1   109.8800469 414.216000
   2544   2564   2565     1   117.6800502 383.254400
   2545   2544   2564     1   108.8800464 416.726400
   2545   2544   2546     1   108.4600466 328.025600
   2546   2544   2564     1   108.8800464 416.726400
   2547   2548   2549     1   109.8800469 414.216000
   2547   2548   2550     1   109.8800469 414.216000
   2547   2551   2552     1   109.8800469 414.216000
   2547   2551   2553     1   109.8800469 414.216000
   2548   2557   2558     1   109.8000471 387.438400
   2548   2557   2559     1   109.8000471 387.438400
   2549   2548   2557     1   109.5600471 388.275200
   2549   2548   2550     1   108.4600466 328.025600
   2550   2548   2557     1   109.5600471 388.275200
   2551   2554   2555     1   109.8000471 387.438400
   2551   2554   2556     1   109.8000471 387.438400
   2552   2551   2554     1   109.5600471 388.275200
   2552   2551   2553     1   108.4600466 328.025600
   2553   2551   2554     1   109.5600471 388.275200
   2555   2554   2560     1   108.7700466 392.459200
   2555   2554   2556     1   107.5800459 329.699200
   2556   2554   2560     1   108.7700466 392.459200
   2558   2557   2561     1   108.7700466 392.459200
   2558   2557   2559     1   107.5800459 329.699200
   2559   2557   2561     1   108.7700466 392.459200
   2560   5461   5462     1   117.5500507 404.174400
   2561   5490   5491     1   117.5500507 404.174400
   2566   2569   2570     1   109.5600471 388.275200
   2566   2569   2571     1   109.5600471 388.275200
   2567   2566   2569     1   109.5600471 388.275200
   2567   2566   2572     1   109.8800469 414.216000
   2567   2566   2568     1   108.4600466 328.025600
   2568   2566   2569     1   109.5600471 388.275200
   2568   2566   2572     1   109.8800469 414.216000
   2569   2589   2590     1   117.6800502 383.254400
   2570   2569   2589     1   108.8800464 416.726400
   2570   2569   2571     1   108.4600466 328.025600
   2571   2569   2589     1   108.8800464 416.726400
   2572   2573   2574     1   109.8800469 414.216000
   2572   2573   2575     1   109.8800469 414.216000
   2572   2576   2577     1   109.8800469 414.216000
   2572   2576   2578     1   109.8800469 414.216000
   2573   2582   2583     1   109.8000471 387.438400
   2573   2582   2584     1   109.8000471 387.438400
   2574   2573   2582     1   109.5600471 388.275200
   2574   2573   2575     1   108.4600466 328.025600
   2575   2573   2582     1   109.5600471 388.275200
   2576   2579   2580     1   109.8000471 387.438400
   2576   2579   2581     1   109.8000471 387.438400
   2577   2576   2579     1   109.5600471 388.275200
   2577   2576   2578     1   108.4600466 328.025600
   2578   2576   2579     1   109.5600471 388.275200
   2580   2579   2585     1   108.7700466 392.459200
   2580   2579   2581     1   107.5800459 329.699200
   2581   2579   2585     1   108.7700466 392.459200
   2583   2582   2586     1   108.7700466 392.459200
   2583   2582   2584     1   107.5800459 329.699200
   2584   2582   2586     1   108.7700466 392.459200
   2585   5519   5520     1   117.5500507 404.174400
   2586   5548   5549     1   117.5500507 404.174400
   2591   2594   2595     1   109.5600471 388.275200
   2591   2594   2596     1   109.5600471 388.275200
   2592   2591   2594     1   109.5600471 388.275200
   2592   2591   2597     1   109.8800469 414.216000
   2592   2591   2593     1   108.4600466 328.025600
   2593   2591   2594     1   109.5600471 388.275200
   2593   2591   2597     1   109.8800469 414.216000
   2594   2614   2615     1   117.6800502 383.254400
   2595   2594   2614     1   108.8800464 416.726400
   2595   2594   2596     1   108.4600466 328.025600
   2596   2594   2614     1   108.8800464 416.726400
   2597   2598   2599     1   109.8800469 414.216000
   2597   2598   2600     1   109.8800469 414.216000
   2597   2601   2602     1   109.8800469 414.216000
   2597   2601   2603     1   109.8800469 414.216000
   2598   2607   2608     1   109.8000471 387.438400
   2598   2607   2609     1   109.8000471 387.438400
   2599   2598   2607     1   109.5600471 388.275200
   2599   2598   2600     1   108.4600466 328.025600
   2600   2598   2607     1   109.5600471 388.275200
   2601   2604   2605     1   109.8000471 387.438400
   2601   2604   2606     1   109.8000471 387.438400
   2602   2601   2604     1   109.5600471 388.275200
   2602   2601   2603     1   108.4600466 328.025600
   2603   2601   2604     1   109.5600471 388.275200
   2605   2604   2610     1   108.7700466 392.459200
   2605   2604   2606     1   107.5800459 329.699200
   2606   2604   2610     1   108.7700466 392.459200
   2608   2607   2611     1   108.7700466 392.459200
   2608   2607   2609     1   107.5800459 329.699200
   2609   2607   2611     1   108.7700466 392.459200
   2610   5577   5578     1   117.5500507 404.174400
   2611   5606   5607     1   117.5500507 404.174400
   2616   2619   2620     1   109.5600471 388.275200
   2616   2619   2621     1   109.5600471 388.275200
   2617   2616   2619     1   109.5600471 388.275200
   2617   2616   2622     1   109.8800469 414.216000
   2617   2616   2618     1   108.4600466 328.025600
   2618   2616   2619     1   109.5600471 388.275200
   2618   2616   2622     1   109.8800469 414.216000
   2619   2639   2640     1   117.6800502 383.254400
   2620   2619   2639     1   108.8800464 416.726400
   2620   2619   2621     1   108.4600466 328.025600
   2621   2619   2639     1   108.8800464 416.726400
   2622   2623   2624     1   109.8800469 414.216000
   2622   2623   2625     1   109.8800469 414.216000
   2622   2626   2627     1   109.8800469 414.216000
   2622   2626   2628     1   109.8800469 414.216000
   2623   2632   2633     1   109.8000471 387.438400
   2623   2632   2634     1   109.8000471 387.438400
   2624   2623   2632     1   109.5600471 388.275200
   2624   2623   2625     1   108.4600466 328.025600
   2625   2623   2632     1   109.5600471 388.275200
   2626   2629   2630     1   109.8000471 387.438400
   2626   2629   2631     1   109.8000471 387.438400
   2627   2626   2629     1   109.5600471 388.275200
   2627   2626   2628     1   108.4600466 328.025600
   2628   2626   2629     1   109.5600471 388.275200
   2630   2629   2635     1   108.7700466 392.459200
   2630   2629   2631     1   107.5800459 329.699200
   2631   2629   2635     1   108.7700466 392.459200
   2633   2632   2636     1   108.7700466 392.459200
   2633   2632   2634     1   107.5800459 329.699200
   2634   2632   2636     1   108.7700466 392.459200
   2635   5635   5636     1   117.5500507 404.174400
   2636   5664   5665     1   117.5500507 404.174400
   2641   2644   2645     1   109.5600471 388.275200
   2641   2644   2646     1   109.5600471 388.275200
   2642   2641   2644     1   109.5600471 388.275200
   2642   2641   2647     1   109.8800469 414.216000
   2642   2641   2643     1   108.4600466 328.025600
   2643   2641   2644     1   109.5600471 388.275200
   2643   2641   2647     1   109.8800469 414.216000
   2644   2664   2665     1   117.6800502 383.254400
   2645   2644   2664     1   108.8800464 416.726400
   2645   2644   2646     1   108.4600466 328.025600
   2646   2644   2664     1   108.8800464 416.726400
   2647   2648   2649     1   109.8800469 414.216000
   2647   2648   2650     1   109.8800469 414.216000
   2647   2651   2652     1   109.8800469 414.216000
   2647   2651   2653     1   109.8800469 414.216000
   2648   2657   2658     1   109.8000471 387.438400
   2648   2657   2659     1   109.8000471 387.438400
   2649   2648   2657     1   109.5600471 388.275200
   2649   2648   2650     1   108.4600466 328.025600
   2650   2648   2657     1   109.5600471 388.275200
   2651   2654   2655     1   109.8000471 387.438400
   2651   2654   2656     1   109.8000471 387.438400
   2652   2651   2654     1   109.5600471 388.275200
   2652   2651   2653     1   108.4600466 328.025600
   2653   2651   2654     1   109.5600471 388.275200
   2655   2654   2660     1   108.7700466 392.459200
   2655   2654   2656     1   107.5800459 329.699200
   2656   2654   2660     1   108.7700466 392.459200
   2658   2657   2661     1   108.7700466 392.459200
   2658   2657   2659     1   107.5800459 329.699200
   2659   2657   2661     1   108.7700466 392.459200
   2660   5693   5694     1   117.5500507 404.174400
   2661   5722   5723     1   117.5500507 404.174400
   2666   2669   2670     1   109.5600471 388.275200
   2666   2669   2671     1   109.5600471 388.275200
   2667   2666   2669     1   109.5600471 388.275200
   2667   2666   2672     1   109.8800469 414.216000
   2667   2666   2668     1   108.4600466 328.025600
   2668   2666   2669     1   109.5600471 388.275200
   2668   2666   2672     1   109.8800469 414.216000
   2669   2689   2690     1   117.6800502 383.254400
   2670   2669   2689     1   108.8800464 416.726400
   2670   2669   2671     1   108.4600466 328.025600
   2671   2669   2689     1   108.8800464 416.726400
   2672   2673   2674     1   109.8800469 414.216000
   2672   2673   2675     1   109.8800469 414.216000
   2672   2676   2677     1   109.8800469 414.216000
   2672   2676   2678     1   109.8800469 414.216000
   2673   2682   2683     1   109.8000471 387.438400
   2673   2682   2684     1   109.8000471 387.438400
   2674   2673   2682     1   109.5600471 388.275200
   2674   2673   2675     1   108.4600466 328.025600
   2675   2673   2682     1   109.5600471 388.275200
   2676   2679   2680     1   109.8000471 387.438400
   2676   2679   2681     1   109.8000471 387.438400
   2677   2676   2679     1   109.5600471 388.275200
   2677   2676   2678     1   108.4600466 328.025600
   2678   2676   2679     1   109.5600471 388.275200
   2680   2679   2685     1   108.7700466 392.459200
   2680   2679   2681     1   107.5800459 329.699200
   2681   2679   2685     1   108.7700466 392.459200
   2683   2682   2686     1   108.7700466 392.459200
   2683   2682   2684     1   107.5800459 329.699200
   2684   2682   2686     1   108.7700466 392.459200
   2685   5751   5752     1   117.5500507 404.174400
   2686   5780   5781     1   117.5500507 404.174400
   2691   2694   2695     1   109.5600471 388.275200
   2691   2694   2696     1   109.5600471 388.275200
   2692   2691   2694     1   109.5600471 388.275200
   2692   2691   2697     1   109.8800469 414.216000
   2692   2691   2693     1   108.4600466 328.025600
   2693   2691   2694     1   109.5600471 388.275200
   2693   2691   2697     1   109.8800469 414.216000
   2694   2714   2715     1   117.6800502 383.254400
   2695   2694   2714     1   108.8800464 416.726400
   2695   2694   2696     1   108.4600466 328.025600
   2696   2694   2714     1   108.8800464 416.726400
   2697   2698   2699     1   109.8800469 414.216000
   2697   2698   2700     1   109.8800469 414.216000
   2697   2701   2702     1   109.8800469 414.216000
   2697   2701   2703     1   109.8800469 414.216000
   2698   2707   2708     1   109.8000471 387.438400
   2698   2707   2709     1   109.8000471 387.438400
   2699   2698   2707     1   109.5600471 388.275200
   2699   2698   2700     1   108.4600466 328.025600
   2700   2698   2707     1   109.5600471 388.275200
   2701   2704   2705     1   109.8000471 387.438400
   2701   2704   2706     1   109.8000471 387.438400
   2702   2701   2704     1   109.5600471 388.275200
   2702   2701   2703     1   108.4600466 328.025600
   2703   2701   2704     1   109.5600471 388.275200
   2705   2704   2710     1   108.7700466 392.459200
   2705   2704   2706     1   107.5800459 329.699200
   2706   2704   2710     1   108.7700466 392.459200
   2708   2707   2711     1   108.7700466 392.459200
   2708   2707   2709     1   107.5800459 329.699200
   2709   2707   2711     1   108.7700466 392.459200
   2710   5809   5810     1   117.5500507 404.174400
   2711   5838   5839     1   117.5500507 404.174400
   2716   2719   2720     1   109.5600471 388.275200
   2716   2719   2721     1   109.5600471 388.275200
   2717   2716   2719     1   109.5600471 388.275200
   2717   2716   2722     1   109.8800469 414.216000
   2717   2716   2718     1   108.4600466 328.025600
   2718   2716   2719     1   109.5600471 388.275200
   2718   2716   2722     1   109.8800469 414.216000
   2719   2739   2740     1   117.6800502 383.254400
   2720   2719   2739     1   108.8800464 416.726400
   2720   2719   2721     1   108.4600466 328.025600
   2721   2719   2739     1   108.8800464 416.726400
   2722   2723   2724     1   109.8800469 414.216000
   2722   2723   2725     1   109.8800469 414.216000
   2722   2726   2727     1   109.8800469 414.216000
   2722   2726   2728     1   109.8800469 414.216000
   2723   2732   2733     1   109.8000471 387.438400
   2723   2732   2734     1   109.8000471 387.438400
   2724   2723   2732     1   109.5600471 388.275200
   2724   2723   2725     1   108.4600466 328.025600
   2725   2723   2732     1   109.5600471 388.275200
   2726   2729   2730     1   109.8000471 387.438400
   2726   2729   2731     1   109.8000471 387.438400
   2727   2726   2729     1   109.5600471 388.275200
   2727   2726   2728     1   108.4600466 328.025600
   2728   2726   2729     1   109.5600471 388.275200
   2730   2729   2735     1   108.7700466 392.459200
   2730   2729   2731     1   107.5800459 329.699200
   2731   2729   2735     1   108.7700466 392.459200
   2733   2732   2736     1   108.7700466 392.459200
   2733   2732   2734     1   107.5800459 329.699200
   2734   2732   2736     1   108.7700466 392.459200
   2735   5867   5868     1   117.5500507 404.174400
   2736   5896   5897     1   117.5500507 404.174400
   2741   2744   2745     1   109.5600471 388.275200
   2741   2744   2746     1   109.5600471 388.275200
   2742   2741   2744     1   109.5600471 388.275200
   2742   2741   2747     1   109.8800469 414.216000
   2742   2741   2743     1   108.4600466 328.025600
   2743   2741   2744     1   109.5600471 388.275200
   2743   2741   2747     1   109.8800469 414.216000
   2744   2764   2765     1   117.6800502 383.254400
   2745   2744   2764     1   108.8800464 416.726400
   2745   2744   2746     1   108.4600466 328.025600
   2746   2744   2764     1   108.8800464 416.726400
   2747   2748   2749     1   109.8800469 414.216000
   2747   2748   2750     1   109.8800469 414.216000
   2747   2751   2752     1   109.8800469 414.216000
   2747   2751   2753     1   109.8800469 414.216000
   2748   2757   2758     1   109.8000471 387.438400
   2748   2757   2759     1   109.8000471 387.438400
   2749   2748   2757     1   109.5600471 388.275200
   2749   2748   2750     1   108.4600466 328.025600
   2750   2748   2757     1   109.5600471 388.275200
   2751   2754   2755     1   109.8000471 387.438400
   2751   2754   2756     1   109.8000471 387.438400
   2752   2751   2754     1   109.5600471 388.275200
   2752   2751   2753     1   108.4600466 328.025600
   2753   2751   2754     1   109.5600471 388.275200
   2755   2754   2760     1   108.7700466 392.459200
   2755   2754   2756     1   107.5800459 329.699200
   2756   2754   2760     1   108.7700466 392.459200
   2758   2757   2761     1   108.7700466 392.459200
   2758   2757   2759     1   107.5800459 329.699200
   2759   2757   2761     1   108.7700466 392.459200
   2760   5925   5926     1   117.5500507 404.174400
   2761   5954   5955     1   117.5500507 404.174400
   2766   2769   2770     1   109.5600471 388.275200
   2766   2769   2771     1   109.5600471 388.275200
   2767   2766   2769     1   109.5600471 388.275200
   2767   2766   2772     1   109.8800469 414.216000
   2767   2766   2768     1   108.4600466 328.025600
   2768   2766   2769     1   109.5600471 388.275200
   2768   2766   2772     1   109.8800469 414.216000
   2769   2789   2790     1   117.6800502 383.254400
   2770   2769   2789     1   108.8800464 416.726400
   2770   2769   2771     1   108.4600466 328.025600
   2771   2769   2789     1   108.8800464 416.726400
   2772   2773   2774     1   109.8800469 414.216000
   2772   2773   2775     1   109.8800469 414.216000
   2772   2776   2777     1   109.8800469 414.216000
   2772   2776   2778     1   109.8800469 414.216000
   2773   2782   2783     1   109.8000471 387.438400
   2773   2782   2784     1   109.8000471 387.438400
   2774   2773   2782     1   109.5600471 388.275200
   2774   2773   2775     1   108.4600466 328.025600
   2775   2773   2782     1   109.5600471 388.275200
   2776   2779   2780     1   109.8000471 387.438400
   2776   2779   2781     1   109.8000471 387.438400
   2777   2776   2779     1   109.5600471 388.275200
   2777   2776   2778     1   108.4600466 328.025600
   2778   2776   2779     1   109.5600471 388.275200
   2780   2779   2785     1   108.7700466 392.459200
   2780   2779   2781     1   107.5800459 329.699200
   2781   2779   2785     1   108.7700466 392.459200
   2783   2782   2786     1   108.7700466 392.459200
   2783   2782   2784     1   107.5800459 329.699200
   2784   2782   2786     1   108.7700466 392.459200
   2785   5983   5984     1   117.5500507 404.174400
   2786   6012   6013     1   117.5500507 404.174400
   2791   2794   2795     1   109.5600471 388.275200
   2791   2794   2796     1   109.5600471 388.275200
   2792   2791   2794     1   109.5600471 388.275200
   2792   2791   2797     1   109.8800469 414.216000
   2792   2791   2793     1   108.4600466 328.025600
   2793   2791   2794     1   109.5600471 388.275200
   2793   2791   2797     1   109.8800469 414.216000
   2794   2814   2815     1   117.6800502 383.254400
   2795   2794   2814     1   108.8800464 416.726400
   2795   2794   2796     1   108.4600466 328.025600
   2796   2794   2814     1   108.8800464 416.726400
   2797   2798   2799     1   109.8800469 414.216000
   2797   2798   2800     1   109.8800469 414.216000
   2797   2801   2802     1   109.8800469 414.216000
   2797   2801   2803     1   109.8800469 414.216000
   2798   2807   2808     1   109.8000471 387.438400
   2798   2807   2809     1   109.8000471 387.438400
   2799   2798   2807     1   109.5600471 388.275200
   2799   2798   2800     1   108.4600466 328.025600
   2800   2798   2807     1   109.5600471 388.275200
   2801   2804   2805     1   109.8000471 387.438400
   2801   2804   2806     1   109.8000471 387.438400
   2802   2801   2804     1   109.5600471 388.275200
   2802   2801   2803     1   108.4600466 328.025600
   2803   2801   2804     1   109.5600471 388.275200
   2805   2804   2810     1   108.7700466 392.459200
   2805   2804   2806     1   107.5800459 329.699200
   2806   2804   2810     1   108.7700466 392.459200
   2808   2807   2811     1   108.7700466 392.459200
   2808   2807   2809     1   107.5800459 329.699200
   2809   2807   2811     1   108.7700466 392.459200
   2810   6041   6042     1   117.5500507 404.174400
   2811   6070   6071     1   117.5500507 404.174400
   2816   2819   2820     1   109.5600471 388.275200
   2816   2819   2821     1   109.5600471 388.275200
   2817   2816   2819     1   109.5600471 388.275200
   2817   2816   2822     1   109.8800469 414.216000
   2817   2816   2818     1   108.4600466 328.025600
   2818   2816   2819     1   109.5600471 388.275200
   2818   2816   2822     1   109.8800469 414.216000
   2819   2839   2840     1   117.6800502 383.254400
   2820   2819   2839     1   108.8800464 416.726400
   2820   2819   2821     1   108.4600466 328.025600
   2821   2819   2839     1   108.8800464 416.726400
   2822   2823   2824     1   109.8800469 414.216000
   2822   2823   2825     1   109.8800469 414.216000
   2822   2826   2827     1   109.8800469 414.216000
   2822   2826   2828     1   109.8800469 414.216000
   2823   2832   2833     1   109.8000471 387.438400
   2823   2832   2834     1   109.8000471 387.438400
   2824   2823   2832     1   109.5600471 388.275200
   2824   2823   2825     1   108.4600466 328.025600
   2825   2823   2832     1   109.5600471 388.275200
   2826   2829   2830     1   109.8000471 387.438400
   2826   2829   2831     1   109.8000471 387.438400
   2827   2826   2829     1   109.5600471 388.275200
   2827   2826   2828     1   108.4600466 328.025600
   2828   2826   2829     1   109.5600471 388.275200
   2830   2829   2835     1   108.7700466 392.459200
   2830   2829   2831     1   107.5800459 329.699200
   2831   2829   2835     1   108.7700466 392.459200
   2833   2832   2836     1   108.7700466 392.459200
   2833   2832   2834     1   107.5800459 329.699200
   2834   2832   2836     1   108.7700466 392.459200
   2835   6099   6100     1   117.5500507 404.174400
   2836   6128   6129     1   117.5500507 404.174400
   2841   2844   2845     1   109.5600471 388.275200
   2841   2844   2846     1   109.5600471 388.275200
   2842   2841   2844     1   109.5600471 388.275200
   2842   2841   2847     1   109.8800469 414.216000
   2842   2841   2843     1   108.4600466 328.025600
   2843   2841   2844     1   109.5600471 388.275200
   2843   2841   2847     1   109.8800469 414.216000
   2844   2864   2865     1   117.6800502 383.254400
   2845   2844   2864     1   108.8800464 416.726400
   2845   2844   2846     1   108.4600466 328.025600
   2846   2844   2864     1   108.8800464 416.726400
   2847   2848   2849     1   109.8800469 414.216000
   2847   2848   2850     1   109.8800469 414.216000
   2847   2851   2852     1   109.8800469 414.216000
   2847   2851   2853     1   109.8800469 414.216000
   2848   2857   2858     1   109.8000471 387.438400
   2848   2857   2859     1   109.8000471 387.438400
   2849   2848   2857     1   109.5600471 388.275200
   2849   2848   2850     1   108.4600466 328.025600
   2850   2848   2857     1   109.5600471 388.275200
   2851   2854   2855     1   109.8000471 387.438400
   2851   2854   2856     1   109.8000471 387.438400
   2852   2851   2854     1   109.5600471 388.275200
   2852   2851   2853     1   108.4600466 328.025600
   2853   2851   2854     1   109.5600471 388.275200
   2855   2854   2860     1   108.7700466 392.459200
   2855   2854   2856     1   107.5800459 329.699200
   2856   2854   2860     1   108.7700466 392.459200
   2858   2857   2861     1   108.7700466 392.459200
   2858   2857   2859     1   107.5800459 329.699200
   2859   2857   2861     1   108.7700466 392.459200
   2860   6157   6158     1   117.5500507 404.174400
   2861   6186   6187     1   117.5500507 404.174400
   2866   2869   2870     1   109.5600471 388.275200
   2866   2869   2871     1   109.5600471 388.275200
   2867   2866   2869     1   109.5600471 388.275200
   2867   2866   2872     1   109.8800469 414.216000
   2867   2866   2868     1   108.4600466 328.025600
   2868   2866   2869     1   109.5600471 388.275200
   2868   2866   2872     1   109.8800469 414.216000
   2869   2889   2890     1   117.6800502 383.254400
   2870   2869   2889     1   108.8800464 416.726400
   2870   2869   2871     1   108.4600466 328.025600
   2871   2869   2889     1   108.8800464 416.726400
   2872   2873   2874     1   109.8800469 414.216000
   2872   2873   2875     1   109.8800469 414.216000
   2872   2876   2877     1   109.8800469 414.216000
   2872   2876   2878     1   109.8800469 414.216000
   2873   2882   2883     1   109.8000471 387.438400
   2873   2882   2884     1   109.8000471 387.438400
   2874   2873   2882     1   109.5600471 388.275200
   2874   2873   2875     1   108.4600466 328.025600
   2875   2873   2882     1   109.5600471 388.275200
   2876   2879   2880     1   109.8000471 387.438400
   2876   2879   2881     1   109.8000471 387.438400
   2877   2876   2879     1   109.5600471 388.275200
   2877   2876   2878     1   108.4600466 328.025600
   2878   2876   2879     1   109.5600471 388.275200
   2880   2879   2885     1   108.7700466 392.459200
   2880   2879   2881     1   107.5800459 329.699200
   2881   2879   2885     1   108.7700466 392.459200
   2883   2882   2886     1   108.7700466 392.459200
   2883   2882   2884     1   107.5800459 329.699200
   2884   2882   2886     1   108.7700466 392.459200
   2885   6215   6216     1   117.5500507 404.174400
   2886   6244   6245     1   117.5500507 404.174400
   2891   2894   2895     1   109.5600471 388.275200
   2891   2894   2896     1   109.5600471 388.275200
   2892   2891   2894     1   109.5600471 388.275200
   2892   2891   2897     1   109.8800469 414.216000
   2892   2891   2893     1   108.4600466 328.025600
   2893   2891   2894     1   109.5600471 388.275200
   2893   2891   2897     1   109.8800469 414.216000
   2894   2914   2915     1   117.6800502 383.254400
   2895   2894   2914     1   108.8800464 416.726400
   2895   2894   2896     1   108.4600466 328.025600
   2896   2894   2914     1   108.8800464 416.726400
   2897   2898   2899     1   109.8800469 414.216000
   2897   2898   2900     1   109.8800469 414.216000
   2897   2901   2902     1   109.8800469 414.216000
   2897   2901   2903     1   109.8800469 414.216000
   2898   2907   2908     1   109.8000471 387.438400
   2898   2907   2909     1   109.8000471 387.438400
   2899   2898   2907     1   109.5600471 388.275200
   2899   2898   2900     1   108.4600466 328.025600
   2900   2898   2907     1   109.5600471 388.275200
   2901   2904   2905     1   109.8000471 387.438400
   2901   2904   2906     1   109.8000471 387.438400
   2902   2901   2904     1   109.5600471 388.275200
   2902   2901   2903     1   108.4600466 328.025600
   2903   2901   2904     1   109.5600471 388.275200
   2905   2904   2910     1   108.7700466 392.459200
   2905   2904   2906     1   107.5800459 329.699200
   2906   2904   2910     1   108.7700466 392.459200
   2908   2907   2911     1   108.7700466 392.459200
   2908   2907   2909     1   107.5800459 329.699200
   2909   2907   2911     1   108.7700466 392.459200
   2910   6273   6274     1   117.5500507 404.174400
   2911   6302   6303     1   117.5500507 404.174400
   2916   2919   2920     1   109.5600471 388.275200
   2916   2919   2921     1   109.5600471 388.275200
   2917   2916   2919     1   109.5600471 388.275200
   2917   2916   2922     1   109.8800469 414.216000
   2917   2916   2918     1   108.4600466 328.025600
   2918   2916   2919     1   109.5600471 388.275200
   2918   2916   2922     1   109.8800469 414.216000
   2919   2939   2940     1   117.6800502 383.254400
   2920   2919   2939     1   108.8800464 416.726400
   2920   2919   2921     1   108.4600466 328.025600
   2921   2919   2939     1   108.8800464 416.726400
   2922   2923   2924     1   109.8800469 414.216000
   2922   2923   2925     1   109.8800469 414.216000
   2922   2926   2927     1   109.8800469 414.216000
   2922   2926   2928     1   109.8800469 414.216000
   2923   2932   2933     1   109.8000471 387.438400
   2923   2932   2934     1   109.8000471 387.438400
   2924   2923   2932     1   109.5600471 388.275200
   2924   2923   2925     1   108.4600466 328.025600
   2925   2923   2932     1   109.5600471 388.275200
   2926   2929   2930     1   109.8000471 387.438400
   2926   2929   2931     1   109.8000471 387.438400
   2927   2926   2929     1   109.5600471 388.275200
   2927   2926   2928     1   108.4600466 328.025600
   2928   2926   2929     1   109.5600471 388.275200
   2930   2929   2935     1   108.7700466 392.459200
   2930   2929   2931     1   107.5800459 329.699200
   2931   2929   2935     1   108.7700466 392.459200
   2933   2932   2936     1   108.7700466 392.459200
   2933   2932   2934     1   107.5800459 329.699200
   2934   2932   2936     1   108.7700466 392.459200
   2935   6331   6332     1   117.5500507 404.174400
   2936   6360   6361     1   117.5500507 404.174400
   2941   2944   2945     1   109.5600471 388.275200
   2941   2944   2946     1   109.5600471 388.275200
   2942   2941   2944     1   109.5600471 388.275200
   2942   2941   2947     1   109.8800469 414.216000
   2942   2941   2943     1   108.4600466 328.025600
   2943   2941   2944     1   109.5600471 388.275200
   2943   2941   2947     1   109.8800469 414.216000
   2944   2964   2965     1   117.6800502 383.254400
   2945   2944   2964     1   108.8800464 416.726400
   2945   2944   2946     1   108.4600466 328.025600
   2946   2944   2964     1   108.8800464 416.726400
   2947   2948   2949     1   109.8800469 414.216000
   2947   2948   2950     1   109.8800469 414.216000
   2947   2951   2952     1   109.8800469 414.216000
   2947   2951   2953     1   109.8800469 414.216000
   2948   2957   2958     1   109.8000471 387.438400
   2948   2957   2959     1   109.8000471 387.438400
   2949   2948   2957     1   109.5600471 388.275200
   2949   2948   2950     1   108.4600466 328.025600
   2950   2948   2957     1   109.5600471 388.275200
   2951   2954   2955     1   109.8000471 387.438400
   2951   2954   2956     1   109.8000471 387.438400
   2952   2951   2954     1   109.5600471 388.275200
   2952   2951   2953     1   108.4600466 328.025600
   2953   2951   2954     1   109.5600471 388.275200
   2955   2954   2960     1   108.7700466 392.459200
   2955   2954   2956     1   107.5800459 329.699200
   2956   2954   2960     1   108.7700466 392.459200
   2958   2957   2961     1   108.7700466 392.459200
   2958   2957   2959     1   107.5800459 329.699200
   2959   2957   2961     1   108.7700466 392.459200
   2960   6389   6390     1   117.5500507 404.174400
   2961   6418   6419     1   117.5500507 404.174400
   2966   2969   2970     1   109.5600471 388.275200
   2966   2969   2971     1   109.5600471 388.275200
   2967   2966   2969     1   109.5600471 388.275200
   2967   2966   2972     1   109.8800469 414.216000
   2967   2966   2968     1   108.4600466 328.025600
   2968   2966   2969     1   109.5600471 388.275200
   2968   2966   2972     1   109.8800469 414.216000
   2969   2989   2990     1   117.6800502 383.254400
   2970   2969   2989     1   108.8800464 416.726400
   2970   2969   2971     1   108.4600466 328.025600
   2971   2969   2989     1   108.8800464 416.726400
   2972   2973   2974     1   109.8800469 414.216000
   2972   2973   2975     1   109.8800469 414.216000
   2972   2976   2977     1   109.8800469 414.216000
   2972   2976   2978     1   109.8800469 414.216000
   2973   2982   2983     1   109.8000471 387.438400
   2973   2982   2984     1   109.8000471 387.438400
   2974   2973   2982     1   109.5600471 388.275200
   2974   2973   2975     1   108.4600466 328.025600
   2975   2973   2982     1   109.5600471 388.275200
   2976   2979   2980     1   109.8000471 387.438400
   2976   2979   2981     1   109.8000471 387.438400
   2977   2976   2979     1   109.5600471 388.275200
   2977   2976   2978     1   108.4600466 328.025600
   2978   2976   2979     1   109.5600471 388.275200
   2980   2979   2985     1   108.7700466 392.459200
   2980   2979   2981     1   107.5800459 329.699200
   2981   2979   2985     1   108.7700466 392.459200
   2983   2982   2986     1   108.7700466 392.459200
   2983   2982   2984     1   107.5800459 329.699200
   2984   2982   2986     1   108.7700466 392.459200
   2985   6447   6448     1   117.5500507 404.174400
   2986   6476   6477     1   117.5500507 404.174400
   2991   2994   2995     1   109.5600471 388.275200
   2991   2994   2996     1   109.5600471 388.275200
   2992   2991   2994     1   109.5600471 388.275200
   2992   2991   2997     1   109.8800469 414.216000
   2992   2991   2993     1   108.4600466 328.025600
   2993   2991   2994     1   109.5600471 388.275200
   2993   2991   2997     1   109.8800469 414.216000
   2994   3014   3015     1   117.6800502 383.254400
   2995   2994   3014     1   108.8800464 416.726400
   2995   2994   2996     1   108.4600466 328.025600
   2996   2994   3014     1   108.8800464 416.726400
   2997   2998   2999     1   109.8800469 414.216000
   2997   2998   3000     1   109.8800469 414.216000
   2997   3001   3002     1   109.8800469 414.216000
   2997   3001   3003     1   109.8800469 414.216000
   2998   3007   3008     1   109.8000471 387.438400
   2998   3007   3009     1   109.8000471 387.438400
   2999   2998   3007     1   109.5600471 388.275200
   2999   2998   3000     1   108.4600466 328.025600
   3000   2998   3007     1   109.5600471 388.275200
   3001   3004   3005     1   109.8000471 387.438400
   3001   3004   3006     1   109.8000471 387.438400
   3002   3001   3004     1   109.5600471 388.275200
   3002   3001   3003     1   108.4600466 328.025600
   3003   3001   3004     1   109.5600471 388.275200
   3005   3004   3010     1   108.7700466 392.459200
   3005   3004   3006     1   107.5800459 329.699200
   3006   3004   3010     1   108.7700466 392.459200
   3008   3007   3011     1   108.7700466 392.459200
   3008   3007   3009     1   107.5800459 329.699200
   3009   3007   3011     1   108.7700466 392.459200
   3010   6505   6506     1   117.5500507 404.174400
   3011   6534   6535     1   117.5500507 404.174400
   3016   3019   3020     1   109.5600471 388.275200
   3016   3019   3021     1   109.5600471 388.275200
   3017   3016   3019     1   109.5600471 388.275200
   3017   3016   3022     1   109.8800469 414.216000
   3017   3016   3018     1   108.4600466 328.025600
   3018   3016   3019     1   109.5600471 388.275200
   3018   3016   3022     1   109.8800469 414.216000
   3019   3039   3040     1   117.6800502 383.254400
   3020   3019   3039     1   108.8800464 416.726400
   3020   3019   3021     1   108.4600466 328.025600
   3021   3019   3039     1   108.8800464 416.726400
   3022   3023   3024     1   109.8800469 414.216000
   3022   3023   3025     1   109.8800469 414.216000
   3022   3026   3027     1   109.8800469 414.216000
   3022   3026   3028     1   109.8800469 414.216000
   3023   3032   3033     1   109.8000471 387.438400
   3023   3032   3034     1   109.8000471 387.438400
   3024   3023   3032     1   109.5600471 388.275200
   3024   3023   3025     1   108.4600466 328.025600
   3025   3023   3032     1   109.5600471 388.275200
   3026   3029   3030     1   109.8000471 387.438400
   3026   3029   3031     1   109.8000471 387.438400
   3027   3026   3029     1   109.5600471 388.275200
   3027   3026   3028     1   108.4600466 328.025600
   3028   3026   3029     1   109.5600471 388.275200
   3030   3029   3035     1   108.7700466 392.459200
   3030   3029   3031     1   107.5800459 329.699200
   3031   3029   3035     1   108.7700466 392.459200
   3033   3032   3036     1   108.7700466 392.459200
   3033   3032   3034     1   107.5800459 329.699200
   3034   3032   3036     1   108.7700466 392.459200
   3035   6563   6564     1   117.5500507 404.174400
   3036   6592   6593     1   117.5500507 404.174400
   3041   3044   3045     1   109.5600471 388.275200
   3041   3044   3046     1   109.5600471 388.275200
   3042   3041   3044     1   109.5600471 388.275200
   3042   3041   3047     1   109.8800469 414.216000
   3042   3041   3043     1   108.4600466 328.025600
   3043   3041   3044     1   109.5600471 388.275200
   3043   3041   3047     1   109.8800469 414.216000
   3044   3064   3065     1   117.6800502 383.254400
   3045   3044   3064     1   108.8800464 416.726400
   3045   3044   3046     1   108.4600466 328.025600
   3046   3044   3064     1   108.8800464 416.726400
   3047   3048   3049     1   109.8800469 414.216000
   3047   3048   3050     1   109.8800469 414.216000
   3047   3051   3052     1   109.8800469 414.216000
   3047   3051   3053     1   109.8800469 414.216000
   3048   3057   3058     1   109.8000471 387.438400
   3048   3057   3059     1   109.8000471 387.438400
   3049   3048   3057     1   109.5600471 388.275200
   3049   3048   3050     1   108.4600466 328.025600
   3050   3048   3057     1   109.5600471 388.275200
   3051   3054   3055     1   109.8000471 387.438400
   3051   3054   3056     1   109.8000471 387.438400
   3052   3051   3054     1   109.5600471 388.275200
   3052   3051   3053     1   108.4600466 328.025600
   3053   3051   3054     1   109.5600471 388.275200
   3055   3054   3060     1   108.7700466 392.459200
   3055   3054   3056     1   107.5800459 329.699200
   3056   3054   3060     1   108.7700466 392.459200
   3058   3057   3061     1   108.7700466 392.459200
   3058   3057   3059     1   107.5800459 329.699200
   3059   3057   3061     1   108.7700466 392.459200
   3060   6621   6622     1   117.5500507 404.174400
   3061   6650   6651     1   117.5500507 404.174400
   3066   3069   3070     1   109.5600471 388.275200
   3066   3069   3071     1   109.5600471 388.275200
   3067   3066   3069     1   109.5600471 388.275200
   3067   3066   3072     1   109.8800469 414.216000
   3067   3066   3068     1   108.4600466 328.025600
   3068   3066   3069     1   109.5600471 388.275200
   3068   3066   3072     1   109.8800469 414.216000
   3069   3089   3090     1   117.6800502 383.254400
   3070   3069   3089     1   108.8800464 416.726400
   3070   3069   3071     1   108.4600466 328.025600
   3071   3069   3089     1   108.8800464 416.726400
   3072   3073   3074     1   109.8800469 414.216000
   3072   3073   3075     1   109.8800469 414.216000
   3072   3076   3077     1   109.8800469 414.216000
   3072   3076   3078     1   109.8800469 414.216000
   3073   3082   3083     1   109.8000471 387.438400
   3073   3082   3084     1   109.8000471 387.438400
   3074   3073   3082     1   109.5600471 388.275200
   3074   3073   3075     1   108.4600466 328.025600
   3075   3073   3082     1   109.5600471 388.275200
   3076   3079   3080     1   109.8000471 387.438400
   3076   3079   3081     1   109.8000471 387.438400
   3077   3076   3079     1   109.5600471 388.275200
   3077   3076   3078     1   108.4600466 328.025600
   3078   3076   3079     1   109.5600471 388.275200
   3080   3079   3085     1   108.7700466 392.459200
   3080   3079   3081     1   107.5800459 329.699200
   3081   3079   3085     1   108.7700466 392.459200
   3083   3082   3086     1   108.7700466 392.459200
   3083   3082   3084     1   107.5800459 329.699200
   3084   3082   3086     1   108.7700466 392.459200
   3085   6679   6680     1   117.5500507 404.174400
   3086   6708   6709     1   117.5500507 404.174400
   3091   3094   3095     1   109.5600471 388.275200
   3091   3094   3096     1   109.5600471 388.275200
   3092   3091   3094     1   109.5600471 388.275200
   3092   3091   3097     1   109.8800469 414.216000
   3092   3091   3093     1   108.4600466 328.025600
   3093   3091   3094     1   109.5600471 388.275200
   3093   3091   3097     1   109.8800469 414.216000
   3094   3114   3115     1   117.6800502 383.254400
   3095   3094   3114     1   108.8800464 416.726400
   3095   3094   3096     1   108.4600466 328.025600
   3096   3094   3114     1   108.8800464 416.726400
   3097   3098   3099     1   109.8800469 414.216000
   3097   3098   3100     1   109.8800469 414.216000
   3097   3101   3102     1   109.8800469 414.216000
   3097   3101   3103     1   109.8800469 414.216000
   3098   3107   3108     1   109.8000471 387.438400
   3098   3107   3109     1   109.8000471 387.438400
   3099   3098   3107     1   109.5600471 388.275200
   3099   3098   3100     1   108.4600466 328.025600
   3100   3098   3107     1   109.5600471 388.275200
   3101   3104   3105     1   109.8000471 387.438400
   3101   3104   3106     1   109.8000471 387.438400
   3102   3101   3104     1   109.5600471 388.275200
   3102   3101   3103     1   108.4600466 328.025600
   3103   3101   3104     1   109.5600471 388.275200
   3105   3104   3110     1   108.7700466 392.459200
   3105   3104   3106     1   107.5800459 329.699200
   3106   3104   3110     1   108.7700466 392.459200
   3108   3107   3111     1   108.7700466 392.459200
   3108   3107   3109     1   107.5800459 329.699200
   3109   3107   3111     1   108.7700466 392.459200
   3110   6737   6738     1   117.5500507 404.174400
   3111   6766   6767     1   117.5500507 404.174400
   3116   3119   3120     1   109.5600471 388.275200
   3116   3119   3121     1   109.5600471 388.275200
   3117   3116   3119     1   109.5600471 388.275200
   3117   3116   3122     1   109.8800469 414.216000
   3117   3116   3118     1   108.4600466 328.025600
   3118   3116   3119     1   109.5600471 388.275200
   3118   3116   3122     1   109.8800469 414.216000
   3119   3139   3140     1   117.6800502 383.254400
   3120   3119   3139     1   108.8800464 416.726400
   3120   3119   3121     1   108.4600466 328.025600
   3121   3119   3139     1   108.8800464 416.726400
   3122   3123   3124     1   109.8800469 414.216000
   3122   3123   3125     1   109.8800469 414.216000
   3122   3126   3127     1   109.8800469 414.216000
   3122   3126   3128     1   109.8800469 414.216000
   3123   3132   3133     1   109.8000471 387.438400
   3123   3132   3134     1   109.8000471 387.438400
   3124   3123   3132     1   109.5600471 388.275200
   3124   3123   3125     1   108.4600466 328.025600
   3125   3123   3132     1   109.5600471 388.275200
   3126   3129   3130     1   109.8000471 387.438400
   3126   3129   3131     1   109.8000471 387.438400
   3127   3126   3129     1   109.5600471 388.275200
   3127   3126   3128     1   108.4600466 328.025600
   3128   3126   3129     1   109.5600471 388.275200
   3130   3129   3135     1   108.7700466 392.459200
   3130   3129   3131     1   107.5800459 329.699200
   3131   3129   3135     1   108.7700466 392.459200
   3133   3132   3136     1   108.7700466 392.459200
   3133   3132   3134     1   107.5800459 329.699200
   3134   3132   3136     1   108.7700466 392.459200
   3135   6795   6796     1   117.5500507 404.174400
   3136   6824   6825     1   117.5500507 404.174400
   3141   3143   3144     1   108.8800464 416.726400
   3141   3143   3146     1   108.8800464 416.726400
   3142   3141   3143     1   117.6800502 383.254400
   3143   3145   3147     1   109.5600471 388.275200
   3143   3145   3148     1   109.5600471 388.275200
   3144   3143   3145     1   109.5600471 388.275200
   3144   3143   3146     1   108.4600466 328.025600
   3145   3143   3146     1   109.5600471 388.275200
   3147   3145   3149     1   109.8800469 414.216000
   3147   3145   3148     1   108.4600466 328.025600
   3148   3145   3149     1   109.8800469 414.216000
   3149   3150   3160     1   109.8800469 414.216000
   3149   3150   3161     1   109.8800469 414.216000
   3149   3151   3152     1   109.8800469 414.216000
   3149   3151   3154     1   109.8800469 414.216000
   3150   3162   3163     1   109.8000471 387.438400
   3150   3162   3164     1   109.8000471 387.438400
   3151   3153   3155     1   109.8000471 387.438400
   3151   3153   3156     1   109.8000471 387.438400
   3152   3151   3153     1   109.5600471 388.275200
   3152   3151   3154     1   108.4600466 328.025600
   3153   3151   3154     1   109.5600471 388.275200
   3155   3153   3157     1   108.7700466 392.459200
   3155   3153   3156     1   107.5800459 329.699200
   3156   3153   3157     1   108.7700466 392.459200
   3157   3158   3168     1   106.5500460 417.563200
   3160   3150   3162     1   109.5600471 388.275200
   3160   3150   3161     1   108.4600466 328.025600
   3161   3150   3162     1   109.5600471 388.275200
   3163   3162   3165     1   108.7700466 392.459200
   3163   3162   3164     1   107.5800459 329.699200
   3164   3162   3165     1   108.7700466 392.459200
   3165   3167   3169     1   106.5500460 417.563200
   3170   3172   3173     1   108.8800464 416.726400
   3170   3172   3175     1   108.8800464 416.726400
   3171   3170   3172     1   117.6800502 383.254400
   3172   3174   3176     1   109.5600471 388.275200
   3172   3174   3177     1   109.5600471 388.275200
   3173   3172   3174     1   109.5600471 388.275200
   3173   3172   3175     1   108.4600466 328.025600
   3174   3172   3175     1   109.5600471 388.275200
   3176   3174   3178     1   109.8800469 414.216000
   3176   3174   3177     1   108.4600466 328.025600
   3177   3174   3178     1   109.8800469 414.216000
   3178   3179   3189     1   109.8800469 414.216000
   3178   3179   3190     1   109.8800469 414.216000
   3178   3180   3181     1   109.8800469 414.216000
   3178   3180   3183     1   109.8800469 414.216000
   3179   3191   3192     1   109.8000471 387.438400
   3179   3191   3193     1   109.8000471 387.438400
   3180   3182   3184     1   109.8000471 387.438400
   3180   3182   3185     1   109.8000471 387.438400
   3181   3180   3182     1   109.5600471 388.275200
   3181   3180   3183     1   108.4600466 328.025600
   3182   3180   3183     1   109.5600471 388.275200
   3184   3182   3186     1   108.7700466 392.459200
   3184   3182   3185     1   107.5800459 329.699200
   3185   3182   3186     1   108.7700466 392.459200
   3186   3187   3197     1   106.5500460 417.563200
   3189   3179   3191     1   109.5600471 388.275200
   3189   3179   3190     1   108.4600466 328.025600
   3190   3179   3191     1   109.5600471 388.275200
   3192   3191   3194     1   108.7700466 392.459200
   3192   3191   3193     1   107.5800459 329.699200
   3193   3191   3194     1   108.7700466 392.459200
   3194   3196   3198     1   106.5500460 417.563200
   3199   3201   3202     1   108.8800464 416.726400
   3199   3201   3204     1   108.8800464 416.726400
   3200   3199   3201     1   117.6800502 383.254400
   3201   3203   3205     1   109.5600471 388.275200
   3201   3203   3206     1   109.5600471 388.275200
   3202   3201   3203     1   109.5600471 388.275200
   3202   3201   3204     1   108.4600466 328.025600
   3203   3201   3204     1   109.5600471 388.275200
   3205   3203   3207     1   109.8800469 414.216000
   3205   3203   3206     1   108.4600466 328.025600
   3206   3203   3207     1   109.8800469 414.216000
   3207   3208   3218     1   109.8800469 414.216000
   3207   3208   3219     1   109.8800469 414.216000
   3207   3209   3210     1   109.8800469 414.216000
   3207   3209   3212     1   109.8800469 414.216000
   3208   3220   3221     1   109.8000471 387.438400
   3208   3220   3222     1   109.8000471 387.438400
   3209   3211   3213     1   109.8000471 387.438400
   3209   3211   3214     1   109.8000471 387.438400
   3210   3209   3211     1   109.5600471 388.275200
   3210   3209   3212     1   108.4600466 328.025600
   3211   3209   3212     1   109.5600471 388.275200
   3213   3211   3215     1   108.7700466 392.459200
   3213   3211   3214     1   107.5800459 329.699200
   3214   3211   3215     1   108.7700466 392.459200
   3215   3216   3226     1   106.5500460 417.563200
   3218   3208   3220     1   109.5600471 388.275200
   3218   3208   3219     1   108.4600466 328.025600
   3219   3208   3220     1   109.5600471 388.275200
   3221   3220   3223     1   108.7700466 392.459200
   3221   3220   3222     1   107.5800459 329.699200
   3222   3220   3223     1   108.7700466 392.459200
   3223   3225   3227     1   106.5500460 417.563200
   3228   3230   3231     1   108.8800464 416.726400
   3228   3230   3233     1   108.8800464 416.726400
   3229   3228   3230     1   117.6800502 383.254400
   3230   3232   3234     1   109.5600471 388.275200
   3230   3232   3235     1   109.5600471 388.275200
   3231   3230   3232     1   109.5600471 388.275200
   3231   3230   3233     1   108.4600466 328.025600
   3232   3230   3233     1   109.5600471 388.275200
   3234   3232   3236     1   109.8800469 414.216000
   3234   3232   3235     1   108.4600466 328.025600
   3235   3232   3236     1   109.8800469 414.216000
   3236   3237   3247     1   109.8800469 414.216000
   3236   3237   3248     1   109.8800469 414.216000
   3236   3238   3239     1   109.8800469 414.216000
   3236   3238   3241     1   109.8800469 414.216000
   3237   3249   3250     1   109.8000471 387.438400
   3237   3249   3251     1   109.8000471 387.438400
   3238   3240   3242     1   109.8000471 387.438400
   3238   3240   3243     1   109.8000471 387.438400
   3239   3238   3240     1   109.5600471 388.275200
   3239   3238   3241     1   108.4600466 328.025600
   3240   3238   3241     1   109.5600471 388.275200
   3242   3240   3244     1   108.7700466 392.459200
   3242   3240   3243     1   107.5800459 329.699200
   3243   3240   3244     1   108.7700466 392.459200
   3244   3245   3255     1   106.5500460 417.563200
   3247   3237   3249     1   109.5600471 388.275200
   3247   3237   3248     1   108.4600466 328.025600
   3248   3237   3249     1   109.5600471 388.275200
   3250   3249   3252     1   108.7700466 392.459200
   3250   3249   3251     1   107.5800459 329.699200
   3251   3249   3252     1   108.7700466 392.459200
   3252   3254   3256     1   106.5500460 417.563200
   3257   3259   3260     1   108.8800464 416.726400
   3257   3259   3262     1   108.8800464 416.726400
   3258   3257   3259     1   117.6800502 383.254400
   3259   3261   3263     1   109.5600471 388.275200
   3259   3261   3264     1   109.5600471 388.275200
   3260   3259   3261     1   109.5600471 388.275200
   3260   3259   3262     1   108.4600466 328.025600
   3261   3259   3262     1   109.5600471 388.275200
   3263   3261   3265     1   109.8800469 414.216000
   3263   3261   3264     1   108.4600466 328.025600
   3264   3261   3265     1   109.8800469 414.216000
   3265   3266   3276     1   109.8800469 414.216000
   3265   3266   3277     1   109.8800469 414.216000
   3265   3267   3268     1   109.8800469 414.216000
   3265   3267   3270     1   109.8800469 414.216000
   3266   3278   3279     1   109.8000471 387.438400
   3266   3278   3280     1   109.8000471 387.438400
   3267   3269   3271     1   109.8000471 387.438400
   3267   3269   3272     1   109.8000471 387.438400
   3268   3267   3269     1   109.5600471 388.275200
   3268   3267   3270     1   108.4600466 328.025600
   3269   3267   3270     1   109.5600471 388.275200
   3271   3269   3273     1   108.7700466 392.459200
   3271   3269   3272     1   107.5800459 329.699200
   3272   3269   3273     1   108.7700466 392.459200
   3273   3274   3284     1   106.5500460 417.563200
   3276   3266   3278     1   109.5600471 388.275200
   3276   3266   3277     1   108.4600466 328.025600
   3277   3266   3278     1   109.5600471 388.275200
   3279   3278   3281     1   108.7700466 392.459200
   3279   3278   3280     1   107.5800459 329.699200
   3280   3278   3281     1   108.7700466 392.459200
   3281   3283   3285     1   106.5500460 417.563200
   3286   3288   3289     1   108.8800464 416.726400
   3286   3288   3291     1   108.8800464 416.726400
   3287   3286   3288     1   117.6800502 383.254400
   3288   3290   3292     1   109.5600471 388.275200
   3288   3290   3293     1   109.5600471 388.275200
   3289   3288   3290     1   109.5600471 388.275200
   3289   3288   3291     1   108.4600466 328.025600
   3290   3288   3291     1   109.5600471 388.275200
   3292   3290   3294     1   109.8800469 414.216000
   3292   3290   3293     1   108.4600466 328.025600
   3293   3290   3294     1   109.8800469 414.216000
   3294   3295   3305     1   109.8800469 414.216000
   3294   3295   3306     1   109.8800469 414.216000
   3294   3296   3297     1   109.8800469 414.216000
   3294   3296   3299     1   109.8800469 414.216000
   3295   3307   3308     1   109.8000471 387.438400
   3295   3307   3309     1   109.8000471 387.438400
   3296   3298   3300     1   109.8000471 387.438400
   3296   3298   3301     1   109.8000471 387.438400
   3297   3296   3298     1   109.5600471 388.275200
   3297   3296   3299     1   108.4600466 328.025600
   3298   3296   3299     1   109.5600471 388.275200
   3300   3298   3302     1   108.7700466 392.459200
   3300   3298   3301     1   107.5800459 329.699200
   3301   3298   3302     1   108.7700466 392.459200
   3302   3303   3313     1   106.5500460 417.563200
   3305   3295   3307     1   109.5600471 388.275200
   3305   3295   3306     1   108.4600466 328.025600
   3306   3295   3307     1   109.5600471 388.275200
   3308   3307   3310     1   108.7700466 392.459200
   3308   3307   3309     1   107.5800459 329.699200
   3309   3307   3310     1   108.7700466 392.459200
   3310   3312   3314     1   106.5500460 417.563200
   3315   3317   3318     1   108.8800464 416.726400
   3315   3317   3320     1   108.8800464 416.726400
   3316   3315   3317     1   117.6800502 383.254400
   3317   3319   3321     1   109.5600471 388.275200
   3317   3319   3322     1   109.5600471 388.275200
   3318   3317   3319     1   109.5600471 388.275200
   3318   3317   3320     1   108.4600466 328.025600
   3319   3317   3320     1   109.5600471 388.275200
   3321   3319   3323     1   109.8800469 414.216000
   3321   3319   3322     1   108.4600466 328.025600
   3322   3319   3323     1   109.8800469 414.216000
   3323   3324   3334     1   109.8800469 414.216000
   3323   3324   3335     1   109.8800469 414.216000
   3323   3325   3326     1   109.8800469 414.216000
   3323   3325   3328     1   109.8800469 414.216000
   3324   3336   3337     1   109.8000471 387.438400
   3324   3336   3338     1   109.8000471 387.438400
   3325   3327   3329     1   109.8000471 387.438400
   3325   3327   3330     1   109.8000471 387.438400
   3326   3325   3327     1   109.5600471 388.275200
   3326   3325   3328     1   108.4600466 328.025600
   3327   3325   3328     1   109.5600471 388.275200
   3329   3327   3331     1   108.7700466 392.459200
   3329   3327   3330     1   107.5800459 329.699200
   3330   3327   3331     1   108.7700466 392.459200
   3331   3332   3342     1   106.5500460 417.563200
   3334   3324   3336     1   109.5600471 388.275200
   3334   3324   3335     1   108.4600466 328.025600
   3335   3324   3336     1   109.5600471 388.275200
   3337   3336   3339     1   108.7700466 392.459200
   3337   3336   3338     1   107.5800459 329.699200
   3338   3336   3339     1   108.7700466 392.459200
   3339   3341   3343     1   106.5500460 417.563200
   3344   3346   3347     1   108.8800464 416.726400
   3344   3346   3349     1   108.8800464 416.726400
   3345   3344   3346     1   117.6800502 383.254400
   3346   3348   3350     1   109.5600471 388.275200
   3346   3348   3351     1   109.5600471 388.275200
   3347   3346   3348     1   109.5600471 388.275200
   3347   3346   3349     1   108.4600466 328.025600
   3348   3346   3349     1   109.5600471 388.275200
   3350   3348   3352     1   109.8800469 414.216000
   3350   3348   3351     1   108.4600466 328.025600
   3351   3348   3352     1   109.8800469 414.216000
   3352   3353   3363     1   109.8800469 414.216000
   3352   3353   3364     1   109.8800469 414.216000
   3352   3354   3355     1   109.8800469 414.216000
   3352   3354   3357     1   109.8800469 414.216000
   3353   3365   3366     1   109.8000471 387.438400
   3353   3365   3367     1   109.8000471 387.438400
   3354   3356   3358     1   109.8000471 387.438400
   3354   3356   3359     1   109.8000471 387.438400
   3355   3354   3356     1   109.5600471 388.275200
   3355   3354   3357     1   108.4600466 328.025600
   3356   3354   3357     1   109.5600471 388.275200
   3358   3356   3360     1   108.7700466 392.459200
   3358   3356   3359     1   107.5800459 329.699200
   3359   3356   3360     1   108.7700466 392.459200
   3360   3361   3371     1   106.5500460 417.563200
   3363   3353   3365     1   109.5600471 388.275200
   3363   3353   3364     1   108.4600466 328.025600
   3364   3353   3365     1   109.5600471 388.275200
   3366   3365   3368     1   108.7700466 392.459200
   3366   3365   3367     1   107.5800459 329.699200
   3367   3365   3368     1   108.7700466 392.459200
   3368   3370   3372     1   106.5500460 417.563200
   3373   3375   3376     1   108.8800464 416.726400
   3373   3375   3378     1   108.8800464 416.726400
   3374   3373   3375     1   117.6800502 383.254400
   3375   3377   3379     1   109.5600471 388.275200
   3375   3377   3380     1   109.5600471 388.275200
   3376   3375   3377     1   109.5600471 388.275200
   3376   3375   3378     1   108.4600466 328.025600
   3377   3375   3378     1   109.5600471 388.275200
   3379   3377   3381     1   109.8800469 414.216000
   3379   3377   3380     1   108.4600466 328.025600
   3380   3377   3381     1   109.8800469 414.216000
   3381   3382   3392     1   109.8800469 414.216000
   3381   3382   3393     1   109.8800469 414.216000
   3381   3383   3384     1   109.8800469 414.216000
   3381   3383   3386     1   109.8800469 414.216000
   3382   3394   3395     1   109.8000471 387.438400
   3382   3394   3396     1   109.8000471 387.438400
   3383   3385   3387     1   109.8000471 387.438400
   3383   3385   3388     1   109.8000471 387.438400
   3384   3383   3385     1   109.5600471 388.275200
   3384   3383   3386     1   108.4600466 328.025600
   3385   3383   3386     1   109.5600471 388.275200
   3387   3385   3389     1   108.7700466 392.459200
   3387   3385   3388     1   107.5800459 329.699200
   3388   3385   3389     1   108.7700466 392.459200
   3389   3390   3400     1   106.5500460 417.563200
   3392   3382   3394     1   109.5600471 388.275200
   3392   3382   3393     1   108.4600466 328.025600
   3393   3382   3394     1   109.5600471 388.275200
   3395   3394   3397     1   108.7700466 392.459200
   3395   3394   3396     1   107.5800459 329.699200
   3396   3394   3397     1   108.7700466 392.459200
   3397   3399   3401     1   106.5500460 417.563200
   3402   3404   3405     1   108.8800464 416.726400
   3402   3404   3407     1   108.8800464 416.726400
   3403   3402   3404     1   117.6800502 383.254400
   3404   3406   3408     1   109.5600471 388.275200
   3404   3406   3409     1   109.5600471 388.275200
   3405   3404   3406     1   109.5600471 388.275200
   3405   3404   3407     1   108.4600466 328.025600
   3406   3404   3407     1   109.5600471 388.275200
   3408   3406   3410     1   109.8800469 414.216000
   3408   3406   3409     1   108.4600466 328.025600
   3409   3406   3410     1   109.8800469 414.216000
   3410   3411   3421     1   109.8800469 414.216000
   3410   3411   3422     1   109.8800469 414.216000
   3410   3412   3413     1   109.8800469 414.216000
   3410   3412   3415     1   109.8800469 414.216000
   3411   3423   3424     1   109.8000471 387.438400
   3411   3423   3425     1   109.8000471 387.438400
   3412   3414   3416     1   109.8000471 387.438400
   3412   3414   3417     1   109.8000471 387.438400
   3413   3412   3414     1   109.5600471 388.275200
   3413   3412   3415     1   108.4600466 328.025600
   3414   3412   3415     1   109.5600471 388.275200
   3416   3414   3418     1   108.7700466 392.459200
   3416   3414   3417     1   107.5800459 329.699200
   3417   3414   3418     1   108.7700466 392.459200
   3418   3419   3429     1   106.5500460 417.563200
   3421   3411   3423     1   109.5600471 388.275200
   3421   3411   3422     1   108.4600466 328.025600
   3422   3411   3423     1   109.5600471 388.275200
   3424   3423   3426     1   108.7700466 392.459200
   3424   3423   3425     1   107.5800459 329.699200
   3425   3423   3426     1   108.7700466 392.459200
   3426   3428   3430     1   106.5500460 417.563200
   3431   3433   3434     1   108.8800464 416.726400
   3431   3433   3436     1   108.8800464 416.726400
   3432   3431   3433     1   117.6800502 383.254400
   3433   3435   3437     1   109.5600471 388.275200
   3433   3435   3438     1   109.5600471 388.275200
   3434   3433   3435     1   109.5600471 388.275200
   3434   3433   3436     1   108.4600466 328.025600
   3435   3433   3436     1   109.5600471 388.275200
   3437   3435   3439     1   109.8800469 414.216000
   3437   3435   3438     1   108.4600466 328.025600
   3438   3435   3439     1   109.8800469 414.216000
   3439   3440   3450     1   109.8800469 414.216000
   3439   3440   3451     1   109.8800469 414.216000
   3439   3441   3442     1   109.8800469 414.216000
   3439   3441   3444     1   109.8800469 414.216000
   3440   3452   3453     1   109.8000471 387.438400
   3440   3452   3454     1   109.8000471 387.438400
   3441   3443   3445     1   109.8000471 387.438400
   3441   3443   3446     1   109.8000471 387.438400
   3442   3441   3443     1   109.5600471 388.275200
   3442   3441   3444     1   108.4600466 328.025600
   3443   3441   3444     1   109.5600471 388.275200
   3445   3443   3447     1   108.7700466 392.459200
   3445   3443   3446     1   107.5800459 329.699200
   3446   3443   3447     1   108.7700466 392.459200
   3447   3448   3458     1   106.5500460 417.563200
   3450   3440   3452     1   109.5600471 388.275200
   3450   3440   3451     1   108.4600466 328.025600
   3451   3440   3452     1   109.5600471 388.275200
   3453   3452   3455     1   108.7700466 392.459200
   3453   3452   3454     1   107.5800459 329.699200
   3454   3452   3455     1   108.7700466 392.459200
   3455   3457   3459     1   106.5500460 417.563200
   3460   3462   3463     1   108.8800464 416.726400
   3460   3462   3465     1   108.8800464 416.726400
   3461   3460   3462     1   117.6800502 383.254400
   3462   3464   3466     1   109.5600471 388.275200
   3462   3464   3467     1   109.5600471 388.275200
   3463   3462   3464     1   109.5600471 388.275200
   3463   3462   3465     1   108.4600466 328.025600
   3464   3462   3465     1   109.5600471 388.275200
   3466   3464   3468     1   109.8800469 414.216000
   3466   3464   3467     1   108.4600466 328.025600
   3467   3464   3468     1   109.8800469 414.216000
   3468   3469   3479     1   109.8800469 414.216000
   3468   3469   3480     1   109.8800469 414.216000
   3468   3470   3471     1   109.8800469 414.216000
   3468   3470   3473     1   109.8800469 414.216000
   3469   3481   3482     1   109.8000471 387.438400
   3469   3481   3483     1   109.8000471 387.438400
   3470   3472   3474     1   109.8000471 387.438400
   3470   3472   3475     1   109.8000471 387.438400
   3471   3470   3472     1   109.5600471 388.275200
   3471   3470   3473     1   108.4600466 328.025600
   3472   3470   3473     1   109.5600471 388.275200
   3474   3472   3476     1   108.7700466 392.459200
   3474   3472   3475     1   107.5800459 329.699200
   3475   3472   3476     1   108.7700466 392.459200
   3476   3477   3487     1   106.5500460 417.563200
   3479   3469   3481     1   109.5600471 388.275200
   3479   3469   3480     1   108.4600466 328.025600
   3480   3469   3481     1   109.5600471 388.275200
   3482   3481   3484     1   108.7700466 392.459200
   3482   3481   3483     1   107.5800459 329.699200
   3483   3481   3484     1   108.7700466 392.459200
   3484   3486   3488     1   106.5500460 417.563200
   3489   3491   3492     1   108.8800464 416.726400
   3489   3491   3494     1   108.8800464 416.726400
   3490   3489   3491     1   117.6800502 383.254400
   3491   3493   3495     1   109.5600471 388.275200
   3491   3493   3496     1   109.5600471 388.275200
   3492   3491   3493     1   109.5600471 388.275200
   3492   3491   3494     1   108.4600466 328.025600
   3493   3491   3494     1   109.5600471 388.275200
   3495   3493   3497     1   109.8800469 414.216000
   3495   3493   3496     1   108.4600466 328.025600
   3496   3493   3497     1   109.8800469 414.216000
   3497   3498   3508     1   109.8800469 414.216000
   3497   3498   3509     1   109.8800469 414.216000
   3497   3499   3500     1   109.8800469 414.216000
   3497   3499   3502     1   109.8800469 414.216000
   3498   3510   3511     1   109.8000471 387.438400
   3498   3510   3512     1   109.8000471 387.438400
   3499   3501   3503     1   109.8000471 387.438400
   3499   3501   3504     1   109.8000471 387.438400
   3500   3499   3501     1   109.5600471 388.275200
   3500   3499   3502     1   108.4600466 328.025600
   3501   3499   3502     1   109.5600471 388.275200
   3503   3501   3505     1   108.7700466 392.459200
   3503   3501   3504     1   107.5800459 329.699200
   3504   3501   3505     1   108.7700466 392.459200
   3505   3506   3516     1   106.5500460 417.563200
   3508   3498   3510     1   109.5600471 388.275200
   3508   3498   3509     1   108.4600466 328.025600
   3509   3498   3510     1   109.5600471 388.275200
   3511   3510   3513     1   108.7700466 392.459200
   3511   3510   3512     1   107.5800459 329.699200
   3512   3510   3513     1   108.7700466 392.459200
   3513   3515   3517     1   106.5500460 417.563200
   3518   3520   3521     1   108.8800464 416.726400
   3518   3520   3523     1   108.8800464 416.726400
   3519   3518   3520     1   117.6800502 383.254400
   3520   3522   3524     1   109.5600471 388.275200
   3520   3522   3525     1   109.5600471 388.275200
   3521   3520   3522     1   109.5600471 388.275200
   3521   3520   3523     1   108.4600466 328.025600
   3522   3520   3523     1   109.5600471 388.275200
   3524   3522   3526     1   109.8800469 414.216000
   3524   3522   3525     1   108.4600466 328.025600
   3525   3522   3526     1   109.8800469 414.216000
   3526   3527   3537     1   109.8800469 414.216000
   3526   3527   3538     1   109.8800469 414.216000
   3526   3528   3529     1   109.8800469 414.216000
   3526   3528   3531     1   109.8800469 414.216000
   3527   3539   3540     1   109.8000471 387.438400
   3527   3539   3541     1   109.8000471 387.438400
   3528   3530   3532     1   109.8000471 387.438400
   3528   3530   3533     1   109.8000471 387.438400
   3529   3528   3530     1   109.5600471 388.275200
   3529   3528   3531     1   108.4600466 328.025600
   3530   3528   3531     1   109.5600471 388.275200
   3532   3530   3534     1   108.7700466 392.459200
   3532   3530   3533     1   107.5800459 329.699200
   3533   3530   3534     1   108.7700466 392.459200
   3534   3535   3545     1   106.5500460 417.563200
   3537   3527   3539     1   109.5600471 388.275200
   3537   3527   3538     1   108.4600466 328.025600
   3538   3527   3539     1   109.5600471 388.275200
   3540   3539   3542     1   108.7700466 392.459200
   3540   3539   3541     1   107.5800459 329.699200
   3541   3539   3542     1   108.7700466 392.459200
   3542   3544   3546     1   106.5500460 417.563200
   3547   3549   3550     1   108.8800464 416.726400
   3547   3549   3552     1   108.8800464 416.726400
   3548   3547   3549     1   117.6800502 383.254400
   3549   3551   3553     1   109.5600471 388.275200
   3549   3551   3554     1   109.5600471 388.275200
   3550   3549   3551     1   109.5600471 388.275200
   3550   3549   3552     1   108.4600466 328.025600
   3551   3549   3552     1   109.5600471 388.275200
   3553   3551   3555     1   109.8800469 414.216000
   3553   3551   3554     1   108.4600466 328.025600
   3554   3551   3555     1   109.8800469 414.216000
   3555   3556   3566     1   109.8800469 414.216000
   3555   3556   3567     1   109.8800469 414.216000
   3555   3557   3558     1   109.8800469 414.216000
   3555   3557   3560     1   109.8800469 414.216000
   3556   3568   3569     1   109.8000471 387.438400
   3556   3568   3570     1   109.8000471 387.438400
   3557   3559   3561     1   109.8000471 387.438400
   3557   3559   3562     1   109.8000471 387.438400
   3558   3557   3559     1   109.5600471 388.275200
   3558   3557   3560     1   108.4600466 328.025600
   3559   3557   3560     1   109.5600471 388.275200
   3561   3559   3563     1   108.7700466 392.459200
   3561   3559   3562     1   107.5800459 329.699200
   3562   3559   3563     1   108.7700466 392.459200
   3563   3564   3574     1   106.5500460 417.563200
   3566   3556   3568     1   109.5600471 388.275200
   3566   3556   3567     1   108.4600466 328.025600
   3567   3556   3568     1   109.5600471 388.275200
   3569   3568   3571     1   108.7700466 392.459200
   3569   3568   3570     1   107.5800459 329.699200
   3570   3568   3571     1   108.7700466 392.459200
   3571   3573   3575     1   106.5500460 417.563200
   3576   3578   3579     1   108.8800464 416.726400
   3576   3578   3581     1   108.8800464 416.726400
   3577   3576   3578     1   117.6800502 383.254400
   3578   3580   3582     1   109.5600471 388.275200
   3578   3580   3583     1   109.5600471 388.275200
   3579   3578   3580     1   109.5600471 388.275200
   3579   3578   3581     1   108.4600466 328.025600
   3580   3578   3581     1   109.5600471 388.275200
   3582   3580   3584     1   109.8800469 414.216000
   3582   3580   3583     1   108.4600466 328.025600
   3583   3580   3584     1   109.8800469 414.216000
   3584   3585   3595     1   109.8800469 414.216000
   3584   3585   3596     1   109.8800469 414.216000
   3584   3586   3587     1   109.8800469 414.216000
   3584   3586   3589     1   109.8800469 414.216000
   3585   3597   3598     1   109.8000471 387.438400
   3585   3597   3599     1   109.8000471 387.438400
   3586   3588   3590     1   109.8000471 387.438400
   3586   3588   3591     1   109.8000471 387.438400
   3587   3586   3588     1   109.5600471 388.275200
   3587   3586   3589     1   108.4600466 328.025600
   3588   3586   3589     1   109.5600471 388.275200
   3590   3588   3592     1   108.7700466 392.459200
   3590   3588   3591     1   107.5800459 329.699200
   3591   3588   3592     1   108.7700466 392.459200
   3592   3593   3603     1   106.5500460 417.563200
   3595   3585   3597     1   109.5600471 388.275200
   3595   3585   3596     1   108.4600466 328.025600
   3596   3585   3597     1   109.5600471 388.275200
   3598   3597   3600     1   108.7700466 392.459200
   3598   3597   3599     1   107.5800459 329.699200
   3599   3597   3600     1   108.7700466 392.459200
   3600   3602   3604     1   106.5500460 417.563200
   3605   3607   3608     1   108.8800464 416.726400
   3605   3607   3610     1   108.8800464 416.726400
   3606   3605   3607     1   117.6800502 383.254400
   3607   3609   3611     1   109.5600471 388.275200
   3607   3609   3612     1   109.5600471 388.275200
   3608   3607   3609     1   109.5600471 388.275200
   3608   3607   3610     1   108.4600466 328.025600
   3609   3607   3610     1   109.5600471 388.275200
   3611   3609   3613     1   109.8800469 414.216000
   3611   3609   3612     1   108.4600466 328.025600
   3612   3609   3613     1   109.8800469 414.216000
   3613   3614   3624     1   109.8800469 414.216000
   3613   3614   3625     1   109.8800469 414.216000
   3613   3615   3616     1   109.8800469 414.216000
   3613   3615   3618     1   109.8800469 414.216000
   3614   3626   3627     1   109.8000471 387.438400
   3614   3626   3628     1   109.8000471 387.438400
   3615   3617   3619     1   109.8000471 387.438400
   3615   3617   3620     1   109.8000471 387.438400
   3616   3615   3617     1   109.5600471 388.275200
   3616   3615   3618     1   108.4600466 328.025600
   3617   3615   3618     1   109.5600471 388.275200
   3619   3617   3621     1   108.7700466 392.459200
   3619   3617   3620     1   107.5800459 329.699200
   3620   3617   3621     1   108.7700466 392.459200
   3621   3622   3632     1   106.5500460 417.563200
   3624   3614   3626     1   109.5600471 388.275200
   3624   3614   3625     1   108.4600466 328.025600
   3625   3614   3626     1   109.5600471 388.275200
   3627   3626   3629     1   108.7700466 392.459200
   3627   3626   3628     1   107.5800459 329.699200
   3628   3626   3629     1   108.7700466 392.459200
   3629   3631   3633     1   106.5500460 417.563200
   3634   3636   3637     1   108.8800464 416.726400
   3634   3636   3639     1   108.8800464 416.726400
   3635   3634   3636     1   117.6800502 383.254400
   3636   3638   3640     1   109.5600471 388.275200
   3636   3638   3641     1   109.5600471 388.275200
   3637   3636   3638     1   109.5600471 388.275200
   3637   3636   3639     1   108.4600466 328.025600
   3638   3636   3639     1   109.5600471 388.275200
   3640   3638   3642     1   109.8800469 414.216000
   3640   3638   3641     1   108.4600466 328.025600
   3641   3638   3642     1   109.8800469 414.216000
   3642   3643   3653     1   109.8800469 414.216000
   3642   3643   3654     1   109.8800469 414.216000
   3642   3644   3645     1   109.8800469 414.216000
   3642   3644   3647     1   109.8800469 414.216000
   3643   3655   3656     1   109.8000471 387.438400
   3643   3655   3657     1   109.8000471 387.438400
   3644   3646   3648     1   109.8000471 387.438400
   3644   3646   3649     1   109.8000471 387.438400
   3645   3644   3646     1   109.5600471 388.275200
   3645   3644   3647     1   108.4600466 328.025600
   3646   3644   3647     1   109.5600471 388.275200
   3648   3646   3650     1   108.7700466 392.459200
   3648   3646   3649     1   107.5800459 329.699200
   3649   3646   3650     1   108.7700466 392.459200
   3650   3651   3661     1   106.5500460 417.563200
   3653   3643   3655     1   109.5600471 388.275200
   3653   3643   3654     1   108.4600466 328.025600
   3654   3643   3655     1   109.5600471 388.275200
   3656   3655   3658     1   108.7700466 392.459200
   3656   3655   3657     1   107.5800459 329.699200
   3657   3655   3658     1   108.7700466 392.459200
   3658   3660   3662     1   106.5500460 417.563200
   3663   3665   3666     1   108.8800464 416.726400
   3663   3665   3668     1   108.8800464 416.726400
   3664   3663   3665     1   117.6800502 383.254400
   3665   3667   3669     1   109.5600471 388.275200
   3665   3667   3670     1   109.5600471 388.275200
   3666   3665   3667     1   109.5600471 388.275200
   3666   3665   3668     1   108.4600466 328.025600
   3667   3665   3668     1   109.5600471 388.275200
   3669   3667   3671     1   109.8800469 414.216000
   3669   3667   3670     1   108.4600466 328.025600
   3670   3667   3671     1   109.8800469 414.216000
   3671   3672   3682     1   109.8800469 414.216000
   3671   3672   3683     1   109.8800469 414.216000
   3671   3673   3674     1   109.8800469 414.216000
   3671   3673   3676     1   109.8800469 414.216000
   3672   3684   3685     1   109.8000471 387.438400
   3672   3684   3686     1   109.8000471 387.438400
   3673   3675   3677     1   109.8000471 387.438400
   3673   3675   3678     1   109.8000471 387.438400
   3674   3673   3675     1   109.5600471 388.275200
   3674   3673   3676     1   108.4600466 328.025600
   3675   3673   3676     1   109.5600471 388.275200
   3677   3675   3679     1   108.7700466 392.459200
   3677   3675   3678     1   107.5800459 329.699200
   3678   3675   3679     1   108.7700466 392.459200
   3679   3680   3690     1   106.5500460 417.563200
   3682   3672   3684     1   109.5600471 388.275200
   3682   3672   3683     1   108.4600466 328.025600
   3683   3672   3684     1   109.5600471 388.275200
   3685   3684   3687     1   108.7700466 392.459200
   3685   3684   3686     1   107.5800459 329.699200
   3686   3684   3687     1   108.7700466 392.459200
   3687   3689   3691     1   106.5500460 417.563200
   3692   3694   3695     1   108.8800464 416.726400
   3692   3694   3697     1   108.8800464 416.726400
   3693   3692   3694     1   117.6800502 383.254400
   3694   3696   3698     1   109.5600471 388.275200
   3694   3696   3699     1   109.5600471 388.275200
   3695   3694   3696     1   109.5600471 388.275200
   3695   3694   3697     1   108.4600466 328.025600
   3696   3694   3697     1   109.5600471 388.275200
   3698   3696   3700     1   109.8800469 414.216000
   3698   3696   3699     1   108.4600466 328.025600
   3699   3696   3700     1   109.8800469 414.216000
   3700   3701   3711     1   109.8800469 414.216000
   3700   3701   3712     1   109.8800469 414.216000
   3700   3702   3703     1   109.8800469 414.216000
   3700   3702   3705     1   109.8800469 414.216000
   3701   3713   3714     1   109.8000471 387.438400
   3701   3713   3715     1   109.8000471 387.438400
   3702   3704   3706     1   109.8000471 387.438400
   3702   3704   3707     1   109.8000471 387.438400
   3703   3702   3704     1   109.5600471 388.275200
   3703   3702   3705     1   108.4600466 328.025600
   3704   3702   3705     1   109.5600471 388.275200
   3706   3704   3708     1   108.7700466 392.459200
   3706   3704   3707     1   107.5800459 329.699200
   3707   3704   3708     1   108.7700466 392.459200
   3708   3709   3719     1   106.5500460 417.563200
   3711   3701   3713     1   109.5600471 388.275200
   3711   3701   3712     1   108.4600466 328.025600
   3712   3701   3713     1   109.5600471 388.275200
   3714   3713   3716     1   108.7700466 392.459200
   3714   3713   3715     1   107.5800459 329.699200
   3715   3713   3716     1   108.7700466 392.459200
   3716   3718   3720     1   106.5500460 417.563200
   3721   3723   3724     1   108.8800464 416.726400
   3721   3723   3726     1   108.8800464 416.726400
   3722   3721   3723     1   117.6800502 383.254400
   3723   3725   3727     1   109.5600471 388.275200
   3723   3725   3728     1   109.5600471 388.275200
   3724   3723   3725     1   109.5600471 388.275200
   3724   3723   3726     1   108.4600466 328.025600
   3725   3723   3726     1   109.5600471 388.275200
   3727   3725   3729     1   109.8800469 414.216000
   3727   3725   3728     1   108.4600466 328.025600
   3728   3725   3729     1   109.8800469 414.216000
   3729   3730   3740     1   109.8800469 414.216000
   3729   3730   3741     1   109.8800469 414.216000
   3729   3731   3732     1   109.8800469 414.216000
   3729   3731   3734     1   109.8800469 414.216000
   3730   3742   3743     1   109.8000471 387.438400
   3730   3742   3744     1   109.8000471 387.438400
   3731   3733   3735     1   109.8000471 387.438400
   3731   3733   3736     1   109.8000471 387.438400
   3732   3731   3733     1   109.5600471 388.275200
   3732   3731   3734     1   108.4600466 328.025600
   3733   3731   3734     1   109.5600471 388.275200
   3735   3733   3737     1   108.7700466 392.459200
   3735   3733   3736     1   107.5800459 329.699200
   3736   3733   3737     1   108.7700466 392.459200
   3737   3738   3748     1   106.5500460 417.563200
   3740   3730   3742     1   109.5600471 388.275200
   3740   3730   3741     1   108.4600466 328.025600
   3741   3730   3742     1   109.5600471 388.275200
   3743   3742   3745     1   108.7700466 392.459200
   3743   3742   3744     1   107.5800459 329.699200
   3744   3742   3745     1   108.7700466 392.459200
   3745   3747   3749     1   106.5500460 417.563200
   3750   3752   3753     1   108.8800464 416.726400
   3750   3752   3755     1   108.8800464 416.726400
   3751   3750   3752     1   117.6800502 383.254400
   3752   3754   3756     1   109.5600471 388.275200
   3752   3754   3757     1   109.5600471 388.275200
   3753   3752   3754     1   109.5600471 388.275200
   3753   3752   3755     1   108.4600466 328.025600
   3754   3752   3755     1   109.5600471 388.275200
   3756   3754   3758     1   109.8800469 414.216000
   3756   3754   3757     1   108.4600466 328.025600
   3757   3754   3758     1   109.8800469 414.216000
   3758   3759   3769     1   109.8800469 414.216000
   3758   3759   3770     1   109.8800469 414.216000
   3758   3760   3761     1   109.8800469 414.216000
   3758   3760   3763     1   109.8800469 414.216000
   3759   3771   3772     1   109.8000471 387.438400
   3759   3771   3773     1   109.8000471 387.438400
   3760   3762   3764     1   109.8000471 387.438400
   3760   3762   3765     1   109.8000471 387.438400
   3761   3760   3762     1   109.5600471 388.275200
   3761   3760   3763     1   108.4600466 328.025600
   3762   3760   3763     1   109.5600471 388.275200
   3764   3762   3766     1   108.7700466 392.459200
   3764   3762   3765     1   107.5800459 329.699200
   3765   3762   3766     1   108.7700466 392.459200
   3766   3767   3777     1   106.5500460 417.563200
   3769   3759   3771     1   109.5600471 388.275200
   3769   3759   3770     1   108.4600466 328.025600
   3770   3759   3771     1   109.5600471 388.275200
   3772   3771   3774     1   108.7700466 392.459200
   3772   3771   3773     1   107.5800459 329.699200
   3773   3771   3774     1   108.7700466 392.459200
   3774   3776   3778     1   106.5500460 417.563200
   3779   3781   3782     1   108.8800464 416.726400
   3779   3781   3784     1   108.8800464 416.726400
   3780   3779   3781     1   117.6800502 383.254400
   3781   3783   3785     1   109.5600471 388.275200
   3781   3783   3786     1   109.5600471 388.275200
   3782   3781   3783     1   109.5600471 388.275200
   3782   3781   3784     1   108.4600466 328.025600
   3783   3781   3784     1   109.5600471 388.275200
   3785   3783   3787     1   109.8800469 414.216000
   3785   3783   3786     1   108.4600466 328.025600
   3786   3783   3787     1   109.8800469 414.216000
   3787   3788   3798     1   109.8800469 414.216000
   3787   3788   3799     1   109.8800469 414.216000
   3787   3789   3790     1   109.8800469 414.216000
   3787   3789   3792     1   109.8800469 414.216000
   3788   3800   3801     1   109.8000471 387.438400
   3788   3800   3802     1   109.8000471 387.438400
   3789   3791   3793     1   109.8000471 387.438400
   3789   3791   3794     1   109.8000471 387.438400
   3790   3789   3791     1   109.5600471 388.275200
   3790   3789   3792     1   108.4600466 328.025600
   3791   3789   3792     1   109.5600471 388.275200
   3793   3791   3795     1   108.7700466 392.459200
   3793   3791   3794     1   107.5800459 329.699200
   3794   3791   3795     1   108.7700466 392.459200
   3795   3796   3806     1   106.5500460 417.563200
   3798   3788   3800     1   109.5600471 388.275200
   3798   3788   3799     1   108.4600466 328.025600
   3799   3788   3800     1   109.5600471 388.275200
   3801   3800   3803     1   108.7700466 392.459200
   3801   3800   3802     1   107.5800459 329.699200
   3802   3800   3803     1   108.7700466 392.459200
   3803   3805   3807     1   106.5500460 417.563200
   3808   3810   3811     1   108.8800464 416.726400
   3808   3810   3813     1   108.8800464 416.726400
   3809   3808   3810     1   117.6800502 383.254400
   3810   3812   3814     1   109.5600471 388.275200
   3810   3812   3815     1   109.5600471 388.275200
   3811   3810   3812     1   109.5600471 388.275200
   3811   3810   3813     1   108.4600466 328.025600
   3812   3810   3813     1   109.5600471 388.275200
   3814   3812   3816     1   109.8800469 414.216000
   3814   3812   3815     1   108.4600466 328.025600
   3815   3812   3816     1   109.8800469 414.216000
   3816   3817   3827     1   109.8800469 414.216000
   3816   3817   3828     1   109.8800469 414.216000
   3816   3818   3819     1   109.8800469 414.216000
   3816   3818   3821     1   109.8800469 414.216000
   3817   3829   3830     1   109.8000471 387.438400
   3817   3829   3831     1   109.8000471 387.438400
   3818   3820   3822     1   109.8000471 387.438400
   3818   3820   3823     1   109.8000471 387.438400
   3819   3818   3820     1   109.5600471 388.275200
   3819   3818   3821     1   108.4600466 328.025600
   3820   3818   3821     1   109.5600471 388.275200
   3822   3820   3824     1   108.7700466 392.459200
   3822   3820   3823     1   107.5800459 329.699200
   3823   3820   3824     1   108.7700466 392.459200
   3824   3825   3835     1   106.5500460 417.563200
   3827   3817   3829     1   109.5600471 388.275200
   3827   3817   3828     1   108.4600466 328.025600
   3828   3817   3829     1   109.5600471 388.275200
   3830   3829   3832     1   108.7700466 392.459200
   3830   3829   3831     1   107.5800459 329.699200
   3831   3829   3832     1   108.7700466 392.459200
   3832   3834   3836     1   106.5500460 417.563200
   3837   3839   3840     1   108.8800464 416.726400
   3837   3839   3842     1   108.8800464 416.726400
   3838   3837   3839     1   117.6800502 383.254400
   3839   3841   3843     1   109.5600471 388.275200
   3839   3841   3844     1   109.5600471 388.275200
   3840   3839   3841     1   109.5600471 388.275200
   3840   3839   3842     1   108.4600466 328.025600
   3841   3839   3842     1   109.5600471 388.275200
   3843   3841   3845     1   109.8800469 414.216000
   3843   3841   3844     1   108.4600466 328.025600
   3844   3841   3845     1   109.8800469 414.216000
   3845   3846   3856     1   109.8800469 414.216000
   3845   3846   3857     1   109.8800469 414.216000
   3845   3847   3848     1   109.8800469 414.216000
   3845   3847   3850     1   109.8800469 414.216000
   3846   3858   3859     1   109.8000471 387.438400
   3846   3858   3860     1   109.8000471 387.438400
   3847   3849   3851     1   109.8000471 387.438400
   3847   3849   3852     1   109.8000471 387.438400
   3848   3847   3849     1   109.5600471 388.275200
   3848   3847   3850     1   108.4600466 328.025600
   3849   3847   3850     1   109.5600471 388.275200
   3851   3849   3853     1   108.7700466 392.459200
   3851   3849   3852     1   107.5800459 329.699200
   3852   3849   3853     1   108.7700466 392.459200
   3853   3854   3864     1   106.5500460 417.563200
   3856   3846   3858     1   109.5600471 388.275200
   3856   3846   3857     1   108.4600466 328.025600
   3857   3846   3858     1   109.5600471 388.275200
   3859   3858   3861     1   108.7700466 392.459200
   3859   3858   3860     1   107.5800459 329.699200
   3860   3858   3861     1   108.7700466 392.459200
   3861   3863   3865     1   106.5500460 417.563200
   3866   3868   3869     1   108.8800464 416.726400
   3866   3868   3871     1   108.8800464 416.726400
   3867   3866   3868     1   117.6800502 383.254400
   3868   3870   3872     1   109.5600471 388.275200
   3868   3870   3873     1   109.5600471 388.275200
   3869   3868   3870     1   109.5600471 388.275200
   3869   3868   3871     1   108.4600466 328.025600
   3870   3868   3871     1   109.5600471 388.275200
   3872   3870   3874     1   109.8800469 414.216000
   3872   3870   3873     1   108.4600466 328.025600
   3873   3870   3874     1   109.8800469 414.216000
   3874   3875   3885     1   109.8800469 414.216000
   3874   3875   3886     1   109.8800469 414.216000
   3874   3876   3877     1   109.8800469 414.216000
   3874   3876   3879     1   109.8800469 414.216000
   3875   3887   3888     1   109.8000471 387.438400
   3875   3887   3889     1   109.8000471 387.438400
   3876   3878   3880     1   109.8000471 387.438400
   3876   3878   3881     1   109.8000471 387.438400
   3877   3876   3878     1   109.5600471 388.275200
   3877   3876   3879     1   108.4600466 328.025600
   3878   3876   3879     1   109.5600471 388.275200
   3880   3878   3882     1   108.7700466 392.459200
   3880   3878   3881     1   107.5800459 329.699200
   3881   3878   3882     1   108.7700466 392.459200
   3882   3883   3893     1   106.5500460 417.563200
   3885   3875   3887     1   109.5600471 388.275200
   3885   3875   3886     1   108.4600466 328.025600
   3886   3875   3887     1   109.5600471 388.275200
   3888   3887   3890     1   108.7700466 392.459200
   3888   3887   3889     1   107.5800459 329.699200
   3889   3887   3890     1   108.7700466 392.459200
   3890   3892   3894     1   106.5500460 417.563200
   3895   3897   3898     1   108.8800464 416.726400
   3895   3897   3900     1   108.8800464 416.726400
   3896   3895   3897     1   117.6800502 383.254400
   3897   3899   3901     1   109.5600471 388.275200
   3897   3899   3902     1   109.5600471 388.275200
   3898   3897   3899     1   109.5600471 388.275200
   3898   3897   3900     1   108.4600466 328.025600
   3899   3897   3900     1   109.5600471 388.275200
   3901   3899   3903     1   109.8800469 414.216000
   3901   3899   3902     1   108.4600466 328.025600
   3902   3899   3903     1   109.8800469 414.216000
   3903   3904   3914     1   109.8800469 414.216000
   3903   3904   3915     1   109.8800469 414.216000
   3903   3905   3906     1   109.8800469 414.216000
   3903   3905   3908     1   109.8800469 414.216000
   3904   3916   3917     1   109.8000471 387.438400
   3904   3916   3918     1   109.8000471 387.438400
   3905   3907   3909     1   109.8000471 387.438400
   3905   3907   3910     1   109.8000471 387.438400
   3906   3905   3907     1   109.5600471 388.275200
   3906   3905   3908     1   108.4600466 328.025600
   3907   3905   3908     1   109.5600471 388.275200
   3909   3907   3911     1   108.7700466 392.459200
   3909   3907   3910     1   107.5800459 329.699200
   3910   3907   3911     1   108.7700466 392.459200
   3911   3912   3922     1   106.5500460 417.563200
   3914   3904   3916     1   109.5600471 388.275200
   3914   3904   3915     1   108.4600466 328.025600
   3915   3904   3916     1   109.5600471 388.275200
   3917   3916   3919     1   108.7700466 392.459200
   3917   3916   3918     1   107.5800459 329.699200
   3918   3916   3919     1   108.7700466 392.459200
   3919   3921   3923     1   106.5500460 417.563200
   3924   3926   3927     1   108.8800464 416.726400
   3924   3926   3929     1   108.8800464 416.726400
   3925   3924   3926     1   117.6800502 383.254400
   3926   3928   3930     1   109.5600471 388.275200
   3926   3928   3931     1   109.5600471 388.275200
   3927   3926   3928     1   109.5600471 388.275200
   3927   3926   3929     1   108.4600466 328.025600
   3928   3926   3929     1   109.5600471 388.275200
   3930   3928   3932     1   109.8800469 414.216000
   3930   3928   3931     1   108.4600466 328.025600
   3931   3928   3932     1   109.8800469 414.216000
   3932   3933   3943     1   109.8800469 414.216000
   3932   3933   3944     1   109.8800469 414.216000
   3932   3934   3935     1   109.8800469 414.216000
   3932   3934   3937     1   109.8800469 414.216000
   3933   3945   3946     1   109.8000471 387.438400
   3933   3945   3947     1   109.8000471 387.438400
   3934   3936   3938     1   109.8000471 387.438400
   3934   3936   3939     1   109.8000471 387.438400
   3935   3934   3936     1   109.5600471 388.275200
   3935   3934   3937     1   108.4600466 328.025600
   3936   3934   3937     1   109.5600471 388.275200
   3938   3936   3940     1   108.7700466 392.459200
   3938   3936   3939     1   107.5800459 329.699200
   3939   3936   3940     1   108.7700466 392.459200
   3940   3941   3951     1   106.5500460 417.563200
   3943   3933   3945     1   109.5600471 388.275200
   3943   3933   3944     1   108.4600466 328.025600
   3944   3933   3945     1   109.5600471 388.275200
   3946   3945   3948     1   108.7700466 392.459200
   3946   3945   3947     1   107.5800459 329.699200
   3947   3945   3948     1   108.7700466 392.459200
   3948   3950   3952     1   106.5500460 417.563200
   3953   3955   3956     1   108.8800464 416.726400
   3953   3955   3958     1   108.8800464 416.726400
   3954   3953   3955     1   117.6800502 383.254400
   3955   3957   3959     1   109.5600471 388.275200
   3955   3957   3960     1   109.5600471 388.275200
   3956   3955   3957     1   109.5600471 388.275200
   3956   3955   3958     1   108.4600466 328.025600
   3957   3955   3958     1   109.5600471 388.275200
   3959   3957   3961     1   109.8800469 414.216000
   3959   3957   3960     1   108.4600466 328.025600
   3960   3957   3961     1   109.8800469 414.216000
   3961   3962   3972     1   109.8800469 414.216000
   3961   3962   3973     1   109.8800469 414.216000
   3961   3963   3964     1   109.8800469 414.216000
   3961   3963   3966     1   109.8800469 414.216000
   3962   3974   3975     1   109.8000471 387.438400
   3962   3974   3976     1   109.8000471 387.438400
   3963   3965   3967     1   109.8000471 387.438400
   3963   3965   3968     1   109.8000471 387.438400
   3964   3963   3965     1   109.5600471 388.275200
   3964   3963   3966     1   108.4600466 328.025600
   3965   3963   3966     1   109.5600471 388.275200
   3967   3965   3969     1   108.7700466 392.459200
   3967   3965   3968     1   107.5800459 329.699200
   3968   3965   3969     1   108.7700466 392.459200
   3969   3970   3980     1   106.5500460 417.563200
   3972   3962   3974     1   109.5600471 388.275200
   3972   3962   3973     1   108.4600466 328.025600
   3973   3962   3974     1   109.5600471 388.275200
   3975   3974   3977     1   108.7700466 392.459200
   3975   3974   3976     1   107.5800459 329.699200
   3976   3974   3977     1   108.7700466 392.459200
   3977   3979   3981     1   106.5500460 417.563200
   3982   3984   3985     1   108.8800464 416.726400
   3982   3984   3987     1   108.8800464 416.726400
   3983   3982   3984     1   117.6800502 383.254400
   3984   3986   3988     1   109.5600471 388.275200
   3984   3986   3989     1   109.5600471 388.275200
   3985   3984   3986     1   109.5600471 388.275200
   3985   3984   3987     1   108.4600466 328.025600
   3986   3984   3987     1   109.5600471 388.275200
   3988   3986   3990     1   109.8800469 414.216000
   3988   3986   3989     1   108.4600466 328.025600
   3989   3986   3990     1   109.8800469 414.216000
   3990   3991   4001     1   109.8800469 414.216000
   3990   3991   4002     1   109.8800469 414.216000
   3990   3992   3993     1   109.8800469 414.216000
   3990   3992   3995     1   109.8800469 414.216000
   3991   4003   4004     1   109.8000471 387.438400
   3991   4003   4005     1   109.8000471 387.438400
   3992   3994   3996     1   109.8000471 387.438400
   3992   3994   3997     1   109.8000471 387.438400
   3993   3992   3994     1   109.5600471 388.275200
   3993   3992   3995     1   108.4600466 328.025600
   3994   3992   3995     1   109.5600471 388.275200
   3996   3994   3998     1   108.7700466 392.459200
   3996   3994   3997     1   107.5800459 329.699200
   3997   3994   3998     1   108.7700466 392.459200
   3998   3999   4009     1   106.5500460 417.563200
   4001   3991   4003     1   109.5600471 388.275200
   4001   3991   4002     1   108.4600466 328.025600
   4002   3991   4003     1   109.5600471 388.275200
   4004   4003   4006     1   108.7700466 392.459200
   4004   4003   4005     1   107.5800459 329.699200
   4005   4003   4006     1   108.7700466 392.459200
   4006   4008   4010     1   106.5500460 417.563200
   4011   4013   4014     1   108.8800464 416.726400
   4011   4013   4016     1   108.8800464 416.726400
   4012   4011   4013     1   117.6800502 383.254400
   4013   4015   4017     1   109.5600471 388.275200
   4013   4015   4018     1   109.5600471 388.275200
   4014   4013   4015     1   109.5600471 388.275200
   4014   4013   4016     1   108.4600466 328.025600
   4015   4013   4016     1   109.5600471 388.275200
   4017   4015   4019     1   109.8800469 414.216000
   4017   4015   4018     1   108.4600466 328.025600
   4018   4015   4019     1   109.8800469 414.216000
   4019   4020   4030     1   109.8800469 414.216000
   4019   4020   4031     1   109.8800469 414.216000
   4019   4021   4022     1   109.8800469 414.216000
   4019   4021   4024     1   109.8800469 414.216000
   4020   4032   4033     1   109.8000471 387.438400
   4020   4032   4034     1   109.8000471 387.438400
   4021   4023   4025     1   109.8000471 387.438400
   4021   4023   4026     1   109.8000471 387.438400
   4022   4021   4023     1   109.5600471 388.275200
   4022   4021   4024     1   108.4600466 328.025600
   4023   4021   4024     1   109.5600471 388.275200
   4025   4023   4027     1   108.7700466 392.459200
   4025   4023   4026     1   107.5800459 329.699200
   4026   4023   4027     1   108.7700466 392.459200
   4027   4028   4038     1   106.5500460 417.563200
   4030   4020   4032     1   109.5600471 388.275200
   4030   4020   4031     1   108.4600466 328.025600
   4031   4020   4032     1   109.5600471 388.275200
   4033   4032   4035     1   108.7700466 392.459200
   4033   4032   4034     1   107.5800459 329.699200
   4034   4032   4035     1   108.7700466 392.459200
   4035   4037   4039     1   106.5500460 417.563200
   4040   4042   4043     1   108.8800464 416.726400
   4040   4042   4045     1   108.8800464 416.726400
   4041   4040   4042     1   117.6800502 383.254400
   4042   4044   4046     1   109.5600471 388.275200
   4042   4044   4047     1   109.5600471 388.275200
   4043   4042   4044     1   109.5600471 388.275200
   4043   4042   4045     1   108.4600466 328.025600
   4044   4042   4045     1   109.5600471 388.275200
   4046   4044   4048     1   109.8800469 414.216000
   4046   4044   4047     1   108.4600466 328.025600
   4047   4044   4048     1   109.8800469 414.216000
   4048   4049   4059     1   109.8800469 414.216000
   4048   4049   4060     1   109.8800469 414.216000
   4048   4050   4051     1   109.8800469 414.216000
   4048   4050   4053     1   109.8800469 414.216000
   4049   4061   4062     1   109.8000471 387.438400
   4049   4061   4063     1   109.8000471 387.438400
   4050   4052   4054     1   109.8000471 387.438400
   4050   4052   4055     1   109.8000471 387.438400
   4051   4050   4052     1   109.5600471 388.275200
   4051   4050   4053     1   108.4600466 328.025600
   4052   4050   4053     1   109.5600471 388.275200
   4054   4052   4056     1   108.7700466 392.459200
   4054   4052   4055     1   107.5800459 329.699200
   4055   4052   4056     1   108.7700466 392.459200
   4056   4057   4067     1   106.5500460 417.563200
   4059   4049   4061     1   109.5600471 388.275200
   4059   4049   4060     1   108.4600466 328.025600
   4060   4049   4061     1   109.5600471 388.275200
   4062   4061   4064     1   108.7700466 392.459200
   4062   4061   4063     1   107.5800459 329.699200
   4063   4061   4064     1   108.7700466 392.459200
   4064   4066   4068     1   106.5500460 417.563200
   4069   4071   4072     1   108.8800464 416.726400
   4069   4071   4074     1   108.8800464 416.726400
   4070   4069   4071     1   117.6800502 383.254400
   4071   4073   4075     1   109.5600471 388.275200
   4071   4073   4076     1   109.5600471 388.275200
   4072   4071   4073     1   109.5600471 388.275200
   4072   4071   4074     1   108.4600466 328.025600
   4073   4071   4074     1   109.5600471 388.275200
   4075   4073   4077     1   109.8800469 414.216000
   4075   4073   4076     1   108.4600466 328.025600
   4076   4073   4077     1   109.8800469 414.216000
   4077   4078   4088     1   109.8800469 414.216000
   4077   4078   4089     1   109.8800469 414.216000
   4077   4079   4080     1   109.8800469 414.216000
   4077   4079   4082     1   109.8800469 414.216000
   4078   4090   4091     1   109.8000471 387.438400
   4078   4090   4092     1   109.8000471 387.438400
   4079   4081   4083     1   109.8000471 387.438400
   4079   4081   4084     1   109.8000471 387.438400
   4080   4079   4081     1   109.5600471 388.275200
   4080   4079   4082     1   108.4600466 328.025600
   4081   4079   4082     1   109.5600471 388.275200
   4083   4081   4085     1   108.7700466 392.459200
   4083   4081   4084     1   107.5800459 329.699200
   4084   4081   4085     1   108.7700466 392.459200
   4085   4086   4096     1   106.5500460 417.563200
   4088   4078   4090     1   109.5600471 388.275200
   4088   4078   4089     1   108.4600466 328.025600
   4089   4078   4090     1   109.5600471 388.275200
   4091   4090   4093     1   108.7700466 392.459200
   4091   4090   4092     1   107.5800459 329.699200
   4092   4090   4093     1   108.7700466 392.459200
   4093   4095   4097     1   106.5500460 417.563200
   4098   4100   4101     1   108.8800464 416.726400
   4098   4100   4103     1   108.8800464 416.726400
   4099   4098   4100     1   117.6800502 383.254400
   4100   4102   4104     1   109.5600471 388.275200
   4100   4102   4105     1   109.5600471 388.275200
   4101   4100   4102     1   109.5600471 388.275200
   4101   4100   4103     1   108.4600466 328.025600
   4102   4100   4103     1   109.5600471 388.275200
   4104   4102   4106     1   109.8800469 414.216000
   4104   4102   4105     1   108.4600466 328.025600
   4105   4102   4106     1   109.8800469 414.216000
   4106   4107   4117     1   109.8800469 414.216000
   4106   4107   4118     1   109.8800469 414.216000
   4106   4108   4109     1   109.8800469 414.216000
   4106   4108   4111     1   109.8800469 414.216000
   4107   4119   4120     1   109.8000471 387.438400
   4107   4119   4121     1   109.8000471 387.438400
   4108   4110   4112     1   109.8000471 387.438400
   4108   4110   4113     1   109.8000471 387.438400
   4109   4108   4110     1   109.5600471 388.275200
   4109   4108   4111     1   108.4600466 328.025600
   4110   4108   4111     1   109.5600471 388.275200
   4112   4110   4114     1   108.7700466 392.459200
   4112   4110   4113     1   107.5800459 329.699200
   4113   4110   4114     1   108.7700466 392.459200
   4114   4115   4125     1   106.5500460 417.563200
   4117   4107   4119     1   109.5600471 388.275200
   4117   4107   4118     1   108.4600466 328.025600
   4118   4107   4119     1   109.5600471 388.275200
   4120   4119   4122     1   108.7700466 392.459200
   4120   4119   4121     1   107.5800459 329.699200
   4121   4119   4122     1   108.7700466 392.459200
   4122   4124   4126     1   106.5500460 417.563200
   4127   4129   4130     1   108.8800464 416.726400
   4127   4129   4132     1   108.8800464 416.726400
   4128   4127   4129     1   117.6800502 383.254400
   4129   4131   4133     1   109.5600471 388.275200
   4129   4131   4134     1   109.5600471 388.275200
   4130   4129   4131     1   109.5600471 388.275200
   4130   4129   4132     1   108.4600466 328.025600
   4131   4129   4132     1   109.5600471 388.275200
   4133   4131   4135     1   109.8800469 414.216000
   4133   4131   4134     1   108.4600466 328.025600
   4134   4131   4135     1   109.8800469 414.216000
   4135   4136   4146     1   109.8800469 414.216000
   4135   4136   4147     1   109.8800469 414.216000
   4135   4137   4138     1   109.8800469 414.216000
   4135   4137   4140     1   109.8800469 414.216000
   4136   4148   4149     1   109.8000471 387.438400
   4136   4148   4150     1   109.8000471 387.438400
   4137   4139   4141     1   109.8000471 387.438400
   4137   4139   4142     1   109.8000471 387.438400
   4138   4137   4139     1   109.5600471 388.275200
   4138   4137   4140     1   108.4600466 328.025600
   4139   4137   4140     1   109.5600471 388.275200
   4141   4139   4143     1   108.7700466 392.459200
   4141   4139   4142     1   107.5800459 329.699200
   4142   4139   4143     1   108.7700466 392.459200
   4143   4144   4154     1   106.5500460 417.563200
   4146   4136   4148     1   109.5600471 388.275200
   4146   4136   4147     1   108.4600466 328.025600
   4147   4136   4148     1   109.5600471 388.275200
   4149   4148   4151     1   108.7700466 392.459200
   4149   4148   4150     1   107.5800459 329.699200
   4150   4148   4151     1   108.7700466 392.459200
   4151   4153   4155     1   106.5500460 417.563200
   4156   4158   4159     1   108.8800464 416.726400
   4156   4158   4161     1   108.8800464 416.726400
   4157   4156   4158     1   117.6800502 383.254400
   4158   4160   4162     1   109.5600471 388.275200
   4158   4160   4163     1   109.5600471 388.275200
   4159   4158   4160     1   109.5600471 388.275200
   4159   4158   4161     1   108.4600466 328.025600
   4160   4158   4161     1   109.5600471 388.275200
   4162   4160   4164     1   109.8800469 414.216000
   4162   4160   4163     1   108.4600466 328.025600
   4163   4160   4164     1   109.8800469 414.216000
   4164   4165   4175     1   109.8800469 414.216000
   4164   4165   4176     1   109.8800469 414.216000
   4164   4166   4167     1   109.8800469 414.216000
   4164   4166   4169     1   109.8800469 414.216000
   4165   4177   4178     1   109.8000471 387.438400
   4165   4177   4179     1   109.8000471 387.438400
   4166   4168   4170     1   109.8000471 387.438400
   4166   4168   4171     1   109.8000471 387.438400
   4167   4166   4168     1   109.5600471 388.275200
   4167   4166   4169     1   108.4600466 328.025600
   4168   4166   4169     1   109.5600471 388.275200
   4170   4168   4172     1   108.7700466 392.459200
   4170   4168   4171     1   107.5800459 329.699200
   4171   4168   4172     1   108.7700466 392.459200
   4172   4173   4183     1   106.5500460 417.563200
   4175   4165   4177     1   109.5600471 388.275200
   4175   4165   4176     1   108.4600466 328.025600
   4176   4165   4177     1   109.5600471 388.275200
   4178   4177   4180     1   108.7700466 392.459200
   4178   4177   4179     1   107.5800459 329.699200
   4179   4177   4180     1   108.7700466 392.459200
   4180   4182   4184     1   106.5500460 417.563200
   4185   4187   4188     1   108.8800464 416.726400
   4185   4187   4190     1   108.8800464 416.726400
   4186   4185   4187     1   117.6800502 383.254400
   4187   4189   4191     1   109.5600471 388.275200
   4187   4189   4192     1   109.5600471 388.275200
   4188   4187   4189     1   109.5600471 388.275200
   4188   4187   4190     1   108.4600466 328.025600
   4189   4187   4190     1   109.5600471 388.275200
   4191   4189   4193     1   109.8800469 414.216000
   4191   4189   4192     1   108.4600466 328.025600
   4192   4189   4193     1   109.8800469 414.216000
   4193   4194   4204     1   109.8800469 414.216000
   4193   4194   4205     1   109.8800469 414.216000
   4193   4195   4196     1   109.8800469 414.216000
   4193   4195   4198     1   109.8800469 414.216000
   4194   4206   4207     1   109.8000471 387.438400
   4194   4206   4208     1   109.8000471 387.438400
   4195   4197   4199     1   109.8000471 387.438400
   4195   4197   4200     1   109.8000471 387.438400
   4196   4195   4197     1   109.5600471 388.275200
   4196   4195   4198     1   108.4600466 328.025600
   4197   4195   4198     1   109.5600471 388.275200
   4199   4197   4201     1   108.7700466 392.459200
   4199   4197   4200     1   107.5800459 329.699200
   4200   4197   4201     1   108.7700466 392.459200
   4201   4202   4212     1   106.5500460 417.563200
   4204   4194   4206     1   109.5600471 388.275200
   4204   4194   4205     1   108.4600466 328.025600
   4205   4194   4206     1   109.5600471 388.275200
   4207   4206   4209     1   108.7700466 392.459200
   4207   4206   4208     1   107.5800459 329.699200
   4208   4206   4209     1   108.7700466 392.459200
   4209   4211   4213     1   106.5500460 417.563200
   4214   4216   4217     1   108.8800464 416.726400
   4214   4216   4219     1   108.8800464 416.726400
   4215   4214   4216     1   117.6800502 383.254400
   4216   4218   4220     1   109.5600471 388.275200
   4216   4218   4221     1   109.5600471 388.275200
   4217   4216   4218     1   109.5600471 388.275200
   4217   4216   4219     1   108.4600466 328.025600
   4218   4216   4219     1   109.5600471 388.275200
   4220   4218   4222     1   109.8800469 414.216000
   4220   4218   4221     1   108.4600466 328.025600
   4221   4218   4222     1   109.8800469 414.216000
   4222   4223   4233     1   109.8800469 414.216000
   4222   4223   4234     1   109.8800469 414.216000
   4222   4224   4225     1   109.8800469 414.216000
   4222   4224   4227     1   109.8800469 414.216000
   4223   4235   4236     1   109.8000471 387.438400
   4223   4235   4237     1   109.8000471 387.438400
   4224   4226   4228     1   109.8000471 387.438400
   4224   4226   4229     1   109.8000471 387.438400
   4225   4224   4226     1   109.5600471 388.275200
   4225   4224   4227     1   108.4600466 328.025600
   4226   4224   4227     1   109.5600471 388.275200
   4228   4226   4230     1   108.7700466 392.459200
   4228   4226   4229     1   107.5800459 329.699200
   4229   4226   4230     1   108.7700466 392.459200
   4230   4231   4241     1   106.5500460 417.563200
   4233   4223   4235     1   109.5600471 388.275200
   4233   4223   4234     1   108.4600466 328.025600
   4234   4223   4235     1   109.5600471 388.275200
   4236   4235   4238     1   108.7700466 392.459200
   4236   4235   4237     1   107.5800459 329.699200
   4237   4235   4238     1   108.7700466 392.459200
   4238   4240   4242     1   106.5500460 417.563200
   4243   4245   4246     1   108.8800464 416.726400
   4243   4245   4248     1   108.8800464 416.726400
   4244   4243   4245     1   117.6800502 383.254400
   4245   4247   4249     1   109.5600471 388.275200
   4245   4247   4250     1   109.5600471 388.275200
   4246   4245   4247     1   109.5600471 388.275200
   4246   4245   4248     1   108.4600466 328.025600
   4247   4245   4248     1   109.5600471 388.275200
   4249   4247   4251     1   109.8800469 414.216000
   4249   4247   4250     1   108.4600466 328.025600
   4250   4247   4251     1   109.8800469 414.216000
   4251   4252   4262     1   109.8800469 414.216000
   4251   4252   4263     1   109.8800469 414.216000
   4251   4253   4254     1   109.8800469 414.216000
   4251   4253   4256     1   109.8800469 414.216000
   4252   4264   4265     1   109.8000471 387.438400
   4252   4264   4266     1   109.8000471 387.438400
   4253   4255   4257     1   109.8000471 387.438400
   4253   4255   4258     1   109.8000471 387.438400
   4254   4253   4255     1   109.5600471 388.275200
   4254   4253   4256     1   108.4600466 328.025600
   4255   4253   4256     1   109.5600471 388.275200
   4257   4255   4259     1   108.7700466 392.459200
   4257   4255   4258     1   107.5800459 329.699200
   4258   4255   4259     1   108.7700466 392.459200
   4259   4260   4270     1   106.5500460 417.563200
   4262   4252   4264     1   109.5600471 388.275200
   4262   4252   4263     1   108.4600466 328.025600
   4263   4252   4264     1   109.5600471 388.275200
   4265   4264   4267     1   108.7700466 392.459200
   4265   4264   4266     1   107.5800459 329.699200
   4266   4264   4267     1   108.7700466 392.459200
   4267   4269   4271     1   106.5500460 417.563200
   4272   4274   4275     1   108.8800464 416.726400
   4272   4274   4277     1   108.8800464 416.726400
   4273   4272   4274     1   117.6800502 383.254400
   4274   4276   4278     1   109.5600471 388.275200
   4274   4276   4279     1   109.5600471 388.275200
   4275   4274   4276     1   109.5600471 388.275200
   4275   4274   4277     1   108.4600466 328.025600
   4276   4274   4277     1   109.5600471 388.275200
   4278   4276   4280     1   109.8800469 414.216000
   4278   4276   4279     1   108.4600466 328.025600
   4279   4276   4280     1   109.8800469 414.216000
   4280   4281   4291     1   109.8800469 414.216000
   4280   4281   4292     1   109.8800469 414.216000
   4280   4282   4283     1   109.8800469 414.216000
   4280   4282   4285     1   109.8800469 414.216000
   4281   4293   4294     1   109.8000471 387.438400
   4281   4293   4295     1   109.8000471 387.438400
   4282   4284   4286     1   109.8000471 387.438400
   4282   4284   4287     1   109.8000471 387.438400
   4283   4282   4284     1   109.5600471 388.275200
   4283   4282   4285     1   108.4600466 328.025600
   4284   4282   4285     1   109.5600471 388.275200
   4286   4284   4288     1   108.7700466 392.459200
   4286   4284   4287     1   107.5800459 329.699200
   4287   4284   4288     1   108.7700466 392.459200
   4288   4289   4299     1   106.5500460 417.563200
   4291   4281   4293     1   109.5600471 388.275200
   4291   4281   4292     1   108.4600466 328.025600
   4292   4281   4293     1   109.5600471 388.275200
   4294   4293   4296     1   108.7700466 392.459200
   4294   4293   4295     1   107.5800459 329.699200
   4295   4293   4296     1   108.7700466 392.459200
   4296   4298   4300     1   106.5500460 417.563200
   4301   4303   4304     1   108.8800464 416.726400
   4301   4303   4306     1   108.8800464 416.726400
   4302   4301   4303     1   117.6800502 383.254400
   4303   4305   4307     1   109.5600471 388.275200
   4303   4305   4308     1   109.5600471 388.275200
   4304   4303   4305     1   109.5600471 388.275200
   4304   4303   4306     1   108.4600466 328.025600
   4305   4303   4306     1   109.5600471 388.275200
   4307   4305   4309     1   109.8800469 414.216000
   4307   4305   4308     1   108.4600466 328.025600
   4308   4305   4309     1   109.8800469 414.216000
   4309   4310   4320     1   109.8800469 414.216000
   4309   4310   4321     1   109.8800469 414.216000
   4309   4311   4312     1   109.8800469 414.216000
   4309   4311   4314     1   109.8800469 414.216000
   4310   4322   4323     1   109.8000471 387.438400
   4310   4322   4324     1   109.8000471 387.438400
   4311   4313   4315     1   109.8000471 387.438400
   4311   4313   4316     1   109.8000471 387.438400
   4312   4311   4313     1   109.5600471 388.275200
   4312   4311   4314     1   108.4600466 328.025600
   4313   4311   4314     1   109.5600471 388.275200
   4315   4313   4317     1   108.7700466 392.459200
   4315   4313   4316     1   107.5800459 329.699200
   4316   4313   4317     1   108.7700466 392.459200
   4317   4318   4328     1   106.5500460 417.563200
   4320   4310   4322     1   109.5600471 388.275200
   4320   4310   4321     1   108.4600466 328.025600
   4321   4310   4322     1   109.5600471 388.275200
   4323   4322   4325     1   108.7700466 392.459200
   4323   4322   4324     1   107.5800459 329.699200
   4324   4322   4325     1   108.7700466 392.459200
   4325   4327   4329     1   106.5500460 417.563200
   4330   4332   4333     1   108.8800464 416.726400
   4330   4332   4335     1   108.8800464 416.726400
   4331   4330   4332     1   117.6800502 383.254400
   4332   4334   4336     1   109.5600471 388.275200
   4332   4334   4337     1   109.5600471 388.275200
   4333   4332   4334     1   109.5600471 388.275200
   4333   4332   4335     1   108.4600466 328.025600
   4334   4332   4335     1   109.5600471 388.275200
   4336   4334   4338     1   109.8800469 414.216000
   4336   4334   4337     1   108.4600466 328.025600
   4337   4334   4338     1   109.8800469 414.216000
   4338   4339   4349     1   109.8800469 414.216000
   4338   4339   4350     1   109.8800469 414.216000
   4338   4340   4341     1   109.8800469 414.216000
   4338   4340   4343     1   109.8800469 414.216000
   4339   4351   4352     1   109.8000471 387.438400
   4339   4351   4353     1   109.8000471 387.438400
   4340   4342   4344     1   109.8000471 387.438400
   4340   4342   4345     1   109.8000471 387.438400
   4341   4340   4342     1   109.5600471 388.275200
   4341   4340   4343     1   108.4600466 328.025600
   4342   4340   4343     1   109.5600471 388.275200
   4344   4342   4346     1   108.7700466 392.459200
   4344   4342   4345     1   107.5800459 329.699200
   4345   4342   4346     1   108.7700466 392.459200
   4346   4347   4357     1   106.5500460 417.563200
   4349   4339   4351     1   109.5600471 388.275200
   4349   4339   4350     1   108.4600466 328.025600
   4350   4339   4351     1   109.5600471 388.275200
   4352   4351   4354     1   108.7700466 392.459200
   4352   4351   4353     1   107.5800459 329.699200
   4353   4351   4354     1   108.7700466 392.459200
   4354   4356   4358     1   106.5500460 417.563200
   4359   4361   4362     1   108.8800464 416.726400
   4359   4361   4364     1   108.8800464 416.726400
   4360   4359   4361     1   117.6800502 383.254400
   4361   4363   4365     1   109.5600471 388.275200
   4361   4363   4366     1   109.5600471 388.275200
   4362   4361   4363     1   109.5600471 388.275200
   4362   4361   4364     1   108.4600466 328.025600
   4363   4361   4364     1   109.5600471 388.275200
   4365   4363   4367     1   109.8800469 414.216000
   4365   4363   4366     1   108.4600466 328.025600
   4366   4363   4367     1   109.8800469 414.216000
   4367   4368   4378     1   109.8800469 414.216000
   4367   4368   4379     1   109.8800469 414.216000
   4367   4369   4370     1   109.8800469 414.216000
   4367   4369   4372     1   109.8800469 414.216000
   4368   4380   4381     1   109.8000471 387.438400
   4368   4380   4382     1   109.8000471 387.438400
   4369   4371   4373     1   109.8000471 387.438400
   4369   4371   4374     1   109.8000471 387.438400
   4370   4369   4371     1   109.5600471 388.275200
   4370   4369   4372     1   108.4600466 328.025600
   4371   4369   4372     1   109.5600471 388.275200
   4373   4371   4375     1   108.7700466 392.459200
   4373   4371   4374     1   107.5800459 329.699200
   4374   4371   4375     1   108.7700466 392.459200
   4375   4376   4386     1   106.5500460 417.563200
   4378   4368   4380     1   109.5600471 388.275200
   4378   4368   4379     1   108.4600466 328.025600
   4379   4368   4380     1   109.5600471 388.275200
   4381   4380   4383     1   108.7700466 392.459200
   4381   4380   4382     1   107.5800459 329.699200
   4382   4380   4383     1   108.7700466 392.459200
   4383   4385   4387     1   106.5500460 417.563200
   4388   4390   4391     1   108.8800464 416.726400
   4388   4390   4393     1   108.8800464 416.726400
   4389   4388   4390     1   117.6800502 383.254400
   4390   4392   4394     1   109.5600471 388.275200
   4390   4392   4395     1   109.5600471 388.275200
   4391   4390   4392     1   109.5600471 388.275200
   4391   4390   4393     1   108.4600466 328.025600
   4392   4390   4393     1   109.5600471 388.275200
   4394   4392   4396     1   109.8800469 414.216000
   4394   4392   4395     1   108.4600466 328.025600
   4395   4392   4396     1   109.8800469 414.216000
   4396   4397   4407     1   109.8800469 414.216000
   4396   4397   4408     1   109.8800469 414.216000
   4396   4398   4399     1   109.8800469 414.216000
   4396   4398   4401     1   109.8800469 414.216000
   4397   4409   4410     1   109.8000471 387.438400
   4397   4409   4411     1   109.8000471 387.438400
   4398   4400   4402     1   109.8000471 387.438400
   4398   4400   4403     1   109.8000471 387.438400
   4399   4398   4400     1   109.5600471 388.275200
   4399   4398   4401     1   108.4600466 328.025600
   4400   4398   4401     1   109.5600471 388.275200
   4402   4400   4404     1   108.7700466 392.459200
   4402   4400   4403     1   107.5800459 329.699200
   4403   4400   4404     1   108.7700466 392.459200
   4404   4405   4415     1   106.5500460 417.563200
   4407   4397   4409     1   109.5600471 388.275200
   4407   4397   4408     1   108.4600466 328.025600
   4408   4397   4409     1   109.5600471 388.275200
   4410   4409   4412     1   108.7700466 392.459200
   4410   4409   4411     1   107.5800459 329.699200
   4411   4409   4412     1   108.7700466 392.459200
   4412   4414   4416     1   106.5500460 417.563200
   4417   4419   4420     1   108.8800464 416.726400
   4417   4419   4422     1   108.8800464 416.726400
   4418   4417   4419     1   117.6800502 383.254400
   4419   4421   4423     1   109.5600471 388.275200
   4419   4421   4424     1   109.5600471 388.275200
   4420   4419   4421     1   109.5600471 388.275200
   4420   4419   4422     1   108.4600466 328.025600
   4421   4419   4422     1   109.5600471 388.275200
   4423   4421   4425     1   109.8800469 414.216000
   4423   4421   4424     1   108.4600466 328.025600
   4424   4421   4425     1   109.8800469 414.216000
   4425   4426   4436     1   109.8800469 414.216000
   4425   4426   4437     1   109.8800469 414.216000
   4425   4427   4428     1   109.8800469 414.216000
   4425   4427   4430     1   109.8800469 414.216000
   4426   4438   4439     1   109.8000471 387.438400
   4426   4438   4440     1   109.8000471 387.438400
   4427   4429   4431     1   109.8000471 387.438400
   4427   4429   4432     1   109.8000471 387.438400
   4428   4427   4429     1   109.5600471 388.275200
   4428   4427   4430     1   108.4600466 328.025600
   4429   4427   4430     1   109.5600471 388.275200
   4431   4429   4433     1   108.7700466 392.459200
   4431   4429   4432     1   107.5800459 329.699200
   4432   4429   4433     1   108.7700466 392.459200
   4433   4434   4444     1   106.5500460 417.563200
   4436   4426   4438     1   109.5600471 388.275200
   4436   4426   4437     1   108.4600466 328.025600
   4437   4426   4438     1   109.5600471 388.275200
   4439   4438   4441     1   108.7700466 392.459200
   4439   4438   4440     1   107.5800459 329.699200
   4440   4438   4441     1   108.7700466 392.459200
   4441   4443   4445     1   106.5500460 417.563200
   4446   4448   4449     1   108.8800464 416.726400
   4446   4448   4451     1   108.8800464 416.726400
   4447   4446   4448     1   117.6800502 383.254400
   4448   4450   4452     1   109.5600471 388.275200
   4448   4450   4453     1   109.5600471 388.275200
   4449   4448   4450     1   109.5600471 388.275200
   4449   4448   4451     1   108.4600466 328.025600
   4450   4448   4451     1   109.5600471 388.275200
   4452   4450   4454     1   109.8800469 414.216000
   4452   4450   4453     1   108.4600466 328.025600
   4453   4450   4454     1   109.8800469 414.216000
   4454   4455   4465     1   109.8800469 414.216000
   4454   4455   4466     1   109.8800469 414.216000
   4454   4456   4457     1   109.8800469 414.216000
   4454   4456   4459     1   109.8800469 414.216000
   4455   4467   4468     1   109.8000471 387.438400
   4455   4467   4469     1   109.8000471 387.438400
   4456   4458   4460     1   109.8000471 387.438400
   4456   4458   4461     1   109.8000471 387.438400
   4457   4456   4458     1   109.5600471 388.275200
   4457   4456   4459     1   108.4600466 328.025600
   4458   4456   4459     1   109.5600471 388.275200
   4460   4458   4462     1   108.7700466 392.459200
   4460   4458   4461     1   107.5800459 329.699200
   4461   4458   4462     1   108.7700466 392.459200
   4462   4463   4473     1   106.5500460 417.563200
   4465   4455   4467     1   109.5600471 388.275200
   4465   4455   4466     1   108.4600466 328.025600
   4466   4455   4467     1   109.5600471 388.275200
   4468   4467   4470     1   108.7700466 392.459200
   4468   4467   4469     1   107.5800459 329.699200
   4469   4467   4470     1   108.7700466 392.459200
   4470   4472   4474     1   106.5500460 417.563200
   4475   4477   4478     1   108.8800464 416.726400
   4475   4477   4480     1   108.8800464 416.726400
   4476   4475   4477     1   117.6800502 383.254400
   4477   4479   4481     1   109.5600471 388.275200
   4477   4479   4482     1   109.5600471 388.275200
   4478   4477   4479     1   109.5600471 388.275200
   4478   4477   4480     1   108.4600466 328.025600
   4479   4477   4480     1   109.5600471 388.275200
   4481   4479   4483     1   109.8800469 414.216000
   4481   4479   4482     1   108.4600466 328.025600
   4482   4479   4483     1   109.8800469 414.216000
   4483   4484   4494     1   109.8800469 414.216000
   4483   4484   4495     1   109.8800469 414.216000
   4483   4485   4486     1   109.8800469 414.216000
   4483   4485   4488     1   109.8800469 414.216000
   4484   4496   4497     1   109.8000471 387.438400
   4484   4496   4498     1   109.8000471 387.438400
   4485   4487   4489     1   109.8000471 387.438400
   4485   4487   4490     1   109.8000471 387.438400
   4486   4485   4487     1   109.5600471 388.275200
   4486   4485   4488     1   108.4600466 328.025600
   4487   4485   4488     1   109.5600471 388.275200
   4489   4487   4491     1   108.7700466 392.459200
   4489   4487   4490     1   107.5800459 329.699200
   4490   4487   4491     1   108.7700466 392.459200
   4491   4492   4502     1   106.5500460 417.563200
   4494   4484   4496     1   109.5600471 388.275200
   4494   4484   4495     1   108.4600466 328.025600
   4495   4484   4496     1   109.5600471 388.275200
   4497   4496   4499     1   108.7700466 392.459200
   4497   4496   4498     1   107.5800459 329.699200
   4498   4496   4499     1   108.7700466 392.459200
   4499   4501   4503     1   106.5500460 417.563200
   4504   4506   4507     1   108.8800464 416.726400
   4504   4506   4509     1   108.8800464 416.726400
   4505   4504   4506     1   117.6800502 383.254400
   4506   4508   4510     1   109.5600471 388.275200
   4506   4508   4511     1   109.5600471 388.275200
   4507   4506   4508     1   109.5600471 388.275200
   4507   4506   4509     1   108.4600466 328.025600
   4508   4506   4509     1   109.5600471 388.275200
   4510   4508   4512     1   109.8800469 414.216000
   4510   4508   4511     1   108.4600466 328.025600
   4511   4508   4512     1   109.8800469 414.216000
   4512   4513   4523     1   109.8800469 414.216000
   4512   4513   4524     1   109.8800469 414.216000
   4512   4514   4515     1   109.8800469 414.216000
   4512   4514   4517     1   109.8800469 414.216000
   4513   4525   4526     1   109.8000471 387.438400
   4513   4525   4527     1   109.8000471 387.438400
   4514   4516   4518     1   109.8000471 387.438400
   4514   4516   4519     1   109.8000471 387.438400
   4515   4514   4516     1   109.5600471 388.275200
   4515   4514   4517     1   108.4600466 328.025600
   4516   4514   4517     1   109.5600471 388.275200
   4518   4516   4520     1   108.7700466 392.459200
   4518   4516   4519     1   107.5800459 329.699200
   4519   4516   4520     1   108.7700466 392.459200
   4520   4521   4531     1   106.5500460 417.563200
   4523   4513   4525     1   109.5600471 388.275200
   4523   4513   4524     1   108.4600466 328.025600
   4524   4513   4525     1   109.5600471 388.275200
   4526   4525   4528     1   108.7700466 392.459200
   4526   4525   4527     1   107.5800459 329.699200
   4527   4525   4528     1   108.7700466 392.459200
   4528   4530   4532     1   106.5500460 417.563200
   4533   4535   4536     1   108.8800464 416.726400
   4533   4535   4538     1   108.8800464 416.726400
   4534   4533   4535     1   117.6800502 383.254400
   4535   4537   4539     1   109.5600471 388.275200
   4535   4537   4540     1   109.5600471 388.275200
   4536   4535   4537     1   109.5600471 388.275200
   4536   4535   4538     1   108.4600466 328.025600
   4537   4535   4538     1   109.5600471 388.275200
   4539   4537   4541     1   109.8800469 414.216000
   4539   4537   4540     1   108.4600466 328.025600
   4540   4537   4541     1   109.8800469 414.216000
   4541   4542   4552     1   109.8800469 414.216000
   4541   4542   4553     1   109.8800469 414.216000
   4541   4543   4544     1   109.8800469 414.216000
   4541   4543   4546     1   109.8800469 414.216000
   4542   4554   4555     1   109.8000471 387.438400
   4542   4554   4556     1   109.8000471 387.438400
   4543   4545   4547     1   109.8000471 387.438400
   4543   4545   4548     1   109.8000471 387.438400
   4544   4543   4545     1   109.5600471 388.275200
   4544   4543   4546     1   108.4600466 328.025600
   4545   4543   4546     1   109.5600471 388.275200
   4547   4545   4549     1   108.7700466 392.459200
   4547   4545   4548     1   107.5800459 329.699200
   4548   4545   4549     1   108.7700466 392.459200
   4549   4550   4560     1   106.5500460 417.563200
   4552   4542   4554     1   109.5600471 388.275200
   4552   4542   4553     1   108.4600466 328.025600
   4553   4542   4554     1   109.5600471 388.275200
   4555   4554   4557     1   108.7700466 392.459200
   4555   4554   4556     1   107.5800459 329.699200
   4556   4554   4557     1   108.7700466 392.459200
   4557   4559   4561     1   106.5500460 417.563200
   4562   4564   4565     1   108.8800464 416.726400
   4562   4564   4567     1   108.8800464 416.726400
   4563   4562   4564     1   117.6800502 383.254400
   4564   4566   4568     1   109.5600471 388.275200
   4564   4566   4569     1   109.5600471 388.275200
   4565   4564   4566     1   109.5600471 388.275200
   4565   4564   4567     1   108.4600466 328.025600
   4566   4564   4567     1   109.5600471 388.275200
   4568   4566   4570     1   109.8800469 414.216000
   4568   4566   4569     1   108.4600466 328.025600
   4569   4566   4570     1   109.8800469 414.216000
   4570   4571   4581     1   109.8800469 414.216000
   4570   4571   4582     1   109.8800469 414.216000
   4570   4572   4573     1   109.8800469 414.216000
   4570   4572   4575     1   109.8800469 414.216000
   4571   4583   4584     1   109.8000471 387.438400
   4571   4583   4585     1   109.8000471 387.438400
   4572   4574   4576     1   109.8000471 387.438400
   4572   4574   4577     1   109.8000471 387.438400
   4573   4572   4574     1   109.5600471 388.275200
   4573   4572   4575     1   108.4600466 328.025600
   4574   4572   4575     1   109.5600471 388.275200
   4576   4574   4578     1   108.7700466 392.459200
   4576   4574   4577     1   107.5800459 329.699200
   4577   4574   4578     1   108.7700466 392.459200
   4578   4579   4589     1   106.5500460 417.563200
   4581   4571   4583     1   109.5600471 388.275200
   4581   4571   4582     1   108.4600466 328.025600
   4582   4571   4583     1   109.5600471 388.275200
   4584   4583   4586     1   108.7700466 392.459200
   4584   4583   4585     1   107.5800459 329.699200
   4585   4583   4586     1   108.7700466 392.459200
   4586   4588   4590     1   106.5500460 417.563200
   4591   4593   4594     1   108.8800464 416.726400
   4591   4593   4596     1   108.8800464 416.726400
   4592   4591   4593     1   117.6800502 383.254400
   4593   4595   4597     1   109.5600471 388.275200
   4593   4595   4598     1   109.5600471 388.275200
   4594   4593   4595     1   109.5600471 388.275200
   4594   4593   4596     1   108.4600466 328.025600
   4595   4593   4596     1   109.5600471 388.275200
   4597   4595   4599     1   109.8800469 414.216000
   4597   4595   4598     1   108.4600466 328.025600
   4598   4595   4599     1   109.8800469 414.216000
   4599   4600   4610     1   109.8800469 414.216000
   4599   4600   4611     1   109.8800469 414.216000
   4599   4601   4602     1   109.8800469 414.216000
   4599   4601   4604     1   109.8800469 414.216000
   4600   4612   4613     1   109.8000471 387.438400
   4600   4612   4614     1   109.8000471 387.438400
   4601   4603   4605     1   109.8000471 387.438400
   4601   4603   4606     1   109.8000471 387.438400
   4602   4601   4603     1   109.5600471 388.275200
   4602   4601   4604     1   108.4600466 328.025600
   4603   4601   4604     1   109.5600471 388.275200
   4605   4603   4607     1   108.7700466 392.459200
   4605   4603   4606     1   107.5800459 329.699200
   4606   4603   4607     1   108.7700466 392.459200
   4607   4608   4618     1   106.5500460 417.563200
   4610   4600   4612     1   109.5600471 388.275200
   4610   4600   4611     1   108.4600466 328.025600
   4611   4600   4612     1   109.5600471 388.275200
   4613   4612   4615     1   108.7700466 392.459200
   4613   4612   4614     1   107.5800459 329.699200
   4614   4612   4615     1   108.7700466 392.459200
   4615   4617   4619     1   106.5500460 417.563200
   4620   4622   4623     1   108.8800464 416.726400
   4620   4622   4625     1   108.8800464 416.726400
   4621   4620   4622     1   117.6800502 383.254400
   4622   4624   4626     1   109.5600471 388.275200
   4622   4624   4627     1   109.5600471 388.275200
   4623   4622   4624     1   109.5600471 388.275200
   4623   4622   4625     1   108.4600466 328.025600
   4624   4622   4625     1   109.5600471 388.275200
   4626   4624   4628     1   109.8800469 414.216000
   4626   4624   4627     1   108.4600466 328.025600
   4627   4624   4628     1   109.8800469 414.216000
   4628   4629   4639     1   109.8800469 414.216000
   4628   4629   4640     1   109.8800469 414.216000
   4628   4630   4631     1   109.8800469 414.216000
   4628   4630   4633     1   109.8800469 414.216000
   4629   4641   4642     1   109.8000471 387.438400
   4629   4641   4643     1   109.8000471 387.438400
   4630   4632   4634     1   109.8000471 387.438400
   4630   4632   4635     1   109.8000471 387.438400
   4631   4630   4632     1   109.5600471 388.275200
   4631   4630   4633     1   108.4600466 328.025600
   4632   4630   4633     1   109.5600471 388.275200
   4634   4632   4636     1   108.7700466 392.459200
   4634   4632   4635     1   107.5800459 329.699200
   4635   4632   4636     1   108.7700466 392.459200
   4636   4637   4647     1   106.5500460 417.563200
   4639   4629   4641     1   109.5600471 388.275200
   4639   4629   4640     1   108.4600466 328.025600
   4640   4629   4641     1   109.5600471 388.275200
   4642   4641   4644     1   108.7700466 392.459200
   4642   4641   4643     1   107.5800459 329.699200
   4643   4641   4644     1   108.7700466 392.459200
   4644   4646   4648     1   106.5500460 417.563200
   4649   4651   4652     1   108.8800464 416.726400
   4649   4651   4654     1   108.8800464 416.726400
   4650   4649   4651     1   117.6800502 383.254400
   4651   4653   4655     1   109.5600471 388.275200
   4651   4653   4656     1   109.5600471 388.275200
   4652   4651   4653     1   109.5600471 388.275200
   4652   4651   4654     1   108.4600466 328.025600
   4653   4651   4654     1   109.5600471 388.275200
   4655   4653   4657     1   109.8800469 414.216000
   4655   4653   4656     1   108.4600466 328.025600
   4656   4653   4657     1   109.8800469 414.216000
   4657   4658   4668     1   109.8800469 414.216000
   4657   4658   4669     1   109.8800469 414.216000
   4657   4659   4660     1   109.8800469 414.216000
   4657   4659   4662     1   109.8800469 414.216000
   4658   4670   4671     1   109.8000471 387.438400
   4658   4670   4672     1   109.8000471 387.438400
   4659   4661   4663     1   109.8000471 387.438400
   4659   4661   4664     1   109.8000471 387.438400
   4660   4659   4661     1   109.5600471 388.275200
   4660   4659   4662     1   108.4600466 328.025600
   4661   4659   4662     1   109.5600471 388.275200
   4663   4661   4665     1   108.7700466 392.459200
   4663   4661   4664     1   107.5800459 329.699200
   4664   4661   4665     1   108.7700466 392.459200
   4665   4666   4676     1   106.5500460 417.563200
   4668   4658   4670     1   109.5600471 388.275200
   4668   4658   4669     1   108.4600466 328.025600
   4669   4658   4670     1   109.5600471 388.275200
   4671   4670   4673     1   108.7700466 392.459200
   4671   4670   4672     1   107.5800459 329.699200
   4672   4670   4673     1   108.7700466 392.459200
   4673   4675   4677     1   106.5500460 417.563200
   4678   4680   4681     1   108.8800464 416.726400
   4678   4680   4683     1   108.8800464 416.726400
   4679   4678   4680     1   117.6800502 383.254400
   4680   4682   4684     1   109.5600471 388.275200
   4680   4682   4685     1   109.5600471 388.275200
   4681   4680   4682     1   109.5600471 388.275200
   4681   4680   4683     1   108.4600466 328.025600
   4682   4680   4683     1   109.5600471 388.275200
   4684   4682   4686     1   109.8800469 414.216000
   4684   4682   4685     1   108.4600466 328.025600
   4685   4682   4686     1   109.8800469 414.216000
   4686   4687   4697     1   109.8800469 414.216000
   4686   4687   4698     1   109.8800469 414.216000
   4686   4688   4689     1   109.8800469 414.216000
   4686   4688   4691     1   109.8800469 414.216000
   4687   4699   4700     1   109.8000471 387.438400
   4687   4699   4701     1   109.8000471 387.438400
   4688   4690   4692     1   109.8000471 387.438400
   4688   4690   4693     1   109.8000471 387.438400
   4689   4688   4690     1   109.5600471 388.275200
   4689   4688   4691     1   108.4600466 328.025600
   4690   4688   4691     1   109.5600471 388.275200
   4692   4690   4694     1   108.7700466 392.459200
   4692   4690   4693     1   107.5800459 329.699200
   4693   4690   4694     1   108.7700466 392.459200
   4694   4695   4705     1   106.5500460 417.563200
   4697   4687   4699     1   109.5600471 388.275200
   4697   4687   4698     1   108.4600466 328.025600
   4698   4687   4699     1   109.5600471 388.275200
   4700   4699   4702     1   108.7700466 392.459200
   4700   4699   4701     1   107.5800459 329.699200
   4701   4699   4702     1   108.7700466 392.459200
   4702   4704   4706     1   106.5500460 417.563200
   4707   4709   4710     1   108.8800464 416.726400
   4707   4709   4712     1   108.8800464 416.726400
   4708   4707   4709     1   117.6800502 383.254400
   4709   4711   4713     1   109.5600471 388.275200
   4709   4711   4714     1   109.5600471 388.275200
   4710   4709   4711     1   109.5600471 388.275200
   4710   4709   4712     1   108.4600466 328.025600
   4711   4709   4712     1   109.5600471 388.275200
   4713   4711   4715     1   109.8800469 414.216000
   4713   4711   4714     1   108.4600466 328.025600
   4714   4711   4715     1   109.8800469 414.216000
   4715   4716   4726     1   109.8800469 414.216000
   4715   4716   4727     1   109.8800469 414.216000
   4715   4717   4718     1   109.8800469 414.216000
   4715   4717   4720     1   109.8800469 414.216000
   4716   4728   4729     1   109.8000471 387.438400
   4716   4728   4730     1   109.8000471 387.438400
   4717   4719   4721     1   109.8000471 387.438400
   4717   4719   4722     1   109.8000471 387.438400
   4718   4717   4719     1   109.5600471 388.275200
   4718   4717   4720     1   108.4600466 328.025600
   4719   4717   4720     1   109.5600471 388.275200
   4721   4719   4723     1   108.7700466 392.459200
   4721   4719   4722     1   107.5800459 329.699200
   4722   4719   4723     1   108.7700466 392.459200
   4723   4724   4734     1   106.5500460 417.563200
   4726   4716   4728     1   109.5600471 388.275200
   4726   4716   4727     1   108.4600466 328.025600
   4727   4716   4728     1   109.5600471 388.275200
   4729   4728   4731     1   108.7700466 392.459200
   4729   4728   4730     1   107.5800459 329.699200
   4730   4728   4731     1   108.7700466 392.459200
   4731   4733   4735     1   106.5500460 417.563200
   4736   4738   4739     1   108.8800464 416.726400
   4736   4738   4741     1   108.8800464 416.726400
   4737   4736   4738     1   117.6800502 383.254400
   4738   4740   4742     1   109.5600471 388.275200
   4738   4740   4743     1   109.5600471 388.275200
   4739   4738   4740     1   109.5600471 388.275200
   4739   4738   4741     1   108.4600466 328.025600
   4740   4738   4741     1   109.5600471 388.275200
   4742   4740   4744     1   109.8800469 414.216000
   4742   4740   4743     1   108.4600466 328.025600
   4743   4740   4744     1   109.8800469 414.216000
   4744   4745   4755     1   109.8800469 414.216000
   4744   4745   4756     1   109.8800469 414.216000
   4744   4746   4747     1   109.8800469 414.216000
   4744   4746   4749     1   109.8800469 414.216000
   4745   4757   4758     1   109.8000471 387.438400
   4745   4757   4759     1   109.8000471 387.438400
   4746   4748   4750     1   109.8000471 387.438400
   4746   4748   4751     1   109.8000471 387.438400
   4747   4746   4748     1   109.5600471 388.275200
   4747   4746   4749     1   108.4600466 328.025600
   4748   4746   4749     1   109.5600471 388.275200
   4750   4748   4752     1   108.7700466 392.459200
   4750   4748   4751     1   107.5800459 329.699200
   4751   4748   4752     1   108.7700466 392.459200
   4752   4753   4763     1   106.5500460 417.563200
   4755   4745   4757     1   109.5600471 388.275200
   4755   4745   4756     1   108.4600466 328.025600
   4756   4745   4757     1   109.5600471 388.275200
   4758   4757   4760     1   108.7700466 392.459200
   4758   4757   4759     1   107.5800459 329.699200
   4759   4757   4760     1   108.7700466 392.459200
   4760   4762   4764     1   106.5500460 417.563200
   4765   4767   4768     1   108.8800464 416.726400
   4765   4767   4770     1   108.8800464 416.726400
   4766   4765   4767     1   117.6800502 383.254400
   4767   4769   4771     1   109.5600471 388.275200
   4767   4769   4772     1   109.5600471 388.275200
   4768   4767   4769     1   109.5600471 388.275200
   4768   4767   4770     1   108.4600466 328.025600
   4769   4767   4770     1   109.5600471 388.275200
   4771   4769   4773     1   109.8800469 414.216000
   4771   4769   4772     1   108.4600466 328.025600
   4772   4769   4773     1   109.8800469 414.216000
   4773   4774   4784     1   109.8800469 414.216000
   4773   4774   4785     1   109.8800469 414.216000
   4773   4775   4776     1   109.8800469 414.216000
   4773   4775   4778     1   109.8800469 414.216000
   4774   4786   4787     1   109.8000471 387.438400
   4774   4786   4788     1   109.8000471 387.438400
   4775   4777   4779     1   109.8000471 387.438400
   4775   4777   4780     1   109.8000471 387.438400
   4776   4775   4777     1   109.5600471 388.275200
   4776   4775   4778     1   108.4600466 328.025600
   4777   4775   4778     1   109.5600471 388.275200
   4779   4777   4781     1   108.7700466 392.459200
   4779   4777   4780     1   107.5800459 329.699200
   4780   4777   4781     1   108.7700466 392.459200
   4781   4782   4792     1   106.5500460 417.563200
   4784   4774   4786     1   109.5600471 388.275200
   4784   4774   4785     1   108.4600466 328.025600
   4785   4774   4786     1   109.5600471 388.275200
   4787   4786   4789     1   108.7700466 392.459200
   4787   4786   4788     1   107.5800459 329.699200
   4788   4786   4789     1   108.7700466 392.459200
   4789   4791   4793     1   106.5500460 417.563200
   4794   4796   4797     1   108.8800464 416.726400
   4794   4796   4799     1   108.8800464 416.726400
   4795   4794   4796     1   117.6800502 383.254400
   4796   4798   4800     1   109.5600471 388.275200
   4796   4798   4801     1   109.5600471 388.275200
   4797   4796   4798     1   109.5600471 388.275200
   4797   4796   4799     1   108.4600466 328.025600
   4798   4796   4799     1   109.5600471 388.275200
   4800   4798   4802     1   109.8800469 414.216000
   4800   4798   4801     1   108.4600466 328.025600
   4801   4798   4802     1   109.8800469 414.216000
   4802   4803   4813     1   109.8800469 414.216000
   4802   4803   4814     1   109.8800469 414.216000
   4802   4804   4805     1   109.8800469 414.216000
   4802   4804   4807     1   109.8800469 414.216000
   4803   4815   4816     1   109.8000471 387.438400
   4803   4815   4817     1   109.8000471 387.438400
   4804   4806   4808     1   109.8000471 387.438400
   4804   4806   4809     1   109.8000471 387.438400
   4805   4804   4806     1   109.5600471 388.275200
   4805   4804   4807     1   108.4600466 328.025600
   4806   4804   4807     1   109.5600471 388.275200
   4808   4806   4810     1   108.7700466 392.459200
   4808   4806   4809     1   107.5800459 329.699200
   4809   4806   4810     1   108.7700466 392.459200
   4810   4811   4821     1   106.5500460 417.563200
   4813   4803   4815     1   109.5600471 388.275200
   4813   4803   4814     1   108.4600466 328.025600
   4814   4803   4815     1   109.5600471 388.275200
   4816   4815   4818     1   108.7700466 392.459200
   4816   4815   4817     1   107.5800459 329.699200
   4817   4815   4818     1   108.7700466 392.459200
   4818   4820   4822     1   106.5500460 417.563200
   4823   4825   4826     1   108.8800464 416.726400
   4823   4825   4828     1   108.8800464 416.726400
   4824   4823   4825     1   117.6800502 383.254400
   4825   4827   4829     1   109.5600471 388.275200
   4825   4827   4830     1   109.5600471 388.275200
   4826   4825   4827     1   109.5600471 388.275200
   4826   4825   4828     1   108.4600466 328.025600
   4827   4825   4828     1   109.5600471 388.275200
   4829   4827   4831     1   109.8800469 414.216000
   4829   4827   4830     1   108.4600466 328.025600
   4830   4827   4831     1   109.8800469 414.216000
   4831   4832   4842     1   109.8800469 414.216000
   4831   4832   4843     1   109.8800469 414.216000
   4831   4833   4834     1   109.8800469 414.216000
   4831   4833   4836     1   109.8800469 414.216000
   4832   4844   4845     1   109.8000471 387.438400
   4832   4844   4846     1   109.8000471 387.438400
   4833   4835   4837     1   109.8000471 387.438400
   4833   4835   4838     1   109.8000471 387.438400
   4834   4833   4835     1   109.5600471 388.275200
   4834   4833   4836     1   108.4600466 328.025600
   4835   4833   4836     1   109.5600471 388.275200
   4837   4835   4839     1   108.7700466 392.459200
   4837   4835   4838     1   107.5800459 329.699200
   4838   4835   4839     1   108.7700466 392.459200
   4839   4840   4850     1   106.5500460 417.563200
   4842   4832   4844     1   109.5600471 388.275200
   4842   4832   4843     1   108.4600466 328.025600
   4843   4832   4844     1   109.5600471 388.275200
   4845   4844   4847     1   108.7700466 392.459200
   4845   4844   4846     1   107.5800459 329.699200
   4846   4844   4847     1   108.7700466 392.459200
   4847   4849   4851     1   106.5500460 417.563200
   4852   4854   4855     1   108.8800464 416.726400
   4852   4854   4857     1   108.8800464 416.726400
   4853   4852   4854     1   117.6800502 383.254400
   4854   4856   4858     1   109.5600471 388.275200
   4854   4856   4859     1   109.5600471 388.275200
   4855   4854   4856     1   109.5600471 388.275200
   4855   4854   4857     1   108.4600466 328.025600
   4856   4854   4857     1   109.5600471 388.275200
   4858   4856   4860     1   109.8800469 414.216000
   4858   4856   4859     1   108.4600466 328.025600
   4859   4856   4860     1   109.8800469 414.216000
   4860   4861   4871     1   109.8800469 414.216000
   4860   4861   4872     1   109.8800469 414.216000
   4860   4862   4863     1   109.8800469 414.216000
   4860   4862   4865     1   109.8800469 414.216000
   4861   4873   4874     1   109.8000471 387.438400
   4861   4873   4875     1   109.8000471 387.438400
   4862   4864   4866     1   109.8000471 387.438400
   4862   4864   4867     1   109.8000471 387.438400
   4863   4862   4864     1   109.5600471 388.275200
   4863   4862   4865     1   108.4600466 328.025600
   4864   4862   4865     1   109.5600471 388.275200
   4866   4864   4868     1   108.7700466 392.459200
   4866   4864   4867     1   107.5800459 329.699200
   4867   4864   4868     1   108.7700466 392.459200
   4868   4869   4879     1   106.5500460 417.563200
   4871   4861   4873     1   109.5600471 388.275200
   4871   4861   4872     1   108.4600466 328.025600
   4872   4861   4873     1   109.5600471 388.275200
   4874   4873   4876     1   108.7700466 392.459200
   4874   4873   4875     1   107.5800459 329.699200
   4875   4873   4876     1   108.7700466 392.459200
   4876   4878   4880     1   106.5500460 417.563200
   4881   4883   4884     1   108.8800464 416.726400
   4881   4883   4886     1   108.8800464 416.726400
   4882   4881   4883     1   117.6800502 383.254400
   4883   4885   4887     1   109.5600471 388.275200
   4883   4885   4888     1   109.5600471 388.275200
   4884   4883   4885     1   109.5600471 388.275200
   4884   4883   4886     1   108.4600466 328.025600
   4885   4883   4886     1   109.5600471 388.275200
   4887   4885   4889     1   109.8800469 414.216000
   4887   4885   4888     1   108.4600466 328.025600
   4888   4885   4889     1   109.8800469 414.216000
   4889   4890   4900     1   109.8800469 414.216000
   4889   4890   4901     1   109.8800469 414.216000
   4889   4891   4892     1   109.8800469 414.216000
   4889   4891   4894     1   109.8800469 414.216000
   4890   4902   4903     1   109.8000471 387.438400
   4890   4902   4904     1   109.8000471 387.438400
   4891   4893   4895     1   109.8000471 387.438400
   4891   4893   4896     1   109.8000471 387.438400
   4892   4891   4893     1   109.5600471 388.275200
   4892   4891   4894     1   108.4600466 328.025600
   4893   4891   4894     1   109.5600471 388.275200
   4895   4893   4897     1   108.7700466 392.459200
   4895   4893   4896     1   107.5800459 329.699200
   4896   4893   4897     1   108.7700466 392.459200
   4897   4898   4908     1   106.5500460 417.563200
   4900   4890   4902     1   109.5600471 388.275200
   4900   4890   4901     1   108.4600466 328.025600
   4901   4890   4902     1   109.5600471 388.275200
   4903   4902   4905     1   108.7700466 392.459200
   4903   4902   4904     1   107.5800459 329.699200
   4904   4902   4905     1   108.7700466 392.459200
   4905   4907   4909     1   106.5500460 417.563200
   4910   4912   4913     1   108.8800464 416.726400
   4910   4912   4915     1   108.8800464 416.726400
   4911   4910   4912     1   117.6800502 383.254400
   4912   4914   4916     1   109.5600471 388.275200
   4912   4914   4917     1   109.5600471 388.275200
   4913   4912   4914     1   109.5600471 388.275200
   4913   4912   4915     1   108.4600466 328.025600
   4914   4912   4915     1   109.5600471 388.275200
   4916   4914   4918     1   109.8800469 414.216000
   4916   4914   4917     1   108.4600466 328.025600
   4917   4914   4918     1   109.8800469 414.216000
   4918   4919   4929     1   109.8800469 414.216000
   4918   4919   4930     1   109.8800469 414.216000
   4918   4920   4921     1   109.8800469 414.216000
   4918   4920   4923     1   109.8800469 414.216000
   4919   4931   4932     1   109.8000471 387.438400
   4919   4931   4933     1   109.8000471 387.438400
   4920   4922   4924     1   109.8000471 387.438400
   4920   4922   4925     1   109.8000471 387.438400
   4921   4920   4922     1   109.5600471 388.275200
   4921   4920   4923     1   108.4600466 328.025600
   4922   4920   4923     1   109.5600471 388.275200
   4924   4922   4926     1   108.7700466 392.459200
   4924   4922   4925     1   107.5800459 329.699200
   4925   4922   4926     1   108.7700466 392.459200
   4926   4927   4937     1   106.5500460 417.563200
   4929   4919   4931     1   109.5600471 388.275200
   4929   4919   4930     1   108.4600466 328.025600
   4930   4919   4931     1   109.5600471 388.275200
   4932   4931   4934     1   108.7700466 392.459200
   4932   4931   4933     1   107.5800459 329.699200
   4933   4931   4934     1   108.7700466 392.459200
   4934   4936   4938     1   106.5500460 417.563200
   4939   4941   4942     1   108.8800464 416.726400
   4939   4941   4944     1   108.8800464 416.726400
   4940   4939   4941     1   117.6800502 383.254400
   4941   4943   4945     1   109.5600471 388.275200
   4941   4943   4946     1   109.5600471 388.275200
   4942   4941   4943     1   109.5600471 388.275200
   4942   4941   4944     1   108.4600466 328.025600
   4943   4941   4944     1   109.5600471 388.275200
   4945   4943   4947     1   109.8800469 414.216000
   4945   4943   4946     1   108.4600466 328.025600
   4946   4943   4947     1   109.8800469 414.216000
   4947   4948   4958     1   109.8800469 414.216000
   4947   4948   4959     1   109.8800469 414.216000
   4947   4949   4950     1   109.8800469 414.216000
   4947   4949   4952     1   109.8800469 414.216000
   4948   4960   4961     1   109.8000471 387.438400
   4948   4960   4962     1   109.8000471 387.438400
   4949   4951   4953     1   109.8000471 387.438400
   4949   4951   4954     1   109.8000471 387.438400
   4950   4949   4951     1   109.5600471 388.275200
   4950   4949   4952     1   108.4600466 328.025600
   4951   4949   4952     1   109.5600471 388.275200
   4953   4951   4955     1   108.7700466 392.459200
   4953   4951   4954     1   107.5800459 329.699200
   4954   4951   4955     1   108.7700466 392.459200
   4955   4956   4966     1   106.5500460 417.563200
   4958   4948   4960     1   109.5600471 388.275200
   4958   4948   4959     1   108.4600466 328.025600
   4959   4948   4960     1   109.5600471 388.275200
   4961   4960   4963     1   108.7700466 392.459200
   4961   4960   4962     1   107.5800459 329.699200
   4962   4960   4963     1   108.7700466 392.459200
   4963   4965   4967     1   106.5500460 417.563200
   4968   4970   4971     1   108.8800464 416.726400
   4968   4970   4973     1   108.8800464 416.726400
   4969   4968   4970     1   117.6800502 383.254400
   4970   4972   4974     1   109.5600471 388.275200
   4970   4972   4975     1   109.5600471 388.275200
   4971   4970   4972     1   109.5600471 388.275200
   4971   4970   4973     1   108.4600466 328.025600
   4972   4970   4973     1   109.5600471 388.275200
   4974   4972   4976     1   109.8800469 414.216000
   4974   4972   4975     1   108.4600466 328.025600
   4975   4972   4976     1   109.8800469 414.216000
   4976   4977   4987     1   109.8800469 414.216000
   4976   4977   4988     1   109.8800469 414.216000
   4976   4978   4979     1   109.8800469 414.216000
   4976   4978   4981     1   109.8800469 414.216000
   4977   4989   4990     1   109.8000471 387.438400
   4977   4989   4991     1   109.8000471 387.438400
   4978   4980   4982     1   109.8000471 387.438400
   4978   4980   4983     1   109.8000471 387.438400
   4979   4978   4980     1   109.5600471 388.275200
   4979   4978   4981     1   108.4600466 328.025600
   4980   4978   4981     1   109.5600471 388.275200
   4982   4980   4984     1   108.7700466 392.459200
   4982   4980   4983     1   107.5800459 329.699200
   4983   4980   4984     1   108.7700466 392.459200
   4984   4985   4995     1   106.5500460 417.563200
   4987   4977   4989     1   109.5600471 388.275200
   4987   4977   4988     1   108.4600466 328.025600
   4988   4977   4989     1   109.5600471 388.275200
   4990   4989   4992     1   108.7700466 392.459200
   4990   4989   4991     1   107.5800459 329.699200
   4991   4989   4992     1   108.7700466 392.459200
   4992   4994   4996     1   106.5500460 417.563200
   4997   4999   5000     1   108.8800464 416.726400
   4997   4999   5002     1   108.8800464 416.726400
   4998   4997   4999     1   117.6800502 383.254400
   4999   5001   5003     1   109.5600471 388.275200
   4999   5001   5004     1   109.5600471 388.275200
   5000   4999   5001     1   109.5600471 388.275200
   5000   4999   5002     1   108.4600466 328.025600
   5001   4999   5002     1   109.5600471 388.275200
   5003   5001   5005     1   109.8800469 414.216000
   5003   5001   5004     1   108.4600466 328.025600
   5004   5001   5005     1   109.8800469 414.216000
   5005   5006   5016     1   109.8800469 414.216000
   5005   5006   5017     1   109.8800469 414.216000
   5005   5007   5008     1   109.8800469 414.216000
   5005   5007   5010     1   109.8800469 414.216000
   5006   5018   5019     1   109.8000471 387.438400
   5006   5018   5020     1   109.8000471 387.438400
   5007   5009   5011     1   109.8000471 387.438400
   5007   5009   5012     1   109.8000471 387.438400
   5008   5007   5009     1   109.5600471 388.275200
   5008   5007   5010     1   108.4600466 328.025600
   5009   5007   5010     1   109.5600471 388.275200
   5011   5009   5013     1   108.7700466 392.459200
   5011   5009   5012     1   107.5800459 329.699200
   5012   5009   5013     1   108.7700466 392.459200
   5013   5014   5024     1   106.5500460 417.563200
   5016   5006   5018     1   109.5600471 388.275200
   5016   5006   5017     1   108.4600466 328.025600
   5017   5006   5018     1   109.5600471 388.275200
   5019   5018   5021     1   108.7700466 392.459200
   5019   5018   5020     1   107.5800459 329.699200
   5020   5018   5021     1   108.7700466 392.459200
   5021   5023   5025     1   106.5500460 417.563200
   5026   5028   5029     1   108.8800464 416.726400
   5026   5028   5031     1   108.8800464 416.726400
   5027   5026   5028     1   117.6800502 383.254400
   5028   5030   5032     1   109.5600471 388.275200
   5028   5030   5033     1   109.5600471 388.275200
   5029   5028   5030     1   109.5600471 388.275200
   5029   5028   5031     1   108.4600466 328.025600
   5030   5028   5031     1   109.5600471 388.275200
   5032   5030   5034     1   109.8800469 414.216000
   5032   5030   5033     1   108.4600466 328.025600
   5033   5030   5034     1   109.8800469 414.216000
   5034   5035   5045     1   109.8800469 414.216000
   5034   5035   5046     1   109.8800469 414.216000
   5034   5036   5037     1   109.8800469 414.216000
   5034   5036   5039     1   109.8800469 414.216000
   5035   5047   5048     1   109.8000471 387.438400
   5035   5047   5049     1   109.8000471 387.438400
   5036   5038   5040     1   109.8000471 387.438400
   5036   5038   5041     1   109.8000471 387.438400
   5037   5036   5038     1   109.5600471 388.275200
   5037   5036   5039     1   108.4600466 328.025600
   5038   5036   5039     1   109.5600471 388.275200
   5040   5038   5042     1   108.7700466 392.459200
   5040   5038   5041     1   107.5800459 329.699200
   5041   5038   5042     1   108.7700466 392.459200
   5042   5043   5053     1   106.5500460 417.563200
   5045   5035   5047     1   109.5600471 388.275200
   5045   5035   5046     1   108.4600466 328.025600
   5046   5035   5047     1   109.5600471 388.275200
   5048   5047   5050     1   108.7700466 392.459200
   5048   5047   5049     1   107.5800459 329.699200
   5049   5047   5050     1   108.7700466 392.459200
   5050   5052   5054     1   106.5500460 417.563200
   5055   5057   5058     1   108.8800464 416.726400
   5055   5057   5060     1   108.8800464 416.726400
   5056   5055   5057     1   117.6800502 383.254400
   5057   5059   5061     1   109.5600471 388.275200
   5057   5059   5062     1   109.5600471 388.275200
   5058   5057   5059     1   109.5600471 388.275200
   5058   5057   5060     1   108.4600466 328.025600
   5059   5057   5060     1   109.5600471 388.275200
   5061   5059   5063     1   109.8800469 414.216000
   5061   5059   5062     1   108.4600466 328.025600
   5062   5059   5063     1   109.8800469 414.216000
   5063   5064   5074     1   109.8800469 414.216000
   5063   5064   5075     1   109.8800469 414.216000
   5063   5065   5066     1   109.8800469 414.216000
   5063   5065   5068     1   109.8800469 414.216000
   5064   5076   5077     1   109.8000471 387.438400
   5064   5076   5078     1   109.8000471 387.438400
   5065   5067   5069     1   109.8000471 387.438400
   5065   5067   5070     1   109.8000471 387.438400
   5066   5065   5067     1   109.5600471 388.275200
   5066   5065   5068     1   108.4600466 328.025600
   5067   5065   5068     1   109.5600471 388.275200
   5069   5067   5071     1   108.7700466 392.459200
   5069   5067   5070     1   107.5800459 329.699200
   5070   5067   5071     1   108.7700466 392.459200
   5071   5072   5082     1   106.5500460 417.563200
   5074   5064   5076     1   109.5600471 388.275200
   5074   5064   5075     1   108.4600466 328.025600
   5075   5064   5076     1   109.5600471 388.275200
   5077   5076   5079     1   108.7700466 392.459200
   5077   5076   5078     1   107.5800459 329.699200
   5078   5076   5079     1   108.7700466 392.459200
   5079   5081   5083     1   106.5500460 417.563200
   5084   5086   5087     1   108.8800464 416.726400
   5084   5086   5089     1   108.8800464 416.726400
   5085   5084   5086     1   117.6800502 383.254400
   5086   5088   5090     1   109.5600471 388.275200
   5086   5088   5091     1   109.5600471 388.275200
   5087   5086   5088     1   109.5600471 388.275200
   5087   5086   5089     1   108.4600466 328.025600
   5088   5086   5089     1   109.5600471 388.275200
   5090   5088   5092     1   109.8800469 414.216000
   5090   5088   5091     1   108.4600466 328.025600
   5091   5088   5092     1   109.8800469 414.216000
   5092   5093   5103     1   109.8800469 414.216000
   5092   5093   5104     1   109.8800469 414.216000
   5092   5094   5095     1   109.8800469 414.216000
   5092   5094   5097     1   109.8800469 414.216000
   5093   5105   5106     1   109.8000471 387.438400
   5093   5105   5107     1   109.8000471 387.438400
   5094   5096   5098     1   109.8000471 387.438400
   5094   5096   5099     1   109.8000471 387.438400
   5095   5094   5096     1   109.5600471 388.275200
   5095   5094   5097     1   108.4600466 328.025600
   5096   5094   5097     1   109.5600471 388.275200
   5098   5096   5100     1   108.7700466 392.459200
   5098   5096   5099     1   107.5800459 329.699200
   5099   5096   5100     1   108.7700466 392.459200
   5100   5101   5111     1   106.5500460 417.563200
   5103   5093   5105     1   109.5600471 388.275200
   5103   5093   5104     1   108.4600466 328.025600
   5104   5093   5105     1   109.5600471 388.275200
   5106   5105   5108     1   108.7700466 392.459200
   5106   5105   5107     1   107.5800459 329.699200
   5107   5105   5108     1   108.7700466 392.459200
   5108   5110   5112     1   106.5500460 417.563200
   5113   5115   5116     1   108.8800464 416.726400
   5113   5115   5118     1   108.8800464 416.726400
   5114   5113   5115     1   117.6800502 383.254400
   5115   5117   5119     1   109.5600471 388.275200
   5115   5117   5120     1   109.5600471 388.275200
   5116   5115   5117     1   109.5600471 388.275200
   5116   5115   5118     1   108.4600466 328.025600
   5117   5115   5118     1   109.5600471 388.275200
   5119   5117   5121     1   109.8800469 414.216000
   5119   5117   5120     1   108.4600466 328.025600
   5120   5117   5121     1   109.8800469 414.216000
   5121   5122   5132     1   109.8800469 414.216000
   5121   5122   5133     1   109.8800469 414.216000
   5121   5123   5124     1   109.8800469 414.216000
   5121   5123   5126     1   109.8800469 414.216000
   5122   5134   5135     1   109.8000471 387.438400
   5122   5134   5136     1   109.8000471 387.438400
   5123   5125   5127     1   109.8000471 387.438400
   5123   5125   5128     1   109.8000471 387.438400
   5124   5123   5125     1   109.5600471 388.275200
   5124   5123   5126     1   108.4600466 328.025600
   5125   5123   5126     1   109.5600471 388.275200
   5127   5125   5129     1   108.7700466 392.459200
   5127   5125   5128     1   107.5800459 329.699200
   5128   5125   5129     1   108.7700466 392.459200
   5129   5130   5140     1   106.5500460 417.563200
   5132   5122   5134     1   109.5600471 388.275200
   5132   5122   5133     1   108.4600466 328.025600
   5133   5122   5134     1   109.5600471 388.275200
   5135   5134   5137     1   108.7700466 392.459200
   5135   5134   5136     1   107.5800459 329.699200
   5136   5134   5137     1   108.7700466 392.459200
   5137   5139   5141     1   106.5500460 417.563200
   5142   5144   5145     1   108.8800464 416.726400
   5142   5144   5147     1   108.8800464 416.726400
   5143   5142   5144     1   117.6800502 383.254400
   5144   5146   5148     1   109.5600471 388.275200
   5144   5146   5149     1   109.5600471 388.275200
   5145   5144   5146     1   109.5600471 388.275200
   5145   5144   5147     1   108.4600466 328.025600
   5146   5144   5147     1   109.5600471 388.275200
   5148   5146   5150     1   109.8800469 414.216000
   5148   5146   5149     1   108.4600466 328.025600
   5149   5146   5150     1   109.8800469 414.216000
   5150   5151   5161     1   109.8800469 414.216000
   5150   5151   5162     1   109.8800469 414.216000
   5150   5152   5153     1   109.8800469 414.216000
   5150   5152   5155     1   109.8800469 414.216000
   5151   5163   5164     1   109.8000471 387.438400
   5151   5163   5165     1   109.8000471 387.438400
   5152   5154   5156     1   109.8000471 387.438400
   5152   5154   5157     1   109.8000471 387.438400
   5153   5152   5154     1   109.5600471 388.275200
   5153   5152   5155     1   108.4600466 328.025600
   5154   5152   5155     1   109.5600471 388.275200
   5156   5154   5158     1   108.7700466 392.459200
   5156   5154   5157     1   107.5800459 329.699200
   5157   5154   5158     1   108.7700466 392.459200
   5158   5159   5169     1   106.5500460 417.563200
   5161   5151   5163     1   109.5600471 388.275200
   5161   5151   5162     1   108.4600466 328.025600
   5162   5151   5163     1   109.5600471 388.275200
   5164   5163   5166     1   108.7700466 392.459200
   5164   5163   5165     1   107.5800459 329.699200
   5165   5163   5166     1   108.7700466 392.459200
   5166   5168   5170     1   106.5500460 417.563200
   5171   5173   5174     1   108.8800464 416.726400
   5171   5173   5176     1   108.8800464 416.726400
   5172   5171   5173     1   117.6800502 383.254400
   5173   5175   5177     1   109.5600471 388.275200
   5173   5175   5178     1   109.5600471 388.275200
   5174   5173   5175     1   109.5600471 388.275200
   5174   5173   5176     1   108.4600466 328.025600
   5175   5173   5176     1   109.5600471 388.275200
   5177   5175   5179     1   109.8800469 414.216000
   5177   5175   5178     1   108.4600466 328.025600
   5178   5175   5179     1   109.8800469 414.216000
   5179   5180   5190     1   109.8800469 414.216000
   5179   5180   5191     1   109.8800469 414.216000
   5179   5181   5182     1   109.8800469 414.216000
   5179   5181   5184     1   109.8800469 414.216000
   5180   5192   5193     1   109.8000471 387.438400
   5180   5192   5194     1   109.8000471 387.438400
   5181   5183   5185     1   109.8000471 387.438400
   5181   5183   5186     1   109.8000471 387.438400
   5182   5181   5183     1   109.5600471 388.275200
   5182   5181   5184     1   108.4600466 328.025600
   5183   5181   5184     1   109.5600471 388.275200
   5185   5183   5187     1   108.7700466 392.459200
   5185   5183   5186     1   107.5800459 329.699200
   5186   5183   5187     1   108.7700466 392.459200
   5187   5188   5198     1   106.5500460 417.563200
   5190   5180   5192     1   109.5600471 388.275200
   5190   5180   5191     1   108.4600466 328.025600
   5191   5180   5192     1   109.5600471 388.275200
   5193   5192   5195     1   108.7700466 392.459200
   5193   5192   5194     1   107.5800459 329.699200
   5194   5192   5195     1   108.7700466 392.459200
   5195   5197   5199     1   106.5500460 417.563200
   5200   5202   5203     1   108.8800464 416.726400
   5200   5202   5205     1   108.8800464 416.726400
   5201   5200   5202     1   117.6800502 383.254400
   5202   5204   5206     1   109.5600471 388.275200
   5202   5204   5207     1   109.5600471 388.275200
   5203   5202   5204     1   109.5600471 388.275200
   5203   5202   5205     1   108.4600466 328.025600
   5204   5202   5205     1   109.5600471 388.275200
   5206   5204   5208     1   109.8800469 414.216000
   5206   5204   5207     1   108.4600466 328.025600
   5207   5204   5208     1   109.8800469 414.216000
   5208   5209   5219     1   109.8800469 414.216000
   5208   5209   5220     1   109.8800469 414.216000
   5208   5210   5211     1   109.8800469 414.216000
   5208   5210   5213     1   109.8800469 414.216000
   5209   5221   5222     1   109.8000471 387.438400
   5209   5221   5223     1   109.8000471 387.438400
   5210   5212   5214     1   109.8000471 387.438400
   5210   5212   5215     1   109.8000471 387.438400
   5211   5210   5212     1   109.5600471 388.275200
   5211   5210   5213     1   108.4600466 328.025600
   5212   5210   5213     1   109.5600471 388.275200
   5214   5212   5216     1   108.7700466 392.459200
   5214   5212   5215     1   107.5800459 329.699200
   5215   5212   5216     1   108.7700466 392.459200
   5216   5217   5227     1   106.5500460 417.563200
   5219   5209   5221     1   109.5600471 388.275200
   5219   5209   5220     1   108.4600466 328.025600
   5220   5209   5221     1   109.5600471 388.275200
   5222   5221   5224     1   108.7700466 392.459200
   5222   5221   5223     1   107.5800459 329.699200
   5223   5221   5224     1   108.7700466 392.459200
   5224   5226   5228     1   106.5500460 417.563200
   5229   5231   5232     1   108.8800464 416.726400
   5229   5231   5234     1   108.8800464 416.726400
   5230   5229   5231     1   117.6800502 383.254400
   5231   5233   5235     1   109.5600471 388.275200
   5231   5233   5236     1   109.5600471 388.275200
   5232   5231   5233     1   109.5600471 388.275200
   5232   5231   5234     1   108.4600466 328.025600
   5233   5231   5234     1   109.5600471 388.275200
   5235   5233   5237     1   109.8800469 414.216000
   5235   5233   5236     1   108.4600466 328.025600
   5236   5233   5237     1   109.8800469 414.216000
   5237   5238   5248     1   109.8800469 414.216000
   5237   5238   5249     1   109.8800469 414.216000
   5237   5239   5240     1   109.8800469 414.216000
   5237   5239   5242     1   109.8800469 414.216000
   5238   5250   5251     1   109.8000471 387.438400
   5238   5250   5252     1   109.8000471 387.438400
   5239   5241   5243     1   109.8000471 387.438400
   5239   5241   5244     1   109.8000471 387.438400
   5240   5239   5241     1   109.5600471 388.275200
   5240   5239   5242     1   108.4600466 328.025600
   5241   5239   5242     1   109.5600471 388.275200
   5243   5241   5245     1   108.7700466 392.459200
   5243   5241   5244     1   107.5800459 329.699200
   5244   5241   5245     1   108.7700466 392.459200
   5245   5246   5256     1   106.5500460 417.563200
   5248   5238   5250     1   109.5600471 388.275200
   5248   5238   5249     1   108.4600466 328.025600
   5249   5238   5250     1   109.5600471 388.275200
   5251   5250   5253     1   108.7700466 392.459200
   5251   5250   5252     1   107.5800459 329.699200
   5252   5250   5253     1   108.7700466 392.459200
   5253   5255   5257     1   106.5500460 417.563200
   5258   5260   5261     1   108.8800464 416.726400
   5258   5260   5263     1   108.8800464 416.726400
   5259   5258   5260     1   117.6800502 383.254400
   5260   5262   5264     1   109.5600471 388.275200
   5260   5262   5265     1   109.5600471 388.275200
   5261   5260   5262     1   109.5600471 388.275200
   5261   5260   5263     1   108.4600466 328.025600
   5262   5260   5263     1   109.5600471 388.275200
   5264   5262   5266     1   109.8800469 414.216000
   5264   5262   5265     1   108.4600466 328.025600
   5265   5262   5266     1   109.8800469 414.216000
   5266   5267   5277     1   109.8800469 414.216000
   5266   5267   5278     1   109.8800469 414.216000
   5266   5268   5269     1   109.8800469 414.216000
   5266   5268   5271     1   109.8800469 414.216000
   5267   5279   5280     1   109.8000471 387.438400
   5267   5279   5281     1   109.8000471 387.438400
   5268   5270   5272     1   109.8000471 387.438400
   5268   5270   5273     1   109.8000471 387.438400
   5269   5268   5270     1   109.5600471 388.275200
   5269   5268   5271     1   108.4600466 328.025600
   5270   5268   5271     1   109.5600471 388.275200
   5272   5270   5274     1   108.7700466 392.459200
   5272   5270   5273     1   107.5800459 329.699200
   5273   5270   5274     1   108.7700466 392.459200
   5274   5275   5285     1   106.5500460 417.563200
   5277   5267   5279     1   109.5600471 388.275200
   5277   5267   5278     1   108.4600466 328.025600
   5278   5267   5279     1   109.5600471 388.275200
   5280   5279   5282     1   108.7700466 392.459200
   5280   5279   5281     1   107.5800459 329.699200
   5281   5279   5282     1   108.7700466 392.459200
   5282   5284   5286     1   106.5500460 417.563200
   5287   5289   5290     1   108.8800464 416.726400
   5287   5289   5292     1   108.8800464 416.726400
   5288   5287   5289     1   117.6800502 383.254400
   5289   5291   5293     1   109.5600471 388.275200
   5289   5291   5294     1   109.5600471 388.275200
   5290   5289   5291     1   109.5600471 388.275200
   5290   5289   5292     1   108.4600466 328.025600
   5291   5289   5292     1   109.5600471 388.275200
   5293   5291   5295     1   109.8800469 414.216000
   5293   5291   5294     1   108.4600466 328.025600
   5294   5291   5295     1   109.8800469 414.216000
   5295   5296   5306     1   109.8800469 414.216000
   5295   5296   5307     1   109.8800469 414.216000
   5295   5297   5298     1   109.8800469 414.216000
   5295   5297   5300     1   109.8800469 414.216000
   5296   5308   5309     1   109.8000471 387.438400
   5296   5308   5310     1   109.8000471 387.438400
   5297   5299   5301     1   109.8000471 387.438400
   5297   5299   5302     1   109.8000471 387.438400
   5298   5297   5299     1   109.5600471 388.275200
   5298   5297   5300     1   108.4600466 328.025600
   5299   5297   5300     1   109.5600471 388.275200
   5301   5299   5303     1   108.7700466 392.459200
   5301   5299   5302     1   107.5800459 329.699200
   5302   5299   5303     1   108.7700466 392.459200
   5303   5304   5314     1   106.5500460 417.563200
   5306   5296   5308     1   109.5600471 388.275200
   5306   5296   5307     1   108.4600466 328.025600
   5307   5296   5308     1   109.5600471 388.275200
   5309   5308   5311     1   108.7700466 392.459200
   5309   5308   5310     1   107.5800459 329.699200
   5310   5308   5311     1   108.7700466 392.459200
   5311   5313   5315     1   106.5500460 417.563200
   5316   5318   5319     1   108.8800464 416.726400
   5316   5318   5321     1   108.8800464 416.726400
   5317   5316   5318     1   117.6800502 383.254400
   5318   5320   5322     1   109.5600471 388.275200
   5318   5320   5323     1   109.5600471 388.275200
   5319   5318   5320     1   109.5600471 388.275200
   5319   5318   5321     1   108.4600466 328.025600
   5320   5318   5321     1   109.5600471 388.275200
   5322   5320   5324     1   109.8800469 414.216000
   5322   5320   5323     1   108.4600466 328.025600
   5323   5320   5324     1   109.8800469 414.216000
   5324   5325   5335     1   109.8800469 414.216000
   5324   5325   5336     1   109.8800469 414.216000
   5324   5326   5327     1   109.8800469 414.216000
   5324   5326   5329     1   109.8800469 414.216000
   5325   5337   5338     1   109.8000471 387.438400
   5325   5337   5339     1   109.8000471 387.438400
   5326   5328   5330     1   109.8000471 387.438400
   5326   5328   5331     1   109.8000471 387.438400
   5327   5326   5328     1   109.5600471 388.275200
   5327   5326   5329     1   108.4600466 328.025600
   5328   5326   5329     1   109.5600471 388.275200
   5330   5328   5332     1   108.7700466 392.459200
   5330   5328   5331     1   107.5800459 329.699200
   5331   5328   5332     1   108.7700466 392.459200
   5332   5333   5343     1   106.5500460 417.563200
   5335   5325   5337     1   109.5600471 388.275200
   5335   5325   5336     1   108.4600466 328.025600
   5336   5325   5337     1   109.5600471 388.275200
   5338   5337   5340     1   108.7700466 392.459200
   5338   5337   5339     1   107.5800459 329.699200
   5339   5337   5340     1   108.7700466 392.459200
   5340   5342   5344     1   106.5500460 417.563200
   5345   5347   5348     1   108.8800464 416.726400
   5345   5347   5350     1   108.8800464 416.726400
   5346   5345   5347     1   117.6800502 383.254400
   5347   5349   5351     1   109.5600471 388.275200
   5347   5349   5352     1   109.5600471 388.275200
   5348   5347   5349     1   109.5600471 388.275200
   5348   5347   5350     1   108.4600466 328.025600
   5349   5347   5350     1   109.5600471 388.275200
   5351   5349   5353     1   109.8800469 414.216000
   5351   5349   5352     1   108.4600466 328.025600
   5352   5349   5353     1   109.8800469 414.216000
   5353   5354   5364     1   109.8800469 414.216000
   5353   5354   5365     1   109.8800469 414.216000
   5353   5355   5356     1   109.8800469 414.216000
   5353   5355   5358     1   109.8800469 414.216000
   5354   5366   5367     1   109.8000471 387.438400
   5354   5366   5368     1   109.8000471 387.438400
   5355   5357   5359     1   109.8000471 387.438400
   5355   5357   5360     1   109.8000471 387.438400
   5356   5355   5357     1   109.5600471 388.275200
   5356   5355   5358     1   108.4600466 328.025600
   5357   5355   5358     1   109.5600471 388.275200
   5359   5357   5361     1   108.7700466 392.459200
   5359   5357   5360     1   107.5800459 329.699200
   5360   5357   5361     1   108.7700466 392.459200
   5361   5362   5372     1   106.5500460 417.563200
   5364   5354   5366     1   109.5600471 388.275200
   5364   5354   5365     1   108.4600466 328.025600
   5365   5354   5366     1   109.5600471 388.275200
   5367   5366   5369     1   108.7700466 392.459200
   5367   5366   5368     1   107.5800459 329.699200
   5368   5366   5369     1   108.7700466 392.459200
   5369   5371   5373     1   106.5500460 417.563200
   5374   5376   5377     1   108.8800464 416.726400
   5374   5376   5379     1   108.8800464 416.726400
   5375   5374   5376     1   117.6800502 383.254400
   5376   5378   5380     1   109.5600471 388.275200
   5376   5378   5381     1   109.5600471 388.275200
   5377   5376   5378     1   109.5600471 388.275200
   5377   5376   5379     1   108.4600466 328.025600
   5378   5376   5379     1   109.5600471 388.275200
   5380   5378   5382     1   109.8800469 414.216000
   5380   5378   5381     1   108.4600466 328.025600
   5381   5378   5382     1   109.8800469 414.216000
   5382   5383   5393     1   109.8800469 414.216000
   5382   5383   5394     1   109.8800469 414.216000
   5382   5384   5385     1   109.8800469 414.216000
   5382   5384   5387     1   109.8800469 414.216000
   5383   5395   5396     1   109.8000471 387.438400
   5383   5395   5397     1   109.8000471 387.438400
   5384   5386   5388     1   109.8000471 387.438400
   5384   5386   5389     1   109.8000471 387.438400
   5385   5384   5386     1   109.5600471 388.275200
   5385   5384   5387     1   108.4600466 328.025600
   5386   5384   5387     1   109.5600471 388.275200
   5388   5386   5390     1   108.7700466 392.459200
   5388   5386   5389     1   107.5800459 329.699200
   5389   5386   5390     1   108.7700466 392.459200
   5390   5391   5401     1   106.5500460 417.563200
   5393   5383   5395     1   109.5600471 388.275200
   5393   5383   5394     1   108.4600466 328.025600
   5394   5383   5395     1   109.5600471 388.275200
   5396   5395   5398     1   108.7700466 392.459200
   5396   5395   5397     1   107.5800459 329.699200
   5397   5395   5398     1   108.7700466 392.459200
   5398   5400   5402     1   106.5500460 417.563200
   5403   5405   5406     1   108.8800464 416.726400
   5403   5405   5408     1   108.8800464 416.726400
   5404   5403   5405     1   117.6800502 383.254400
   5405   5407   5409     1   109.5600471 388.275200
   5405   5407   5410     1   109.5600471 388.275200
   5406   5405   5407     1   109.5600471 388.275200
   5406   5405   5408     1   108.4600466 328.025600
   5407   5405   5408     1   109.5600471 388.275200
   5409   5407   5411     1   109.8800469 414.216000
   5409   5407   5410     1   108.4600466 328.025600
   5410   5407   5411     1   109.8800469 414.216000
   5411   5412   5422     1   109.8800469 414.216000
   5411   5412   5423     1   109.8800469 414.216000
   5411   5413   5414     1   109.8800469 414.216000
   5411   5413   5416     1   109.8800469 414.216000
   5412   5424   5425     1   109.8000471 387.438400
   5412   5424   5426     1   109.8000471 387.438400
   5413   5415   5417     1   109.8000471 387.438400
   5413   5415   5418     1   109.8000471 387.438400
   5414   5413   5415     1   109.5600471 388.275200
   5414   5413   5416     1   108.4600466 328.025600
   5415   5413   5416     1   109.5600471 388.275200
   5417   5415   5419     1   108.7700466 392.459200
   5417   5415   5418     1   107.5800459 329.699200
   5418   5415   5419     1   108.7700466 392.459200
   5419   5420   5430     1   106.5500460 417.563200
   5422   5412   5424     1   109.5600471 388.275200
   5422   5412   5423     1   108.4600466 328.025600
   5423   5412   5424     1   109.5600471 388.275200
   5425   5424   5427     1   108.7700466 392.459200
   5425   5424   5426     1   107.5800459 329.699200
   5426   5424   5427     1   108.7700466 392.459200
   5427   5429   5431     1   106.5500460 417.563200
   5432   5434   5435     1   108.8800464 416.726400
   5432   5434   5437     1   108.8800464 416.726400
   5433   5432   5434     1   117.6800502 383.254400
   5434   5436   5438     1   109.5600471 388.275200
   5434   5436   5439     1   109.5600471 388.275200
   5435   5434   5436     1   109.5600471 388.275200
   5435   5434   5437     1   108.4600466 328.025600
   5436   5434   5437     1   109.5600471 388.275200
   5438   5436   5440     1   109.8800469 414.216000
   5438   5436   5439     1   108.4600466 328.025600
   5439   5436   5440     1   109.8800469 414.216000
   5440   5441   5451     1   109.8800469 414.216000
   5440   5441   5452     1   109.8800469 414.216000
   5440   5442   5443     1   109.8800469 414.216000
   5440   5442   5445     1   109.8800469 414.216000
   5441   5453   5454     1   109.8000471 387.438400
   5441   5453   5455     1   109.8000471 387.438400
   5442   5444   5446     1   109.8000471 387.438400
   5442   5444   5447     1   109.8000471 387.438400
   5443   5442   5444     1   109.5600471 388.275200
   5443   5442   5445     1   108.4600466 328.025600
   5444   5442   5445     1   109.5600471 388.275200
   5446   5444   5448     1   108.7700466 392.459200
   5446   5444   5447     1   107.5800459 329.699200
   5447   5444   5448     1   108.7700466 392.459200
   5448   5449   5459     1   106.5500460 417.563200
   5451   5441   5453     1   109.5600471 388.275200
   5451   5441   5452     1   108.4600466 328.025600
   5452   5441   5453     1   109.5600471 388.275200
   5454   5453   5456     1   108.7700466 392.459200
   5454   5453   5455     1   107.5800459 329.699200
   5455   5453   5456     1   108.7700466 392.459200
   5456   5458   5460     1   106.5500460 417.563200
   5461   5463   5464     1   108.8800464 416.726400
   5461   5463   5466     1   108.8800464 416.726400
   5462   5461   5463     1   117.6800502 383.254400
   5463   5465   5467     1   109.5600471 388.275200
   5463   5465   5468     1   109.5600471 388.275200
   5464   5463   5465     1   109.5600471 388.275200
   5464   5463   5466     1   108.4600466 328.025600
   5465   5463   5466     1   109.5600471 388.275200
   5467   5465   5469     1   109.8800469 414.216000
   5467   5465   5468     1   108.4600466 328.025600
   5468   5465   5469     1   109.8800469 414.216000
   5469   5470   5480     1   109.8800469 414.216000
   5469   5470   5481     1   109.8800469 414.216000
   5469   5471   5472     1   109.8800469 414.216000
   5469   5471   5474     1   109.8800469 414.216000
   5470   5482   5483     1   109.8000471 387.438400
   5470   5482   5484     1   109.8000471 387.438400
   5471   5473   5475     1   109.8000471 387.438400
   5471   5473   5476     1   109.8000471 387.438400
   5472   5471   5473     1   109.5600471 388.275200
   5472   5471   5474     1   108.4600466 328.025600
   5473   5471   5474     1   109.5600471 388.275200
   5475   5473   5477     1   108.7700466 392.459200
   5475   5473   5476     1   107.5800459 329.699200
   5476   5473   5477     1   108.7700466 392.459200
   5477   5478   5488     1   106.5500460 417.563200
   5480   5470   5482     1   109.5600471 388.275200
   5480   5470   5481     1   108.4600466 328.025600
   5481   5470   5482     1   109.5600471 388.275200
   5483   5482   5485     1   108.7700466 392.459200
   5483   5482   5484     1   107.5800459 329.699200
   5484   5482   5485     1   108.7700466 392.459200
   5485   5487   5489     1   106.5500460 417.563200
   5490   5492   5493     1   108.8800464 416.726400
   5490   5492   5495     1   108.8800464 416.726400
   5491   5490   5492     1   117.6800502 383.254400
   5492   5494   5496     1   109.5600471 388.275200
   5492   5494   5497     1   109.5600471 388.275200
   5493   5492   5494     1   109.5600471 388.275200
   5493   5492   5495     1   108.4600466 328.025600
   5494   5492   5495     1   109.5600471 388.275200
   5496   5494   5498     1   109.8800469 414.216000
   5496   5494   5497     1   108.4600466 328.025600
   5497   5494   5498     1   109.8800469 414.216000
   5498   5499   5509     1   109.8800469 414.216000
   5498   5499   5510     1   109.8800469 414.216000
   5498   5500   5501     1   109.8800469 414.216000
   5498   5500   5503     1   109.8800469 414.216000
   5499   5511   5512     1   109.8000471 387.438400
   5499   5511   5513     1   109.8000471 387.438400
   5500   5502   5504     1   109.8000471 387.438400
   5500   5502   5505     1   109.8000471 387.438400
   5501   5500   5502     1   109.5600471 388.275200
   5501   5500   5503     1   108.4600466 328.025600
   5502   5500   5503     1   109.5600471 388.275200
   5504   5502   5506     1   108.7700466 392.459200
   5504   5502   5505     1   107.5800459 329.699200
   5505   5502   5506     1   108.7700466 392.459200
   5506   5507   5517     1   106.5500460 417.563200
   5509   5499   5511     1   109.5600471 388.275200
   5509   5499   5510     1   108.4600466 328.025600
   5510   5499   5511     1   109.5600471 388.275200
   5512   5511   5514     1   108.7700466 392.459200
   5512   5511   5513     1   107.5800459 329.699200
   5513   5511   5514     1   108.7700466 392.459200
   5514   5516   5518     1   106.5500460 417.563200
   5519   5521   5522     1   108.8800464 416.726400
   5519   5521   5524     1   108.8800464 416.726400
   5520   5519   5521     1   117.6800502 383.254400
   5521   5523   5525     1   109.5600471 388.275200
   5521   5523   5526     1   109.5600471 388.275200
   5522   5521   5523     1   109.5600471 388.275200
   5522   5521   5524     1   108.4600466 328.025600
   5523   5521   5524     1   109.5600471 388.275200
   5525   5523   5527     1   109.8800469 414.216000
   5525   5523   5526     1   108.4600466 328.025600
   5526   5523   5527     1   109.8800469 414.216000
   5527   5528   5538     1   109.8800469 414.216000
   5527   5528   5539     1   109.8800469 414.216000
   5527   5529   5530     1   109.8800469 414.216000
   5527   5529   5532     1   109.8800469 414.216000
   5528   5540   5541     1   109.8000471 387.438400
   5528   5540   5542     1   109.8000471 387.438400
   5529   5531   5533     1   109.8000471 387.438400
   5529   5531   5534     1   109.8000471 387.438400
   5530   5529   5531     1   109.5600471 388.275200
   5530   5529   5532     1   108.4600466 328.025600
   5531   5529   5532     1   109.5600471 388.275200
   5533   5531   5535     1   108.7700466 392.459200
   5533   5531   5534     1   107.5800459 329.699200
   5534   5531   5535     1   108.7700466 392.459200
   5535   5536   5546     1   106.5500460 417.563200
   5538   5528   5540     1   109.5600471 388.275200
   5538   5528   5539     1   108.4600466 328.025600
   5539   5528   5540     1   109.5600471 388.275200
   5541   5540   5543     1   108.7700466 392.459200
   5541   5540   5542     1   107.5800459 329.699200
   5542   5540   5543     1   108.7700466 392.459200
   5543   5545   5547     1   106.5500460 417.563200
   5548   5550   5551     1   108.8800464 416.726400
   5548   5550   5553     1   108.8800464 416.726400
   5549   5548   5550     1   117.6800502 383.254400
   5550   5552   5554     1   109.5600471 388.275200
   5550   5552   5555     1   109.5600471 388.275200
   5551   5550   5552     1   109.5600471 388.275200
   5551   5550   5553     1   108.4600466 328.025600
   5552   5550   5553     1   109.5600471 388.275200
   5554   5552   5556     1   109.8800469 414.216000
   5554   5552   5555     1   108.4600466 328.025600
   5555   5552   5556     1   109.8800469 414.216000
   5556   5557   5567     1   109.8800469 414.216000
   5556   5557   5568     1   109.8800469 414.216000
   5556   5558   5559     1   109.8800469 414.216000
   5556   5558   5561     1   109.8800469 414.216000
   5557   5569   5570     1   109.8000471 387.438400
   5557   5569   5571     1   109.8000471 387.438400
   5558   5560   5562     1   109.8000471 387.438400
   5558   5560   5563     1   109.8000471 387.438400
   5559   5558   5560     1   109.5600471 388.275200
   5559   5558   5561     1   108.4600466 328.025600
   5560   5558   5561     1   109.5600471 388.275200
   5562   5560   5564     1   108.7700466 392.459200
   5562   5560   5563     1   107.5800459 329.699200
   5563   5560   5564     1   108.7700466 392.459200
   5564   5565   5575     1   106.5500460 417.563200
   5567   5557   5569     1   109.5600471 388.275200
   5567   5557   5568     1   108.4600466 328.025600
   5568   5557   5569     1   109.5600471 388.275200
   5570   5569   5572     1   108.7700466 392.459200
   5570   5569   5571     1   107.5800459 329.699200
   5571   5569   5572     1   108.7700466 392.459200
   5572   5574   5576     1   106.5500460 417.563200
   5577   5579   5580     1   108.8800464 416.726400
   5577   5579   5582     1   108.8800464 416.726400
   5578   5577   5579     1   117.6800502 383.254400
   5579   5581   5583     1   109.5600471 388.275200
   5579   5581   5584     1   109.5600471 388.275200
   5580   5579   5581     1   109.5600471 388.275200
   5580   5579   5582     1   108.4600466 328.025600
   5581   5579   5582     1   109.5600471 388.275200
   5583   5581   5585     1   109.8800469 414.216000
   5583   5581   5584     1   108.4600466 328.025600
   5584   5581   5585     1   109.8800469 414.216000
   5585   5586   5596     1   109.8800469 414.216000
   5585   5586   5597     1   109.8800469 414.216000
   5585   5587   5588     1   109.8800469 414.216000
   5585   5587   5590     1   109.8800469 414.216000
   5586   5598   5599     1   109.8000471 387.438400
   5586   5598   5600     1   109.8000471 387.438400
   5587   5589   5591     1   109.8000471 387.438400
   5587   5589   5592     1   109.8000471 387.438400
   5588   5587   5589     1   109.5600471 388.275200
   5588   5587   5590     1   108.4600466 328.025600
   5589   5587   5590     1   109.5600471 388.275200
   5591   5589   5593     1   108.7700466 392.459200
   5591   5589   5592     1   107.5800459 329.699200
   5592   5589   5593     1   108.7700466 392.459200
   5593   5594   5604     1   106.5500460 417.563200
   5596   5586   5598     1   109.5600471 388.275200
   5596   5586   5597     1   108.4600466 328.025600
   5597   5586   5598     1   109.5600471 388.275200
   5599   5598   5601     1   108.7700466 392.459200
   5599   5598   5600     1   107.5800459 329.699200
   5600   5598   5601     1   108.7700466 392.459200
   5601   5603   5605     1   106.5500460 417.563200
   5606   5608   5609     1   108.8800464 416.726400
   5606   5608   5611     1   108.8800464 416.726400
   5607   5606   5608     1   117.6800502 383.254400
   5608   5610   5612     1   109.5600471 388.275200
   5608   5610   5613     1   109.5600471 388.275200
   5609   5608   5610     1   109.5600471 388.275200
   5609   5608   5611     1   108.4600466 328.025600
   5610   5608   5611     1   109.5600471 388.275200
   5612   5610   5614     1   109.8800469 414.216000
   5612   5610   5613     1   108.4600466 328.025600
   5613   5610   5614     1   109.8800469 414.216000
   5614   5615   5625     1   109.8800469 414.216000
   5614   5615   5626     1   109.8800469 414.216000
   5614   5616   5617     1   109.8800469 414.216000
   5614   5616   5619     1   109.8800469 414.216000
   5615   5627   5628     1   109.8000471 387.438400
   5615   5627   5629     1   109.8000471 387.438400
   5616   5618   5620     1   109.8000471 387.438400
   5616   5618   5621     1   109.8000471 387.438400
   5617   5616   5618     1   109.5600471 388.275200
   5617   5616   5619     1   108.4600466 328.025600
   5618   5616   5619     1   109.5600471 388.275200
   5620   5618   5622     1   108.7700466 392.459200
   5620   5618   5621     1   107.5800459 329.699200
   5621   5618   5622     1   108.7700466 392.459200
   5622   5623   5633     1   106.5500460 417.563200
   5625   5615   5627     1   109.5600471 388.275200
   5625   5615   5626     1   108.4600466 328.025600
   5626   5615   5627     1   109.5600471 388.275200
   5628   5627   5630     1   108.7700466 392.459200
   5628   5627   5629     1   107.5800459 329.699200
   5629   5627   5630     1   108.7700466 392.459200
   5630   5632   5634     1   106.5500460 417.563200
   5635   5637   5638     1   108.8800464 416.726400
   5635   5637   5640     1   108.8800464 416.726400
   5636   5635   5637     1   117.6800502 383.254400
   5637   5639   5641     1   109.5600471 388.275200
   5637   5639   5642     1   109.5600471 388.275200
   5638   5637   5639     1   109.5600471 388.275200
   5638   5637   5640     1   108.4600466 328.025600
   5639   5637   5640     1   109.5600471 388.275200
   5641   5639   5643     1   109.8800469 414.216000
   5641   5639   5642     1   108.4600466 328.025600
   5642   5639   5643     1   109.8800469 414.216000
   5643   5644   5654     1   109.8800469 414.216000
   5643   5644   5655     1   109.8800469 414.216000
   5643   5645   5646     1   109.8800469 414.216000
   5643   5645   5648     1   109.8800469 414.216000
   5644   5656   5657     1   109.8000471 387.438400
   5644   5656   5658     1   109.8000471 387.438400
   5645   5647   5649     1   109.8000471 387.438400
   5645   5647   5650     1   109.8000471 387.438400
   5646   5645   5647     1   109.5600471 388.275200
   5646   5645   5648     1   108.4600466 328.025600
   5647   5645   5648     1   109.5600471 388.275200
   5649   5647   5651     1   108.7700466 392.459200
   5649   5647   5650     1   107.5800459 329.699200
   5650   5647   5651     1   108.7700466 392.459200
   5651   5652   5662     1   106.5500460 417.563200
   5654   5644   5656     1   109.5600471 388.275200
   5654   5644   5655     1   108.4600466 328.025600
   5655   5644   5656     1   109.5600471 388.275200
   5657   5656   5659     1   108.7700466 392.459200
   5657   5656   5658     1   107.5800459 329.699200
   5658   5656   5659     1   108.7700466 392.459200
   5659   5661   5663     1   106.5500460 417.563200
   5664   5666   5667     1   108.8800464 416.726400
   5664   5666   5669     1   108.8800464 416.726400
   5665   5664   5666     1   117.6800502 383.254400
   5666   5668   5670     1   109.5600471 388.275200
   5666   5668   5671     1   109.5600471 388.275200
   5667   5666   5668     1   109.5600471 388.275200
   5667   5666   5669     1   108.4600466 328.025600
   5668   5666   5669     1   109.5600471 388.275200
   5670   5668   5672     1   109.8800469 414.216000
   5670   5668   5671     1   108.4600466 328.025600
   5671   5668   5672     1   109.8800469 414.216000
   5672   5673   5683     1   109.8800469 414.216000
   5672   5673   5684     1   109.8800469 414.216000
   5672   5674   5675     1   109.8800469 414.216000
   5672   5674   5677     1   109.8800469 414.216000
   5673   5685   5686     1   109.8000471 387.438400
   5673   5685   5687     1   109.8000471 387.438400
   5674   5676   5678     1   109.8000471 387.438400
   5674   5676   5679     1   109.8000471 387.438400
   5675   5674   5676     1   109.5600471 388.275200
   5675   5674   5677     1   108.4600466 328.025600
   5676   5674   5677     1   109.5600471 388.275200
   5678   5676   5680     1   108.7700466 392.459200
   5678   5676   5679     1   107.5800459 329.699200
   5679   5676   5680     1   108.7700466 392.459200
   5680   5681   5691     1   106.5500460 417.563200
   5683   5673   5685     1   109.5600471 388.275200
   5683   5673   5684     1   108.4600466 328.025600
   5684   5673   5685     1   109.5600471 388.275200
   5686   5685   5688     1   108.7700466 392.459200
   5686   5685   5687     1   107.5800459 329.699200
   5687   5685   5688     1   108.7700466 392.459200
   5688   5690   5692     1   106.5500460 417.563200
   5693   5695   5696     1   108.8800464 416.726400
   5693   5695   5698     1   108.8800464 416.726400
   5694   5693   5695     1   117.6800502 383.254400
   5695   5697   5699     1   109.5600471 388.275200
   5695   5697   5700     1   109.5600471 388.275200
   5696   5695   5697     1   109.5600471 388.275200
   5696   5695   5698     1   108.4600466 328.025600
   5697   5695   5698     1   109.5600471 388.275200
   5699   5697   5701     1   109.8800469 414.216000
   5699   5697   5700     1   108.4600466 328.025600
   5700   5697   5701     1   109.8800469 414.216000
   5701   5702   5712     1   109.8800469 414.216000
   5701   5702   5713     1   109.8800469 414.216000
   5701   5703   5704     1   109.8800469 414.216000
   5701   5703   5706     1   109.8800469 414.216000
   5702   5714   5715     1   109.8000471 387.438400
   5702   5714   5716     1   109.8000471 387.438400
   5703   5705   5707     1   109.8000471 387.438400
   5703   5705   5708     1   109.8000471 387.438400
   5704   5703   5705     1   109.5600471 388.275200
   5704   5703   5706     1   108.4600466 328.025600
   5705   5703   5706     1   109.5600471 388.275200
   5707   5705   5709     1   108.7700466 392.459200
   5707   5705   5708     1   107.5800459 329.699200
   5708   5705   5709     1   108.7700466 392.459200
   5709   5710   5720     1   106.5500460 417.563200
   5712   5702   5714     1   109.5600471 388.275200
   5712   5702   5713     1   108.4600466 328.025600
   5713   5702   5714     1   109.5600471 388.275200
   5715   5714   5717     1   108.7700466 392.459200
   5715   5714   5716     1   107.5800459 329.699200
   5716   5714   5717     1   108.7700466 392.459200
   5717   5719   5721     1   106.5500460 417.563200
   5722   5724   5725     1   108.8800464 416.726400
   5722   5724   5727     1   108.8800464 416.726400
   5723   5722   5724     1   117.6800502 383.254400
   5724   5726   5728     1   109.5600471 388.275200
   5724   5726   5729     1   109.5600471 388.275200
   5725   5724   5726     1   109.5600471 388.275200
   5725   5724   5727     1   108.4600466 328.025600
   5726   5724   5727     1   109.5600471 388.275200
   5728   5726   5730     1   109.8800469 414.216000
   5728   5726   5729     1   108.4600466 328.025600
   5729   5726   5730     1   109.8800469 414.216000
   5730   5731   5741     1   109.8800469 414.216000
   5730   5731   5742     1   109.8800469 414.216000
   5730   5732   5733     1   109.8800469 414.216000
   5730   5732   5735     1   109.8800469 414.216000
   5731   5743   5744     1   109.8000471 387.438400
   5731   5743   5745     1   109.8000471 387.438400
   5732   5734   5736     1   109.8000471 387.438400
   5732   5734   5737     1   109.8000471 387.438400
   5733   5732   5734     1   109.5600471 388.275200
   5733   5732   5735     1   108.4600466 328.025600
   5734   5732   5735     1   109.5600471 388.275200
   5736   5734   5738     1   108.7700466 392.459200
   5736   5734   5737     1   107.5800459 329.699200
   5737   5734   5738     1   108.7700466 392.459200
   5738   5739   5749     1   106.5500460 417.563200
   5741   5731   5743     1   109.5600471 388.275200
   5741   5731   5742     1   108.4600466 328.025600
   5742   5731   5743     1   109.5600471 388.275200
   5744   5743   5746     1   108.7700466 392.459200
   5744   5743   5745     1   107.5800459 329.699200
   5745   5743   5746     1   108.7700466 392.459200
   5746   5748   5750     1   106.5500460 417.563200
   5751   5753   5754     1   108.8800464 416.726400
   5751   5753   5756     1   108.8800464 416.726400
   5752   5751   5753     1   117.6800502 383.254400
   5753   5755   5757     1   109.5600471 388.275200
   5753   5755   5758     1   109.5600471 388.275200
   5754   5753   5755     1   109.5600471 388.275200
   5754   5753   5756     1   108.4600466 328.025600
   5755   5753   5756     1   109.5600471 388.275200
   5757   5755   5759     1   109.8800469 414.216000
   5757   5755   5758     1   108.4600466 328.025600
   5758   5755   5759     1   109.8800469 414.216000
   5759   5760   5770     1   109.8800469 414.216000
   5759   5760   5771     1   109.8800469 414.216000
   5759   5761   5762     1   109.8800469 414.216000
   5759   5761   5764     1   109.8800469 414.216000
   5760   5772   5773     1   109.8000471 387.438400
   5760   5772   5774     1   109.8000471 387.438400
   5761   5763   5765     1   109.8000471 387.438400
   5761   5763   5766     1   109.8000471 387.438400
   5762   5761   5763     1   109.5600471 388.275200
   5762   5761   5764     1   108.4600466 328.025600
   5763   5761   5764     1   109.5600471 388.275200
   5765   5763   5767     1   108.7700466 392.459200
   5765   5763   5766     1   107.5800459 329.699200
   5766   5763   5767     1   108.7700466 392.459200
   5767   5768   5778     1   106.5500460 417.563200
   5770   5760   5772     1   109.5600471 388.275200
   5770   5760   5771     1   108.4600466 328.025600
   5771   5760   5772     1   109.5600471 388.275200
   5773   5772   5775     1   108.7700466 392.459200
   5773   5772   5774     1   107.5800459 329.699200
   5774   5772   5775     1   108.7700466 392.459200
   5775   5777   5779     1   106.5500460 417.563200
   5780   5782   5783     1   108.8800464 416.726400
   5780   5782   5785     1   108.8800464 416.726400
   5781   5780   5782     1   117.6800502 383.254400
   5782   5784   5786     1   109.5600471 388.275200
   5782   5784   5787     1   109.5600471 388.275200
   5783   5782   5784     1   109.5600471 388.275200
   5783   5782   5785     1   108.4600466 328.025600
   5784   5782   5785     1   109.5600471 388.275200
   5786   5784   5788     1   109.8800469 414.216000
   5786   5784   5787     1   108.4600466 328.025600
   5787   5784   5788     1   109.8800469 414.216000
   5788   5789   5799     1   109.8800469 414.216000
   5788   5789   5800     1   109.8800469 414.216000
   5788   5790   5791     1   109.8800469 414.216000
   5788   5790   5793     1   109.8800469 414.216000
   5789   5801   5802     1   109.8000471 387.438400
   5789   5801   5803     1   109.8000471 387.438400
   5790   5792   5794     1   109.8000471 387.438400
   5790   5792   5795     1   109.8000471 387.438400
   5791   5790   5792     1   109.5600471 388.275200
   5791   5790   5793     1   108.4600466 328.025600
   5792   5790   5793     1   109.5600471 388.275200
   5794   5792   5796     1   108.7700466 392.459200
   5794   5792   5795     1   107.5800459 329.699200
   5795   5792   5796     1   108.7700466 392.459200
   5796   5797   5807     1   106.5500460 417.563200
   5799   5789   5801     1   109.5600471 388.275200
   5799   5789   5800     1   108.4600466 328.025600
   5800   5789   5801     1   109.5600471 388.275200
   5802   5801   5804     1   108.7700466 392.459200
   5802   5801   5803     1   107.5800459 329.699200
   5803   5801   5804     1   108.7700466 392.459200
   5804   5806   5808     1   106.5500460 417.563200
   5809   5811   5812     1   108.8800464 416.726400
   5809   5811   5814     1   108.8800464 416.726400
   5810   5809   5811     1   117.6800502 383.254400
   5811   5813   5815     1   109.5600471 388.275200
   5811   5813   5816     1   109.5600471 388.275200
   5812   5811   5813     1   109.5600471 388.275200
   5812   5811   5814     1   108.4600466 328.025600
   5813   5811   5814     1   109.5600471 388.275200
   5815   5813   5817     1   109.8800469 414.216000
   5815   5813   5816     1   108.4600466 328.025600
   5816   5813   5817     1   109.8800469 414.216000
   5817   5818   5828     1   109.8800469 414.216000
   5817   5818   5829     1   109.8800469 414.216000
   5817   5819   5820     1   109.8800469 414.216000
   5817   5819   5822     1   109.8800469 414.216000
   5818   5830   5831     1   109.8000471 387.438400
   5818   5830   5832     1   109.8000471 387.438400
   5819   5821   5823     1   109.8000471 387.438400
   5819   5821   5824     1   109.8000471 387.438400
   5820   5819   5821     1   109.5600471 388.275200
   5820   5819   5822     1   108.4600466 328.025600
   5821   5819   5822     1   109.5600471 388.275200
   5823   5821   5825     1   108.7700466 392.459200
   5823   5821   5824     1   107.5800459 329.699200
   5824   5821   5825     1   108.7700466 392.459200
   5825   5826   5836     1   106.5500460 417.563200
   5828   5818   5830     1   109.5600471 388.275200
   5828   5818   5829     1   108.4600466 328.025600
   5829   5818   5830     1   109.5600471 388.275200
   5831   5830   5833     1   108.7700466 392.459200
   5831   5830   5832     1   107.5800459 329.699200
   5832   5830   5833     1   108.7700466 392.459200
   5833   5835   5837     1   106.5500460 417.563200
   5838   5840   5841     1   108.8800464 416.726400
   5838   5840   5843     1   108.8800464 416.726400
   5839   5838   5840     1   117.6800502 383.254400
   5840   5842   5844     1   109.5600471 388.275200
   5840   5842   5845     1   109.5600471 388.275200
   5841   5840   5842     1   109.5600471 388.275200
   5841   5840   5843     1   108.4600466 328.025600
   5842   5840   5843     1   109.5600471 388.275200
   5844   5842   5846     1   109.8800469 414.216000
   5844   5842   5845     1   108.4600466 328.025600
   5845   5842   5846     1   109.8800469 414.216000
   5846   5847   5857     1   109.8800469 414.216000
   5846   5847   5858     1   109.8800469 414.216000
   5846   5848   5849     1   109.8800469 414.216000
   5846   5848   5851     1   109.8800469 414.216000
   5847   5859   5860     1   109.8000471 387.438400
   5847   5859   5861     1   109.8000471 387.438400
   5848   5850   5852     1   109.8000471 387.438400
   5848   5850   5853     1   109.8000471 387.438400
   5849   5848   5850     1   109.5600471 388.275200
   5849   5848   5851     1   108.4600466 328.025600
   5850   5848   5851     1   109.5600471 388.275200
   5852   5850   5854     1   108.7700466 392.459200
   5852   5850   5853     1   107.5800459 329.699200
   5853   5850   5854     1   108.7700466 392.459200
   5854   5855   5865     1   106.5500460 417.563200
   5857   5847   5859     1   109.5600471 388.275200
   5857   5847   5858     1   108.4600466 328.025600
   5858   5847   5859     1   109.5600471 388.275200
   5860   5859   5862     1   108.7700466 392.459200
   5860   5859   5861     1   107.5800459 329.699200
   5861   5859   5862     1   108.7700466 392.459200
   5862   5864   5866     1   106.5500460 417.563200
   5867   5869   5870     1   108.8800464 416.726400
   5867   5869   5872     1   108.8800464 416.726400
   5868   5867   5869     1   117.6800502 383.254400
   5869   5871   5873     1   109.5600471 388.275200
   5869   5871   5874     1   109.5600471 388.275200
   5870   5869   5871     1   109.5600471 388.275200
   5870   5869   5872     1   108.4600466 328.025600
   5871   5869   5872     1   109.5600471 388.275200
   5873   5871   5875     1   109.8800469 414.216000
   5873   5871   5874     1   108.4600466 328.025600
   5874   5871   5875     1   109.8800469 414.216000
   5875   5876   5886     1   109.8800469 414.216000
   5875   5876   5887     1   109.8800469 414.216000
   5875   5877   5878     1   109.8800469 414.216000
   5875   5877   5880     1   109.8800469 414.216000
   5876   5888   5889     1   109.8000471 387.438400
   5876   5888   5890     1   109.8000471 387.438400
   5877   5879   5881     1   109.8000471 387.438400
   5877   5879   5882     1   109.8000471 387.438400
   5878   5877   5879     1   109.5600471 388.275200
   5878   5877   5880     1   108.4600466 328.025600
   5879   5877   5880     1   109.5600471 388.275200
   5881   5879   5883     1   108.7700466 392.459200
   5881   5879   5882     1   107.5800459 329.699200
   5882   5879   5883     1   108.7700466 392.459200
   5883   5884   5894     1   106.5500460 417.563200
   5886   5876   5888     1   109.5600471 388.275200
   5886   5876   5887     1   108.4600466 328.025600
   5887   5876   5888     1   109.5600471 388.275200
   5889   5888   5891     1   108.7700466 392.459200
   5889   5888   5890     1   107.5800459 329.699200
   5890   5888   5891     1   108.7700466 392.459200
   5891   5893   5895     1   106.5500460 417.563200
   5896   5898   5899     1   108.8800464 416.726400
   5896   5898   5901     1   108.8800464 416.726400
   5897   5896   5898     1   117.6800502 383.254400
   5898   5900   5902     1   109.5600471 388.275200
   5898   5900   5903     1   109.5600471 388.275200
   5899   5898   5900     1   109.5600471 388.275200
   5899   5898   5901     1   108.4600466 328.025600
   5900   5898   5901     1   109.5600471 388.275200
   5902   5900   5904     1   109.8800469 414.216000
   5902   5900   5903     1   108.4600466 328.025600
   5903   5900   5904     1   109.8800469 414.216000
   5904   5905   5915     1   109.8800469 414.216000
   5904   5905   5916     1   109.8800469 414.216000
   5904   5906   5907     1   109.8800469 414.216000
   5904   5906   5909     1   109.8800469 414.216000
   5905   5917   5918     1   109.8000471 387.438400
   5905   5917   5919     1   109.8000471 387.438400
   5906   5908   5910     1   109.8000471 387.438400
   5906   5908   5911     1   109.8000471 387.438400
   5907   5906   5908     1   109.5600471 388.275200
   5907   5906   5909     1   108.4600466 328.025600
   5908   5906   5909     1   109.5600471 388.275200
   5910   5908   5912     1   108.7700466 392.459200
   5910   5908   5911     1   107.5800459 329.699200
   5911   5908   5912     1   108.7700466 392.459200
   5912   5913   5923     1   106.5500460 417.563200
   5915   5905   5917     1   109.5600471 388.275200
   5915   5905   5916     1   108.4600466 328.025600
   5916   5905   5917     1   109.5600471 388.275200
   5918   5917   5920     1   108.7700466 392.459200
   5918   5917   5919     1   107.5800459 329.699200
   5919   5917   5920     1   108.7700466 392.459200
   5920   5922   5924     1   106.5500460 417.563200
   5925   5927   5928     1   108.8800464 416.726400
   5925   5927   5930     1   108.8800464 416.726400
   5926   5925   5927     1   117.6800502 383.254400
   5927   5929   5931     1   109.5600471 388.275200
   5927   5929   5932     1   109.5600471 388.275200
   5928   5927   5929     1   109.5600471 388.275200
   5928   5927   5930     1   108.4600466 328.025600
   5929   5927   5930     1   109.5600471 388.275200
   5931   5929   5933     1   109.8800469 414.216000
   5931   5929   5932     1   108.4600466 328.025600
   5932   5929   5933     1   109.8800469 414.216000
   5933   5934   5944     1   109.8800469 414.216000
   5933   5934   5945     1   109.8800469 414.216000
   5933   5935   5936     1   109.8800469 414.216000
   5933   5935   5938     1   109.8800469 414.216000
   5934   5946   5947     1   109.8000471 387.438400
   5934   5946   5948     1   109.8000471 387.438400
   5935   5937   5939     1   109.8000471 387.438400
   5935   5937   5940     1   109.8000471 387.438400
   5936   5935   5937     1   109.5600471 388.275200
   5936   5935   5938     1   108.4600466 328.025600
   5937   5935   5938     1   109.5600471 388.275200
   5939   5937   5941     1   108.7700466 392.459200
   5939   5937   5940     1   107.5800459 329.699200
   5940   5937   5941     1   108.7700466 392.459200
   5941   5942   5952     1   106.5500460 417.563200
   5944   5934   5946     1   109.5600471 388.275200
   5944   5934   5945     1   108.4600466 328.025600
   5945   5934   5946     1   109.5600471 388.275200
   5947   5946   5949     1   108.7700466 392.459200
   5947   5946   5948     1   107.5800459 329.699200
   5948   5946   5949     1   108.7700466 392.459200
   5949   5951   5953     1   106.5500460 417.563200
   5954   5956   5957     1   108.8800464 416.726400
   5954   5956   5959     1   108.8800464 416.726400
   5955   5954   5956     1   117.6800502 383.254400
   5956   5958   5960     1   109.5600471 388.275200
   5956   5958   5961     1   109.5600471 388.275200
   5957   5956   5958     1   109.5600471 388.275200
   5957   5956   5959     1   108.4600466 328.025600
   5958   5956   5959     1   109.5600471 388.275200
   5960   5958   5962     1   109.8800469 414.216000
   5960   5958   5961     1   108.4600466 328.025600
   5961   5958   5962     1   109.8800469 414.216000
   5962   5963   5973     1   109.8800469 414.216000
   5962   5963   5974     1   109.8800469 414.216000
   5962   5964   5965     1   109.8800469 414.216000
   5962   5964   5967     1   109.8800469 414.216000
   5963   5975   5976     1   109.8000471 387.438400
   5963   5975   5977     1   109.8000471 387.438400
   5964   5966   5968     1   109.8000471 387.438400
   5964   5966   5969     1   109.8000471 387.438400
   5965   5964   5966     1   109.5600471 388.275200
   5965   5964   5967     1   108.4600466 328.025600
   5966   5964   5967     1   109.5600471 388.275200
   5968   5966   5970     1   108.7700466 392.459200
   5968   5966   5969     1   107.5800459 329.699200
   5969   5966   5970     1   108.7700466 392.459200
   5970   5971   5981     1   106.5500460 417.563200
   5973   5963   5975     1   109.5600471 388.275200
   5973   5963   5974     1   108.4600466 328.025600
   5974   5963   5975     1   109.5600471 388.275200
   5976   5975   5978     1   108.7700466 392.459200
   5976   5975   5977     1   107.5800459 329.699200
   5977   5975   5978     1   108.7700466 392.459200
   5978   5980   5982     1   106.5500460 417.563200
   5983   5985   5986     1   108.8800464 416.726400
   5983   5985   5988     1   108.8800464 416.726400
   5984   5983   5985     1   117.6800502 383.254400
   5985   5987   5989     1   109.5600471 388.275200
   5985   5987   5990     1   109.5600471 388.275200
   5986   5985   5987     1   109.5600471 388.275200
   5986   5985   5988     1   108.4600466 328.025600
   5987   5985   5988     1   109.5600471 388.275200
   5989   5987   5991     1   109.8800469 414.216000
   5989   5987   5990     1   108.4600466 328.025600
   5990   5987   5991     1   109.8800469 414.216000
   5991   5992   6002     1   109.8800469 414.216000
   5991   5992   6003     1   109.8800469 414.216000
   5991   5993   5994     1   109.8800469 414.216000
   5991   5993   5996     1   109.8800469 414.216000
   5992   6004   6005     1   109.8000471 387.438400
   5992   6004   6006     1   109.8000471 387.438400
   5993   5995   5997     1   109.8000471 387.438400
   5993   5995   5998     1   109.8000471 387.438400
   5994   5993   5995     1   109.5600471 388.275200
   5994   5993   5996     1   108.4600466 328.025600
   5995   5993   5996     1   109.5600471 388.275200
   5997   5995   5999     1   108.7700466 392.459200
   5997   5995   5998     1   107.5800459 329.699200
   5998   5995   5999     1   108.7700466 392.459200
   5999   6000   6010     1   106.5500460 417.563200
   6002   5992   6004     1   109.5600471 388.275200
   6002   5992   6003     1   108.4600466 328.025600
   6003   5992   6004     1   109.5600471 388.275200
   6005   6004   6007     1   108.7700466 392.459200
   6005   6004   6006     1   107.5800459 329.699200
   6006   6004   6007     1   108.7700466 392.459200
   6007   6009   6011     1   106.5500460 417.563200
   6012   6014   6015     1   108.8800464 416.726400
   6012   6014   6017     1   108.8800464 416.726400
   6013   6012   6014     1   117.6800502 383.254400
   6014   6016   6018     1   109.5600471 388.275200
   6014   6016   6019     1   109.5600471 388.275200
   6015   6014   6016     1   109.5600471 388.275200
   6015   6014   6017     1   108.4600466 328.025600
   6016   6014   6017     1   109.5600471 388.275200
   6018   6016   6020     1   109.8800469 414.216000
   6018   6016   6019     1   108.4600466 328.025600
   6019   6016   6020     1   109.8800469 414.216000
   6020   6021   6031     1   109.8800469 414.216000
   6020   6021   6032     1   109.8800469 414.216000
   6020   6022   6023     1   109.8800469 414.216000
   6020   6022   6025     1   109.8800469 414.216000
   6021   6033   6034     1   109.8000471 387.438400
   6021   6033   6035     1   109.8000471 387.438400
   6022   6024   6026     1   109.8000471 387.438400
   6022   6024   6027     1   109.8000471 387.438400
   6023   6022   6024     1   109.5600471 388.275200
   6023   6022   6025     1   108.4600466 328.025600
   6024   6022   6025     1   109.5600471 388.275200
   6026   6024   6028     1   108.7700466 392.459200
   6026   6024   6027     1   107.5800459 329.699200
   6027   6024   6028     1   108.7700466 392.459200
   6028   6029   6039     1   106.5500460 417.563200
   6031   6021   6033     1   109.5600471 388.275200
   6031   6021   6032     1   108.4600466 328.025600
   6032   6021   6033     1   109.5600471 388.275200
   6034   6033   6036     1   108.7700466 392.459200
   6034   6033   6035     1   107.5800459 329.699200
   6035   6033   6036     1   108.7700466 392.459200
   6036   6038   6040     1   106.5500460 417.563200
   6041   6043   6044     1   108.8800464 416.726400
   6041   6043   6046     1   108.8800464 416.726400
   6042   6041   6043     1   117.6800502 383.254400
   6043   6045   6047     1   109.5600471 388.275200
   6043   6045   6048     1   109.5600471 388.275200
   6044   6043   6045     1   109.5600471 388.275200
   6044   6043   6046     1   108.4600466 328.025600
   6045   6043   6046     1   109.5600471 388.275200
   6047   6045   6049     1   109.8800469 414.216000
   6047   6045   6048     1   108.4600466 328.025600
   6048   6045   6049     1   109.8800469 414.216000
   6049   6050   6060     1   109.8800469 414.216000
   6049   6050   6061     1   109.8800469 414.216000
   6049   6051   6052     1   109.8800469 414.216000
   6049   6051   6054     1   109.8800469 414.216000
   6050   6062   6063     1   109.8000471 387.438400
   6050   6062   6064     1   109.8000471 387.438400
   6051   6053   6055     1   109.8000471 387.438400
   6051   6053   6056     1   109.8000471 387.438400
   6052   6051   6053     1   109.5600471 388.275200
   6052   6051   6054     1   108.4600466 328.025600
   6053   6051   6054     1   109.5600471 388.275200
   6055   6053   6057     1   108.7700466 392.459200
   6055   6053   6056     1   107.5800459 329.699200
   6056   6053   6057     1   108.7700466 392.459200
   6057   6058   6068     1   106.5500460 417.563200
   6060   6050   6062     1   109.5600471 388.275200
   6060   6050   6061     1   108.4600466 328.025600
   6061   6050   6062     1   109.5600471 388.275200
   6063   6062   6065     1   108.7700466 392.459200
   6063   6062   6064     1   107.5800459 329.699200
   6064   6062   6065     1   108.7700466 392.459200
   6065   6067   6069     1   106.5500460 417.563200
   6070   6072   6073     1   108.8800464 416.726400
   6070   6072   6075     1   108.8800464 416.726400
   6071   6070   6072     1   117.6800502 383.254400
   6072   6074   6076     1   109.5600471 388.275200
   6072   6074   6077     1   109.5600471 388.275200
   6073   6072   6074     1   109.5600471 388.275200
   6073   6072   6075     1   108.4600466 328.025600
   6074   6072   6075     1   109.5600471 388.275200
   6076   6074   6078     1   109.8800469 414.216000
   6076   6074   6077     1   108.4600466 328.025600
   6077   6074   6078     1   109.8800469 414.216000
   6078   6079   6089     1   109.8800469 414.216000
   6078   6079   6090     1   109.8800469 414.216000
   6078   6080   6081     1   109.8800469 414.216000
   6078   6080   6083     1   109.8800469 414.216000
   6079   6091   6092     1   109.8000471 387.438400
   6079   6091   6093     1   109.8000471 387.438400
   6080   6082   6084     1   109.8000471 387.438400
   6080   6082   6085     1   109.8000471 387.438400
   6081   6080   6082     1   109.5600471 388.275200
   6081   6080   6083     1   108.4600466 328.025600
   6082   6080   6083     1   109.5600471 388.275200
   6084   6082   6086     1   108.7700466 392.459200
   6084   6082   6085     1   107.5800459 329.699200
   6085   6082   6086     1   108.7700466 392.459200
   6086   6087   6097     1   106.5500460 417.563200
   6089   6079   6091     1   109.5600471 388.275200
   6089   6079   6090     1   108.4600466 328.025600
   6090   6079   6091     1   109.5600471 388.275200
   6092   6091   6094     1   108.7700466 392.459200
   6092   6091   6093     1   107.5800459 329.699200
   6093   6091   6094     1   108.7700466 392.459200
   6094   6096   6098     1   106.5500460 417.563200
   6099   6101   6102     1   108.8800464 416.726400
   6099   6101   6104     1   108.8800464 416.726400
   6100   6099   6101     1   117.6800502 383.254400
   6101   6103   6105     1   109.5600471 388.275200
   6101   6103   6106     1   109.5600471 388.275200
   6102   6101   6103     1   109.5600471 388.275200
   6102   6101   6104     1   108.4600466 328.025600
   6103   6101   6104     1   109.5600471 388.275200
   6105   6103   6107     1   109.8800469 414.216000
   6105   6103   6106     1   108.4600466 328.025600
   6106   6103   6107     1   109.8800469 414.216000
   6107   6108   6118     1   109.8800469 414.216000
   6107   6108   6119     1   109.8800469 414.216000
   6107   6109   6110     1   109.8800469 414.216000
   6107   6109   6112     1   109.8800469 414.216000
   6108   6120   6121     1   109.8000471 387.438400
   6108   6120   6122     1   109.8000471 387.438400
   6109   6111   6113     1   109.8000471 387.438400
   6109   6111   6114     1   109.8000471 387.438400
   6110   6109   6111     1   109.5600471 388.275200
   6110   6109   6112     1   108.4600466 328.025600
   6111   6109   6112     1   109.5600471 388.275200
   6113   6111   6115     1   108.7700466 392.459200
   6113   6111   6114     1   107.5800459 329.699200
   6114   6111   6115     1   108.7700466 392.459200
   6115   6116   6126     1   106.5500460 417.563200
   6118   6108   6120     1   109.5600471 388.275200
   6118   6108   6119     1   108.4600466 328.025600
   6119   6108   6120     1   109.5600471 388.275200
   6121   6120   6123     1   108.7700466 392.459200
   6121   6120   6122     1   107.5800459 329.699200
   6122   6120   6123     1   108.7700466 392.459200
   6123   6125   6127     1   106.5500460 417.563200
   6128   6130   6131     1   108.8800464 416.726400
   6128   6130   6133     1   108.8800464 416.726400
   6129   6128   6130     1   117.6800502 383.254400
   6130   6132   6134     1   109.5600471 388.275200
   6130   6132   6135     1   109.5600471 388.275200
   6131   6130   6132     1   109.5600471 388.275200
   6131   6130   6133     1   108.4600466 328.025600
   6132   6130   6133     1   109.5600471 388.275200
   6134   6132   6136     1   109.8800469 414.216000
   6134   6132   6135     1   108.4600466 328.025600
   6135   6132   6136     1   109.8800469 414.216000
   6136   6137   6147     1   109.8800469 414.216000
   6136   6137   6148     1   109.8800469 414.216000
   6136   6138   6139     1   109.8800469 414.216000
   6136   6138   6141     1   109.8800469 414.216000
   6137   6149   6150     1   109.8000471 387.438400
   6137   6149   6151     1   109.8000471 387.438400
   6138   6140   6142     1   109.8000471 387.438400
   6138   6140   6143     1   109.8000471 387.438400
   6139   6138   6140     1   109.5600471 388.275200
   6139   6138   6141     1   108.4600466 328.025600
   6140   6138   6141     1   109.5600471 388.275200
   6142   6140   6144     1   108.7700466 392.459200
   6142   6140   6143     1   107.5800459 329.699200
   6143   6140   6144     1   108.7700466 392.459200
   6144   6145   6155     1   106.5500460 417.563200
   6147   6137   6149     1   109.5600471 388.275200
   6147   6137   6148     1   108.4600466 328.025600
   6148   6137   6149     1   109.5600471 388.275200
   6150   6149   6152     1   108.7700466 392.459200
   6150   6149   6151     1   107.5800459 329.699200
   6151   6149   6152     1   108.7700466 392.459200
   6152   6154   6156     1   106.5500460 417.563200
   6157   6159   6160     1   108.8800464 416.726400
   6157   6159   6162     1   108.8800464 416.726400
   6158   6157   6159     1   117.6800502 383.254400
   6159   6161   6163     1   109.5600471 388.275200
   6159   6161   6164     1   109.5600471 388.275200
   6160   6159   6161     1   109.5600471 388.275200
   6160   6159   6162     1   108.4600466 328.025600
   6161   6159   6162     1   109.5600471 388.275200
   6163   6161   6165     1   109.8800469 414.216000
   6163   6161   6164     1   108.4600466 328.025600
   6164   6161   6165     1   109.8800469 414.216000
   6165   6166   6176     1   109.8800469 414.216000
   6165   6166   6177     1   109.8800469 414.216000
   6165   6167   6168     1   109.8800469 414.216000
   6165   6167   6170     1   109.8800469 414.216000
   6166   6178   6179     1   109.8000471 387.438400
   6166   6178   6180     1   109.8000471 387.438400
   6167   6169   6171     1   109.8000471 387.438400
   6167   6169   6172     1   109.8000471 387.438400
   6168   6167   6169     1   109.5600471 388.275200
   6168   6167   6170     1   108.4600466 328.025600
   6169   6167   6170     1   109.5600471 388.275200
   6171   6169   6173     1   108.7700466 392.459200
   6171   6169   6172     1   107.5800459 329.699200
   6172   6169   6173     1   108.7700466 392.459200
   6173   6174   6184     1   106.5500460 417.563200
   6176   6166   6178     1   109.5600471 388.275200
   6176   6166   6177     1   108.4600466 328.025600
   6177   6166   6178     1   109.5600471 388.275200
   6179   6178   6181     1   108.7700466 392.459200
   6179   6178   6180     1   107.5800459 329.699200
   6180   6178   6181     1   108.7700466 392.459200
   6181   6183   6185     1   106.5500460 417.563200
   6186   6188   6189     1   108.8800464 416.726400
   6186   6188   6191     1   108.8800464 416.726400
   6187   6186   6188     1   117.6800502 383.254400
   6188   6190   6192     1   109.5600471 388.275200
   6188   6190   6193     1   109.5600471 388.275200
   6189   6188   6190     1   109.5600471 388.275200
   6189   6188   6191     1   108.4600466 328.025600
   6190   6188   6191     1   109.5600471 388.275200
   6192   6190   6194     1   109.8800469 414.216000
   6192   6190   6193     1   108.4600466 328.025600
   6193   6190   6194     1   109.8800469 414.216000
   6194   6195   6205     1   109.8800469 414.216000
   6194   6195   6206     1   109.8800469 414.216000
   6194   6196   6197     1   109.8800469 414.216000
   6194   6196   6199     1   109.8800469 414.216000
   6195   6207   6208     1   109.8000471 387.438400
   6195   6207   6209     1   109.8000471 387.438400
   6196   6198   6200     1   109.8000471 387.438400
   6196   6198   6201     1   109.8000471 387.438400
   6197   6196   6198     1   109.5600471 388.275200
   6197   6196   6199     1   108.4600466 328.025600
   6198   6196   6199     1   109.5600471 388.275200
   6200   6198   6202     1   108.7700466 392.459200
   6200   6198   6201     1   107.5800459 329.699200
   6201   6198   6202     1   108.7700466 392.459200
   6202   6203   6213     1   106.5500460 417.563200
   6205   6195   6207     1   109.5600471 388.275200
   6205   6195   6206     1   108.4600466 328.025600
   6206   6195   6207     1   109.5600471 388.275200
   6208   6207   6210     1   108.7700466 392.459200
   6208   6207   6209     1   107.5800459 329.699200
   6209   6207   6210     1   108.7700466 392.459200
   6210   6212   6214     1   106.5500460 417.563200
   6215   6217   6218     1   108.8800464 416.726400
   6215   6217   6220     1   108.8800464 416.726400
   6216   6215   6217     1   117.6800502 383.254400
   6217   6219   6221     1   109.5600471 388.275200
   6217   6219   6222     1   109.5600471 388.275200
   6218   6217   6219     1   109.5600471 388.275200
   6218   6217   6220     1   108.4600466 328.025600
   6219   6217   6220     1   109.5600471 388.275200
   6221   6219   6223     1   109.8800469 414.216000
   6221   6219   6222     1   108.4600466 328.025600
   6222   6219   6223     1   109.8800469 414.216000
   6223   6224   6234     1   109.8800469 414.216000
   6223   6224   6235     1   109.8800469 414.216000
   6223   6225   6226     1   109.8800469 414.216000
   6223   6225   6228     1   109.8800469 414.216000
   6224   6236   6237     1   109.8000471 387.438400
   6224   6236   6238     1   109.8000471 387.438400
   6225   6227   6229     1   109.8000471 387.438400
   6225   6227   6230     1   109.8000471 387.438400
   6226   6225   6227     1   109.5600471 388.275200
   6226   6225   6228     1   108.4600466 328.025600
   6227   6225   6228     1   109.5600471 388.275200
   6229   6227   6231     1   108.7700466 392.459200
   6229   6227   6230     1   107.5800459 329.699200
   6230   6227   6231     1   108.7700466 392.459200
   6231   6232   6242     1   106.5500460 417.563200
   6234   6224   6236     1   109.5600471 388.275200
   6234   6224   6235     1   108.4600466 328.025600
   6235   6224   6236     1   109.5600471 388.275200
   6237   6236   6239     1   108.7700466 392.459200
   6237   6236   6238     1   107.5800459 329.699200
   6238   6236   6239     1   108.7700466 392.459200
   6239   6241   6243     1   106.5500460 417.563200
   6244   6246   6247     1   108.8800464 416.726400
   6244   6246   6249     1   108.8800464 416.726400
   6245   6244   6246     1   117.6800502 383.254400
   6246   6248   6250     1   109.5600471 388.275200
   6246   6248   6251     1   109.5600471 388.275200
   6247   6246   6248     1   109.5600471 388.275200
   6247   6246   6249     1   108.4600466 328.025600
   6248   6246   6249     1   109.5600471 388.275200
   6250   6248   6252     1   109.8800469 414.216000
   6250   6248   6251     1   108.4600466 328.025600
   6251   6248   6252     1   109.8800469 414.216000
   6252   6253   6263     1   109.8800469 414.216000
   6252   6253   6264     1   109.8800469 414.216000
   6252   6254   6255     1   109.8800469 414.216000
   6252   6254   6257     1   109.8800469 414.216000
   6253   6265   6266     1   109.8000471 387.438400
   6253   6265   6267     1   109.8000471 387.438400
   6254   6256   6258     1   109.8000471 387.438400
   6254   6256   6259     1   109.8000471 387.438400
   6255   6254   6256     1   109.5600471 388.275200
   6255   6254   6257     1   108.4600466 328.025600
   6256   6254   6257     1   109.5600471 388.275200
   6258   6256   6260     1   108.7700466 392.459200
   6258   6256   6259     1   107.5800459 329.699200
   6259   6256   6260     1   108.7700466 392.459200
   6260   6261   6271     1   106.5500460 417.563200
   6263   6253   6265     1   109.5600471 388.275200
   6263   6253   6264     1   108.4600466 328.025600
   6264   6253   6265     1   109.5600471 388.275200
   6266   6265   6268     1   108.7700466 392.459200
   6266   6265   6267     1   107.5800459 329.699200
   6267   6265   6268     1   108.7700466 392.459200
   6268   6270   6272     1   106.5500460 417.563200
   6273   6275   6276     1   108.8800464 416.726400
   6273   6275   6278     1   108.8800464 416.726400
   6274   6273   6275     1   117.6800502 383.254400
   6275   6277   6279     1   109.5600471 388.275200
   6275   6277   6280     1   109.5600471 388.275200
   6276   6275   6277     1   109.5600471 388.275200
   6276   6275   6278     1   108.4600466 328.025600
   6277   6275   6278     1   109.5600471 388.275200
   6279   6277   6281     1   109.8800469 414.216000
   6279   6277   6280     1   108.4600466 328.025600
   6280   6277   6281     1   109.8800469 414.216000
   6281   6282   6292     1   109.8800469 414.216000
   6281   6282   6293     1   109.8800469 414.216000
   6281   6283   6284     1   109.8800469 414.216000
   6281   6283   6286     1   109.8800469 414.216000
   6282   6294   6295     1   109.8000471 387.438400
   6282   6294   6296     1   109.8000471 387.438400
   6283   6285   6287     1   109.8000471 387.438400
   6283   6285   6288     1   109.8000471 387.438400
   6284   6283   6285     1   109.5600471 388.275200
   6284   6283   6286     1   108.4600466 328.025600
   6285   6283   6286     1   109.5600471 388.275200
   6287   6285   6289     1   108.7700466 392.459200
   6287   6285   6288     1   107.5800459 329.699200
   6288   6285   6289     1   108.7700466 392.459200
   6289   6290   6300     1   106.5500460 417.563200
   6292   6282   6294     1   109.5600471 388.275200
   6292   6282   6293     1   108.4600466 328.025600
   6293   6282   6294     1   109.5600471 388.275200
   6295   6294   6297     1   108.7700466 392.459200
   6295   6294   6296     1   107.5800459 329.699200
   6296   6294   6297     1   108.7700466 392.459200
   6297   6299   6301     1   106.5500460 417.563200
   6302   6304   6305     1   108.8800464 416.726400
   6302   6304   6307     1   108.8800464 416.726400
   6303   6302   6304     1   117.6800502 383.254400
   6304   6306   6308     1   109.5600471 388.275200
   6304   6306   6309     1   109.5600471 388.275200
   6305   6304   6306     1   109.5600471 388.275200
   6305   6304   6307     1   108.4600466 328.025600
   6306   6304   6307     1   109.5600471 388.275200
   6308   6306   6310     1   109.8800469 414.216000
   6308   6306   6309     1   108.4600466 328.025600
   6309   6306   6310     1   109.8800469 414.216000
   6310   6311   6321     1   109.8800469 414.216000
   6310   6311   6322     1   109.8800469 414.216000
   6310   6312   6313     1   109.8800469 414.216000
   6310   6312   6315     1   109.8800469 414.216000
   6311   6323   6324     1   109.8000471 387.438400
   6311   6323   6325     1   109.8000471 387.438400
   6312   6314   6316     1   109.8000471 387.438400
   6312   6314   6317     1   109.8000471 387.438400
   6313   6312   6314     1   109.5600471 388.275200
   6313   6312   6315     1   108.4600466 328.025600
   6314   6312   6315     1   109.5600471 388.275200
   6316   6314   6318     1   108.7700466 392.459200
   6316   6314   6317     1   107.5800459 329.699200
   6317   6314   6318     1   108.7700466 392.459200
   6318   6319   6329     1   106.5500460 417.563200
   6321   6311   6323     1   109.5600471 388.275200
   6321   6311   6322     1   108.4600466 328.025600
   6322   6311   6323     1   109.5600471 388.275200
   6324   6323   6326     1   108.7700466 392.459200
   6324   6323   6325     1   107.5800459 329.699200
   6325   6323   6326     1   108.7700466 392.459200
   6326   6328   6330     1   106.5500460 417.563200
   6331   6333   6334     1   108.8800464 416.726400
   6331   6333   6336     1   108.8800464 416.726400
   6332   6331   6333     1   117.6800502 383.254400
   6333   6335   6337     1   109.5600471 388.275200
   6333   6335   6338     1   109.5600471 388.275200
   6334   6333   6335     1   109.5600471 388.275200
   6334   6333   6336     1   108.4600466 328.025600
   6335   6333   6336     1   109.5600471 388.275200
   6337   6335   6339     1   109.8800469 414.216000
   6337   6335   6338     1   108.4600466 328.025600
   6338   6335   6339     1   109.8800469 414.216000
   6339   6340   6350     1   109.8800469 414.216000
   6339   6340   6351     1   109.8800469 414.216000
   6339   6341   6342     1   109.8800469 414.216000
   6339   6341   6344     1   109.8800469 414.216000
   6340   6352   6353     1   109.8000471 387.438400
   6340   6352   6354     1   109.8000471 387.438400
   6341   6343   6345     1   109.8000471 387.438400
   6341   6343   6346     1   109.8000471 387.438400
   6342   6341   6343     1   109.5600471 388.275200
   6342   6341   6344     1   108.4600466 328.025600
   6343   6341   6344     1   109.5600471 388.275200
   6345   6343   6347     1   108.7700466 392.459200
   6345   6343   6346     1   107.5800459 329.699200
   6346   6343   6347     1   108.7700466 392.459200
   6347   6348   6358     1   106.5500460 417.563200
   6350   6340   6352     1   109.5600471 388.275200
   6350   6340   6351     1   108.4600466 328.025600
   6351   6340   6352     1   109.5600471 388.275200
   6353   6352   6355     1   108.7700466 392.459200
   6353   6352   6354     1   107.5800459 329.699200
   6354   6352   6355     1   108.7700466 392.459200
   6355   6357   6359     1   106.5500460 417.563200
   6360   6362   6363     1   108.8800464 416.726400
   6360   6362   6365     1   108.8800464 416.726400
   6361   6360   6362     1   117.6800502 383.254400
   6362   6364   6366     1   109.5600471 388.275200
   6362   6364   6367     1   109.5600471 388.275200
   6363   6362   6364     1   109.5600471 388.275200
   6363   6362   6365     1   108.4600466 328.025600
   6364   6362   6365     1   109.5600471 388.275200
   6366   6364   6368     1   109.8800469 414.216000
   6366   6364   6367     1   108.4600466 328.025600
   6367   6364   6368     1   109.8800469 414.216000
   6368   6369   6379     1   109.8800469 414.216000
   6368   6369   6380     1   109.8800469 414.216000
   6368   6370   6371     1   109.8800469 414.216000
   6368   6370   6373     1   109.8800469 414.216000
   6369   6381   6382     1   109.8000471 387.438400
   6369   6381   6383     1   109.8000471 387.438400
   6370   6372   6374     1   109.8000471 387.438400
   6370   6372   6375     1   109.8000471 387.438400
   6371   6370   6372     1   109.5600471 388.275200
   6371   6370   6373     1   108.4600466 328.025600
   6372   6370   6373     1   109.5600471 388.275200
   6374   6372   6376     1   108.7700466 392.459200
   6374   6372   6375     1   107.5800459 329.699200
   6375   6372   6376     1   108.7700466 392.459200
   6376   6377   6387     1   106.5500460 417.563200
   6379   6369   6381     1   109.5600471 388.275200
   6379   6369   6380     1   108.4600466 328.025600
   6380   6369   6381     1   109.5600471 388.275200
   6382   6381   6384     1   108.7700466 392.459200
   6382   6381   6383     1   107.5800459 329.699200
   6383   6381   6384     1   108.7700466 392.459200
   6384   6386   6388     1   106.5500460 417.563200
   6389   6391   6392     1   108.8800464 416.726400
   6389   6391   6394     1   108.8800464 416.726400
   6390   6389   6391     1   117.6800502 383.254400
   6391   6393   6395     1   109.5600471 388.275200
   6391   6393   6396     1   109.5600471 388.275200
   6392   6391   6393     1   109.5600471 388.275200
   6392   6391   6394     1   108.4600466 328.025600
   6393   6391   6394     1   109.5600471 388.275200
   6395   6393   6397     1   109.8800469 414.216000
   6395   6393   6396     1   108.4600466 328.025600
   6396   6393   6397     1   109.8800469 414.216000
   6397   6398   6408     1   109.8800469 414.216000
   6397   6398   6409     1   109.8800469 414.216000
   6397   6399   6400     1   109.8800469 414.216000
   6397   6399   6402     1   109.8800469 414.216000
   6398   6410   6411     1   109.8000471 387.438400
   6398   6410   6412     1   109.8000471 387.438400
   6399   6401   6403     1   109.8000471 387.438400
   6399   6401   6404     1   109.8000471 387.438400
   6400   6399   6401     1   109.5600471 388.275200
   6400   6399   6402     1   108.4600466 328.025600
   6401   6399   6402     1   109.5600471 388.275200
   6403   6401   6405     1   108.7700466 392.459200
   6403   6401   6404     1   107.5800459 329.699200
   6404   6401   6405     1   108.7700466 392.459200
   6405   6406   6416     1   106.5500460 417.563200
   6408   6398   6410     1   109.5600471 388.275200
   6408   6398   6409     1   108.4600466 328.025600
   6409   6398   6410     1   109.5600471 388.275200
   6411   6410   6413     1   108.7700466 392.459200
   6411   6410   6412     1   107.5800459 329.699200
   6412   6410   6413     1   108.7700466 392.459200
   6413   6415   6417     1   106.5500460 417.563200
   6418   6420   6421     1   108.8800464 416.726400
   6418   6420   6423     1   108.8800464 416.726400
   6419   6418   6420     1   117.6800502 383.254400
   6420   6422   6424     1   109.5600471 388.275200
   6420   6422   6425     1   109.5600471 388.275200
   6421   6420   6422     1   109.5600471 388.275200
   6421   6420   6423     1   108.4600466 328.025600
   6422   6420   6423     1   109.5600471 388.275200
   6424   6422   6426     1   109.8800469 414.216000
   6424   6422   6425     1   108.4600466 328.025600
   6425   6422   6426     1   109.8800469 414.216000
   6426   6427   6437     1   109.8800469 414.216000
   6426   6427   6438     1   109.8800469 414.216000
   6426   6428   6429     1   109.8800469 414.216000
   6426   6428   6431     1   109.8800469 414.216000
   6427   6439   6440     1   109.8000471 387.438400
   6427   6439   6441     1   109.8000471 387.438400
   6428   6430   6432     1   109.8000471 387.438400
   6428   6430   6433     1   109.8000471 387.438400
   6429   6428   6430     1   109.5600471 388.275200
   6429   6428   6431     1   108.4600466 328.025600
   6430   6428   6431     1   109.5600471 388.275200
   6432   6430   6434     1   108.7700466 392.459200
   6432   6430   6433     1   107.5800459 329.699200
   6433   6430   6434     1   108.7700466 392.459200
   6434   6435   6445     1   106.5500460 417.563200
   6437   6427   6439     1   109.5600471 388.275200
   6437   6427   6438     1   108.4600466 328.025600
   6438   6427   6439     1   109.5600471 388.275200
   6440   6439   6442     1   108.7700466 392.459200
   6440   6439   6441     1   107.5800459 329.699200
   6441   6439   6442     1   108.7700466 392.459200
   6442   6444   6446     1   106.5500460 417.563200
   6447   6449   6450     1   108.8800464 416.726400
   6447   6449   6452     1   108.8800464 416.726400
   6448   6447   6449     1   117.6800502 383.254400
   6449   6451   6453     1   109.5600471 388.275200
   6449   6451   6454     1   109.5600471 388.275200
   6450   6449   6451     1   109.5600471 388.275200
   6450   6449   6452     1   108.4600466 328.025600
   6451   6449   6452     1   109.5600471 388.275200
   6453   6451   6455     1   109.8800469 414.216000
   6453   6451   6454     1   108.4600466 328.025600
   6454   6451   6455     1   109.8800469 414.216000
   6455   6456   6466     1   109.8800469 414.216000
   6455   6456   6467     1   109.8800469 414.216000
   6455   6457   6458     1   109.8800469 414.216000
   6455   6457   6460     1   109.8800469 414.216000
   6456   6468   6469     1   109.8000471 387.438400
   6456   6468   6470     1   109.8000471 387.438400
   6457   6459   6461     1   109.8000471 387.438400
   6457   6459   6462     1   109.8000471 387.438400
   6458   6457   6459     1   109.5600471 388.275200
   6458   6457   6460     1   108.4600466 328.025600
   6459   6457   6460     1   109.5600471 388.275200
   6461   6459   6463     1   108.7700466 392.459200
   6461   6459   6462     1   107.5800459 329.699200
   6462   6459   6463     1   108.7700466 392.459200
   6463   6464   6474     1   106.5500460 417.563200
   6466   6456   6468     1   109.5600471 388.275200
   6466   6456   6467     1   108.4600466 328.025600
   6467   6456   6468     1   109.5600471 388.275200
   6469   6468   6471     1   108.7700466 392.459200
   6469   6468   6470     1   107.5800459 329.699200
   6470   6468   6471     1   108.7700466 392.459200
   6471   6473   6475     1   106.5500460 417.563200
   6476   6478   6479     1   108.8800464 416.726400
   6476   6478   6481     1   108.8800464 416.726400
   6477   6476   6478     1   117.6800502 383.254400
   6478   6480   6482     1   109.5600471 388.275200
   6478   6480   6483     1   109.5600471 388.275200
   6479   6478   6480     1   109.5600471 388.275200
   6479   6478   6481     1   108.4600466 328.025600
   6480   6478   6481     1   109.5600471 388.275200
   6482   6480   6484     1   109.8800469 414.216000
   6482   6480   6483     1   108.4600466 328.025600
   6483   6480   6484     1   109.8800469 414.216000
   6484   6485   6495     1   109.8800469 414.216000
   6484   6485   6496     1   109.8800469 414.216000
   6484   6486   6487     1   109.8800469 414.216000
   6484   6486   6489     1   109.8800469 414.216000
   6485   6497   6498     1   109.8000471 387.438400
   6485   6497   6499     1   109.8000471 387.438400
   6486   6488   6490     1   109.8000471 387.438400
   6486   6488   6491     1   109.8000471 387.438400
   6487   6486   6488     1   109.5600471 388.275200
   6487   6486   6489     1   108.4600466 328.025600
   6488   6486   6489     1   109.5600471 388.275200
   6490   6488   6492     1   108.7700466 392.459200
   6490   6488   6491     1   107.5800459 329.699200
   6491   6488   6492     1   108.7700466 392.459200
   6492   6493   6503     1   106.5500460 417.563200
   6495   6485   6497     1   109.5600471 388.275200
   6495   6485   6496     1   108.4600466 328.025600
   6496   6485   6497     1   109.5600471 388.275200
   6498   6497   6500     1   108.7700466 392.459200
   6498   6497   6499     1   107.5800459 329.699200
   6499   6497   6500     1   108.7700466 392.459200
   6500   6502   6504     1   106.5500460 417.563200
   6505   6507   6508     1   108.8800464 416.726400
   6505   6507   6510     1   108.8800464 416.726400
   6506   6505   6507     1   117.6800502 383.254400
   6507   6509   6511     1   109.5600471 388.275200
   6507   6509   6512     1   109.5600471 388.275200
   6508   6507   6509     1   109.5600471 388.275200
   6508   6507   6510     1   108.4600466 328.025600
   6509   6507   6510     1   109.5600471 388.275200
   6511   6509   6513     1   109.8800469 414.216000
   6511   6509   6512     1   108.4600466 328.025600
   6512   6509   6513     1   109.8800469 414.216000
   6513   6514   6524     1   109.8800469 414.216000
   6513   6514   6525     1   109.8800469 414.216000
   6513   6515   6516     1   109.8800469 414.216000
   6513   6515   6518     1   109.8800469 414.216000
   6514   6526   6527     1   109.8000471 387.438400
   6514   6526   6528     1   109.8000471 387.438400
   6515   6517   6519     1   109.8000471 387.438400
   6515   6517   6520     1   109.8000471 387.438400
   6516   6515   6517     1   109.5600471 388.275200
   6516   6515   6518     1   108.4600466 328.025600
   6517   6515   6518     1   109.5600471 388.275200
   6519   6517   6521     1   108.7700466 392.459200
   6519   6517   6520     1   107.5800459 329.699200
   6520   6517   6521     1   108.7700466 392.459200
   6521   6522   6532     1   106.5500460 417.563200
   6524   6514   6526     1   109.5600471 388.275200
   6524   6514   6525     1   108.4600466 328.025600
   6525   6514   6526     1   109.5600471 388.275200
   6527   6526   6529     1   108.7700466 392.459200
   6527   6526   6528     1   107.5800459 329.699200
   6528   6526   6529     1   108.7700466 392.459200
   6529   6531   6533     1   106.5500460 417.563200
   6534   6536   6537     1   108.8800464 416.726400
   6534   6536   6539     1   108.8800464 416.726400
   6535   6534   6536     1   117.6800502 383.254400
   6536   6538   6540     1   109.5600471 388.275200
   6536   6538   6541     1   109.5600471 388.275200
   6537   6536   6538     1   109.5600471 388.275200
   6537   6536   6539     1   108.4600466 328.025600
   6538   6536   6539     1   109.5600471 388.275200
   6540   6538   6542     1   109.8800469 414.216000
   6540   6538   6541     1   108.4600466 328.025600
   6541   6538   6542     1   109.8800469 414.216000
   6542   6543   6553     1   109.8800469 414.216000
   6542   6543   6554     1   109.8800469 414.216000
   6542   6544   6545     1   109.8800469 414.216000
   6542   6544   6547     1   109.8800469 414.216000
   6543   6555   6556     1   109.8000471 387.438400
   6543   6555   6557     1   109.8000471 387.438400
   6544   6546   6548     1   109.8000471 387.438400
   6544   6546   6549     1   109.8000471 387.438400
   6545   6544   6546     1   109.5600471 388.275200
   6545   6544   6547     1   108.4600466 328.025600
   6546   6544   6547     1   109.5600471 388.275200
   6548   6546   6550     1   108.7700466 392.459200
   6548   6546   6549     1   107.5800459 329.699200
   6549   6546   6550     1   108.7700466 392.459200
   6550   6551   6561     1   106.5500460 417.563200
   6553   6543   6555     1   109.5600471 388.275200
   6553   6543   6554     1   108.4600466 328.025600
   6554   6543   6555     1   109.5600471 388.275200
   6556   6555   6558     1   108.7700466 392.459200
   6556   6555   6557     1   107.5800459 329.699200
   6557   6555   6558     1   108.7700466 392.459200
   6558   6560   6562     1   106.5500460 417.563200
   6563   6565   6566     1   108.8800464 416.726400
   6563   6565   6568     1   108.8800464 416.726400
   6564   6563   6565     1   117.6800502 383.254400
   6565   6567   6569     1   109.5600471 388.275200
   6565   6567   6570     1   109.5600471 388.275200
   6566   6565   6567     1   109.5600471 388.275200
   6566   6565   6568     1   108.4600466 328.025600
   6567   6565   6568     1   109.5600471 388.275200
   6569   6567   6571     1   109.8800469 414.216000
   6569   6567   6570     1   108.4600466 328.025600
   6570   6567   6571     1   109.8800469 414.216000
   6571   6572   6582     1   109.8800469 414.216000
   6571   6572   6583     1   109.8800469 414.216000
   6571   6573   6574     1   109.8800469 414.216000
   6571   6573   6576     1   109.8800469 414.216000
   6572   6584   6585     1   109.8000471 387.438400
   6572   6584   6586     1   109.8000471 387.438400
   6573   6575   6577     1   109.8000471 387.438400
   6573   6575   6578     1   109.8000471 387.438400
   6574   6573   6575     1   109.5600471 388.275200
   6574   6573   6576     1   108.4600466 328.025600
   6575   6573   6576     1   109.5600471 388.275200
   6577   6575   6579     1   108.7700466 392.459200
   6577   6575   6578     1   107.5800459 329.699200
   6578   6575   6579     1   108.7700466 392.459200
   6579   6580   6590     1   106.5500460 417.563200
   6582   6572   6584     1   109.5600471 388.275200
   6582   6572   6583     1   108.4600466 328.025600
   6583   6572   6584     1   109.5600471 388.275200
   6585   6584   6587     1   108.7700466 392.459200
   6585   6584   6586     1   107.5800459 329.699200
   6586   6584   6587     1   108.7700466 392.459200
   6587   6589   6591     1   106.5500460 417.563200
   6592   6594   6595     1   108.8800464 416.726400
   6592   6594   6597     1   108.8800464 416.726400
   6593   6592   6594     1   117.6800502 383.254400
   6594   6596   6598     1   109.5600471 388.275200
   6594   6596   6599     1   109.5600471 388.275200
   6595   6594   6596     1   109.5600471 388.275200
   6595   6594   6597     1   108.4600466 328.025600
   6596   6594   6597     1   109.5600471 388.275200
   6598   6596   6600     1   109.8800469 414.216000
   6598   6596   6599     1   108.4600466 328.025600
   6599   6596   6600     1   109.8800469 414.216000
   6600   6601   6611     1   109.8800469 414.216000
   6600   6601   6612     1   109.8800469 414.216000
   6600   6602   6603     1   109.8800469 414.216000
   6600   6602   6605     1   109.8800469 414.216000
   6601   6613   6614     1   109.8000471 387.438400
   6601   6613   6615     1   109.8000471 387.438400
   6602   6604   6606     1   109.8000471 387.438400
   6602   6604   6607     1   109.8000471 387.438400
   6603   6602   6604     1   109.5600471 388.275200
   6603   6602   6605     1   108.4600466 328.025600
   6604   6602   6605     1   109.5600471 388.275200
   6606   6604   6608     1   108.7700466 392.459200
   6606   6604   6607     1   107.5800459 329.699200
   6607   6604   6608     1   108.7700466 392.459200
   6608   6609   6619     1   106.5500460 417.563200
   6611   6601   6613     1   109.5600471 388.275200
   6611   6601   6612     1   108.4600466 328.025600
   6612   6601   6613     1   109.5600471 388.275200
   6614   6613   6616     1   108.7700466 392.459200
   6614   6613   6615     1   107.5800459 329.699200
   6615   6613   6616     1   108.7700466 392.459200
   6616   6618   6620     1   106.5500460 417.563200
   6621   6623   6624     1   108.8800464 416.726400
   6621   6623   6626     1   108.8800464 416.726400
   6622   6621   6623     1   117.6800502 383.254400
   6623   6625   6627     1   109.5600471 388.275200
   6623   6625   6628     1   109.5600471 388.275200
   6624   6623   6625     1   109.5600471 388.275200
   6624   6623   6626     1   108.4600466 328.025600
   6625   6623   6626     1   109.5600471 388.275200
   6627   6625   6629     1   109.8800469 414.216000
   6627   6625   6628     1   108.4600466 328.025600
   6628   6625   6629     1   109.8800469 414.216000
   6629   6630   6640     1   109.8800469 414.216000
   6629   6630   6641     1   109.8800469 414.216000
   6629   6631   6632     1   109.8800469 414.216000
   6629   6631   6634     1   109.8800469 414.216000
   6630   6642   6643     1   109.8000471 387.438400
   6630   6642   6644     1   109.8000471 387.438400
   6631   6633   6635     1   109.8000471 387.438400
   6631   6633   6636     1   109.8000471 387.438400
   6632   6631   6633     1   109.5600471 388.275200
   6632   6631   6634     1   108.4600466 328.025600
   6633   6631   6634     1   109.5600471 388.275200
   6635   6633   6637     1   108.7700466 392.459200
   6635   6633   6636     1   107.5800459 329.699200
   6636   6633   6637     1   108.7700466 392.459200
   6637   6638   6648     1   106.5500460 417.563200
   6640   6630   6642     1   109.5600471 388.275200
   6640   6630   6641     1   108.4600466 328.025600
   6641   6630   6642     1   109.5600471 388.275200
   6643   6642   6645     1   108.7700466 392.459200
   6643   6642   6644     1   107.5800459 329.699200
   6644   6642   6645     1   108.7700466 392.459200
   6645   6647   6649     1   106.5500460 417.563200
   6650   6652   6653     1   108.8800464 416.726400
   6650   6652   6655     1   108.8800464 416.726400
   6651   6650   6652     1   117.6800502 383.254400
   6652   6654   6656     1   109.5600471 388.275200
   6652   6654   6657     1   109.5600471 388.275200
   6653   6652   6654     1   109.5600471 388.275200
   6653   6652   6655     1   108.4600466 328.025600
   6654   6652   6655     1   109.5600471 388.275200
   6656   6654   6658     1   109.8800469 414.216000
   6656   6654   6657     1   108.4600466 328.025600
   6657   6654   6658     1   109.8800469 414.216000
   6658   6659   6669     1   109.8800469 414.216000
   6658   6659   6670     1   109.8800469 414.216000
   6658   6660   6661     1   109.8800469 414.216000
   6658   6660   6663     1   109.8800469 414.216000
   6659   6671   6672     1   109.8000471 387.438400
   6659   6671   6673     1   109.8000471 387.438400
   6660   6662   6664     1   109.8000471 387.438400
   6660   6662   6665     1   109.8000471 387.438400
   6661   6660   6662     1   109.5600471 388.275200
   6661   6660   6663     1   108.4600466 328.025600
   6662   6660   6663     1   109.5600471 388.275200
   6664   6662   6666     1   108.7700466 392.459200
   6664   6662   6665     1   107.5800459 329.699200
   6665   6662   6666     1   108.7700466 392.459200
   6666   6667   6677     1   106.5500460 417.563200
   6669   6659   6671     1   109.5600471 388.275200
   6669   6659   6670     1   108.4600466 328.025600
   6670   6659   6671     1   109.5600471 388.275200
   6672   6671   6674     1   108.7700466 392.459200
   6672   6671   6673     1   107.5800459 329.699200
   6673   6671   6674     1   108.7700466 392.459200
   6674   6676   6678     1   106.5500460 417.563200
   6679   6681   6682     1   108.8800464 416.726400
   6679   6681   6684     1   108.8800464 416.726400
   6680   6679   6681     1   117.6800502 383.254400
   6681   6683   6685     1   109.5600471 388.275200
   6681   6683   6686     1   109.5600471 388.275200
   6682   6681   6683     1   109.5600471 388.275200
   6682   6681   6684     1   108.4600466 328.025600
   6683   6681   6684     1   109.5600471 388.275200
   6685   6683   6687     1   109.8800469 414.216000
   6685   6683   6686     1   108.4600466 328.025600
   6686   6683   6687     1   109.8800469 414.216000
   6687   6688   6698     1   109.8800469 414.216000
   6687   6688   6699     1   109.8800469 414.216000
   6687   6689   6690     1   109.8800469 414.216000
   6687   6689   6692     1   109.8800469 414.216000
   6688   6700   6701     1   109.8000471 387.438400
   6688   6700   6702     1   109.8000471 387.438400
   6689   6691   6693     1   109.8000471 387.438400
   6689   6691   6694     1   109.8000471 387.438400
   6690   6689   6691     1   109.5600471 388.275200
   6690   6689   6692     1   108.4600466 328.025600
   6691   6689   6692     1   109.5600471 388.275200
   6693   6691   6695     1   108.7700466 392.459200
   6693   6691   6694     1   107.5800459 329.699200
   6694   6691   6695     1   108.7700466 392.459200
   6695   6696   6706     1   106.5500460 417.563200
   6698   6688   6700     1   109.5600471 388.275200
   6698   6688   6699     1   108.4600466 328.025600
   6699   6688   6700     1   109.5600471 388.275200
   6701   6700   6703     1   108.7700466 392.459200
   6701   6700   6702     1   107.5800459 329.699200
   6702   6700   6703     1   108.7700466 392.459200
   6703   6705   6707     1   106.5500460 417.563200
   6708   6710   6711     1   108.8800464 416.726400
   6708   6710   6713     1   108.8800464 416.726400
   6709   6708   6710     1   117.6800502 383.254400
   6710   6712   6714     1   109.5600471 388.275200
   6710   6712   6715     1   109.5600471 388.275200
   6711   6710   6712     1   109.5600471 388.275200
   6711   6710   6713     1   108.4600466 328.025600
   6712   6710   6713     1   109.5600471 388.275200
   6714   6712   6716     1   109.8800469 414.216000
   6714   6712   6715     1   108.4600466 328.025600
   6715   6712   6716     1   109.8800469 414.216000
   6716   6717   6727     1   109.8800469 414.216000
   6716   6717   6728     1   109.8800469 414.216000
   6716   6718   6719     1   109.8800469 414.216000
   6716   6718   6721     1   109.8800469 414.216000
   6717   6729   6730     1   109.8000471 387.438400
   6717   6729   6731     1   109.8000471 387.438400
   6718   6720   6722     1   109.8000471 387.438400
   6718   6720   6723     1   109.8000471 387.438400
   6719   6718   6720     1   109.5600471 388.275200
   6719   6718   6721     1   108.4600466 328.025600
   6720   6718   6721     1   109.5600471 388.275200
   6722   6720   6724     1   108.7700466 392.459200
   6722   6720   6723     1   107.5800459 329.699200
   6723   6720   6724     1   108.7700466 392.459200
   6724   6725   6735     1   106.5500460 417.563200
   6727   6717   6729     1   109.5600471 388.275200
   6727   6717   6728     1   108.4600466 328.025600
   6728   6717   6729     1   109.5600471 388.275200
   6730   6729   6732     1   108.7700466 392.459200
   6730   6729   6731     1   107.5800459 329.699200
   6731   6729   6732     1   108.7700466 392.459200
   6732   6734   6736     1   106.5500460 417.563200
   6737   6739   6740     1   108.8800464 416.726400
   6737   6739   6742     1   108.8800464 416.726400
   6738   6737   6739     1   117.6800502 383.254400
   6739   6741   6743     1   109.5600471 388.275200
   6739   6741   6744     1   109.5600471 388.275200
   6740   6739   6741     1   109.5600471 388.275200
   6740   6739   6742     1   108.4600466 328.025600
   6741   6739   6742     1   109.5600471 388.275200
   6743   6741   6745     1   109.8800469 414.216000
   6743   6741   6744     1   108.4600466 328.025600
   6744   6741   6745     1   109.8800469 414.216000
   6745   6746   6756     1   109.8800469 414.216000
   6745   6746   6757     1   109.8800469 414.216000
   6745   6747   6748     1   109.8800469 414.216000
   6745   6747   6750     1   109.8800469 414.216000
   6746   6758   6759     1   109.8000471 387.438400
   6746   6758   6760     1   109.8000471 387.438400
   6747   6749   6751     1   109.8000471 387.438400
   6747   6749   6752     1   109.8000471 387.438400
   6748   6747   6749     1   109.5600471 388.275200
   6748   6747   6750     1   108.4600466 328.025600
   6749   6747   6750     1   109.5600471 388.275200
   6751   6749   6753     1   108.7700466 392.459200
   6751   6749   6752     1   107.5800459 329.699200
   6752   6749   6753     1   108.7700466 392.459200
   6753   6754   6764     1   106.5500460 417.563200
   6756   6746   6758     1   109.5600471 388.275200
   6756   6746   6757     1   108.4600466 328.025600
   6757   6746   6758     1   109.5600471 388.275200
   6759   6758   6761     1   108.7700466 392.459200
   6759   6758   6760     1   107.5800459 329.699200
   6760   6758   6761     1   108.7700466 392.459200
   6761   6763   6765     1   106.5500460 417.563200
   6766   6768   6769     1   108.8800464 416.726400
   6766   6768   6771     1   108.8800464 416.726400
   6767   6766   6768     1   117.6800502 383.254400
   6768   6770   6772     1   109.5600471 388.275200
   6768   6770   6773     1   109.5600471 388.275200
   6769   6768   6770     1   109.5600471 388.275200
   6769   6768   6771     1   108.4600466 328.025600
   6770   6768   6771     1   109.5600471 388.275200
   6772   6770   6774     1   109.8800469 414.216000
   6772   6770   6773     1   108.4600466 328.025600
   6773   6770   6774     1   109.8800469 414.216000
   6774   6775   6785     1   109.8800469 414.216000
   6774   6775   6786     1   109.8800469 414.216000
   6774   6776   6777     1   109.8800469 414.216000
   6774   6776   6779     1   109.8800469 414.216000
   6775   6787   6788     1   109.8000471 387.438400
   6775   6787   6789     1   109.8000471 387.438400
   6776   6778   6780     1   109.8000471 387.438400
   6776   6778   6781     1   109.8000471 387.438400
   6777   6776   6778     1   109.5600471 388.275200
   6777   6776   6779     1   108.4600466 328.025600
   6778   6776   6779     1   109.5600471 388.275200
   6780   6778   6782     1   108.7700466 392.459200
   6780   6778   6781     1   107.5800459 329.699200
   6781   6778   6782     1   108.7700466 392.459200
   6782   6783   6793     1   106.5500460 417.563200
   6785   6775   6787     1   109.5600471 388.275200
   6785   6775   6786     1   108.4600466 328.025600
   6786   6775   6787     1   109.5600471 388.275200
   6788   6787   6790     1   108.7700466 392.459200
   6788   6787   6789     1   107.5800459 329.699200
   6789   6787   6790     1   108.7700466 392.459200
   6790   6792   6794     1   106.5500460 417.563200
   6795   6797   6798     1   108.8800464 416.726400
   6795   6797   6800     1   108.8800464 416.726400
   6796   6795   6797     1   117.6800502 383.254400
   6797   6799   6801     1   109.5600471 388.275200
   6797   6799   6802     1   109.5600471 388.275200
   6798   6797   6799     1   109.5600471 388.275200
   6798   6797   6800     1   108.4600466 328.025600
   6799   6797   6800     1   109.5600471 388.275200
   6801   6799   6803     1   109.8800469 414.216000
   6801   6799   6802     1   108.4600466 328.025600
   6802   6799   6803     1   109.8800469 414.216000
   6803   6804   6814     1   109.8800469 414.216000
   6803   6804   6815     1   109.8800469 414.216000
   6803   6805   6806     1   109.8800469 414.216000
   6803   6805   6808     1   109.8800469 414.216000
   6804   6816   6817     1   109.8000471 387.438400
   6804   6816   6818     1   109.8000471 387.438400
   6805   6807   6809     1   109.8000471 387.438400
   6805   6807   6810     1   109.8000471 387.438400
   6806   6805   6807     1   109.5600471 388.275200
   6806   6805   6808     1   108.4600466 328.025600
   6807   6805   6808     1   109.5600471 388.275200
   6809   6807   6811     1   108.7700466 392.459200
   6809   6807   6810     1   107.5800459 329.699200
   6810   6807   6811     1   108.7700466 392.459200
   6811   6812   6822     1   106.5500460 417.563200
   6814   6804   6816     1   109.5600471 388.275200
   6814   6804   6815     1   108.4600466 328.025600
   6815   6804   6816     1   109.5600471 388.275200
   6817   6816   6819     1   108.7700466 392.459200
   6817   6816   6818     1   107.5800459 329.699200
   6818   6816   6819     1   108.7700466 392.459200
   6819   6821   6823     1   106.5500460 417.563200
   6824   6826   6827     1   108.8800464 416.726400
   6824   6826   6829     1   108.8800464 416.726400
   6825   6824   6826     1   117.6800502 383.254400
   6826   6828   6830     1   109.5600471 388.275200
   6826   6828   6831     1   109.5600471 388.275200
   6827   6826   6828     1   109.5600471 388.275200
   6827   6826   6829     1   108.4600466 328.025600
   6828   6826   6829     1   109.5600471 388.275200
   6830   6828   6832     1   109.8800469 414.216000
   6830   6828   6831     1   108.4600466 328.025600
   6831   6828   6832     1   109.8800469 414.216000
   6832   6833   6843     1   109.8800469 414.216000
   6832   6833   6844     1   109.8800469 414.216000
   6832   6834   6835     1   109.8800469 414.216000
   6832   6834   6837     1   109.8800469 414.216000
   6833   6845   6846     1   109.8000471 387.438400
   6833   6845   6847     1   109.8000471 387.438400
   6834   6836   6838     1   109.8000471 387.438400
   6834   6836   6839     1   109.8000471 387.438400
   6835   6834   6836     1   109.5600471 388.275200
   6835   6834   6837     1   108.4600466 328.025600
   6836   6834   6837     1   109.5600471 388.275200
   6838   6836   6840     1   108.7700466 392.459200
   6838   6836   6839     1   107.5800459 329.699200
   6839   6836   6840     1   108.7700466 392.459200
   6840   6841   6851     1   106.5500460 417.563200
   6843   6833   6845     1   109.5600471 388.275200
   6843   6833   6844     1   108.4600466 328.025600
   6844   6833   6845     1   109.5600471 388.275200
   6846   6845   6848     1   108.7700466 392.459200
   6846   6845   6847     1   107.5800459 329.699200
   6847   6845   6848     1   108.7700466 392.459200
   6848   6850   6852     1   106.5500460 417.563200

[ dihedrals ]
;    ai     aj     ak     al funct         c0         c1         c2         c3         c4         c5
      1      4      7     15     1  180.0000771  2.0083200  2
      1      4      7     15     1  0.0000000  1.2552000  3
      1      4      7     18     1  180.0000771  2.0083200  2
      1      4      7     18     1  0.0000000  1.2552000  3
      1      8      9     30     1  180.0000771  2.0083200  2
      1      8      9     30     1  0.0000000  1.2552000  3
      1      8     12     27     1  180.0000771  2.0083200  2
      1      8     12     27     1  0.0000000  1.2552000  3
      4      1      8      9     1  180.0000771  2.0083200  2
      4      1      8      9     1  0.0000000  1.2552000  3
      4      1      8     12     1  180.0000771  2.0083200  2
      4      1      8     12     1  0.0000000  1.2552000  3
      4      7     15     21     1  180.0000771  2.0083200  2
      4      7     15     21     1  0.0000000  1.2552000  3
      4      7     18     24     1  180.0000771  2.0083200  2
      4      7     18     24     1  0.0000000  1.2552000  3
      8      1      4      7     1  0.0000000  0.6508444  3
      7     15     21     35     1  0.0000000  0.6508444  3
      7     18     24     36     1  0.0000000  0.6508444  3
      8      9     30     34     1  0.0000000  0.6508444  3
      8     12     27     33     1  0.0000000  0.6508444  3
      9      8     12     27     1  180.0000771  2.0083200  2
      9      8     12     27     1  0.0000000  1.2552000  3
      9     30     34     40     1  180.0000771  0.0000000  2
      9     30     34     89     1  0.0000000  0.2928800  2
      9     30     34     89     1  0.0000000  0.4184000  4
     12      8      9     30     1  180.0000771  2.0083200  2
     12      8      9     30     1  0.0000000  1.2552000  3
     12     27     33     37     1  180.0000771  0.0000000  2
     12     27     33     64     1  0.0000000  0.2928800  2
     12     27     33     64     1  0.0000000  0.4184000  4
     15      7     18     24     1  180.0000771  2.0083200  2
     15      7     18     24     1  0.0000000  1.2552000  3
     15     21     35     38     1  180.0000771  0.0000000  2
     15     21     35    114     1  0.0000000  0.2928800  2
     15     21     35    114     1  0.0000000  0.4184000  4
     18      7     15     21     1  180.0000771  2.0083200  2
     18      7     15     21     1  0.0000000  1.2552000  3
     18     24     36     39     1  180.0000771  0.0000000  2
     18     24     36    139     1  0.0000000  0.2928800  2
     18     24     36    139     1  0.0000000  0.4184000  4
     21     35    114     94     1  180.0000771  6.2760000  1
     21     35    114     94     1  0.0000000  0.0000000  2
     24     36    139    119     1  180.0000771  6.2760000  1
     24     36    139    119     1  0.0000000  0.0000000  2
     27     33     64     44     1  180.0000771  6.2760000  1
     27     33     64     44     1  0.0000000  0.0000000  2
     30     34     89     69     1  180.0000771  6.2760000  1
     30     34     89     69     1  0.0000000  0.0000000  2
     33     64     44     41     1  0.0000000  2.2175200  1
     33     64     44     41     1  0.0000000  0.0000000  2
     33     64     44     41     1  180.0000771  0.6276000  3
     33     64     44     41     1  180.0000771  2.0920000  4
     34     89     69     66     1  0.0000000  2.2175200  1
     34     89     69     66     1  0.0000000  0.0000000  2
     34     89     69     66     1  180.0000771  0.6276000  3
     34     89     69     66     1  180.0000771  2.0920000  4
     35    114     94     91     1  0.0000000  2.2175200  1
     35    114     94     91     1  0.0000000  0.0000000  2
     35    114     94     91     1  180.0000771  0.6276000  3
     35    114     94     91     1  180.0000771  2.0920000  4
     36    139    119    116     1  0.0000000  2.2175200  1
     36    139    119    116     1  0.0000000  0.0000000  2
     36    139    119    116     1  180.0000771  0.6276000  3
     36    139    119    116     1  180.0000771  2.0920000  4
     37     33     64     44     1  180.0000771  10.4600000  2
     38     35    114     94     1  180.0000771  10.4600000  2
     39     36    139    119     1  180.0000771  10.4600000  2
     40     34     89     69     1  180.0000771  10.4600000  2
     41     47     48     57     1  180.0000771  2.0083200  2
     41     47     48     57     1  0.0000000  1.2552000  3
     41     47     51     54     1  180.0000771  2.0083200  2
     41     47     51     54     1  0.0000000  1.2552000  3
     44     41     47     48     1  180.0000771  2.0083200  2
     44     41     47     48     1  0.0000000  1.2552000  3
     44     41     47     51     1  180.0000771  2.0083200  2
     44     41     47     51     1  0.0000000  1.2552000  3
     47     41     44     64     1  0.0000000  0.6508444  3
     47     48     57     61     1  0.0000000  0.6508444  3
     47     51     54     60     1  0.0000000  0.6508444  3
     48     47     51     54     1  180.0000771  2.0083200  2
     48     47     51     54     1  0.0000000  1.2552000  3
     48     57     61     63     1  180.0000771  0.0000000  2
     48     57     61    189     1  0.0000000  0.2928800  2
     48     57     61    189     1  0.0000000  0.4184000  4
     51     47     48     57     1  180.0000771  2.0083200  2
     51     47     48     57     1  0.0000000  1.2552000  3
     51     54     60     62     1  180.0000771  0.0000000  2
     51     54     60    164     1  0.0000000  0.2928800  2
     51     54     60    164     1  0.0000000  0.4184000  4
     54     60    164    144     1  180.0000771  6.2760000  1
     54     60    164    144     1  0.0000000  0.0000000  2
     57     61    189    169     1  180.0000771  6.2760000  1
     57     61    189    169     1  0.0000000  0.0000000  2
     60    164    144    141     1  0.0000000  2.2175200  1
     60    164    144    141     1  0.0000000  0.0000000  2
     60    164    144    141     1  180.0000771  0.6276000  3
     60    164    144    141     1  180.0000771  2.0920000  4
     61    189    169    166     1  0.0000000  2.2175200  1
     61    189    169    166     1  0.0000000  0.0000000  2
     61    189    169    166     1  180.0000771  0.6276000  3
     61    189    169    166     1  180.0000771  2.0920000  4
     62     60    164    144     1  180.0000771  10.4600000  2
     63     61    189    169     1  180.0000771  10.4600000  2
     66     72     73     82     1  180.0000771  2.0083200  2
     66     72     73     82     1  0.0000000  1.2552000  3
     66     72     76     79     1  180.0000771  2.0083200  2
     66     72     76     79     1  0.0000000  1.2552000  3
     69     66     72     73     1  180.0000771  2.0083200  2
     69     66     72     73     1  0.0000000  1.2552000  3
     69     66     72     76     1  180.0000771  2.0083200  2
     69     66     72     76     1  0.0000000  1.2552000  3
     72     66     69     89     1  0.0000000  0.6508444  3
     72     73     82     86     1  0.0000000  0.6508444  3
     72     76     79     85     1  0.0000000  0.6508444  3
     73     72     76     79     1  180.0000771  2.0083200  2
     73     72     76     79     1  0.0000000  1.2552000  3
     73     82     86     88     1  180.0000771  0.0000000  2
     73     82     86    239     1  0.0000000  0.2928800  2
     73     82     86    239     1  0.0000000  0.4184000  4
     76     72     73     82     1  180.0000771  2.0083200  2
     76     72     73     82     1  0.0000000  1.2552000  3
     76     79     85     87     1  180.0000771  0.0000000  2
     76     79     85    214     1  0.0000000  0.2928800  2
     76     79     85    214     1  0.0000000  0.4184000  4
     79     85    214    194     1  180.0000771  6.2760000  1
     79     85    214    194     1  0.0000000  0.0000000  2
     82     86    239    219     1  180.0000771  6.2760000  1
     82     86    239    219     1  0.0000000  0.0000000  2
     85    214    194    191     1  0.0000000  2.2175200  1
     85    214    194    191     1  0.0000000  0.0000000  2
     85    214    194    191     1  180.0000771  0.6276000  3
     85    214    194    191     1  180.0000771  2.0920000  4
     86    239    219    216     1  0.0000000  2.2175200  1
     86    239    219    216     1  0.0000000  0.0000000  2
     86    239    219    216     1  180.0000771  0.6276000  3
     86    239    219    216     1  180.0000771  2.0920000  4
     87     85    214    194     1  180.0000771  10.4600000  2
     88     86    239    219     1  180.0000771  10.4600000  2
     91     97     98    107     1  180.0000771  2.0083200  2
     91     97     98    107     1  0.0000000  1.2552000  3
     91     97    101    104     1  180.0000771  2.0083200  2
     91     97    101    104     1  0.0000000  1.2552000  3
     94     91     97     98     1  180.0000771  2.0083200  2
     94     91     97     98     1  0.0000000  1.2552000  3
     94     91     97    101     1  180.0000771  2.0083200  2
     94     91     97    101     1  0.0000000  1.2552000  3
     97     91     94    114     1  0.0000000  0.6508444  3
     97     98    107    111     1  0.0000000  0.6508444  3
     97    101    104    110     1  0.0000000  0.6508444  3
     98     97    101    104     1  180.0000771  2.0083200  2
     98     97    101    104     1  0.0000000  1.2552000  3
     98    107    111    113     1  180.0000771  0.0000000  2
     98    107    111    289     1  0.0000000  0.2928800  2
     98    107    111    289     1  0.0000000  0.4184000  4
    101     97     98    107     1  180.0000771  2.0083200  2
    101     97     98    107     1  0.0000000  1.2552000  3
    101    104    110    112     1  180.0000771  0.0000000  2
    101    104    110    264     1  0.0000000  0.2928800  2
    101    104    110    264     1  0.0000000  0.4184000  4
    104    110    264    244     1  180.0000771  6.2760000  1
    104    110    264    244     1  0.0000000  0.0000000  2
    107    111    289    269     1  180.0000771  6.2760000  1
    107    111    289    269     1  0.0000000  0.0000000  2
    110    264    244    241     1  0.0000000  2.2175200  1
    110    264    244    241     1  0.0000000  0.0000000  2
    110    264    244    241     1  180.0000771  0.6276000  3
    110    264    244    241     1  180.0000771  2.0920000  4
    111    289    269    266     1  0.0000000  2.2175200  1
    111    289    269    266     1  0.0000000  0.0000000  2
    111    289    269    266     1  180.0000771  0.6276000  3
    111    289    269    266     1  180.0000771  2.0920000  4
    112    110    264    244     1  180.0000771  10.4600000  2
    113    111    289    269     1  180.0000771  10.4600000  2
    116    122    123    132     1  180.0000771  2.0083200  2
    116    122    123    132     1  0.0000000  1.2552000  3
    116    122    126    129     1  180.0000771  2.0083200  2
    116    122    126    129     1  0.0000000  1.2552000  3
    119    116    122    123     1  180.0000771  2.0083200  2
    119    116    122    123     1  0.0000000  1.2552000  3
    119    116    122    126     1  180.0000771  2.0083200  2
    119    116    122    126     1  0.0000000  1.2552000  3
    122    116    119    139     1  0.0000000  0.6508444  3
    122    123    132    136     1  0.0000000  0.6508444  3
    122    126    129    135     1  0.0000000  0.6508444  3
    123    122    126    129     1  180.0000771  2.0083200  2
    123    122    126    129     1  0.0000000  1.2552000  3
    123    132    136    138     1  180.0000771  0.0000000  2
    123    132    136    339     1  0.0000000  0.2928800  2
    123    132    136    339     1  0.0000000  0.4184000  4
    126    122    123    132     1  180.0000771  2.0083200  2
    126    122    123    132     1  0.0000000  1.2552000  3
    126    129    135    137     1  180.0000771  0.0000000  2
    126    129    135    314     1  0.0000000  0.2928800  2
    126    129    135    314     1  0.0000000  0.4184000  4
    129    135    314    294     1  180.0000771  6.2760000  1
    129    135    314    294     1  0.0000000  0.0000000  2
    132    136    339    319     1  180.0000771  6.2760000  1
    132    136    339    319     1  0.0000000  0.0000000  2
    135    314    294    291     1  0.0000000  2.2175200  1
    135    314    294    291     1  0.0000000  0.0000000  2
    135    314    294    291     1  180.0000771  0.6276000  3
    135    314    294    291     1  180.0000771  2.0920000  4
    136    339    319    316     1  0.0000000  2.2175200  1
    136    339    319    316     1  0.0000000  0.0000000  2
    136    339    319    316     1  180.0000771  0.6276000  3
    136    339    319    316     1  180.0000771  2.0920000  4
    137    135    314    294     1  180.0000771  10.4600000  2
    138    136    339    319     1  180.0000771  10.4600000  2
    141    147    148    157     1  180.0000771  2.0083200  2
    141    147    148    157     1  0.0000000  1.2552000  3
    141    147    151    154     1  180.0000771  2.0083200  2
    141    147    151    154     1  0.0000000  1.2552000  3
    144    141    147    148     1  180.0000771  2.0083200  2
    144    141    147    148     1  0.0000000  1.2552000  3
    144    141    147    151     1  180.0000771  2.0083200  2
    144    141    147    151     1  0.0000000  1.2552000  3
    147    141    144    164     1  0.0000000  0.6508444  3
    147    148    157    161     1  0.0000000  0.6508444  3
    147    151    154    160     1  0.0000000  0.6508444  3
    148    147    151    154     1  180.0000771  2.0083200  2
    148    147    151    154     1  0.0000000  1.2552000  3
    148    157    161    163     1  180.0000771  0.0000000  2
    148    157    161    389     1  0.0000000  0.2928800  2
    148    157    161    389     1  0.0000000  0.4184000  4
    151    147    148    157     1  180.0000771  2.0083200  2
    151    147    148    157     1  0.0000000  1.2552000  3
    151    154    160    162     1  180.0000771  0.0000000  2
    151    154    160    364     1  0.0000000  0.2928800  2
    151    154    160    364     1  0.0000000  0.4184000  4
    154    160    364    344     1  180.0000771  6.2760000  1
    154    160    364    344     1  0.0000000  0.0000000  2
    157    161    389    369     1  180.0000771  6.2760000  1
    157    161    389    369     1  0.0000000  0.0000000  2
    160    364    344    341     1  0.0000000  2.2175200  1
    160    364    344    341     1  0.0000000  0.0000000  2
    160    364    344    341     1  180.0000771  0.6276000  3
    160    364    344    341     1  180.0000771  2.0920000  4
    161    389    369    366     1  0.0000000  2.2175200  1
    161    389    369    366     1  0.0000000  0.0000000  2
    161    389    369    366     1  180.0000771  0.6276000  3
    161    389    369    366     1  180.0000771  2.0920000  4
    162    160    364    344     1  180.0000771  10.4600000  2
    163    161    389    369     1  180.0000771  10.4600000  2
    166    172    173    182     1  180.0000771  2.0083200  2
    166    172    173    182     1  0.0000000  1.2552000  3
    166    172    176    179     1  180.0000771  2.0083200  2
    166    172    176    179     1  0.0000000  1.2552000  3
    169    166    172    173     1  180.0000771  2.0083200  2
    169    166    172    173     1  0.0000000  1.2552000  3
    169    166    172    176     1  180.0000771  2.0083200  2
    169    166    172    176     1  0.0000000  1.2552000  3
    172    166    169    189     1  0.0000000  0.6508444  3
    172    173    182    186     1  0.0000000  0.6508444  3
    172    176    179    185     1  0.0000000  0.6508444  3
    173    172    176    179     1  180.0000771  2.0083200  2
    173    172    176    179     1  0.0000000  1.2552000  3
    173    182    186    188     1  180.0000771  0.0000000  2
    173    182    186    439     1  0.0000000  0.2928800  2
    173    182    186    439     1  0.0000000  0.4184000  4
    176    172    173    182     1  180.0000771  2.0083200  2
    176    172    173    182     1  0.0000000  1.2552000  3
    176    179    185    187     1  180.0000771  0.0000000  2
    176    179    185    414     1  0.0000000  0.2928800  2
    176    179    185    414     1  0.0000000  0.4184000  4
    179    185    414    394     1  180.0000771  6.2760000  1
    179    185    414    394     1  0.0000000  0.0000000  2
    182    186    439    419     1  180.0000771  6.2760000  1
    182    186    439    419     1  0.0000000  0.0000000  2
    185    414    394    391     1  0.0000000  2.2175200  1
    185    414    394    391     1  0.0000000  0.0000000  2
    185    414    394    391     1  180.0000771  0.6276000  3
    185    414    394    391     1  180.0000771  2.0920000  4
    186    439    419    416     1  0.0000000  2.2175200  1
    186    439    419    416     1  0.0000000  0.0000000  2
    186    439    419    416     1  180.0000771  0.6276000  3
    186    439    419    416     1  180.0000771  2.0920000  4
    187    185    414    394     1  180.0000771  10.4600000  2
    188    186    439    419     1  180.0000771  10.4600000  2
    191    197    198    207     1  180.0000771  2.0083200  2
    191    197    198    207     1  0.0000000  1.2552000  3
    191    197    201    204     1  180.0000771  2.0083200  2
    191    197    201    204     1  0.0000000  1.2552000  3
    194    191    197    198     1  180.0000771  2.0083200  2
    194    191    197    198     1  0.0000000  1.2552000  3
    194    191    197    201     1  180.0000771  2.0083200  2
    194    191    197    201     1  0.0000000  1.2552000  3
    197    191    194    214     1  0.0000000  0.6508444  3
    197    198    207    211     1  0.0000000  0.6508444  3
    197    201    204    210     1  0.0000000  0.6508444  3
    198    197    201    204     1  180.0000771  2.0083200  2
    198    197    201    204     1  0.0000000  1.2552000  3
    198    207    211    213     1  180.0000771  0.0000000  2
    198    207    211    489     1  0.0000000  0.2928800  2
    198    207    211    489     1  0.0000000  0.4184000  4
    201    197    198    207     1  180.0000771  2.0083200  2
    201    197    198    207     1  0.0000000  1.2552000  3
    201    204    210    212     1  180.0000771  0.0000000  2
    201    204    210    464     1  0.0000000  0.2928800  2
    201    204    210    464     1  0.0000000  0.4184000  4
    204    210    464    444     1  180.0000771  6.2760000  1
    204    210    464    444     1  0.0000000  0.0000000  2
    207    211    489    469     1  180.0000771  6.2760000  1
    207    211    489    469     1  0.0000000  0.0000000  2
    210    464    444    441     1  0.0000000  2.2175200  1
    210    464    444    441     1  0.0000000  0.0000000  2
    210    464    444    441     1  180.0000771  0.6276000  3
    210    464    444    441     1  180.0000771  2.0920000  4
    211    489    469    466     1  0.0000000  2.2175200  1
    211    489    469    466     1  0.0000000  0.0000000  2
    211    489    469    466     1  180.0000771  0.6276000  3
    211    489    469    466     1  180.0000771  2.0920000  4
    212    210    464    444     1  180.0000771  10.4600000  2
    213    211    489    469     1  180.0000771  10.4600000  2
    216    222    223    232     1  180.0000771  2.0083200  2
    216    222    223    232     1  0.0000000  1.2552000  3
    216    222    226    229     1  180.0000771  2.0083200  2
    216    222    226    229     1  0.0000000  1.2552000  3
    219    216    222    223     1  180.0000771  2.0083200  2
    219    216    222    223     1  0.0000000  1.2552000  3
    219    216    222    226     1  180.0000771  2.0083200  2
    219    216    222    226     1  0.0000000  1.2552000  3
    222    216    219    239     1  0.0000000  0.6508444  3
    222    223    232    236     1  0.0000000  0.6508444  3
    222    226    229    235     1  0.0000000  0.6508444  3
    223    222    226    229     1  180.0000771  2.0083200  2
    223    222    226    229     1  0.0000000  1.2552000  3
    223    232    236    238     1  180.0000771  0.0000000  2
    223    232    236    539     1  0.0000000  0.2928800  2
    223    232    236    539     1  0.0000000  0.4184000  4
    226    222    223    232     1  180.0000771  2.0083200  2
    226    222    223    232     1  0.0000000  1.2552000  3
    226    229    235    237     1  180.0000771  0.0000000  2
    226    229    235    514     1  0.0000000  0.2928800  2
    226    229    235    514     1  0.0000000  0.4184000  4
    229    235    514    494     1  180.0000771  6.2760000  1
    229    235    514    494     1  0.0000000  0.0000000  2
    232    236    539    519     1  180.0000771  6.2760000  1
    232    236    539    519     1  0.0000000  0.0000000  2
    235    514    494    491     1  0.0000000  2.2175200  1
    235    514    494    491     1  0.0000000  0.0000000  2
    235    514    494    491     1  180.0000771  0.6276000  3
    235    514    494    491     1  180.0000771  2.0920000  4
    236    539    519    516     1  0.0000000  2.2175200  1
    236    539    519    516     1  0.0000000  0.0000000  2
    236    539    519    516     1  180.0000771  0.6276000  3
    236    539    519    516     1  180.0000771  2.0920000  4
    237    235    514    494     1  180.0000771  10.4600000  2
    238    236    539    519     1  180.0000771  10.4600000  2
    241    247    248    257     1  180.0000771  2.0083200  2
    241    247    248    257     1  0.0000000  1.2552000  3
    241    247    251    254     1  180.0000771  2.0083200  2
    241    247    251    254     1  0.0000000  1.2552000  3
    244    241    247    248     1  180.0000771  2.0083200  2
    244    241    247    248     1  0.0000000  1.2552000  3
    244    241    247    251     1  180.0000771  2.0083200  2
    244    241    247    251     1  0.0000000  1.2552000  3
    247    241    244    264     1  0.0000000  0.6508444  3
    247    248    257    261     1  0.0000000  0.6508444  3
    247    251    254    260     1  0.0000000  0.6508444  3
    248    247    251    254     1  180.0000771  2.0083200  2
    248    247    251    254     1  0.0000000  1.2552000  3
    248    257    261    263     1  180.0000771  0.0000000  2
    248    257    261    589     1  0.0000000  0.2928800  2
    248    257    261    589     1  0.0000000  0.4184000  4
    251    247    248    257     1  180.0000771  2.0083200  2
    251    247    248    257     1  0.0000000  1.2552000  3
    251    254    260    262     1  180.0000771  0.0000000  2
    251    254    260    564     1  0.0000000  0.2928800  2
    251    254    260    564     1  0.0000000  0.4184000  4
    254    260    564    544     1  180.0000771  6.2760000  1
    254    260    564    544     1  0.0000000  0.0000000  2
    257    261    589    569     1  180.0000771  6.2760000  1
    257    261    589    569     1  0.0000000  0.0000000  2
    260    564    544    541     1  0.0000000  2.2175200  1
    260    564    544    541     1  0.0000000  0.0000000  2
    260    564    544    541     1  180.0000771  0.6276000  3
    260    564    544    541     1  180.0000771  2.0920000  4
    261    589    569    566     1  0.0000000  2.2175200  1
    261    589    569    566     1  0.0000000  0.0000000  2
    261    589    569    566     1  180.0000771  0.6276000  3
    261    589    569    566     1  180.0000771  2.0920000  4
    262    260    564    544     1  180.0000771  10.4600000  2
    263    261    589    569     1  180.0000771  10.4600000  2
    266    272    273    282     1  180.0000771  2.0083200  2
    266    272    273    282     1  0.0000000  1.2552000  3
    266    272    276    279     1  180.0000771  2.0083200  2
    266    272    276    279     1  0.0000000  1.2552000  3
    269    266    272    273     1  180.0000771  2.0083200  2
    269    266    272    273     1  0.0000000  1.2552000  3
    269    266    272    276     1  180.0000771  2.0083200  2
    269    266    272    276     1  0.0000000  1.2552000  3
    272    266    269    289     1  0.0000000  0.6508444  3
    272    273    282    286     1  0.0000000  0.6508444  3
    272    276    279    285     1  0.0000000  0.6508444  3
    273    272    276    279     1  180.0000771  2.0083200  2
    273    272    276    279     1  0.0000000  1.2552000  3
    273    282    286    288     1  180.0000771  0.0000000  2
    273    282    286    639     1  0.0000000  0.2928800  2
    273    282    286    639     1  0.0000000  0.4184000  4
    276    272    273    282     1  180.0000771  2.0083200  2
    276    272    273    282     1  0.0000000  1.2552000  3
    276    279    285    287     1  180.0000771  0.0000000  2
    276    279    285    614     1  0.0000000  0.2928800  2
    276    279    285    614     1  0.0000000  0.4184000  4
    279    285    614    594     1  180.0000771  6.2760000  1
    279    285    614    594     1  0.0000000  0.0000000  2
    282    286    639    619     1  180.0000771  6.2760000  1
    282    286    639    619     1  0.0000000  0.0000000  2
    285    614    594    591     1  0.0000000  2.2175200  1
    285    614    594    591     1  0.0000000  0.0000000  2
    285    614    594    591     1  180.0000771  0.6276000  3
    285    614    594    591     1  180.0000771  2.0920000  4
    286    639    619    616     1  0.0000000  2.2175200  1
    286    639    619    616     1  0.0000000  0.0000000  2
    286    639    619    616     1  180.0000771  0.6276000  3
    286    639    619    616     1  180.0000771  2.0920000  4
    287    285    614    594     1  180.0000771  10.4600000  2
    288    286    639    619     1  180.0000771  10.4600000  2
    291    297    298    307     1  180.0000771  2.0083200  2
    291    297    298    307     1  0.0000000  1.2552000  3
    291    297    301    304     1  180.0000771  2.0083200  2
    291    297    301    304     1  0.0000000  1.2552000  3
    294    291    297    298     1  180.0000771  2.0083200  2
    294    291    297    298     1  0.0000000  1.2552000  3
    294    291    297    301     1  180.0000771  2.0083200  2
    294    291    297    301     1  0.0000000  1.2552000  3
    297    291    294    314     1  0.0000000  0.6508444  3
    297    298    307    311     1  0.0000000  0.6508444  3
    297    301    304    310     1  0.0000000  0.6508444  3
    298    297    301    304     1  180.0000771  2.0083200  2
    298    297    301    304     1  0.0000000  1.2552000  3
    298    307    311    313     1  180.0000771  0.0000000  2
    298    307    311    689     1  0.0000000  0.2928800  2
    298    307    311    689     1  0.0000000  0.4184000  4
    301    297    298    307     1  180.0000771  2.0083200  2
    301    297    298    307     1  0.0000000  1.2552000  3
    301    304    310    312     1  180.0000771  0.0000000  2
    301    304    310    664     1  0.0000000  0.2928800  2
    301    304    310    664     1  0.0000000  0.4184000  4
    304    310    664    644     1  180.0000771  6.2760000  1
    304    310    664    644     1  0.0000000  0.0000000  2
    307    311    689    669     1  180.0000771  6.2760000  1
    307    311    689    669     1  0.0000000  0.0000000  2
    310    664    644    641     1  0.0000000  2.2175200  1
    310    664    644    641     1  0.0000000  0.0000000  2
    310    664    644    641     1  180.0000771  0.6276000  3
    310    664    644    641     1  180.0000771  2.0920000  4
    311    689    669    666     1  0.0000000  2.2175200  1
    311    689    669    666     1  0.0000000  0.0000000  2
    311    689    669    666     1  180.0000771  0.6276000  3
    311    689    669    666     1  180.0000771  2.0920000  4
    312    310    664    644     1  180.0000771  10.4600000  2
    313    311    689    669     1  180.0000771  10.4600000  2
    316    322    323    332     1  180.0000771  2.0083200  2
    316    322    323    332     1  0.0000000  1.2552000  3
    316    322    326    329     1  180.0000771  2.0083200  2
    316    322    326    329     1  0.0000000  1.2552000  3
    319    316    322    323     1  180.0000771  2.0083200  2
    319    316    322    323     1  0.0000000  1.2552000  3
    319    316    322    326     1  180.0000771  2.0083200  2
    319    316    322    326     1  0.0000000  1.2552000  3
    322    316    319    339     1  0.0000000  0.6508444  3
    322    323    332    336     1  0.0000000  0.6508444  3
    322    326    329    335     1  0.0000000  0.6508444  3
    323    322    326    329     1  180.0000771  2.0083200  2
    323    322    326    329     1  0.0000000  1.2552000  3
    323    332    336    338     1  180.0000771  0.0000000  2
    323    332    336    739     1  0.0000000  0.2928800  2
    323    332    336    739     1  0.0000000  0.4184000  4
    326    322    323    332     1  180.0000771  2.0083200  2
    326    322    323    332     1  0.0000000  1.2552000  3
    326    329    335    337     1  180.0000771  0.0000000  2
    326    329    335    714     1  0.0000000  0.2928800  2
    326    329    335    714     1  0.0000000  0.4184000  4
    329    335    714    694     1  180.0000771  6.2760000  1
    329    335    714    694     1  0.0000000  0.0000000  2
    332    336    739    719     1  180.0000771  6.2760000  1
    332    336    739    719     1  0.0000000  0.0000000  2
    335    714    694    691     1  0.0000000  2.2175200  1
    335    714    694    691     1  0.0000000  0.0000000  2
    335    714    694    691     1  180.0000771  0.6276000  3
    335    714    694    691     1  180.0000771  2.0920000  4
    336    739    719    716     1  0.0000000  2.2175200  1
    336    739    719    716     1  0.0000000  0.0000000  2
    336    739    719    716     1  180.0000771  0.6276000  3
    336    739    719    716     1  180.0000771  2.0920000  4
    337    335    714    694     1  180.0000771  10.4600000  2
    338    336    739    719     1  180.0000771  10.4600000  2
    341    347    348    357     1  180.0000771  2.0083200  2
    341    347    348    357     1  0.0000000  1.2552000  3
    341    347    351    354     1  180.0000771  2.0083200  2
    341    347    351    354     1  0.0000000  1.2552000  3
    344    341    347    348     1  180.0000771  2.0083200  2
    344    341    347    348     1  0.0000000  1.2552000  3
    344    341    347    351     1  180.0000771  2.0083200  2
    344    341    347    351     1  0.0000000  1.2552000  3
    347    341    344    364     1  0.0000000  0.6508444  3
    347    348    357    361     1  0.0000000  0.6508444  3
    347    351    354    360     1  0.0000000  0.6508444  3
    348    347    351    354     1  180.0000771  2.0083200  2
    348    347    351    354     1  0.0000000  1.2552000  3
    348    357    361    363     1  180.0000771  0.0000000  2
    348    357    361    789     1  0.0000000  0.2928800  2
    348    357    361    789     1  0.0000000  0.4184000  4
    351    347    348    357     1  180.0000771  2.0083200  2
    351    347    348    357     1  0.0000000  1.2552000  3
    351    354    360    362     1  180.0000771  0.0000000  2
    351    354    360    764     1  0.0000000  0.2928800  2
    351    354    360    764     1  0.0000000  0.4184000  4
    354    360    764    744     1  180.0000771  6.2760000  1
    354    360    764    744     1  0.0000000  0.0000000  2
    357    361    789    769     1  180.0000771  6.2760000  1
    357    361    789    769     1  0.0000000  0.0000000  2
    360    764    744    741     1  0.0000000  2.2175200  1
    360    764    744    741     1  0.0000000  0.0000000  2
    360    764    744    741     1  180.0000771  0.6276000  3
    360    764    744    741     1  180.0000771  2.0920000  4
    361    789    769    766     1  0.0000000  2.2175200  1
    361    789    769    766     1  0.0000000  0.0000000  2
    361    789    769    766     1  180.0000771  0.6276000  3
    361    789    769    766     1  180.0000771  2.0920000  4
    362    360    764    744     1  180.0000771  10.4600000  2
    363    361    789    769     1  180.0000771  10.4600000  2
    366    372    373    382     1  180.0000771  2.0083200  2
    366    372    373    382     1  0.0000000  1.2552000  3
    366    372    376    379     1  180.0000771  2.0083200  2
    366    372    376    379     1  0.0000000  1.2552000  3
    369    366    372    373     1  180.0000771  2.0083200  2
    369    366    372    373     1  0.0000000  1.2552000  3
    369    366    372    376     1  180.0000771  2.0083200  2
    369    366    372    376     1  0.0000000  1.2552000  3
    372    366    369    389     1  0.0000000  0.6508444  3
    372    373    382    386     1  0.0000000  0.6508444  3
    372    376    379    385     1  0.0000000  0.6508444  3
    373    372    376    379     1  180.0000771  2.0083200  2
    373    372    376    379     1  0.0000000  1.2552000  3
    373    382    386    388     1  180.0000771  0.0000000  2
    373    382    386    839     1  0.0000000  0.2928800  2
    373    382    386    839     1  0.0000000  0.4184000  4
    376    372    373    382     1  180.0000771  2.0083200  2
    376    372    373    382     1  0.0000000  1.2552000  3
    376    379    385    387     1  180.0000771  0.0000000  2
    376    379    385    814     1  0.0000000  0.2928800  2
    376    379    385    814     1  0.0000000  0.4184000  4
    379    385    814    794     1  180.0000771  6.2760000  1
    379    385    814    794     1  0.0000000  0.0000000  2
    382    386    839    819     1  180.0000771  6.2760000  1
    382    386    839    819     1  0.0000000  0.0000000  2
    385    814    794    791     1  0.0000000  2.2175200  1
    385    814    794    791     1  0.0000000  0.0000000  2
    385    814    794    791     1  180.0000771  0.6276000  3
    385    814    794    791     1  180.0000771  2.0920000  4
    386    839    819    816     1  0.0000000  2.2175200  1
    386    839    819    816     1  0.0000000  0.0000000  2
    386    839    819    816     1  180.0000771  0.6276000  3
    386    839    819    816     1  180.0000771  2.0920000  4
    387    385    814    794     1  180.0000771  10.4600000  2
    388    386    839    819     1  180.0000771  10.4600000  2
    391    397    398    407     1  180.0000771  2.0083200  2
    391    397    398    407     1  0.0000000  1.2552000  3
    391    397    401    404     1  180.0000771  2.0083200  2
    391    397    401    404     1  0.0000000  1.2552000  3
    394    391    397    398     1  180.0000771  2.0083200  2
    394    391    397    398     1  0.0000000  1.2552000  3
    394    391    397    401     1  180.0000771  2.0083200  2
    394    391    397    401     1  0.0000000  1.2552000  3
    397    391    394    414     1  0.0000000  0.6508444  3
    397    398    407    411     1  0.0000000  0.6508444  3
    397    401    404    410     1  0.0000000  0.6508444  3
    398    397    401    404     1  180.0000771  2.0083200  2
    398    397    401    404     1  0.0000000  1.2552000  3
    398    407    411    413     1  180.0000771  0.0000000  2
    398    407    411    889     1  0.0000000  0.2928800  2
    398    407    411    889     1  0.0000000  0.4184000  4
    401    397    398    407     1  180.0000771  2.0083200  2
    401    397    398    407     1  0.0000000  1.2552000  3
    401    404    410    412     1  180.0000771  0.0000000  2
    401    404    410    864     1  0.0000000  0.2928800  2
    401    404    410    864     1  0.0000000  0.4184000  4
    404    410    864    844     1  180.0000771  6.2760000  1
    404    410    864    844     1  0.0000000  0.0000000  2
    407    411    889    869     1  180.0000771  6.2760000  1
    407    411    889    869     1  0.0000000  0.0000000  2
    410    864    844    841     1  0.0000000  2.2175200  1
    410    864    844    841     1  0.0000000  0.0000000  2
    410    864    844    841     1  180.0000771  0.6276000  3
    410    864    844    841     1  180.0000771  2.0920000  4
    411    889    869    866     1  0.0000000  2.2175200  1
    411    889    869    866     1  0.0000000  0.0000000  2
    411    889    869    866     1  180.0000771  0.6276000  3
    411    889    869    866     1  180.0000771  2.0920000  4
    412    410    864    844     1  180.0000771  10.4600000  2
    413    411    889    869     1  180.0000771  10.4600000  2
    416    422    423    432     1  180.0000771  2.0083200  2
    416    422    423    432     1  0.0000000  1.2552000  3
    416    422    426    429     1  180.0000771  2.0083200  2
    416    422    426    429     1  0.0000000  1.2552000  3
    419    416    422    423     1  180.0000771  2.0083200  2
    419    416    422    423     1  0.0000000  1.2552000  3
    419    416    422    426     1  180.0000771  2.0083200  2
    419    416    422    426     1  0.0000000  1.2552000  3
    422    416    419    439     1  0.0000000  0.6508444  3
    422    423    432    436     1  0.0000000  0.6508444  3
    422    426    429    435     1  0.0000000  0.6508444  3
    423    422    426    429     1  180.0000771  2.0083200  2
    423    422    426    429     1  0.0000000  1.2552000  3
    423    432    436    438     1  180.0000771  0.0000000  2
    423    432    436    939     1  0.0000000  0.2928800  2
    423    432    436    939     1  0.0000000  0.4184000  4
    426    422    423    432     1  180.0000771  2.0083200  2
    426    422    423    432     1  0.0000000  1.2552000  3
    426    429    435    437     1  180.0000771  0.0000000  2
    426    429    435    914     1  0.0000000  0.2928800  2
    426    429    435    914     1  0.0000000  0.4184000  4
    429    435    914    894     1  180.0000771  6.2760000  1
    429    435    914    894     1  0.0000000  0.0000000  2
    432    436    939    919     1  180.0000771  6.2760000  1
    432    436    939    919     1  0.0000000  0.0000000  2
    435    914    894    891     1  0.0000000  2.2175200  1
    435    914    894    891     1  0.0000000  0.0000000  2
    435    914    894    891     1  180.0000771  0.6276000  3
    435    914    894    891     1  180.0000771  2.0920000  4
    436    939    919    916     1  0.0000000  2.2175200  1
    436    939    919    916     1  0.0000000  0.0000000  2
    436    939    919    916     1  180.0000771  0.6276000  3
    436    939    919    916     1  180.0000771  2.0920000  4
    437    435    914    894     1  180.0000771  10.4600000  2
    438    436    939    919     1  180.0000771  10.4600000  2
    441    447    448    457     1  180.0000771  2.0083200  2
    441    447    448    457     1  0.0000000  1.2552000  3
    441    447    451    454     1  180.0000771  2.0083200  2
    441    447    451    454     1  0.0000000  1.2552000  3
    444    441    447    448     1  180.0000771  2.0083200  2
    444    441    447    448     1  0.0000000  1.2552000  3
    444    441    447    451     1  180.0000771  2.0083200  2
    444    441    447    451     1  0.0000000  1.2552000  3
    447    441    444    464     1  0.0000000  0.6508444  3
    447    448    457    461     1  0.0000000  0.6508444  3
    447    451    454    460     1  0.0000000  0.6508444  3
    448    447    451    454     1  180.0000771  2.0083200  2
    448    447    451    454     1  0.0000000  1.2552000  3
    448    457    461    463     1  180.0000771  0.0000000  2
    448    457    461    989     1  0.0000000  0.2928800  2
    448    457    461    989     1  0.0000000  0.4184000  4
    451    447    448    457     1  180.0000771  2.0083200  2
    451    447    448    457     1  0.0000000  1.2552000  3
    451    454    460    462     1  180.0000771  0.0000000  2
    451    454    460    964     1  0.0000000  0.2928800  2
    451    454    460    964     1  0.0000000  0.4184000  4
    454    460    964    944     1  180.0000771  6.2760000  1
    454    460    964    944     1  0.0000000  0.0000000  2
    457    461    989    969     1  180.0000771  6.2760000  1
    457    461    989    969     1  0.0000000  0.0000000  2
    460    964    944    941     1  0.0000000  2.2175200  1
    460    964    944    941     1  0.0000000  0.0000000  2
    460    964    944    941     1  180.0000771  0.6276000  3
    460    964    944    941     1  180.0000771  2.0920000  4
    461    989    969    966     1  0.0000000  2.2175200  1
    461    989    969    966     1  0.0000000  0.0000000  2
    461    989    969    966     1  180.0000771  0.6276000  3
    461    989    969    966     1  180.0000771  2.0920000  4
    462    460    964    944     1  180.0000771  10.4600000  2
    463    461    989    969     1  180.0000771  10.4600000  2
    466    472    473    482     1  180.0000771  2.0083200  2
    466    472    473    482     1  0.0000000  1.2552000  3
    466    472    476    479     1  180.0000771  2.0083200  2
    466    472    476    479     1  0.0000000  1.2552000  3
    469    466    472    473     1  180.0000771  2.0083200  2
    469    466    472    473     1  0.0000000  1.2552000  3
    469    466    472    476     1  180.0000771  2.0083200  2
    469    466    472    476     1  0.0000000  1.2552000  3
    472    466    469    489     1  0.0000000  0.6508444  3
    472    473    482    486     1  0.0000000  0.6508444  3
    472    476    479    485     1  0.0000000  0.6508444  3
    473    472    476    479     1  180.0000771  2.0083200  2
    473    472    476    479     1  0.0000000  1.2552000  3
    473    482    486    488     1  180.0000771  0.0000000  2
    473    482    486   1039     1  0.0000000  0.2928800  2
    473    482    486   1039     1  0.0000000  0.4184000  4
    476    472    473    482     1  180.0000771  2.0083200  2
    476    472    473    482     1  0.0000000  1.2552000  3
    476    479    485    487     1  180.0000771  0.0000000  2
    476    479    485   1014     1  0.0000000  0.2928800  2
    476    479    485   1014     1  0.0000000  0.4184000  4
    479    485   1014    994     1  180.0000771  6.2760000  1
    479    485   1014    994     1  0.0000000  0.0000000  2
    482    486   1039   1019     1  180.0000771  6.2760000  1
    482    486   1039   1019     1  0.0000000  0.0000000  2
    485   1014    994    991     1  0.0000000  2.2175200  1
    485   1014    994    991     1  0.0000000  0.0000000  2
    485   1014    994    991     1  180.0000771  0.6276000  3
    485   1014    994    991     1  180.0000771  2.0920000  4
    486   1039   1019   1016     1  0.0000000  2.2175200  1
    486   1039   1019   1016     1  0.0000000  0.0000000  2
    486   1039   1019   1016     1  180.0000771  0.6276000  3
    486   1039   1019   1016     1  180.0000771  2.0920000  4
    487    485   1014    994     1  180.0000771  10.4600000  2
    488    486   1039   1019     1  180.0000771  10.4600000  2
    491    497    498    507     1  180.0000771  2.0083200  2
    491    497    498    507     1  0.0000000  1.2552000  3
    491    497    501    504     1  180.0000771  2.0083200  2
    491    497    501    504     1  0.0000000  1.2552000  3
    494    491    497    498     1  180.0000771  2.0083200  2
    494    491    497    498     1  0.0000000  1.2552000  3
    494    491    497    501     1  180.0000771  2.0083200  2
    494    491    497    501     1  0.0000000  1.2552000  3
    497    491    494    514     1  0.0000000  0.6508444  3
    497    498    507    511     1  0.0000000  0.6508444  3
    497    501    504    510     1  0.0000000  0.6508444  3
    498    497    501    504     1  180.0000771  2.0083200  2
    498    497    501    504     1  0.0000000  1.2552000  3
    498    507    511    513     1  180.0000771  0.0000000  2
    498    507    511   1089     1  0.0000000  0.2928800  2
    498    507    511   1089     1  0.0000000  0.4184000  4
    501    497    498    507     1  180.0000771  2.0083200  2
    501    497    498    507     1  0.0000000  1.2552000  3
    501    504    510    512     1  180.0000771  0.0000000  2
    501    504    510   1064     1  0.0000000  0.2928800  2
    501    504    510   1064     1  0.0000000  0.4184000  4
    504    510   1064   1044     1  180.0000771  6.2760000  1
    504    510   1064   1044     1  0.0000000  0.0000000  2
    507    511   1089   1069     1  180.0000771  6.2760000  1
    507    511   1089   1069     1  0.0000000  0.0000000  2
    510   1064   1044   1041     1  0.0000000  2.2175200  1
    510   1064   1044   1041     1  0.0000000  0.0000000  2
    510   1064   1044   1041     1  180.0000771  0.6276000  3
    510   1064   1044   1041     1  180.0000771  2.0920000  4
    511   1089   1069   1066     1  0.0000000  2.2175200  1
    511   1089   1069   1066     1  0.0000000  0.0000000  2
    511   1089   1069   1066     1  180.0000771  0.6276000  3
    511   1089   1069   1066     1  180.0000771  2.0920000  4
    512    510   1064   1044     1  180.0000771  10.4600000  2
    513    511   1089   1069     1  180.0000771  10.4600000  2
    516    522    523    532     1  180.0000771  2.0083200  2
    516    522    523    532     1  0.0000000  1.2552000  3
    516    522    526    529     1  180.0000771  2.0083200  2
    516    522    526    529     1  0.0000000  1.2552000  3
    519    516    522    523     1  180.0000771  2.0083200  2
    519    516    522    523     1  0.0000000  1.2552000  3
    519    516    522    526     1  180.0000771  2.0083200  2
    519    516    522    526     1  0.0000000  1.2552000  3
    522    516    519    539     1  0.0000000  0.6508444  3
    522    523    532    536     1  0.0000000  0.6508444  3
    522    526    529    535     1  0.0000000  0.6508444  3
    523    522    526    529     1  180.0000771  2.0083200  2
    523    522    526    529     1  0.0000000  1.2552000  3
    523    532    536    538     1  180.0000771  0.0000000  2
    523    532    536   1139     1  0.0000000  0.2928800  2
    523    532    536   1139     1  0.0000000  0.4184000  4
    526    522    523    532     1  180.0000771  2.0083200  2
    526    522    523    532     1  0.0000000  1.2552000  3
    526    529    535    537     1  180.0000771  0.0000000  2
    526    529    535   1114     1  0.0000000  0.2928800  2
    526    529    535   1114     1  0.0000000  0.4184000  4
    529    535   1114   1094     1  180.0000771  6.2760000  1
    529    535   1114   1094     1  0.0000000  0.0000000  2
    532    536   1139   1119     1  180.0000771  6.2760000  1
    532    536   1139   1119     1  0.0000000  0.0000000  2
    535   1114   1094   1091     1  0.0000000  2.2175200  1
    535   1114   1094   1091     1  0.0000000  0.0000000  2
    535   1114   1094   1091     1  180.0000771  0.6276000  3
    535   1114   1094   1091     1  180.0000771  2.0920000  4
    536   1139   1119   1116     1  0.0000000  2.2175200  1
    536   1139   1119   1116     1  0.0000000  0.0000000  2
    536   1139   1119   1116     1  180.0000771  0.6276000  3
    536   1139   1119   1116     1  180.0000771  2.0920000  4
    537    535   1114   1094     1  180.0000771  10.4600000  2
    538    536   1139   1119     1  180.0000771  10.4600000  2
    541    547    548    557     1  180.0000771  2.0083200  2
    541    547    548    557     1  0.0000000  1.2552000  3
    541    547    551    554     1  180.0000771  2.0083200  2
    541    547    551    554     1  0.0000000  1.2552000  3
    544    541    547    548     1  180.0000771  2.0083200  2
    544    541    547    548     1  0.0000000  1.2552000  3
    544    541    547    551     1  180.0000771  2.0083200  2
    544    541    547    551     1  0.0000000  1.2552000  3
    547    541    544    564     1  0.0000000  0.6508444  3
    547    548    557    561     1  0.0000000  0.6508444  3
    547    551    554    560     1  0.0000000  0.6508444  3
    548    547    551    554     1  180.0000771  2.0083200  2
    548    547    551    554     1  0.0000000  1.2552000  3
    548    557    561    563     1  180.0000771  0.0000000  2
    548    557    561   1189     1  0.0000000  0.2928800  2
    548    557    561   1189     1  0.0000000  0.4184000  4
    551    547    548    557     1  180.0000771  2.0083200  2
    551    547    548    557     1  0.0000000  1.2552000  3
    551    554    560    562     1  180.0000771  0.0000000  2
    551    554    560   1164     1  0.0000000  0.2928800  2
    551    554    560   1164     1  0.0000000  0.4184000  4
    554    560   1164   1144     1  180.0000771  6.2760000  1
    554    560   1164   1144     1  0.0000000  0.0000000  2
    557    561   1189   1169     1  180.0000771  6.2760000  1
    557    561   1189   1169     1  0.0000000  0.0000000  2
    560   1164   1144   1141     1  0.0000000  2.2175200  1
    560   1164   1144   1141     1  0.0000000  0.0000000  2
    560   1164   1144   1141     1  180.0000771  0.6276000  3
    560   1164   1144   1141     1  180.0000771  2.0920000  4
    561   1189   1169   1166     1  0.0000000  2.2175200  1
    561   1189   1169   1166     1  0.0000000  0.0000000  2
    561   1189   1169   1166     1  180.0000771  0.6276000  3
    561   1189   1169   1166     1  180.0000771  2.0920000  4
    562    560   1164   1144     1  180.0000771  10.4600000  2
    563    561   1189   1169     1  180.0000771  10.4600000  2
    566    572    573    582     1  180.0000771  2.0083200  2
    566    572    573    582     1  0.0000000  1.2552000  3
    566    572    576    579     1  180.0000771  2.0083200  2
    566    572    576    579     1  0.0000000  1.2552000  3
    569    566    572    573     1  180.0000771  2.0083200  2
    569    566    572    573     1  0.0000000  1.2552000  3
    569    566    572    576     1  180.0000771  2.0083200  2
    569    566    572    576     1  0.0000000  1.2552000  3
    572    566    569    589     1  0.0000000  0.6508444  3
    572    573    582    586     1  0.0000000  0.6508444  3
    572    576    579    585     1  0.0000000  0.6508444  3
    573    572    576    579     1  180.0000771  2.0083200  2
    573    572    576    579     1  0.0000000  1.2552000  3
    573    582    586    588     1  180.0000771  0.0000000  2
    573    582    586   1239     1  0.0000000  0.2928800  2
    573    582    586   1239     1  0.0000000  0.4184000  4
    576    572    573    582     1  180.0000771  2.0083200  2
    576    572    573    582     1  0.0000000  1.2552000  3
    576    579    585    587     1  180.0000771  0.0000000  2
    576    579    585   1214     1  0.0000000  0.2928800  2
    576    579    585   1214     1  0.0000000  0.4184000  4
    579    585   1214   1194     1  180.0000771  6.2760000  1
    579    585   1214   1194     1  0.0000000  0.0000000  2
    582    586   1239   1219     1  180.0000771  6.2760000  1
    582    586   1239   1219     1  0.0000000  0.0000000  2
    585   1214   1194   1191     1  0.0000000  2.2175200  1
    585   1214   1194   1191     1  0.0000000  0.0000000  2
    585   1214   1194   1191     1  180.0000771  0.6276000  3
    585   1214   1194   1191     1  180.0000771  2.0920000  4
    586   1239   1219   1216     1  0.0000000  2.2175200  1
    586   1239   1219   1216     1  0.0000000  0.0000000  2
    586   1239   1219   1216     1  180.0000771  0.6276000  3
    586   1239   1219   1216     1  180.0000771  2.0920000  4
    587    585   1214   1194     1  180.0000771  10.4600000  2
    588    586   1239   1219     1  180.0000771  10.4600000  2
    591    597    598    607     1  180.0000771  2.0083200  2
    591    597    598    607     1  0.0000000  1.2552000  3
    591    597    601    604     1  180.0000771  2.0083200  2
    591    597    601    604     1  0.0000000  1.2552000  3
    594    591    597    598     1  180.0000771  2.0083200  2
    594    591    597    598     1  0.0000000  1.2552000  3
    594    591    597    601     1  180.0000771  2.0083200  2
    594    591    597    601     1  0.0000000  1.2552000  3
    597    591    594    614     1  0.0000000  0.6508444  3
    597    598    607    611     1  0.0000000  0.6508444  3
    597    601    604    610     1  0.0000000  0.6508444  3
    598    597    601    604     1  180.0000771  2.0083200  2
    598    597    601    604     1  0.0000000  1.2552000  3
    598    607    611    613     1  180.0000771  0.0000000  2
    598    607    611   1289     1  0.0000000  0.2928800  2
    598    607    611   1289     1  0.0000000  0.4184000  4
    601    597    598    607     1  180.0000771  2.0083200  2
    601    597    598    607     1  0.0000000  1.2552000  3
    601    604    610    612     1  180.0000771  0.0000000  2
    601    604    610   1264     1  0.0000000  0.2928800  2
    601    604    610   1264     1  0.0000000  0.4184000  4
    604    610   1264   1244     1  180.0000771  6.2760000  1
    604    610   1264   1244     1  0.0000000  0.0000000  2
    607    611   1289   1269     1  180.0000771  6.2760000  1
    607    611   1289   1269     1  0.0000000  0.0000000  2
    610   1264   1244   1241     1  0.0000000  2.2175200  1
    610   1264   1244   1241     1  0.0000000  0.0000000  2
    610   1264   1244   1241     1  180.0000771  0.6276000  3
    610   1264   1244   1241     1  180.0000771  2.0920000  4
    611   1289   1269   1266     1  0.0000000  2.2175200  1
    611   1289   1269   1266     1  0.0000000  0.0000000  2
    611   1289   1269   1266     1  180.0000771  0.6276000  3
    611   1289   1269   1266     1  180.0000771  2.0920000  4
    612    610   1264   1244     1  180.0000771  10.4600000  2
    613    611   1289   1269     1  180.0000771  10.4600000  2
    616    622    623    632     1  180.0000771  2.0083200  2
    616    622    623    632     1  0.0000000  1.2552000  3
    616    622    626    629     1  180.0000771  2.0083200  2
    616    622    626    629     1  0.0000000  1.2552000  3
    619    616    622    623     1  180.0000771  2.0083200  2
    619    616    622    623     1  0.0000000  1.2552000  3
    619    616    622    626     1  180.0000771  2.0083200  2
    619    616    622    626     1  0.0000000  1.2552000  3
    622    616    619    639     1  0.0000000  0.6508444  3
    622    623    632    636     1  0.0000000  0.6508444  3
    622    626    629    635     1  0.0000000  0.6508444  3
    623    622    626    629     1  180.0000771  2.0083200  2
    623    622    626    629     1  0.0000000  1.2552000  3
    623    632    636    638     1  180.0000771  0.0000000  2
    623    632    636   1339     1  0.0000000  0.2928800  2
    623    632    636   1339     1  0.0000000  0.4184000  4
    626    622    623    632     1  180.0000771  2.0083200  2
    626    622    623    632     1  0.0000000  1.2552000  3
    626    629    635    637     1  180.0000771  0.0000000  2
    626    629    635   1314     1  0.0000000  0.2928800  2
    626    629    635   1314     1  0.0000000  0.4184000  4
    629    635   1314   1294     1  180.0000771  6.2760000  1
    629    635   1314   1294     1  0.0000000  0.0000000  2
    632    636   1339   1319     1  180.0000771  6.2760000  1
    632    636   1339   1319     1  0.0000000  0.0000000  2
    635   1314   1294   1291     1  0.0000000  2.2175200  1
    635   1314   1294   1291     1  0.0000000  0.0000000  2
    635   1314   1294   1291     1  180.0000771  0.6276000  3
    635   1314   1294   1291     1  180.0000771  2.0920000  4
    636   1339   1319   1316     1  0.0000000  2.2175200  1
    636   1339   1319   1316     1  0.0000000  0.0000000  2
    636   1339   1319   1316     1  180.0000771  0.6276000  3
    636   1339   1319   1316     1  180.0000771  2.0920000  4
    637    635   1314   1294     1  180.0000771  10.4600000  2
    638    636   1339   1319     1  180.0000771  10.4600000  2
    641    647    648    657     1  180.0000771  2.0083200  2
    641    647    648    657     1  0.0000000  1.2552000  3
    641    647    651    654     1  180.0000771  2.0083200  2
    641    647    651    654     1  0.0000000  1.2552000  3
    644    641    647    648     1  180.0000771  2.0083200  2
    644    641    647    648     1  0.0000000  1.2552000  3
    644    641    647    651     1  180.0000771  2.0083200  2
    644    641    647    651     1  0.0000000  1.2552000  3
    647    641    644    664     1  0.0000000  0.6508444  3
    647    648    657    661     1  0.0000000  0.6508444  3
    647    651    654    660     1  0.0000000  0.6508444  3
    648    647    651    654     1  180.0000771  2.0083200  2
    648    647    651    654     1  0.0000000  1.2552000  3
    648    657    661    663     1  180.0000771  0.0000000  2
    648    657    661   1389     1  0.0000000  0.2928800  2
    648    657    661   1389     1  0.0000000  0.4184000  4
    651    647    648    657     1  180.0000771  2.0083200  2
    651    647    648    657     1  0.0000000  1.2552000  3
    651    654    660    662     1  180.0000771  0.0000000  2
    651    654    660   1364     1  0.0000000  0.2928800  2
    651    654    660   1364     1  0.0000000  0.4184000  4
    654    660   1364   1344     1  180.0000771  6.2760000  1
    654    660   1364   1344     1  0.0000000  0.0000000  2
    657    661   1389   1369     1  180.0000771  6.2760000  1
    657    661   1389   1369     1  0.0000000  0.0000000  2
    660   1364   1344   1341     1  0.0000000  2.2175200  1
    660   1364   1344   1341     1  0.0000000  0.0000000  2
    660   1364   1344   1341     1  180.0000771  0.6276000  3
    660   1364   1344   1341     1  180.0000771  2.0920000  4
    661   1389   1369   1366     1  0.0000000  2.2175200  1
    661   1389   1369   1366     1  0.0000000  0.0000000  2
    661   1389   1369   1366     1  180.0000771  0.6276000  3
    661   1389   1369   1366     1  180.0000771  2.0920000  4
    662    660   1364   1344     1  180.0000771  10.4600000  2
    663    661   1389   1369     1  180.0000771  10.4600000  2
    666    672    673    682     1  180.0000771  2.0083200  2
    666    672    673    682     1  0.0000000  1.2552000  3
    666    672    676    679     1  180.0000771  2.0083200  2
    666    672    676    679     1  0.0000000  1.2552000  3
    669    666    672    673     1  180.0000771  2.0083200  2
    669    666    672    673     1  0.0000000  1.2552000  3
    669    666    672    676     1  180.0000771  2.0083200  2
    669    666    672    676     1  0.0000000  1.2552000  3
    672    666    669    689     1  0.0000000  0.6508444  3
    672    673    682    686     1  0.0000000  0.6508444  3
    672    676    679    685     1  0.0000000  0.6508444  3
    673    672    676    679     1  180.0000771  2.0083200  2
    673    672    676    679     1  0.0000000  1.2552000  3
    673    682    686    688     1  180.0000771  0.0000000  2
    673    682    686   1439     1  0.0000000  0.2928800  2
    673    682    686   1439     1  0.0000000  0.4184000  4
    676    672    673    682     1  180.0000771  2.0083200  2
    676    672    673    682     1  0.0000000  1.2552000  3
    676    679    685    687     1  180.0000771  0.0000000  2
    676    679    685   1414     1  0.0000000  0.2928800  2
    676    679    685   1414     1  0.0000000  0.4184000  4
    679    685   1414   1394     1  180.0000771  6.2760000  1
    679    685   1414   1394     1  0.0000000  0.0000000  2
    682    686   1439   1419     1  180.0000771  6.2760000  1
    682    686   1439   1419     1  0.0000000  0.0000000  2
    685   1414   1394   1391     1  0.0000000  2.2175200  1
    685   1414   1394   1391     1  0.0000000  0.0000000  2
    685   1414   1394   1391     1  180.0000771  0.6276000  3
    685   1414   1394   1391     1  180.0000771  2.0920000  4
    686   1439   1419   1416     1  0.0000000  2.2175200  1
    686   1439   1419   1416     1  0.0000000  0.0000000  2
    686   1439   1419   1416     1  180.0000771  0.6276000  3
    686   1439   1419   1416     1  180.0000771  2.0920000  4
    687    685   1414   1394     1  180.0000771  10.4600000  2
    688    686   1439   1419     1  180.0000771  10.4600000  2
    691    697    698    707     1  180.0000771  2.0083200  2
    691    697    698    707     1  0.0000000  1.2552000  3
    691    697    701    704     1  180.0000771  2.0083200  2
    691    697    701    704     1  0.0000000  1.2552000  3
    694    691    697    698     1  180.0000771  2.0083200  2
    694    691    697    698     1  0.0000000  1.2552000  3
    694    691    697    701     1  180.0000771  2.0083200  2
    694    691    697    701     1  0.0000000  1.2552000  3
    697    691    694    714     1  0.0000000  0.6508444  3
    697    698    707    711     1  0.0000000  0.6508444  3
    697    701    704    710     1  0.0000000  0.6508444  3
    698    697    701    704     1  180.0000771  2.0083200  2
    698    697    701    704     1  0.0000000  1.2552000  3
    698    707    711    713     1  180.0000771  0.0000000  2
    698    707    711   1489     1  0.0000000  0.2928800  2
    698    707    711   1489     1  0.0000000  0.4184000  4
    701    697    698    707     1  180.0000771  2.0083200  2
    701    697    698    707     1  0.0000000  1.2552000  3
    701    704    710    712     1  180.0000771  0.0000000  2
    701    704    710   1464     1  0.0000000  0.2928800  2
    701    704    710   1464     1  0.0000000  0.4184000  4
    704    710   1464   1444     1  180.0000771  6.2760000  1
    704    710   1464   1444     1  0.0000000  0.0000000  2
    707    711   1489   1469     1  180.0000771  6.2760000  1
    707    711   1489   1469     1  0.0000000  0.0000000  2
    710   1464   1444   1441     1  0.0000000  2.2175200  1
    710   1464   1444   1441     1  0.0000000  0.0000000  2
    710   1464   1444   1441     1  180.0000771  0.6276000  3
    710   1464   1444   1441     1  180.0000771  2.0920000  4
    711   1489   1469   1466     1  0.0000000  2.2175200  1
    711   1489   1469   1466     1  0.0000000  0.0000000  2
    711   1489   1469   1466     1  180.0000771  0.6276000  3
    711   1489   1469   1466     1  180.0000771  2.0920000  4
    712    710   1464   1444     1  180.0000771  10.4600000  2
    713    711   1489   1469     1  180.0000771  10.4600000  2
    716    722    723    732     1  180.0000771  2.0083200  2
    716    722    723    732     1  0.0000000  1.2552000  3
    716    722    726    729     1  180.0000771  2.0083200  2
    716    722    726    729     1  0.0000000  1.2552000  3
    719    716    722    723     1  180.0000771  2.0083200  2
    719    716    722    723     1  0.0000000  1.2552000  3
    719    716    722    726     1  180.0000771  2.0083200  2
    719    716    722    726     1  0.0000000  1.2552000  3
    722    716    719    739     1  0.0000000  0.6508444  3
    722    723    732    736     1  0.0000000  0.6508444  3
    722    726    729    735     1  0.0000000  0.6508444  3
    723    722    726    729     1  180.0000771  2.0083200  2
    723    722    726    729     1  0.0000000  1.2552000  3
    723    732    736    738     1  180.0000771  0.0000000  2
    723    732    736   1539     1  0.0000000  0.2928800  2
    723    732    736   1539     1  0.0000000  0.4184000  4
    726    722    723    732     1  180.0000771  2.0083200  2
    726    722    723    732     1  0.0000000  1.2552000  3
    726    729    735    737     1  180.0000771  0.0000000  2
    726    729    735   1514     1  0.0000000  0.2928800  2
    726    729    735   1514     1  0.0000000  0.4184000  4
    729    735   1514   1494     1  180.0000771  6.2760000  1
    729    735   1514   1494     1  0.0000000  0.0000000  2
    732    736   1539   1519     1  180.0000771  6.2760000  1
    732    736   1539   1519     1  0.0000000  0.0000000  2
    735   1514   1494   1491     1  0.0000000  2.2175200  1
    735   1514   1494   1491     1  0.0000000  0.0000000  2
    735   1514   1494   1491     1  180.0000771  0.6276000  3
    735   1514   1494   1491     1  180.0000771  2.0920000  4
    736   1539   1519   1516     1  0.0000000  2.2175200  1
    736   1539   1519   1516     1  0.0000000  0.0000000  2
    736   1539   1519   1516     1  180.0000771  0.6276000  3
    736   1539   1519   1516     1  180.0000771  2.0920000  4
    737    735   1514   1494     1  180.0000771  10.4600000  2
    738    736   1539   1519     1  180.0000771  10.4600000  2
    741    747    748    757     1  180.0000771  2.0083200  2
    741    747    748    757     1  0.0000000  1.2552000  3
    741    747    751    754     1  180.0000771  2.0083200  2
    741    747    751    754     1  0.0000000  1.2552000  3
    744    741    747    748     1  180.0000771  2.0083200  2
    744    741    747    748     1  0.0000000  1.2552000  3
    744    741    747    751     1  180.0000771  2.0083200  2
    744    741    747    751     1  0.0000000  1.2552000  3
    747    741    744    764     1  0.0000000  0.6508444  3
    747    748    757    761     1  0.0000000  0.6508444  3
    747    751    754    760     1  0.0000000  0.6508444  3
    748    747    751    754     1  180.0000771  2.0083200  2
    748    747    751    754     1  0.0000000  1.2552000  3
    748    757    761    763     1  180.0000771  0.0000000  2
    748    757    761   1589     1  0.0000000  0.2928800  2
    748    757    761   1589     1  0.0000000  0.4184000  4
    751    747    748    757     1  180.0000771  2.0083200  2
    751    747    748    757     1  0.0000000  1.2552000  3
    751    754    760    762     1  180.0000771  0.0000000  2
    751    754    760   1564     1  0.0000000  0.2928800  2
    751    754    760   1564     1  0.0000000  0.4184000  4
    754    760   1564   1544     1  180.0000771  6.2760000  1
    754    760   1564   1544     1  0.0000000  0.0000000  2
    757    761   1589   1569     1  180.0000771  6.2760000  1
    757    761   1589   1569     1  0.0000000  0.0000000  2
    760   1564   1544   1541     1  0.0000000  2.2175200  1
    760   1564   1544   1541     1  0.0000000  0.0000000  2
    760   1564   1544   1541     1  180.0000771  0.6276000  3
    760   1564   1544   1541     1  180.0000771  2.0920000  4
    761   1589   1569   1566     1  0.0000000  2.2175200  1
    761   1589   1569   1566     1  0.0000000  0.0000000  2
    761   1589   1569   1566     1  180.0000771  0.6276000  3
    761   1589   1569   1566     1  180.0000771  2.0920000  4
    762    760   1564   1544     1  180.0000771  10.4600000  2
    763    761   1589   1569     1  180.0000771  10.4600000  2
    766    772    773    782     1  180.0000771  2.0083200  2
    766    772    773    782     1  0.0000000  1.2552000  3
    766    772    776    779     1  180.0000771  2.0083200  2
    766    772    776    779     1  0.0000000  1.2552000  3
    769    766    772    773     1  180.0000771  2.0083200  2
    769    766    772    773     1  0.0000000  1.2552000  3
    769    766    772    776     1  180.0000771  2.0083200  2
    769    766    772    776     1  0.0000000  1.2552000  3
    772    766    769    789     1  0.0000000  0.6508444  3
    772    773    782    786     1  0.0000000  0.6508444  3
    772    776    779    785     1  0.0000000  0.6508444  3
    773    772    776    779     1  180.0000771  2.0083200  2
    773    772    776    779     1  0.0000000  1.2552000  3
    773    782    786    788     1  180.0000771  0.0000000  2
    773    782    786   1639     1  0.0000000  0.2928800  2
    773    782    786   1639     1  0.0000000  0.4184000  4
    776    772    773    782     1  180.0000771  2.0083200  2
    776    772    773    782     1  0.0000000  1.2552000  3
    776    779    785    787     1  180.0000771  0.0000000  2
    776    779    785   1614     1  0.0000000  0.2928800  2
    776    779    785   1614     1  0.0000000  0.4184000  4
    779    785   1614   1594     1  180.0000771  6.2760000  1
    779    785   1614   1594     1  0.0000000  0.0000000  2
    782    786   1639   1619     1  180.0000771  6.2760000  1
    782    786   1639   1619     1  0.0000000  0.0000000  2
    785   1614   1594   1591     1  0.0000000  2.2175200  1
    785   1614   1594   1591     1  0.0000000  0.0000000  2
    785   1614   1594   1591     1  180.0000771  0.6276000  3
    785   1614   1594   1591     1  180.0000771  2.0920000  4
    786   1639   1619   1616     1  0.0000000  2.2175200  1
    786   1639   1619   1616     1  0.0000000  0.0000000  2
    786   1639   1619   1616     1  180.0000771  0.6276000  3
    786   1639   1619   1616     1  180.0000771  2.0920000  4
    787    785   1614   1594     1  180.0000771  10.4600000  2
    788    786   1639   1619     1  180.0000771  10.4600000  2
    791    797    798    807     1  180.0000771  2.0083200  2
    791    797    798    807     1  0.0000000  1.2552000  3
    791    797    801    804     1  180.0000771  2.0083200  2
    791    797    801    804     1  0.0000000  1.2552000  3
    794    791    797    798     1  180.0000771  2.0083200  2
    794    791    797    798     1  0.0000000  1.2552000  3
    794    791    797    801     1  180.0000771  2.0083200  2
    794    791    797    801     1  0.0000000  1.2552000  3
    797    791    794    814     1  0.0000000  0.6508444  3
    797    798    807    811     1  0.0000000  0.6508444  3
    797    801    804    810     1  0.0000000  0.6508444  3
    798    797    801    804     1  180.0000771  2.0083200  2
    798    797    801    804     1  0.0000000  1.2552000  3
    798    807    811    813     1  180.0000771  0.0000000  2
    798    807    811   1689     1  0.0000000  0.2928800  2
    798    807    811   1689     1  0.0000000  0.4184000  4
    801    797    798    807     1  180.0000771  2.0083200  2
    801    797    798    807     1  0.0000000  1.2552000  3
    801    804    810    812     1  180.0000771  0.0000000  2
    801    804    810   1664     1  0.0000000  0.2928800  2
    801    804    810   1664     1  0.0000000  0.4184000  4
    804    810   1664   1644     1  180.0000771  6.2760000  1
    804    810   1664   1644     1  0.0000000  0.0000000  2
    807    811   1689   1669     1  180.0000771  6.2760000  1
    807    811   1689   1669     1  0.0000000  0.0000000  2
    810   1664   1644   1641     1  0.0000000  2.2175200  1
    810   1664   1644   1641     1  0.0000000  0.0000000  2
    810   1664   1644   1641     1  180.0000771  0.6276000  3
    810   1664   1644   1641     1  180.0000771  2.0920000  4
    811   1689   1669   1666     1  0.0000000  2.2175200  1
    811   1689   1669   1666     1  0.0000000  0.0000000  2
    811   1689   1669   1666     1  180.0000771  0.6276000  3
    811   1689   1669   1666     1  180.0000771  2.0920000  4
    812    810   1664   1644     1  180.0000771  10.4600000  2
    813    811   1689   1669     1  180.0000771  10.4600000  2
    816    822    823    832     1  180.0000771  2.0083200  2
    816    822    823    832     1  0.0000000  1.2552000  3
    816    822    826    829     1  180.0000771  2.0083200  2
    816    822    826    829     1  0.0000000  1.2552000  3
    819    816    822    823     1  180.0000771  2.0083200  2
    819    816    822    823     1  0.0000000  1.2552000  3
    819    816    822    826     1  180.0000771  2.0083200  2
    819    816    822    826     1  0.0000000  1.2552000  3
    822    816    819    839     1  0.0000000  0.6508444  3
    822    823    832    836     1  0.0000000  0.6508444  3
    822    826    829    835     1  0.0000000  0.6508444  3
    823    822    826    829     1  180.0000771  2.0083200  2
    823    822    826    829     1  0.0000000  1.2552000  3
    823    832    836    838     1  180.0000771  0.0000000  2
    823    832    836   1739     1  0.0000000  0.2928800  2
    823    832    836   1739     1  0.0000000  0.4184000  4
    826    822    823    832     1  180.0000771  2.0083200  2
    826    822    823    832     1  0.0000000  1.2552000  3
    826    829    835    837     1  180.0000771  0.0000000  2
    826    829    835   1714     1  0.0000000  0.2928800  2
    826    829    835   1714     1  0.0000000  0.4184000  4
    829    835   1714   1694     1  180.0000771  6.2760000  1
    829    835   1714   1694     1  0.0000000  0.0000000  2
    832    836   1739   1719     1  180.0000771  6.2760000  1
    832    836   1739   1719     1  0.0000000  0.0000000  2
    835   1714   1694   1691     1  0.0000000  2.2175200  1
    835   1714   1694   1691     1  0.0000000  0.0000000  2
    835   1714   1694   1691     1  180.0000771  0.6276000  3
    835   1714   1694   1691     1  180.0000771  2.0920000  4
    836   1739   1719   1716     1  0.0000000  2.2175200  1
    836   1739   1719   1716     1  0.0000000  0.0000000  2
    836   1739   1719   1716     1  180.0000771  0.6276000  3
    836   1739   1719   1716     1  180.0000771  2.0920000  4
    837    835   1714   1694     1  180.0000771  10.4600000  2
    838    836   1739   1719     1  180.0000771  10.4600000  2
    841    847    848    857     1  180.0000771  2.0083200  2
    841    847    848    857     1  0.0000000  1.2552000  3
    841    847    851    854     1  180.0000771  2.0083200  2
    841    847    851    854     1  0.0000000  1.2552000  3
    844    841    847    848     1  180.0000771  2.0083200  2
    844    841    847    848     1  0.0000000  1.2552000  3
    844    841    847    851     1  180.0000771  2.0083200  2
    844    841    847    851     1  0.0000000  1.2552000  3
    847    841    844    864     1  0.0000000  0.6508444  3
    847    848    857    861     1  0.0000000  0.6508444  3
    847    851    854    860     1  0.0000000  0.6508444  3
    848    847    851    854     1  180.0000771  2.0083200  2
    848    847    851    854     1  0.0000000  1.2552000  3
    848    857    861    863     1  180.0000771  0.0000000  2
    848    857    861   1789     1  0.0000000  0.2928800  2
    848    857    861   1789     1  0.0000000  0.4184000  4
    851    847    848    857     1  180.0000771  2.0083200  2
    851    847    848    857     1  0.0000000  1.2552000  3
    851    854    860    862     1  180.0000771  0.0000000  2
    851    854    860   1764     1  0.0000000  0.2928800  2
    851    854    860   1764     1  0.0000000  0.4184000  4
    854    860   1764   1744     1  180.0000771  6.2760000  1
    854    860   1764   1744     1  0.0000000  0.0000000  2
    857    861   1789   1769     1  180.0000771  6.2760000  1
    857    861   1789   1769     1  0.0000000  0.0000000  2
    860   1764   1744   1741     1  0.0000000  2.2175200  1
    860   1764   1744   1741     1  0.0000000  0.0000000  2
    860   1764   1744   1741     1  180.0000771  0.6276000  3
    860   1764   1744   1741     1  180.0000771  2.0920000  4
    861   1789   1769   1766     1  0.0000000  2.2175200  1
    861   1789   1769   1766     1  0.0000000  0.0000000  2
    861   1789   1769   1766     1  180.0000771  0.6276000  3
    861   1789   1769   1766     1  180.0000771  2.0920000  4
    862    860   1764   1744     1  180.0000771  10.4600000  2
    863    861   1789   1769     1  180.0000771  10.4600000  2
    866    872    873    882     1  180.0000771  2.0083200  2
    866    872    873    882     1  0.0000000  1.2552000  3
    866    872    876    879     1  180.0000771  2.0083200  2
    866    872    876    879     1  0.0000000  1.2552000  3
    869    866    872    873     1  180.0000771  2.0083200  2
    869    866    872    873     1  0.0000000  1.2552000  3
    869    866    872    876     1  180.0000771  2.0083200  2
    869    866    872    876     1  0.0000000  1.2552000  3
    872    866    869    889     1  0.0000000  0.6508444  3
    872    873    882    886     1  0.0000000  0.6508444  3
    872    876    879    885     1  0.0000000  0.6508444  3
    873    872    876    879     1  180.0000771  2.0083200  2
    873    872    876    879     1  0.0000000  1.2552000  3
    873    882    886    888     1  180.0000771  0.0000000  2
    873    882    886   1839     1  0.0000000  0.2928800  2
    873    882    886   1839     1  0.0000000  0.4184000  4
    876    872    873    882     1  180.0000771  2.0083200  2
    876    872    873    882     1  0.0000000  1.2552000  3
    876    879    885    887     1  180.0000771  0.0000000  2
    876    879    885   1814     1  0.0000000  0.2928800  2
    876    879    885   1814     1  0.0000000  0.4184000  4
    879    885   1814   1794     1  180.0000771  6.2760000  1
    879    885   1814   1794     1  0.0000000  0.0000000  2
    882    886   1839   1819     1  180.0000771  6.2760000  1
    882    886   1839   1819     1  0.0000000  0.0000000  2
    885   1814   1794   1791     1  0.0000000  2.2175200  1
    885   1814   1794   1791     1  0.0000000  0.0000000  2
    885   1814   1794   1791     1  180.0000771  0.6276000  3
    885   1814   1794   1791     1  180.0000771  2.0920000  4
    886   1839   1819   1816     1  0.0000000  2.2175200  1
    886   1839   1819   1816     1  0.0000000  0.0000000  2
    886   1839   1819   1816     1  180.0000771  0.6276000  3
    886   1839   1819   1816     1  180.0000771  2.0920000  4
    887    885   1814   1794     1  180.0000771  10.4600000  2
    888    886   1839   1819     1  180.0000771  10.4600000  2
    891    897    898    907     1  180.0000771  2.0083200  2
    891    897    898    907     1  0.0000000  1.2552000  3
    891    897    901    904     1  180.0000771  2.0083200  2
    891    897    901    904     1  0.0000000  1.2552000  3
    894    891    897    898     1  180.0000771  2.0083200  2
    894    891    897    898     1  0.0000000  1.2552000  3
    894    891    897    901     1  180.0000771  2.0083200  2
    894    891    897    901     1  0.0000000  1.2552000  3
    897    891    894    914     1  0.0000000  0.6508444  3
    897    898    907    911     1  0.0000000  0.6508444  3
    897    901    904    910     1  0.0000000  0.6508444  3
    898    897    901    904     1  180.0000771  2.0083200  2
    898    897    901    904     1  0.0000000  1.2552000  3
    898    907    911    913     1  180.0000771  0.0000000  2
    898    907    911   1889     1  0.0000000  0.2928800  2
    898    907    911   1889     1  0.0000000  0.4184000  4
    901    897    898    907     1  180.0000771  2.0083200  2
    901    897    898    907     1  0.0000000  1.2552000  3
    901    904    910    912     1  180.0000771  0.0000000  2
    901    904    910   1864     1  0.0000000  0.2928800  2
    901    904    910   1864     1  0.0000000  0.4184000  4
    904    910   1864   1844     1  180.0000771  6.2760000  1
    904    910   1864   1844     1  0.0000000  0.0000000  2
    907    911   1889   1869     1  180.0000771  6.2760000  1
    907    911   1889   1869     1  0.0000000  0.0000000  2
    910   1864   1844   1841     1  0.0000000  2.2175200  1
    910   1864   1844   1841     1  0.0000000  0.0000000  2
    910   1864   1844   1841     1  180.0000771  0.6276000  3
    910   1864   1844   1841     1  180.0000771  2.0920000  4
    911   1889   1869   1866     1  0.0000000  2.2175200  1
    911   1889   1869   1866     1  0.0000000  0.0000000  2
    911   1889   1869   1866     1  180.0000771  0.6276000  3
    911   1889   1869   1866     1  180.0000771  2.0920000  4
    912    910   1864   1844     1  180.0000771  10.4600000  2
    913    911   1889   1869     1  180.0000771  10.4600000  2
    916    922    923    932     1  180.0000771  2.0083200  2
    916    922    923    932     1  0.0000000  1.2552000  3
    916    922    926    929     1  180.0000771  2.0083200  2
    916    922    926    929     1  0.0000000  1.2552000  3
    919    916    922    923     1  180.0000771  2.0083200  2
    919    916    922    923     1  0.0000000  1.2552000  3
    919    916    922    926     1  180.0000771  2.0083200  2
    919    916    922    926     1  0.0000000  1.2552000  3
    922    916    919    939     1  0.0000000  0.6508444  3
    922    923    932    936     1  0.0000000  0.6508444  3
    922    926    929    935     1  0.0000000  0.6508444  3
    923    922    926    929     1  180.0000771  2.0083200  2
    923    922    926    929     1  0.0000000  1.2552000  3
    923    932    936    938     1  180.0000771  0.0000000  2
    923    932    936   1939     1  0.0000000  0.2928800  2
    923    932    936   1939     1  0.0000000  0.4184000  4
    926    922    923    932     1  180.0000771  2.0083200  2
    926    922    923    932     1  0.0000000  1.2552000  3
    926    929    935    937     1  180.0000771  0.0000000  2
    926    929    935   1914     1  0.0000000  0.2928800  2
    926    929    935   1914     1  0.0000000  0.4184000  4
    929    935   1914   1894     1  180.0000771  6.2760000  1
    929    935   1914   1894     1  0.0000000  0.0000000  2
    932    936   1939   1919     1  180.0000771  6.2760000  1
    932    936   1939   1919     1  0.0000000  0.0000000  2
    935   1914   1894   1891     1  0.0000000  2.2175200  1
    935   1914   1894   1891     1  0.0000000  0.0000000  2
    935   1914   1894   1891     1  180.0000771  0.6276000  3
    935   1914   1894   1891     1  180.0000771  2.0920000  4
    936   1939   1919   1916     1  0.0000000  2.2175200  1
    936   1939   1919   1916     1  0.0000000  0.0000000  2
    936   1939   1919   1916     1  180.0000771  0.6276000  3
    936   1939   1919   1916     1  180.0000771  2.0920000  4
    937    935   1914   1894     1  180.0000771  10.4600000  2
    938    936   1939   1919     1  180.0000771  10.4600000  2
    941    947    948    957     1  180.0000771  2.0083200  2
    941    947    948    957     1  0.0000000  1.2552000  3
    941    947    951    954     1  180.0000771  2.0083200  2
    941    947    951    954     1  0.0000000  1.2552000  3
    944    941    947    948     1  180.0000771  2.0083200  2
    944    941    947    948     1  0.0000000  1.2552000  3
    944    941    947    951     1  180.0000771  2.0083200  2
    944    941    947    951     1  0.0000000  1.2552000  3
    947    941    944    964     1  0.0000000  0.6508444  3
    947    948    957    961     1  0.0000000  0.6508444  3
    947    951    954    960     1  0.0000000  0.6508444  3
    948    947    951    954     1  180.0000771  2.0083200  2
    948    947    951    954     1  0.0000000  1.2552000  3
    948    957    961    963     1  180.0000771  0.0000000  2
    948    957    961   1989     1  0.0000000  0.2928800  2
    948    957    961   1989     1  0.0000000  0.4184000  4
    951    947    948    957     1  180.0000771  2.0083200  2
    951    947    948    957     1  0.0000000  1.2552000  3
    951    954    960    962     1  180.0000771  0.0000000  2
    951    954    960   1964     1  0.0000000  0.2928800  2
    951    954    960   1964     1  0.0000000  0.4184000  4
    954    960   1964   1944     1  180.0000771  6.2760000  1
    954    960   1964   1944     1  0.0000000  0.0000000  2
    957    961   1989   1969     1  180.0000771  6.2760000  1
    957    961   1989   1969     1  0.0000000  0.0000000  2
    960   1964   1944   1941     1  0.0000000  2.2175200  1
    960   1964   1944   1941     1  0.0000000  0.0000000  2
    960   1964   1944   1941     1  180.0000771  0.6276000  3
    960   1964   1944   1941     1  180.0000771  2.0920000  4
    961   1989   1969   1966     1  0.0000000  2.2175200  1
    961   1989   1969   1966     1  0.0000000  0.0000000  2
    961   1989   1969   1966     1  180.0000771  0.6276000  3
    961   1989   1969   1966     1  180.0000771  2.0920000  4
    962    960   1964   1944     1  180.0000771  10.4600000  2
    963    961   1989   1969     1  180.0000771  10.4600000  2
    966    972    973    982     1  180.0000771  2.0083200  2
    966    972    973    982     1  0.0000000  1.2552000  3
    966    972    976    979     1  180.0000771  2.0083200  2
    966    972    976    979     1  0.0000000  1.2552000  3
    969    966    972    973     1  180.0000771  2.0083200  2
    969    966    972    973     1  0.0000000  1.2552000  3
    969    966    972    976     1  180.0000771  2.0083200  2
    969    966    972    976     1  0.0000000  1.2552000  3
    972    966    969    989     1  0.0000000  0.6508444  3
    972    973    982    986     1  0.0000000  0.6508444  3
    972    976    979    985     1  0.0000000  0.6508444  3
    973    972    976    979     1  180.0000771  2.0083200  2
    973    972    976    979     1  0.0000000  1.2552000  3
    973    982    986    988     1  180.0000771  0.0000000  2
    973    982    986   2039     1  0.0000000  0.2928800  2
    973    982    986   2039     1  0.0000000  0.4184000  4
    976    972    973    982     1  180.0000771  2.0083200  2
    976    972    973    982     1  0.0000000  1.2552000  3
    976    979    985    987     1  180.0000771  0.0000000  2
    976    979    985   2014     1  0.0000000  0.2928800  2
    976    979    985   2014     1  0.0000000  0.4184000  4
    979    985   2014   1994     1  180.0000771  6.2760000  1
    979    985   2014   1994     1  0.0000000  0.0000000  2
    982    986   2039   2019     1  180.0000771  6.2760000  1
    982    986   2039   2019     1  0.0000000  0.0000000  2
    985   2014   1994   1991     1  0.0000000  2.2175200  1
    985   2014   1994   1991     1  0.0000000  0.0000000  2
    985   2014   1994   1991     1  180.0000771  0.6276000  3
    985   2014   1994   1991     1  180.0000771  2.0920000  4
    986   2039   2019   2016     1  0.0000000  2.2175200  1
    986   2039   2019   2016     1  0.0000000  0.0000000  2
    986   2039   2019   2016     1  180.0000771  0.6276000  3
    986   2039   2019   2016     1  180.0000771  2.0920000  4
    987    985   2014   1994     1  180.0000771  10.4600000  2
    988    986   2039   2019     1  180.0000771  10.4600000  2
    991    997    998   1007     1  180.0000771  2.0083200  2
    991    997    998   1007     1  0.0000000  1.2552000  3
    991    997   1001   1004     1  180.0000771  2.0083200  2
    991    997   1001   1004     1  0.0000000  1.2552000  3
    994    991    997    998     1  180.0000771  2.0083200  2
    994    991    997    998     1  0.0000000  1.2552000  3
    994    991    997   1001     1  180.0000771  2.0083200  2
    994    991    997   1001     1  0.0000000  1.2552000  3
    997    991    994   1014     1  0.0000000  0.6508444  3
    997    998   1007   1011     1  0.0000000  0.6508444  3
    997   1001   1004   1010     1  0.0000000  0.6508444  3
    998    997   1001   1004     1  180.0000771  2.0083200  2
    998    997   1001   1004     1  0.0000000  1.2552000  3
    998   1007   1011   1013     1  180.0000771  0.0000000  2
    998   1007   1011   2089     1  0.0000000  0.2928800  2
    998   1007   1011   2089     1  0.0000000  0.4184000  4
   1001    997    998   1007     1  180.0000771  2.0083200  2
   1001    997    998   1007     1  0.0000000  1.2552000  3
   1001   1004   1010   1012     1  180.0000771  0.0000000  2
   1001   1004   1010   2064     1  0.0000000  0.2928800  2
   1001   1004   1010   2064     1  0.0000000  0.4184000  4
   1004   1010   2064   2044     1  180.0000771  6.2760000  1
   1004   1010   2064   2044     1  0.0000000  0.0000000  2
   1007   1011   2089   2069     1  180.0000771  6.2760000  1
   1007   1011   2089   2069     1  0.0000000  0.0000000  2
   1010   2064   2044   2041     1  0.0000000  2.2175200  1
   1010   2064   2044   2041     1  0.0000000  0.0000000  2
   1010   2064   2044   2041     1  180.0000771  0.6276000  3
   1010   2064   2044   2041     1  180.0000771  2.0920000  4
   1011   2089   2069   2066     1  0.0000000  2.2175200  1
   1011   2089   2069   2066     1  0.0000000  0.0000000  2
   1011   2089   2069   2066     1  180.0000771  0.6276000  3
   1011   2089   2069   2066     1  180.0000771  2.0920000  4
   1012   1010   2064   2044     1  180.0000771  10.4600000  2
   1013   1011   2089   2069     1  180.0000771  10.4600000  2
   1016   1022   1023   1032     1  180.0000771  2.0083200  2
   1016   1022   1023   1032     1  0.0000000  1.2552000  3
   1016   1022   1026   1029     1  180.0000771  2.0083200  2
   1016   1022   1026   1029     1  0.0000000  1.2552000  3
   1019   1016   1022   1023     1  180.0000771  2.0083200  2
   1019   1016   1022   1023     1  0.0000000  1.2552000  3
   1019   1016   1022   1026     1  180.0000771  2.0083200  2
   1019   1016   1022   1026     1  0.0000000  1.2552000  3
   1022   1016   1019   1039     1  0.0000000  0.6508444  3
   1022   1023   1032   1036     1  0.0000000  0.6508444  3
   1022   1026   1029   1035     1  0.0000000  0.6508444  3
   1023   1022   1026   1029     1  180.0000771  2.0083200  2
   1023   1022   1026   1029     1  0.0000000  1.2552000  3
   1023   1032   1036   1038     1  180.0000771  0.0000000  2
   1023   1032   1036   2139     1  0.0000000  0.2928800  2
   1023   1032   1036   2139     1  0.0000000  0.4184000  4
   1026   1022   1023   1032     1  180.0000771  2.0083200  2
   1026   1022   1023   1032     1  0.0000000  1.2552000  3
   1026   1029   1035   1037     1  180.0000771  0.0000000  2
   1026   1029   1035   2114     1  0.0000000  0.2928800  2
   1026   1029   1035   2114     1  0.0000000  0.4184000  4
   1029   1035   2114   2094     1  180.0000771  6.2760000  1
   1029   1035   2114   2094     1  0.0000000  0.0000000  2
   1032   1036   2139   2119     1  180.0000771  6.2760000  1
   1032   1036   2139   2119     1  0.0000000  0.0000000  2
   1035   2114   2094   2091     1  0.0000000  2.2175200  1
   1035   2114   2094   2091     1  0.0000000  0.0000000  2
   1035   2114   2094   2091     1  180.0000771  0.6276000  3
   1035   2114   2094   2091     1  180.0000771  2.0920000  4
   1036   2139   2119   2116     1  0.0000000  2.2175200  1
   1036   2139   2119   2116     1  0.0000000  0.0000000  2
   1036   2139   2119   2116     1  180.0000771  0.6276000  3
   1036   2139   2119   2116     1  180.0000771  2.0920000  4
   1037   1035   2114   2094     1  180.0000771  10.4600000  2
   1038   1036   2139   2119     1  180.0000771  10.4600000  2
   1041   1047   1048   1057     1  180.0000771  2.0083200  2
   1041   1047   1048   1057     1  0.0000000  1.2552000  3
   1041   1047   1051   1054     1  180.0000771  2.0083200  2
   1041   1047   1051   1054     1  0.0000000  1.2552000  3
   1044   1041   1047   1048     1  180.0000771  2.0083200  2
   1044   1041   1047   1048     1  0.0000000  1.2552000  3
   1044   1041   1047   1051     1  180.0000771  2.0083200  2
   1044   1041   1047   1051     1  0.0000000  1.2552000  3
   1047   1041   1044   1064     1  0.0000000  0.6508444  3
   1047   1048   1057   1061     1  0.0000000  0.6508444  3
   1047   1051   1054   1060     1  0.0000000  0.6508444  3
   1048   1047   1051   1054     1  180.0000771  2.0083200  2
   1048   1047   1051   1054     1  0.0000000  1.2552000  3
   1048   1057   1061   1063     1  180.0000771  0.0000000  2
   1048   1057   1061   2189     1  0.0000000  0.2928800  2
   1048   1057   1061   2189     1  0.0000000  0.4184000  4
   1051   1047   1048   1057     1  180.0000771  2.0083200  2
   1051   1047   1048   1057     1  0.0000000  1.2552000  3
   1051   1054   1060   1062     1  180.0000771  0.0000000  2
   1051   1054   1060   2164     1  0.0000000  0.2928800  2
   1051   1054   1060   2164     1  0.0000000  0.4184000  4
   1054   1060   2164   2144     1  180.0000771  6.2760000  1
   1054   1060   2164   2144     1  0.0000000  0.0000000  2
   1057   1061   2189   2169     1  180.0000771  6.2760000  1
   1057   1061   2189   2169     1  0.0000000  0.0000000  2
   1060   2164   2144   2141     1  0.0000000  2.2175200  1
   1060   2164   2144   2141     1  0.0000000  0.0000000  2
   1060   2164   2144   2141     1  180.0000771  0.6276000  3
   1060   2164   2144   2141     1  180.0000771  2.0920000  4
   1061   2189   2169   2166     1  0.0000000  2.2175200  1
   1061   2189   2169   2166     1  0.0000000  0.0000000  2
   1061   2189   2169   2166     1  180.0000771  0.6276000  3
   1061   2189   2169   2166     1  180.0000771  2.0920000  4
   1062   1060   2164   2144     1  180.0000771  10.4600000  2
   1063   1061   2189   2169     1  180.0000771  10.4600000  2
   1066   1072   1073   1082     1  180.0000771  2.0083200  2
   1066   1072   1073   1082     1  0.0000000  1.2552000  3
   1066   1072   1076   1079     1  180.0000771  2.0083200  2
   1066   1072   1076   1079     1  0.0000000  1.2552000  3
   1069   1066   1072   1073     1  180.0000771  2.0083200  2
   1069   1066   1072   1073     1  0.0000000  1.2552000  3
   1069   1066   1072   1076     1  180.0000771  2.0083200  2
   1069   1066   1072   1076     1  0.0000000  1.2552000  3
   1072   1066   1069   1089     1  0.0000000  0.6508444  3
   1072   1073   1082   1086     1  0.0000000  0.6508444  3
   1072   1076   1079   1085     1  0.0000000  0.6508444  3
   1073   1072   1076   1079     1  180.0000771  2.0083200  2
   1073   1072   1076   1079     1  0.0000000  1.2552000  3
   1073   1082   1086   1088     1  180.0000771  0.0000000  2
   1073   1082   1086   2239     1  0.0000000  0.2928800  2
   1073   1082   1086   2239     1  0.0000000  0.4184000  4
   1076   1072   1073   1082     1  180.0000771  2.0083200  2
   1076   1072   1073   1082     1  0.0000000  1.2552000  3
   1076   1079   1085   1087     1  180.0000771  0.0000000  2
   1076   1079   1085   2214     1  0.0000000  0.2928800  2
   1076   1079   1085   2214     1  0.0000000  0.4184000  4
   1079   1085   2214   2194     1  180.0000771  6.2760000  1
   1079   1085   2214   2194     1  0.0000000  0.0000000  2
   1082   1086   2239   2219     1  180.0000771  6.2760000  1
   1082   1086   2239   2219     1  0.0000000  0.0000000  2
   1085   2214   2194   2191     1  0.0000000  2.2175200  1
   1085   2214   2194   2191     1  0.0000000  0.0000000  2
   1085   2214   2194   2191     1  180.0000771  0.6276000  3
   1085   2214   2194   2191     1  180.0000771  2.0920000  4
   1086   2239   2219   2216     1  0.0000000  2.2175200  1
   1086   2239   2219   2216     1  0.0000000  0.0000000  2
   1086   2239   2219   2216     1  180.0000771  0.6276000  3
   1086   2239   2219   2216     1  180.0000771  2.0920000  4
   1087   1085   2214   2194     1  180.0000771  10.4600000  2
   1088   1086   2239   2219     1  180.0000771  10.4600000  2
   1091   1097   1098   1107     1  180.0000771  2.0083200  2
   1091   1097   1098   1107     1  0.0000000  1.2552000  3
   1091   1097   1101   1104     1  180.0000771  2.0083200  2
   1091   1097   1101   1104     1  0.0000000  1.2552000  3
   1094   1091   1097   1098     1  180.0000771  2.0083200  2
   1094   1091   1097   1098     1  0.0000000  1.2552000  3
   1094   1091   1097   1101     1  180.0000771  2.0083200  2
   1094   1091   1097   1101     1  0.0000000  1.2552000  3
   1097   1091   1094   1114     1  0.0000000  0.6508444  3
   1097   1098   1107   1111     1  0.0000000  0.6508444  3
   1097   1101   1104   1110     1  0.0000000  0.6508444  3
   1098   1097   1101   1104     1  180.0000771  2.0083200  2
   1098   1097   1101   1104     1  0.0000000  1.2552000  3
   1098   1107   1111   1113     1  180.0000771  0.0000000  2
   1098   1107   1111   2289     1  0.0000000  0.2928800  2
   1098   1107   1111   2289     1  0.0000000  0.4184000  4
   1101   1097   1098   1107     1  180.0000771  2.0083200  2
   1101   1097   1098   1107     1  0.0000000  1.2552000  3
   1101   1104   1110   1112     1  180.0000771  0.0000000  2
   1101   1104   1110   2264     1  0.0000000  0.2928800  2
   1101   1104   1110   2264     1  0.0000000  0.4184000  4
   1104   1110   2264   2244     1  180.0000771  6.2760000  1
   1104   1110   2264   2244     1  0.0000000  0.0000000  2
   1107   1111   2289   2269     1  180.0000771  6.2760000  1
   1107   1111   2289   2269     1  0.0000000  0.0000000  2
   1110   2264   2244   2241     1  0.0000000  2.2175200  1
   1110   2264   2244   2241     1  0.0000000  0.0000000  2
   1110   2264   2244   2241     1  180.0000771  0.6276000  3
   1110   2264   2244   2241     1  180.0000771  2.0920000  4
   1111   2289   2269   2266     1  0.0000000  2.2175200  1
   1111   2289   2269   2266     1  0.0000000  0.0000000  2
   1111   2289   2269   2266     1  180.0000771  0.6276000  3
   1111   2289   2269   2266     1  180.0000771  2.0920000  4
   1112   1110   2264   2244     1  180.0000771  10.4600000  2
   1113   1111   2289   2269     1  180.0000771  10.4600000  2
   1116   1122   1123   1132     1  180.0000771  2.0083200  2
   1116   1122   1123   1132     1  0.0000000  1.2552000  3
   1116   1122   1126   1129     1  180.0000771  2.0083200  2
   1116   1122   1126   1129     1  0.0000000  1.2552000  3
   1119   1116   1122   1123     1  180.0000771  2.0083200  2
   1119   1116   1122   1123     1  0.0000000  1.2552000  3
   1119   1116   1122   1126     1  180.0000771  2.0083200  2
   1119   1116   1122   1126     1  0.0000000  1.2552000  3
   1122   1116   1119   1139     1  0.0000000  0.6508444  3
   1122   1123   1132   1136     1  0.0000000  0.6508444  3
   1122   1126   1129   1135     1  0.0000000  0.6508444  3
   1123   1122   1126   1129     1  180.0000771  2.0083200  2
   1123   1122   1126   1129     1  0.0000000  1.2552000  3
   1123   1132   1136   1138     1  180.0000771  0.0000000  2
   1123   1132   1136   2339     1  0.0000000  0.2928800  2
   1123   1132   1136   2339     1  0.0000000  0.4184000  4
   1126   1122   1123   1132     1  180.0000771  2.0083200  2
   1126   1122   1123   1132     1  0.0000000  1.2552000  3
   1126   1129   1135   1137     1  180.0000771  0.0000000  2
   1126   1129   1135   2314     1  0.0000000  0.2928800  2
   1126   1129   1135   2314     1  0.0000000  0.4184000  4
   1129   1135   2314   2294     1  180.0000771  6.2760000  1
   1129   1135   2314   2294     1  0.0000000  0.0000000  2
   1132   1136   2339   2319     1  180.0000771  6.2760000  1
   1132   1136   2339   2319     1  0.0000000  0.0000000  2
   1135   2314   2294   2291     1  0.0000000  2.2175200  1
   1135   2314   2294   2291     1  0.0000000  0.0000000  2
   1135   2314   2294   2291     1  180.0000771  0.6276000  3
   1135   2314   2294   2291     1  180.0000771  2.0920000  4
   1136   2339   2319   2316     1  0.0000000  2.2175200  1
   1136   2339   2319   2316     1  0.0000000  0.0000000  2
   1136   2339   2319   2316     1  180.0000771  0.6276000  3
   1136   2339   2319   2316     1  180.0000771  2.0920000  4
   1137   1135   2314   2294     1  180.0000771  10.4600000  2
   1138   1136   2339   2319     1  180.0000771  10.4600000  2
   1141   1147   1148   1157     1  180.0000771  2.0083200  2
   1141   1147   1148   1157     1  0.0000000  1.2552000  3
   1141   1147   1151   1154     1  180.0000771  2.0083200  2
   1141   1147   1151   1154     1  0.0000000  1.2552000  3
   1144   1141   1147   1148     1  180.0000771  2.0083200  2
   1144   1141   1147   1148     1  0.0000000  1.2552000  3
   1144   1141   1147   1151     1  180.0000771  2.0083200  2
   1144   1141   1147   1151     1  0.0000000  1.2552000  3
   1147   1141   1144   1164     1  0.0000000  0.6508444  3
   1147   1148   1157   1161     1  0.0000000  0.6508444  3
   1147   1151   1154   1160     1  0.0000000  0.6508444  3
   1148   1147   1151   1154     1  180.0000771  2.0083200  2
   1148   1147   1151   1154     1  0.0000000  1.2552000  3
   1148   1157   1161   1163     1  180.0000771  0.0000000  2
   1148   1157   1161   2389     1  0.0000000  0.2928800  2
   1148   1157   1161   2389     1  0.0000000  0.4184000  4
   1151   1147   1148   1157     1  180.0000771  2.0083200  2
   1151   1147   1148   1157     1  0.0000000  1.2552000  3
   1151   1154   1160   1162     1  180.0000771  0.0000000  2
   1151   1154   1160   2364     1  0.0000000  0.2928800  2
   1151   1154   1160   2364     1  0.0000000  0.4184000  4
   1154   1160   2364   2344     1  180.0000771  6.2760000  1
   1154   1160   2364   2344     1  0.0000000  0.0000000  2
   1157   1161   2389   2369     1  180.0000771  6.2760000  1
   1157   1161   2389   2369     1  0.0000000  0.0000000  2
   1160   2364   2344   2341     1  0.0000000  2.2175200  1
   1160   2364   2344   2341     1  0.0000000  0.0000000  2
   1160   2364   2344   2341     1  180.0000771  0.6276000  3
   1160   2364   2344   2341     1  180.0000771  2.0920000  4
   1161   2389   2369   2366     1  0.0000000  2.2175200  1
   1161   2389   2369   2366     1  0.0000000  0.0000000  2
   1161   2389   2369   2366     1  180.0000771  0.6276000  3
   1161   2389   2369   2366     1  180.0000771  2.0920000  4
   1162   1160   2364   2344     1  180.0000771  10.4600000  2
   1163   1161   2389   2369     1  180.0000771  10.4600000  2
   1166   1172   1173   1182     1  180.0000771  2.0083200  2
   1166   1172   1173   1182     1  0.0000000  1.2552000  3
   1166   1172   1176   1179     1  180.0000771  2.0083200  2
   1166   1172   1176   1179     1  0.0000000  1.2552000  3
   1169   1166   1172   1173     1  180.0000771  2.0083200  2
   1169   1166   1172   1173     1  0.0000000  1.2552000  3
   1169   1166   1172   1176     1  180.0000771  2.0083200  2
   1169   1166   1172   1176     1  0.0000000  1.2552000  3
   1172   1166   1169   1189     1  0.0000000  0.6508444  3
   1172   1173   1182   1186     1  0.0000000  0.6508444  3
   1172   1176   1179   1185     1  0.0000000  0.6508444  3
   1173   1172   1176   1179     1  180.0000771  2.0083200  2
   1173   1172   1176   1179     1  0.0000000  1.2552000  3
   1173   1182   1186   1188     1  180.0000771  0.0000000  2
   1173   1182   1186   2439     1  0.0000000  0.2928800  2
   1173   1182   1186   2439     1  0.0000000  0.4184000  4
   1176   1172   1173   1182     1  180.0000771  2.0083200  2
   1176   1172   1173   1182     1  0.0000000  1.2552000  3
   1176   1179   1185   1187     1  180.0000771  0.0000000  2
   1176   1179   1185   2414     1  0.0000000  0.2928800  2
   1176   1179   1185   2414     1  0.0000000  0.4184000  4
   1179   1185   2414   2394     1  180.0000771  6.2760000  1
   1179   1185   2414   2394     1  0.0000000  0.0000000  2
   1182   1186   2439   2419     1  180.0000771  6.2760000  1
   1182   1186   2439   2419     1  0.0000000  0.0000000  2
   1185   2414   2394   2391     1  0.0000000  2.2175200  1
   1185   2414   2394   2391     1  0.0000000  0.0000000  2
   1185   2414   2394   2391     1  180.0000771  0.6276000  3
   1185   2414   2394   2391     1  180.0000771  2.0920000  4
   1186   2439   2419   2416     1  0.0000000  2.2175200  1
   1186   2439   2419   2416     1  0.0000000  0.0000000  2
   1186   2439   2419   2416     1  180.0000771  0.6276000  3
   1186   2439   2419   2416     1  180.0000771  2.0920000  4
   1187   1185   2414   2394     1  180.0000771  10.4600000  2
   1188   1186   2439   2419     1  180.0000771  10.4600000  2
   1191   1197   1198   1207     1  180.0000771  2.0083200  2
   1191   1197   1198   1207     1  0.0000000  1.2552000  3
   1191   1197   1201   1204     1  180.0000771  2.0083200  2
   1191   1197   1201   1204     1  0.0000000  1.2552000  3
   1194   1191   1197   1198     1  180.0000771  2.0083200  2
   1194   1191   1197   1198     1  0.0000000  1.2552000  3
   1194   1191   1197   1201     1  180.0000771  2.0083200  2
   1194   1191   1197   1201     1  0.0000000  1.2552000  3
   1197   1191   1194   1214     1  0.0000000  0.6508444  3
   1197   1198   1207   1211     1  0.0000000  0.6508444  3
   1197   1201   1204   1210     1  0.0000000  0.6508444  3
   1198   1197   1201   1204     1  180.0000771  2.0083200  2
   1198   1197   1201   1204     1  0.0000000  1.2552000  3
   1198   1207   1211   1213     1  180.0000771  0.0000000  2
   1198   1207   1211   2489     1  0.0000000  0.2928800  2
   1198   1207   1211   2489     1  0.0000000  0.4184000  4
   1201   1197   1198   1207     1  180.0000771  2.0083200  2
   1201   1197   1198   1207     1  0.0000000  1.2552000  3
   1201   1204   1210   1212     1  180.0000771  0.0000000  2
   1201   1204   1210   2464     1  0.0000000  0.2928800  2
   1201   1204   1210   2464     1  0.0000000  0.4184000  4
   1204   1210   2464   2444     1  180.0000771  6.2760000  1
   1204   1210   2464   2444     1  0.0000000  0.0000000  2
   1207   1211   2489   2469     1  180.0000771  6.2760000  1
   1207   1211   2489   2469     1  0.0000000  0.0000000  2
   1210   2464   2444   2441     1  0.0000000  2.2175200  1
   1210   2464   2444   2441     1  0.0000000  0.0000000  2
   1210   2464   2444   2441     1  180.0000771  0.6276000  3
   1210   2464   2444   2441     1  180.0000771  2.0920000  4
   1211   2489   2469   2466     1  0.0000000  2.2175200  1
   1211   2489   2469   2466     1  0.0000000  0.0000000  2
   1211   2489   2469   2466     1  180.0000771  0.6276000  3
   1211   2489   2469   2466     1  180.0000771  2.0920000  4
   1212   1210   2464   2444     1  180.0000771  10.4600000  2
   1213   1211   2489   2469     1  180.0000771  10.4600000  2
   1216   1222   1223   1232     1  180.0000771  2.0083200  2
   1216   1222   1223   1232     1  0.0000000  1.2552000  3
   1216   1222   1226   1229     1  180.0000771  2.0083200  2
   1216   1222   1226   1229     1  0.0000000  1.2552000  3
   1219   1216   1222   1223     1  180.0000771  2.0083200  2
   1219   1216   1222   1223     1  0.0000000  1.2552000  3
   1219   1216   1222   1226     1  180.0000771  2.0083200  2
   1219   1216   1222   1226     1  0.0000000  1.2552000  3
   1222   1216   1219   1239     1  0.0000000  0.6508444  3
   1222   1223   1232   1236     1  0.0000000  0.6508444  3
   1222   1226   1229   1235     1  0.0000000  0.6508444  3
   1223   1222   1226   1229     1  180.0000771  2.0083200  2
   1223   1222   1226   1229     1  0.0000000  1.2552000  3
   1223   1232   1236   1238     1  180.0000771  0.0000000  2
   1223   1232   1236   2539     1  0.0000000  0.2928800  2
   1223   1232   1236   2539     1  0.0000000  0.4184000  4
   1226   1222   1223   1232     1  180.0000771  2.0083200  2
   1226   1222   1223   1232     1  0.0000000  1.2552000  3
   1226   1229   1235   1237     1  180.0000771  0.0000000  2
   1226   1229   1235   2514     1  0.0000000  0.2928800  2
   1226   1229   1235   2514     1  0.0000000  0.4184000  4
   1229   1235   2514   2494     1  180.0000771  6.2760000  1
   1229   1235   2514   2494     1  0.0000000  0.0000000  2
   1232   1236   2539   2519     1  180.0000771  6.2760000  1
   1232   1236   2539   2519     1  0.0000000  0.0000000  2
   1235   2514   2494   2491     1  0.0000000  2.2175200  1
   1235   2514   2494   2491     1  0.0000000  0.0000000  2
   1235   2514   2494   2491     1  180.0000771  0.6276000  3
   1235   2514   2494   2491     1  180.0000771  2.0920000  4
   1236   2539   2519   2516     1  0.0000000  2.2175200  1
   1236   2539   2519   2516     1  0.0000000  0.0000000  2
   1236   2539   2519   2516     1  180.0000771  0.6276000  3
   1236   2539   2519   2516     1  180.0000771  2.0920000  4
   1237   1235   2514   2494     1  180.0000771  10.4600000  2
   1238   1236   2539   2519     1  180.0000771  10.4600000  2
   1241   1247   1248   1257     1  180.0000771  2.0083200  2
   1241   1247   1248   1257     1  0.0000000  1.2552000  3
   1241   1247   1251   1254     1  180.0000771  2.0083200  2
   1241   1247   1251   1254     1  0.0000000  1.2552000  3
   1244   1241   1247   1248     1  180.0000771  2.0083200  2
   1244   1241   1247   1248     1  0.0000000  1.2552000  3
   1244   1241   1247   1251     1  180.0000771  2.0083200  2
   1244   1241   1247   1251     1  0.0000000  1.2552000  3
   1247   1241   1244   1264     1  0.0000000  0.6508444  3
   1247   1248   1257   1261     1  0.0000000  0.6508444  3
   1247   1251   1254   1260     1  0.0000000  0.6508444  3
   1248   1247   1251   1254     1  180.0000771  2.0083200  2
   1248   1247   1251   1254     1  0.0000000  1.2552000  3
   1248   1257   1261   1263     1  180.0000771  0.0000000  2
   1248   1257   1261   2589     1  0.0000000  0.2928800  2
   1248   1257   1261   2589     1  0.0000000  0.4184000  4
   1251   1247   1248   1257     1  180.0000771  2.0083200  2
   1251   1247   1248   1257     1  0.0000000  1.2552000  3
   1251   1254   1260   1262     1  180.0000771  0.0000000  2
   1251   1254   1260   2564     1  0.0000000  0.2928800  2
   1251   1254   1260   2564     1  0.0000000  0.4184000  4
   1254   1260   2564   2544     1  180.0000771  6.2760000  1
   1254   1260   2564   2544     1  0.0000000  0.0000000  2
   1257   1261   2589   2569     1  180.0000771  6.2760000  1
   1257   1261   2589   2569     1  0.0000000  0.0000000  2
   1260   2564   2544   2541     1  0.0000000  2.2175200  1
   1260   2564   2544   2541     1  0.0000000  0.0000000  2
   1260   2564   2544   2541     1  180.0000771  0.6276000  3
   1260   2564   2544   2541     1  180.0000771  2.0920000  4
   1261   2589   2569   2566     1  0.0000000  2.2175200  1
   1261   2589   2569   2566     1  0.0000000  0.0000000  2
   1261   2589   2569   2566     1  180.0000771  0.6276000  3
   1261   2589   2569   2566     1  180.0000771  2.0920000  4
   1262   1260   2564   2544     1  180.0000771  10.4600000  2
   1263   1261   2589   2569     1  180.0000771  10.4600000  2
   1266   1272   1273   1282     1  180.0000771  2.0083200  2
   1266   1272   1273   1282     1  0.0000000  1.2552000  3
   1266   1272   1276   1279     1  180.0000771  2.0083200  2
   1266   1272   1276   1279     1  0.0000000  1.2552000  3
   1269   1266   1272   1273     1  180.0000771  2.0083200  2
   1269   1266   1272   1273     1  0.0000000  1.2552000  3
   1269   1266   1272   1276     1  180.0000771  2.0083200  2
   1269   1266   1272   1276     1  0.0000000  1.2552000  3
   1272   1266   1269   1289     1  0.0000000  0.6508444  3
   1272   1273   1282   1286     1  0.0000000  0.6508444  3
   1272   1276   1279   1285     1  0.0000000  0.6508444  3
   1273   1272   1276   1279     1  180.0000771  2.0083200  2
   1273   1272   1276   1279     1  0.0000000  1.2552000  3
   1273   1282   1286   1288     1  180.0000771  0.0000000  2
   1273   1282   1286   2639     1  0.0000000  0.2928800  2
   1273   1282   1286   2639     1  0.0000000  0.4184000  4
   1276   1272   1273   1282     1  180.0000771  2.0083200  2
   1276   1272   1273   1282     1  0.0000000  1.2552000  3
   1276   1279   1285   1287     1  180.0000771  0.0000000  2
   1276   1279   1285   2614     1  0.0000000  0.2928800  2
   1276   1279   1285   2614     1  0.0000000  0.4184000  4
   1279   1285   2614   2594     1  180.0000771  6.2760000  1
   1279   1285   2614   2594     1  0.0000000  0.0000000  2
   1282   1286   2639   2619     1  180.0000771  6.2760000  1
   1282   1286   2639   2619     1  0.0000000  0.0000000  2
   1285   2614   2594   2591     1  0.0000000  2.2175200  1
   1285   2614   2594   2591     1  0.0000000  0.0000000  2
   1285   2614   2594   2591     1  180.0000771  0.6276000  3
   1285   2614   2594   2591     1  180.0000771  2.0920000  4
   1286   2639   2619   2616     1  0.0000000  2.2175200  1
   1286   2639   2619   2616     1  0.0000000  0.0000000  2
   1286   2639   2619   2616     1  180.0000771  0.6276000  3
   1286   2639   2619   2616     1  180.0000771  2.0920000  4
   1287   1285   2614   2594     1  180.0000771  10.4600000  2
   1288   1286   2639   2619     1  180.0000771  10.4600000  2
   1291   1297   1298   1307     1  180.0000771  2.0083200  2
   1291   1297   1298   1307     1  0.0000000  1.2552000  3
   1291   1297   1301   1304     1  180.0000771  2.0083200  2
   1291   1297   1301   1304     1  0.0000000  1.2552000  3
   1294   1291   1297   1298     1  180.0000771  2.0083200  2
   1294   1291   1297   1298     1  0.0000000  1.2552000  3
   1294   1291   1297   1301     1  180.0000771  2.0083200  2
   1294   1291   1297   1301     1  0.0000000  1.2552000  3
   1297   1291   1294   1314     1  0.0000000  0.6508444  3
   1297   1298   1307   1311     1  0.0000000  0.6508444  3
   1297   1301   1304   1310     1  0.0000000  0.6508444  3
   1298   1297   1301   1304     1  180.0000771  2.0083200  2
   1298   1297   1301   1304     1  0.0000000  1.2552000  3
   1298   1307   1311   1313     1  180.0000771  0.0000000  2
   1298   1307   1311   2689     1  0.0000000  0.2928800  2
   1298   1307   1311   2689     1  0.0000000  0.4184000  4
   1301   1297   1298   1307     1  180.0000771  2.0083200  2
   1301   1297   1298   1307     1  0.0000000  1.2552000  3
   1301   1304   1310   1312     1  180.0000771  0.0000000  2
   1301   1304   1310   2664     1  0.0000000  0.2928800  2
   1301   1304   1310   2664     1  0.0000000  0.4184000  4
   1304   1310   2664   2644     1  180.0000771  6.2760000  1
   1304   1310   2664   2644     1  0.0000000  0.0000000  2
   1307   1311   2689   2669     1  180.0000771  6.2760000  1
   1307   1311   2689   2669     1  0.0000000  0.0000000  2
   1310   2664   2644   2641     1  0.0000000  2.2175200  1
   1310   2664   2644   2641     1  0.0000000  0.0000000  2
   1310   2664   2644   2641     1  180.0000771  0.6276000  3
   1310   2664   2644   2641     1  180.0000771  2.0920000  4
   1311   2689   2669   2666     1  0.0000000  2.2175200  1
   1311   2689   2669   2666     1  0.0000000  0.0000000  2
   1311   2689   2669   2666     1  180.0000771  0.6276000  3
   1311   2689   2669   2666     1  180.0000771  2.0920000  4
   1312   1310   2664   2644     1  180.0000771  10.4600000  2
   1313   1311   2689   2669     1  180.0000771  10.4600000  2
   1316   1322   1323   1332     1  180.0000771  2.0083200  2
   1316   1322   1323   1332     1  0.0000000  1.2552000  3
   1316   1322   1326   1329     1  180.0000771  2.0083200  2
   1316   1322   1326   1329     1  0.0000000  1.2552000  3
   1319   1316   1322   1323     1  180.0000771  2.0083200  2
   1319   1316   1322   1323     1  0.0000000  1.2552000  3
   1319   1316   1322   1326     1  180.0000771  2.0083200  2
   1319   1316   1322   1326     1  0.0000000  1.2552000  3
   1322   1316   1319   1339     1  0.0000000  0.6508444  3
   1322   1323   1332   1336     1  0.0000000  0.6508444  3
   1322   1326   1329   1335     1  0.0000000  0.6508444  3
   1323   1322   1326   1329     1  180.0000771  2.0083200  2
   1323   1322   1326   1329     1  0.0000000  1.2552000  3
   1323   1332   1336   1338     1  180.0000771  0.0000000  2
   1323   1332   1336   2739     1  0.0000000  0.2928800  2
   1323   1332   1336   2739     1  0.0000000  0.4184000  4
   1326   1322   1323   1332     1  180.0000771  2.0083200  2
   1326   1322   1323   1332     1  0.0000000  1.2552000  3
   1326   1329   1335   1337     1  180.0000771  0.0000000  2
   1326   1329   1335   2714     1  0.0000000  0.2928800  2
   1326   1329   1335   2714     1  0.0000000  0.4184000  4
   1329   1335   2714   2694     1  180.0000771  6.2760000  1
   1329   1335   2714   2694     1  0.0000000  0.0000000  2
   1332   1336   2739   2719     1  180.0000771  6.2760000  1
   1332   1336   2739   2719     1  0.0000000  0.0000000  2
   1335   2714   2694   2691     1  0.0000000  2.2175200  1
   1335   2714   2694   2691     1  0.0000000  0.0000000  2
   1335   2714   2694   2691     1  180.0000771  0.6276000  3
   1335   2714   2694   2691     1  180.0000771  2.0920000  4
   1336   2739   2719   2716     1  0.0000000  2.2175200  1
   1336   2739   2719   2716     1  0.0000000  0.0000000  2
   1336   2739   2719   2716     1  180.0000771  0.6276000  3
   1336   2739   2719   2716     1  180.0000771  2.0920000  4
   1337   1335   2714   2694     1  180.0000771  10.4600000  2
   1338   1336   2739   2719     1  180.0000771  10.4600000  2
   1341   1347   1348   1357     1  180.0000771  2.0083200  2
   1341   1347   1348   1357     1  0.0000000  1.2552000  3
   1341   1347   1351   1354     1  180.0000771  2.0083200  2
   1341   1347   1351   1354     1  0.0000000  1.2552000  3
   1344   1341   1347   1348     1  180.0000771  2.0083200  2
   1344   1341   1347   1348     1  0.0000000  1.2552000  3
   1344   1341   1347   1351     1  180.0000771  2.0083200  2
   1344   1341   1347   1351     1  0.0000000  1.2552000  3
   1347   1341   1344   1364     1  0.0000000  0.6508444  3
   1347   1348   1357   1361     1  0.0000000  0.6508444  3
   1347   1351   1354   1360     1  0.0000000  0.6508444  3
   1348   1347   1351   1354     1  180.0000771  2.0083200  2
   1348   1347   1351   1354     1  0.0000000  1.2552000  3
   1348   1357   1361   1363     1  180.0000771  0.0000000  2
   1348   1357   1361   2789     1  0.0000000  0.2928800  2
   1348   1357   1361   2789     1  0.0000000  0.4184000  4
   1351   1347   1348   1357     1  180.0000771  2.0083200  2
   1351   1347   1348   1357     1  0.0000000  1.2552000  3
   1351   1354   1360   1362     1  180.0000771  0.0000000  2
   1351   1354   1360   2764     1  0.0000000  0.2928800  2
   1351   1354   1360   2764     1  0.0000000  0.4184000  4
   1354   1360   2764   2744     1  180.0000771  6.2760000  1
   1354   1360   2764   2744     1  0.0000000  0.0000000  2
   1357   1361   2789   2769     1  180.0000771  6.2760000  1
   1357   1361   2789   2769     1  0.0000000  0.0000000  2
   1360   2764   2744   2741     1  0.0000000  2.2175200  1
   1360   2764   2744   2741     1  0.0000000  0.0000000  2
   1360   2764   2744   2741     1  180.0000771  0.6276000  3
   1360   2764   2744   2741     1  180.0000771  2.0920000  4
   1361   2789   2769   2766     1  0.0000000  2.2175200  1
   1361   2789   2769   2766     1  0.0000000  0.0000000  2
   1361   2789   2769   2766     1  180.0000771  0.6276000  3
   1361   2789   2769   2766     1  180.0000771  2.0920000  4
   1362   1360   2764   2744     1  180.0000771  10.4600000  2
   1363   1361   2789   2769     1  180.0000771  10.4600000  2
   1366   1372   1373   1382     1  180.0000771  2.0083200  2
   1366   1372   1373   1382     1  0.0000000  1.2552000  3
   1366   1372   1376   1379     1  180.0000771  2.0083200  2
   1366   1372   1376   1379     1  0.0000000  1.2552000  3
   1369   1366   1372   1373     1  180.0000771  2.0083200  2
   1369   1366   1372   1373     1  0.0000000  1.2552000  3
   1369   1366   1372   1376     1  180.0000771  2.0083200  2
   1369   1366   1372   1376     1  0.0000000  1.2552000  3
   1372   1366   1369   1389     1  0.0000000  0.6508444  3
   1372   1373   1382   1386     1  0.0000000  0.6508444  3
   1372   1376   1379   1385     1  0.0000000  0.6508444  3
   1373   1372   1376   1379     1  180.0000771  2.0083200  2
   1373   1372   1376   1379     1  0.0000000  1.2552000  3
   1373   1382   1386   1388     1  180.0000771  0.0000000  2
   1373   1382   1386   2839     1  0.0000000  0.2928800  2
   1373   1382   1386   2839     1  0.0000000  0.4184000  4
   1376   1372   1373   1382     1  180.0000771  2.0083200  2
   1376   1372   1373   1382     1  0.0000000  1.2552000  3
   1376   1379   1385   1387     1  180.0000771  0.0000000  2
   1376   1379   1385   2814     1  0.0000000  0.2928800  2
   1376   1379   1385   2814     1  0.0000000  0.4184000  4
   1379   1385   2814   2794     1  180.0000771  6.2760000  1
   1379   1385   2814   2794     1  0.0000000  0.0000000  2
   1382   1386   2839   2819     1  180.0000771  6.2760000  1
   1382   1386   2839   2819     1  0.0000000  0.0000000  2
   1385   2814   2794   2791     1  0.0000000  2.2175200  1
   1385   2814   2794   2791     1  0.0000000  0.0000000  2
   1385   2814   2794   2791     1  180.0000771  0.6276000  3
   1385   2814   2794   2791     1  180.0000771  2.0920000  4
   1386   2839   2819   2816     1  0.0000000  2.2175200  1
   1386   2839   2819   2816     1  0.0000000  0.0000000  2
   1386   2839   2819   2816     1  180.0000771  0.6276000  3
   1386   2839   2819   2816     1  180.0000771  2.0920000  4
   1387   1385   2814   2794     1  180.0000771  10.4600000  2
   1388   1386   2839   2819     1  180.0000771  10.4600000  2
   1391   1397   1398   1407     1  180.0000771  2.0083200  2
   1391   1397   1398   1407     1  0.0000000  1.2552000  3
   1391   1397   1401   1404     1  180.0000771  2.0083200  2
   1391   1397   1401   1404     1  0.0000000  1.2552000  3
   1394   1391   1397   1398     1  180.0000771  2.0083200  2
   1394   1391   1397   1398     1  0.0000000  1.2552000  3
   1394   1391   1397   1401     1  180.0000771  2.0083200  2
   1394   1391   1397   1401     1  0.0000000  1.2552000  3
   1397   1391   1394   1414     1  0.0000000  0.6508444  3
   1397   1398   1407   1411     1  0.0000000  0.6508444  3
   1397   1401   1404   1410     1  0.0000000  0.6508444  3
   1398   1397   1401   1404     1  180.0000771  2.0083200  2
   1398   1397   1401   1404     1  0.0000000  1.2552000  3
   1398   1407   1411   1413     1  180.0000771  0.0000000  2
   1398   1407   1411   2889     1  0.0000000  0.2928800  2
   1398   1407   1411   2889     1  0.0000000  0.4184000  4
   1401   1397   1398   1407     1  180.0000771  2.0083200  2
   1401   1397   1398   1407     1  0.0000000  1.2552000  3
   1401   1404   1410   1412     1  180.0000771  0.0000000  2
   1401   1404   1410   2864     1  0.0000000  0.2928800  2
   1401   1404   1410   2864     1  0.0000000  0.4184000  4
   1404   1410   2864   2844     1  180.0000771  6.2760000  1
   1404   1410   2864   2844     1  0.0000000  0.0000000  2
   1407   1411   2889   2869     1  180.0000771  6.2760000  1
   1407   1411   2889   2869     1  0.0000000  0.0000000  2
   1410   2864   2844   2841     1  0.0000000  2.2175200  1
   1410   2864   2844   2841     1  0.0000000  0.0000000  2
   1410   2864   2844   2841     1  180.0000771  0.6276000  3
   1410   2864   2844   2841     1  180.0000771  2.0920000  4
   1411   2889   2869   2866     1  0.0000000  2.2175200  1
   1411   2889   2869   2866     1  0.0000000  0.0000000  2
   1411   2889   2869   2866     1  180.0000771  0.6276000  3
   1411   2889   2869   2866     1  180.0000771  2.0920000  4
   1412   1410   2864   2844     1  180.0000771  10.4600000  2
   1413   1411   2889   2869     1  180.0000771  10.4600000  2
   1416   1422   1423   1432     1  180.0000771  2.0083200  2
   1416   1422   1423   1432     1  0.0000000  1.2552000  3
   1416   1422   1426   1429     1  180.0000771  2.0083200  2
   1416   1422   1426   1429     1  0.0000000  1.2552000  3
   1419   1416   1422   1423     1  180.0000771  2.0083200  2
   1419   1416   1422   1423     1  0.0000000  1.2552000  3
   1419   1416   1422   1426     1  180.0000771  2.0083200  2
   1419   1416   1422   1426     1  0.0000000  1.2552000  3
   1422   1416   1419   1439     1  0.0000000  0.6508444  3
   1422   1423   1432   1436     1  0.0000000  0.6508444  3
   1422   1426   1429   1435     1  0.0000000  0.6508444  3
   1423   1422   1426   1429     1  180.0000771  2.0083200  2
   1423   1422   1426   1429     1  0.0000000  1.2552000  3
   1423   1432   1436   1438     1  180.0000771  0.0000000  2
   1423   1432   1436   2939     1  0.0000000  0.2928800  2
   1423   1432   1436   2939     1  0.0000000  0.4184000  4
   1426   1422   1423   1432     1  180.0000771  2.0083200  2
   1426   1422   1423   1432     1  0.0000000  1.2552000  3
   1426   1429   1435   1437     1  180.0000771  0.0000000  2
   1426   1429   1435   2914     1  0.0000000  0.2928800  2
   1426   1429   1435   2914     1  0.0000000  0.4184000  4
   1429   1435   2914   2894     1  180.0000771  6.2760000  1
   1429   1435   2914   2894     1  0.0000000  0.0000000  2
   1432   1436   2939   2919     1  180.0000771  6.2760000  1
   1432   1436   2939   2919     1  0.0000000  0.0000000  2
   1435   2914   2894   2891     1  0.0000000  2.2175200  1
   1435   2914   2894   2891     1  0.0000000  0.0000000  2
   1435   2914   2894   2891     1  180.0000771  0.6276000  3
   1435   2914   2894   2891     1  180.0000771  2.0920000  4
   1436   2939   2919   2916     1  0.0000000  2.2175200  1
   1436   2939   2919   2916     1  0.0000000  0.0000000  2
   1436   2939   2919   2916     1  180.0000771  0.6276000  3
   1436   2939   2919   2916     1  180.0000771  2.0920000  4
   1437   1435   2914   2894     1  180.0000771  10.4600000  2
   1438   1436   2939   2919     1  180.0000771  10.4600000  2
   1441   1447   1448   1457     1  180.0000771  2.0083200  2
   1441   1447   1448   1457     1  0.0000000  1.2552000  3
   1441   1447   1451   1454     1  180.0000771  2.0083200  2
   1441   1447   1451   1454     1  0.0000000  1.2552000  3
   1444   1441   1447   1448     1  180.0000771  2.0083200  2
   1444   1441   1447   1448     1  0.0000000  1.2552000  3
   1444   1441   1447   1451     1  180.0000771  2.0083200  2
   1444   1441   1447   1451     1  0.0000000  1.2552000  3
   1447   1441   1444   1464     1  0.0000000  0.6508444  3
   1447   1448   1457   1461     1  0.0000000  0.6508444  3
   1447   1451   1454   1460     1  0.0000000  0.6508444  3
   1448   1447   1451   1454     1  180.0000771  2.0083200  2
   1448   1447   1451   1454     1  0.0000000  1.2552000  3
   1448   1457   1461   1463     1  180.0000771  0.0000000  2
   1448   1457   1461   2989     1  0.0000000  0.2928800  2
   1448   1457   1461   2989     1  0.0000000  0.4184000  4
   1451   1447   1448   1457     1  180.0000771  2.0083200  2
   1451   1447   1448   1457     1  0.0000000  1.2552000  3
   1451   1454   1460   1462     1  180.0000771  0.0000000  2
   1451   1454   1460   2964     1  0.0000000  0.2928800  2
   1451   1454   1460   2964     1  0.0000000  0.4184000  4
   1454   1460   2964   2944     1  180.0000771  6.2760000  1
   1454   1460   2964   2944     1  0.0000000  0.0000000  2
   1457   1461   2989   2969     1  180.0000771  6.2760000  1
   1457   1461   2989   2969     1  0.0000000  0.0000000  2
   1460   2964   2944   2941     1  0.0000000  2.2175200  1
   1460   2964   2944   2941     1  0.0000000  0.0000000  2
   1460   2964   2944   2941     1  180.0000771  0.6276000  3
   1460   2964   2944   2941     1  180.0000771  2.0920000  4
   1461   2989   2969   2966     1  0.0000000  2.2175200  1
   1461   2989   2969   2966     1  0.0000000  0.0000000  2
   1461   2989   2969   2966     1  180.0000771  0.6276000  3
   1461   2989   2969   2966     1  180.0000771  2.0920000  4
   1462   1460   2964   2944     1  180.0000771  10.4600000  2
   1463   1461   2989   2969     1  180.0000771  10.4600000  2
   1466   1472   1473   1482     1  180.0000771  2.0083200  2
   1466   1472   1473   1482     1  0.0000000  1.2552000  3
   1466   1472   1476   1479     1  180.0000771  2.0083200  2
   1466   1472   1476   1479     1  0.0000000  1.2552000  3
   1469   1466   1472   1473     1  180.0000771  2.0083200  2
   1469   1466   1472   1473     1  0.0000000  1.2552000  3
   1469   1466   1472   1476     1  180.0000771  2.0083200  2
   1469   1466   1472   1476     1  0.0000000  1.2552000  3
   1472   1466   1469   1489     1  0.0000000  0.6508444  3
   1472   1473   1482   1486     1  0.0000000  0.6508444  3
   1472   1476   1479   1485     1  0.0000000  0.6508444  3
   1473   1472   1476   1479     1  180.0000771  2.0083200  2
   1473   1472   1476   1479     1  0.0000000  1.2552000  3
   1473   1482   1486   1488     1  180.0000771  0.0000000  2
   1473   1482   1486   3039     1  0.0000000  0.2928800  2
   1473   1482   1486   3039     1  0.0000000  0.4184000  4
   1476   1472   1473   1482     1  180.0000771  2.0083200  2
   1476   1472   1473   1482     1  0.0000000  1.2552000  3
   1476   1479   1485   1487     1  180.0000771  0.0000000  2
   1476   1479   1485   3014     1  0.0000000  0.2928800  2
   1476   1479   1485   3014     1  0.0000000  0.4184000  4
   1479   1485   3014   2994     1  180.0000771  6.2760000  1
   1479   1485   3014   2994     1  0.0000000  0.0000000  2
   1482   1486   3039   3019     1  180.0000771  6.2760000  1
   1482   1486   3039   3019     1  0.0000000  0.0000000  2
   1485   3014   2994   2991     1  0.0000000  2.2175200  1
   1485   3014   2994   2991     1  0.0000000  0.0000000  2
   1485   3014   2994   2991     1  180.0000771  0.6276000  3
   1485   3014   2994   2991     1  180.0000771  2.0920000  4
   1486   3039   3019   3016     1  0.0000000  2.2175200  1
   1486   3039   3019   3016     1  0.0000000  0.0000000  2
   1486   3039   3019   3016     1  180.0000771  0.6276000  3
   1486   3039   3019   3016     1  180.0000771  2.0920000  4
   1487   1485   3014   2994     1  180.0000771  10.4600000  2
   1488   1486   3039   3019     1  180.0000771  10.4600000  2
   1491   1497   1498   1507     1  180.0000771  2.0083200  2
   1491   1497   1498   1507     1  0.0000000  1.2552000  3
   1491   1497   1501   1504     1  180.0000771  2.0083200  2
   1491   1497   1501   1504     1  0.0000000  1.2552000  3
   1494   1491   1497   1498     1  180.0000771  2.0083200  2
   1494   1491   1497   1498     1  0.0000000  1.2552000  3
   1494   1491   1497   1501     1  180.0000771  2.0083200  2
   1494   1491   1497   1501     1  0.0000000  1.2552000  3
   1497   1491   1494   1514     1  0.0000000  0.6508444  3
   1497   1498   1507   1511     1  0.0000000  0.6508444  3
   1497   1501   1504   1510     1  0.0000000  0.6508444  3
   1498   1497   1501   1504     1  180.0000771  2.0083200  2
   1498   1497   1501   1504     1  0.0000000  1.2552000  3
   1498   1507   1511   1513     1  180.0000771  0.0000000  2
   1498   1507   1511   3089     1  0.0000000  0.2928800  2
   1498   1507   1511   3089     1  0.0000000  0.4184000  4
   1501   1497   1498   1507     1  180.0000771  2.0083200  2
   1501   1497   1498   1507     1  0.0000000  1.2552000  3
   1501   1504   1510   1512     1  180.0000771  0.0000000  2
   1501   1504   1510   3064     1  0.0000000  0.2928800  2
   1501   1504   1510   3064     1  0.0000000  0.4184000  4
   1504   1510   3064   3044     1  180.0000771  6.2760000  1
   1504   1510   3064   3044     1  0.0000000  0.0000000  2
   1507   1511   3089   3069     1  180.0000771  6.2760000  1
   1507   1511   3089   3069     1  0.0000000  0.0000000  2
   1510   3064   3044   3041     1  0.0000000  2.2175200  1
   1510   3064   3044   3041     1  0.0000000  0.0000000  2
   1510   3064   3044   3041     1  180.0000771  0.6276000  3
   1510   3064   3044   3041     1  180.0000771  2.0920000  4
   1511   3089   3069   3066     1  0.0000000  2.2175200  1
   1511   3089   3069   3066     1  0.0000000  0.0000000  2
   1511   3089   3069   3066     1  180.0000771  0.6276000  3
   1511   3089   3069   3066     1  180.0000771  2.0920000  4
   1512   1510   3064   3044     1  180.0000771  10.4600000  2
   1513   1511   3089   3069     1  180.0000771  10.4600000  2
   1516   1522   1523   1532     1  180.0000771  2.0083200  2
   1516   1522   1523   1532     1  0.0000000  1.2552000  3
   1516   1522   1526   1529     1  180.0000771  2.0083200  2
   1516   1522   1526   1529     1  0.0000000  1.2552000  3
   1519   1516   1522   1523     1  180.0000771  2.0083200  2
   1519   1516   1522   1523     1  0.0000000  1.2552000  3
   1519   1516   1522   1526     1  180.0000771  2.0083200  2
   1519   1516   1522   1526     1  0.0000000  1.2552000  3
   1522   1516   1519   1539     1  0.0000000  0.6508444  3
   1522   1523   1532   1536     1  0.0000000  0.6508444  3
   1522   1526   1529   1535     1  0.0000000  0.6508444  3
   1523   1522   1526   1529     1  180.0000771  2.0083200  2
   1523   1522   1526   1529     1  0.0000000  1.2552000  3
   1523   1532   1536   1538     1  180.0000771  0.0000000  2
   1523   1532   1536   3139     1  0.0000000  0.2928800  2
   1523   1532   1536   3139     1  0.0000000  0.4184000  4
   1526   1522   1523   1532     1  180.0000771  2.0083200  2
   1526   1522   1523   1532     1  0.0000000  1.2552000  3
   1526   1529   1535   1537     1  180.0000771  0.0000000  2
   1526   1529   1535   3114     1  0.0000000  0.2928800  2
   1526   1529   1535   3114     1  0.0000000  0.4184000  4
   1529   1535   3114   3094     1  180.0000771  6.2760000  1
   1529   1535   3114   3094     1  0.0000000  0.0000000  2
   1532   1536   3139   3119     1  180.0000771  6.2760000  1
   1532   1536   3139   3119     1  0.0000000  0.0000000  2
   1535   3114   3094   3091     1  0.0000000  2.2175200  1
   1535   3114   3094   3091     1  0.0000000  0.0000000  2
   1535   3114   3094   3091     1  180.0000771  0.6276000  3
   1535   3114   3094   3091     1  180.0000771  2.0920000  4
   1536   3139   3119   3116     1  0.0000000  2.2175200  1
   1536   3139   3119   3116     1  0.0000000  0.0000000  2
   1536   3139   3119   3116     1  180.0000771  0.6276000  3
   1536   3139   3119   3116     1  180.0000771  2.0920000  4
   1537   1535   3114   3094     1  180.0000771  10.4600000  2
   1538   1536   3139   3119     1  180.0000771  10.4600000  2
   1541   1547   1548   1557     1  180.0000771  2.0083200  2
   1541   1547   1548   1557     1  0.0000000  1.2552000  3
   1541   1547   1551   1554     1  180.0000771  2.0083200  2
   1541   1547   1551   1554     1  0.0000000  1.2552000  3
   1544   1541   1547   1548     1  180.0000771  2.0083200  2
   1544   1541   1547   1548     1  0.0000000  1.2552000  3
   1544   1541   1547   1551     1  180.0000771  2.0083200  2
   1544   1541   1547   1551     1  0.0000000  1.2552000  3
   1547   1541   1544   1564     1  0.0000000  0.6508444  3
   1547   1548   1557   1561     1  0.0000000  0.6508444  3
   1547   1551   1554   1560     1  0.0000000  0.6508444  3
   1548   1547   1551   1554     1  180.0000771  2.0083200  2
   1548   1547   1551   1554     1  0.0000000  1.2552000  3
   1548   1557   1561   1563     1  180.0000771  0.0000000  2
   1548   1557   1561   3170     1  0.0000000  0.2928800  2
   1548   1557   1561   3170     1  0.0000000  0.4184000  4
   1551   1547   1548   1557     1  180.0000771  2.0083200  2
   1551   1547   1548   1557     1  0.0000000  1.2552000  3
   1551   1554   1560   3141     1  0.0000000  0.2928800  2
   1551   1554   1560   3141     1  0.0000000  0.4184000  4
   1551   1554   1560   1562     1  180.0000771  0.0000000  2
   1554   1560   3141   3143     1  180.0000771  6.2760000  1
   1554   1560   3141   3143     1  0.0000000  0.0000000  2
   1557   1561   3170   3172     1  180.0000771  6.2760000  1
   1557   1561   3170   3172     1  0.0000000  0.0000000  2
   1560   3141   3143   3145     1  0.0000000  2.2175200  1
   1560   3141   3143   3145     1  0.0000000  0.0000000  2
   1560   3141   3143   3145     1  180.0000771  0.6276000  3
   1560   3141   3143   3145     1  180.0000771  2.0920000  4
   1561   3170   3172   3174     1  0.0000000  2.2175200  1
   1561   3170   3172   3174     1  0.0000000  0.0000000  2
   1561   3170   3172   3174     1  180.0000771  0.6276000  3
   1561   3170   3172   3174     1  180.0000771  2.0920000  4
   1562   1560   3141   3143     1  180.0000771  10.4600000  2
   1563   1561   3170   3172     1  180.0000771  10.4600000  2
   1566   1572   1573   1582     1  180.0000771  2.0083200  2
   1566   1572   1573   1582     1  0.0000000  1.2552000  3
   1566   1572   1576   1579     1  180.0000771  2.0083200  2
   1566   1572   1576   1579     1  0.0000000  1.2552000  3
   1569   1566   1572   1573     1  180.0000771  2.0083200  2
   1569   1566   1572   1573     1  0.0000000  1.2552000  3
   1569   1566   1572   1576     1  180.0000771  2.0083200  2
   1569   1566   1572   1576     1  0.0000000  1.2552000  3
   1572   1566   1569   1589     1  0.0000000  0.6508444  3
   1572   1573   1582   1586     1  0.0000000  0.6508444  3
   1572   1576   1579   1585     1  0.0000000  0.6508444  3
   1573   1572   1576   1579     1  180.0000771  2.0083200  2
   1573   1572   1576   1579     1  0.0000000  1.2552000  3
   1573   1582   1586   1588     1  180.0000771  0.0000000  2
   1573   1582   1586   3228     1  0.0000000  0.2928800  2
   1573   1582   1586   3228     1  0.0000000  0.4184000  4
   1576   1572   1573   1582     1  180.0000771  2.0083200  2
   1576   1572   1573   1582     1  0.0000000  1.2552000  3
   1576   1579   1585   3199     1  0.0000000  0.2928800  2
   1576   1579   1585   3199     1  0.0000000  0.4184000  4
   1576   1579   1585   1587     1  180.0000771  0.0000000  2
   1579   1585   3199   3201     1  180.0000771  6.2760000  1
   1579   1585   3199   3201     1  0.0000000  0.0000000  2
   1582   1586   3228   3230     1  180.0000771  6.2760000  1
   1582   1586   3228   3230     1  0.0000000  0.0000000  2
   1585   3199   3201   3203     1  0.0000000  2.2175200  1
   1585   3199   3201   3203     1  0.0000000  0.0000000  2
   1585   3199   3201   3203     1  180.0000771  0.6276000  3
   1585   3199   3201   3203     1  180.0000771  2.0920000  4
   1586   3228   3230   3232     1  0.0000000  2.2175200  1
   1586   3228   3230   3232     1  0.0000000  0.0000000  2
   1586   3228   3230   3232     1  180.0000771  0.6276000  3
   1586   3228   3230   3232     1  180.0000771  2.0920000  4
   1587   1585   3199   3201     1  180.0000771  10.4600000  2
   1588   1586   3228   3230     1  180.0000771  10.4600000  2
   1591   1597   1598   1607     1  180.0000771  2.0083200  2
   1591   1597   1598   1607     1  0.0000000  1.2552000  3
   1591   1597   1601   1604     1  180.0000771  2.0083200  2
   1591   1597   1601   1604     1  0.0000000  1.2552000  3
   1594   1591   1597   1598     1  180.0000771  2.0083200  2
   1594   1591   1597   1598     1  0.0000000  1.2552000  3
   1594   1591   1597   1601     1  180.0000771  2.0083200  2
   1594   1591   1597   1601     1  0.0000000  1.2552000  3
   1597   1591   1594   1614     1  0.0000000  0.6508444  3
   1597   1598   1607   1611     1  0.0000000  0.6508444  3
   1597   1601   1604   1610     1  0.0000000  0.6508444  3
   1598   1597   1601   1604     1  180.0000771  2.0083200  2
   1598   1597   1601   1604     1  0.0000000  1.2552000  3
   1598   1607   1611   1613     1  180.0000771  0.0000000  2
   1598   1607   1611   3286     1  0.0000000  0.2928800  2
   1598   1607   1611   3286     1  0.0000000  0.4184000  4
   1601   1597   1598   1607     1  180.0000771  2.0083200  2
   1601   1597   1598   1607     1  0.0000000  1.2552000  3
   1601   1604   1610   3257     1  0.0000000  0.2928800  2
   1601   1604   1610   3257     1  0.0000000  0.4184000  4
   1601   1604   1610   1612     1  180.0000771  0.0000000  2
   1604   1610   3257   3259     1  180.0000771  6.2760000  1
   1604   1610   3257   3259     1  0.0000000  0.0000000  2
   1607   1611   3286   3288     1  180.0000771  6.2760000  1
   1607   1611   3286   3288     1  0.0000000  0.0000000  2
   1610   3257   3259   3261     1  0.0000000  2.2175200  1
   1610   3257   3259   3261     1  0.0000000  0.0000000  2
   1610   3257   3259   3261     1  180.0000771  0.6276000  3
   1610   3257   3259   3261     1  180.0000771  2.0920000  4
   1611   3286   3288   3290     1  0.0000000  2.2175200  1
   1611   3286   3288   3290     1  0.0000000  0.0000000  2
   1611   3286   3288   3290     1  180.0000771  0.6276000  3
   1611   3286   3288   3290     1  180.0000771  2.0920000  4
   1612   1610   3257   3259     1  180.0000771  10.4600000  2
   1613   1611   3286   3288     1  180.0000771  10.4600000  2
   1616   1622   1623   1632     1  180.0000771  2.0083200  2
   1616   1622   1623   1632     1  0.0000000  1.2552000  3
   1616   1622   1626   1629     1  180.0000771  2.0083200  2
   1616   1622   1626   1629     1  0.0000000  1.2552000  3
   1619   1616   1622   1623     1  180.0000771  2.0083200  2
   1619   1616   1622   1623     1  0.0000000  1.2552000  3
   1619   1616   1622   1626     1  180.0000771  2.0083200  2
   1619   1616   1622   1626     1  0.0000000  1.2552000  3
   1622   1616   1619   1639     1  0.0000000  0.6508444  3
   1622   1623   1632   1636     1  0.0000000  0.6508444  3
   1622   1626   1629   1635     1  0.0000000  0.6508444  3
   1623   1622   1626   1629     1  180.0000771  2.0083200  2
   1623   1622   1626   1629     1  0.0000000  1.2552000  3
   1623   1632   1636   1638     1  180.0000771  0.0000000  2
   1623   1632   1636   3344     1  0.0000000  0.2928800  2
   1623   1632   1636   3344     1  0.0000000  0.4184000  4
   1626   1622   1623   1632     1  180.0000771  2.0083200  2
   1626   1622   1623   1632     1  0.0000000  1.2552000  3
   1626   1629   1635   3315     1  0.0000000  0.2928800  2
   1626   1629   1635   3315     1  0.0000000  0.4184000  4
   1626   1629   1635   1637     1  180.0000771  0.0000000  2
   1629   1635   3315   3317     1  180.0000771  6.2760000  1
   1629   1635   3315   3317     1  0.0000000  0.0000000  2
   1632   1636   3344   3346     1  180.0000771  6.2760000  1
   1632   1636   3344   3346     1  0.0000000  0.0000000  2
   1635   3315   3317   3319     1  0.0000000  2.2175200  1
   1635   3315   3317   3319     1  0.0000000  0.0000000  2
   1635   3315   3317   3319     1  180.0000771  0.6276000  3
   1635   3315   3317   3319     1  180.0000771  2.0920000  4
   1636   3344   3346   3348     1  0.0000000  2.2175200  1
   1636   3344   3346   3348     1  0.0000000  0.0000000  2
   1636   3344   3346   3348     1  180.0000771  0.6276000  3
   1636   3344   3346   3348     1  180.0000771  2.0920000  4
   1637   1635   3315   3317     1  180.0000771  10.4600000  2
   1638   1636   3344   3346     1  180.0000771  10.4600000  2
   1641   1647   1648   1657     1  180.0000771  2.0083200  2
   1641   1647   1648   1657     1  0.0000000  1.2552000  3
   1641   1647   1651   1654     1  180.0000771  2.0083200  2
   1641   1647   1651   1654     1  0.0000000  1.2552000  3
   1644   1641   1647   1648     1  180.0000771  2.0083200  2
   1644   1641   1647   1648     1  0.0000000  1.2552000  3
   1644   1641   1647   1651     1  180.0000771  2.0083200  2
   1644   1641   1647   1651     1  0.0000000  1.2552000  3
   1647   1641   1644   1664     1  0.0000000  0.6508444  3
   1647   1648   1657   1661     1  0.0000000  0.6508444  3
   1647   1651   1654   1660     1  0.0000000  0.6508444  3
   1648   1647   1651   1654     1  180.0000771  2.0083200  2
   1648   1647   1651   1654     1  0.0000000  1.2552000  3
   1648   1657   1661   1663     1  180.0000771  0.0000000  2
   1648   1657   1661   3402     1  0.0000000  0.2928800  2
   1648   1657   1661   3402     1  0.0000000  0.4184000  4
   1651   1647   1648   1657     1  180.0000771  2.0083200  2
   1651   1647   1648   1657     1  0.0000000  1.2552000  3
   1651   1654   1660   3373     1  0.0000000  0.2928800  2
   1651   1654   1660   3373     1  0.0000000  0.4184000  4
   1651   1654   1660   1662     1  180.0000771  0.0000000  2
   1654   1660   3373   3375     1  180.0000771  6.2760000  1
   1654   1660   3373   3375     1  0.0000000  0.0000000  2
   1657   1661   3402   3404     1  180.0000771  6.2760000  1
   1657   1661   3402   3404     1  0.0000000  0.0000000  2
   1660   3373   3375   3377     1  0.0000000  2.2175200  1
   1660   3373   3375   3377     1  0.0000000  0.0000000  2
   1660   3373   3375   3377     1  180.0000771  0.6276000  3
   1660   3373   3375   3377     1  180.0000771  2.0920000  4
   1661   3402   3404   3406     1  0.0000000  2.2175200  1
   1661   3402   3404   3406     1  0.0000000  0.0000000  2
   1661   3402   3404   3406     1  180.0000771  0.6276000  3
   1661   3402   3404   3406     1  180.0000771  2.0920000  4
   1662   1660   3373   3375     1  180.0000771  10.4600000  2
   1663   1661   3402   3404     1  180.0000771  10.4600000  2
   1666   1672   1673   1682     1  180.0000771  2.0083200  2
   1666   1672   1673   1682     1  0.0000000  1.2552000  3
   1666   1672   1676   1679     1  180.0000771  2.0083200  2
   1666   1672   1676   1679     1  0.0000000  1.2552000  3
   1669   1666   1672   1673     1  180.0000771  2.0083200  2
   1669   1666   1672   1673     1  0.0000000  1.2552000  3
   1669   1666   1672   1676     1  180.0000771  2.0083200  2
   1669   1666   1672   1676     1  0.0000000  1.2552000  3
   1672   1666   1669   1689     1  0.0000000  0.6508444  3
   1672   1673   1682   1686     1  0.0000000  0.6508444  3
   1672   1676   1679   1685     1  0.0000000  0.6508444  3
   1673   1672   1676   1679     1  180.0000771  2.0083200  2
   1673   1672   1676   1679     1  0.0000000  1.2552000  3
   1673   1682   1686   1688     1  180.0000771  0.0000000  2
   1673   1682   1686   3460     1  0.0000000  0.2928800  2
   1673   1682   1686   3460     1  0.0000000  0.4184000  4
   1676   1672   1673   1682     1  180.0000771  2.0083200  2
   1676   1672   1673   1682     1  0.0000000  1.2552000  3
   1676   1679   1685   3431     1  0.0000000  0.2928800  2
   1676   1679   1685   3431     1  0.0000000  0.4184000  4
   1676   1679   1685   1687     1  180.0000771  0.0000000  2
   1679   1685   3431   3433     1  180.0000771  6.2760000  1
   1679   1685   3431   3433     1  0.0000000  0.0000000  2
   1682   1686   3460   3462     1  180.0000771  6.2760000  1
   1682   1686   3460   3462     1  0.0000000  0.0000000  2
   1685   3431   3433   3435     1  0.0000000  2.2175200  1
   1685   3431   3433   3435     1  0.0000000  0.0000000  2
   1685   3431   3433   3435     1  180.0000771  0.6276000  3
   1685   3431   3433   3435     1  180.0000771  2.0920000  4
   1686   3460   3462   3464     1  0.0000000  2.2175200  1
   1686   3460   3462   3464     1  0.0000000  0.0000000  2
   1686   3460   3462   3464     1  180.0000771  0.6276000  3
   1686   3460   3462   3464     1  180.0000771  2.0920000  4
   1687   1685   3431   3433     1  180.0000771  10.4600000  2
   1688   1686   3460   3462     1  180.0000771  10.4600000  2
   1691   1697   1698   1707     1  180.0000771  2.0083200  2
   1691   1697   1698   1707     1  0.0000000  1.2552000  3
   1691   1697   1701   1704     1  180.0000771  2.0083200  2
   1691   1697   1701   1704     1  0.0000000  1.2552000  3
   1694   1691   1697   1698     1  180.0000771  2.0083200  2
   1694   1691   1697   1698     1  0.0000000  1.2552000  3
   1694   1691   1697   1701     1  180.0000771  2.0083200  2
   1694   1691   1697   1701     1  0.0000000  1.2552000  3
   1697   1691   1694   1714     1  0.0000000  0.6508444  3
   1697   1698   1707   1711     1  0.0000000  0.6508444  3
   1697   1701   1704   1710     1  0.0000000  0.6508444  3
   1698   1697   1701   1704     1  180.0000771  2.0083200  2
   1698   1697   1701   1704     1  0.0000000  1.2552000  3
   1698   1707   1711   1713     1  180.0000771  0.0000000  2
   1698   1707   1711   3518     1  0.0000000  0.2928800  2
   1698   1707   1711   3518     1  0.0000000  0.4184000  4
   1701   1697   1698   1707     1  180.0000771  2.0083200  2
   1701   1697   1698   1707     1  0.0000000  1.2552000  3
   1701   1704   1710   3489     1  0.0000000  0.2928800  2
   1701   1704   1710   3489     1  0.0000000  0.4184000  4
   1701   1704   1710   1712     1  180.0000771  0.0000000  2
   1704   1710   3489   3491     1  180.0000771  6.2760000  1
   1704   1710   3489   3491     1  0.0000000  0.0000000  2
   1707   1711   3518   3520     1  180.0000771  6.2760000  1
   1707   1711   3518   3520     1  0.0000000  0.0000000  2
   1710   3489   3491   3493     1  0.0000000  2.2175200  1
   1710   3489   3491   3493     1  0.0000000  0.0000000  2
   1710   3489   3491   3493     1  180.0000771  0.6276000  3
   1710   3489   3491   3493     1  180.0000771  2.0920000  4
   1711   3518   3520   3522     1  0.0000000  2.2175200  1
   1711   3518   3520   3522     1  0.0000000  0.0000000  2
   1711   3518   3520   3522     1  180.0000771  0.6276000  3
   1711   3518   3520   3522     1  180.0000771  2.0920000  4
   1712   1710   3489   3491     1  180.0000771  10.4600000  2
   1713   1711   3518   3520     1  180.0000771  10.4600000  2
   1716   1722   1723   1732     1  180.0000771  2.0083200  2
   1716   1722   1723   1732     1  0.0000000  1.2552000  3
   1716   1722   1726   1729     1  180.0000771  2.0083200  2
   1716   1722   1726   1729     1  0.0000000  1.2552000  3
   1719   1716   1722   1723     1  180.0000771  2.0083200  2
   1719   1716   1722   1723     1  0.0000000  1.2552000  3
   1719   1716   1722   1726     1  180.0000771  2.0083200  2
   1719   1716   1722   1726     1  0.0000000  1.2552000  3
   1722   1716   1719   1739     1  0.0000000  0.6508444  3
   1722   1723   1732   1736     1  0.0000000  0.6508444  3
   1722   1726   1729   1735     1  0.0000000  0.6508444  3
   1723   1722   1726   1729     1  180.0000771  2.0083200  2
   1723   1722   1726   1729     1  0.0000000  1.2552000  3
   1723   1732   1736   1738     1  180.0000771  0.0000000  2
   1723   1732   1736   3576     1  0.0000000  0.2928800  2
   1723   1732   1736   3576     1  0.0000000  0.4184000  4
   1726   1722   1723   1732     1  180.0000771  2.0083200  2
   1726   1722   1723   1732     1  0.0000000  1.2552000  3
   1726   1729   1735   3547     1  0.0000000  0.2928800  2
   1726   1729   1735   3547     1  0.0000000  0.4184000  4
   1726   1729   1735   1737     1  180.0000771  0.0000000  2
   1729   1735   3547   3549     1  180.0000771  6.2760000  1
   1729   1735   3547   3549     1  0.0000000  0.0000000  2
   1732   1736   3576   3578     1  180.0000771  6.2760000  1
   1732   1736   3576   3578     1  0.0000000  0.0000000  2
   1735   3547   3549   3551     1  0.0000000  2.2175200  1
   1735   3547   3549   3551     1  0.0000000  0.0000000  2
   1735   3547   3549   3551     1  180.0000771  0.6276000  3
   1735   3547   3549   3551     1  180.0000771  2.0920000  4
   1736   3576   3578   3580     1  0.0000000  2.2175200  1
   1736   3576   3578   3580     1  0.0000000  0.0000000  2
   1736   3576   3578   3580     1  180.0000771  0.6276000  3
   1736   3576   3578   3580     1  180.0000771  2.0920000  4
   1737   1735   3547   3549     1  180.0000771  10.4600000  2
   1738   1736   3576   3578     1  180.0000771  10.4600000  2
   1741   1747   1748   1757     1  180.0000771  2.0083200  2
   1741   1747   1748   1757     1  0.0000000  1.2552000  3
   1741   1747   1751   1754     1  180.0000771  2.0083200  2
   1741   1747   1751   1754     1  0.0000000  1.2552000  3
   1744   1741   1747   1748     1  180.0000771  2.0083200  2
   1744   1741   1747   1748     1  0.0000000  1.2552000  3
   1744   1741   1747   1751     1  180.0000771  2.0083200  2
   1744   1741   1747   1751     1  0.0000000  1.2552000  3
   1747   1741   1744   1764     1  0.0000000  0.6508444  3
   1747   1748   1757   1761     1  0.0000000  0.6508444  3
   1747   1751   1754   1760     1  0.0000000  0.6508444  3
   1748   1747   1751   1754     1  180.0000771  2.0083200  2
   1748   1747   1751   1754     1  0.0000000  1.2552000  3
   1748   1757   1761   1763     1  180.0000771  0.0000000  2
   1748   1757   1761   3634     1  0.0000000  0.2928800  2
   1748   1757   1761   3634     1  0.0000000  0.4184000  4
   1751   1747   1748   1757     1  180.0000771  2.0083200  2
   1751   1747   1748   1757     1  0.0000000  1.2552000  3
   1751   1754   1760   3605     1  0.0000000  0.2928800  2
   1751   1754   1760   3605     1  0.0000000  0.4184000  4
   1751   1754   1760   1762     1  180.0000771  0.0000000  2
   1754   1760   3605   3607     1  180.0000771  6.2760000  1
   1754   1760   3605   3607     1  0.0000000  0.0000000  2
   1757   1761   3634   3636     1  180.0000771  6.2760000  1
   1757   1761   3634   3636     1  0.0000000  0.0000000  2
   1760   3605   3607   3609     1  0.0000000  2.2175200  1
   1760   3605   3607   3609     1  0.0000000  0.0000000  2
   1760   3605   3607   3609     1  180.0000771  0.6276000  3
   1760   3605   3607   3609     1  180.0000771  2.0920000  4
   1761   3634   3636   3638     1  0.0000000  2.2175200  1
   1761   3634   3636   3638     1  0.0000000  0.0000000  2
   1761   3634   3636   3638     1  180.0000771  0.6276000  3
   1761   3634   3636   3638     1  180.0000771  2.0920000  4
   1762   1760   3605   3607     1  180.0000771  10.4600000  2
   1763   1761   3634   3636     1  180.0000771  10.4600000  2
   1766   1772   1773   1782     1  180.0000771  2.0083200  2
   1766   1772   1773   1782     1  0.0000000  1.2552000  3
   1766   1772   1776   1779     1  180.0000771  2.0083200  2
   1766   1772   1776   1779     1  0.0000000  1.2552000  3
   1769   1766   1772   1773     1  180.0000771  2.0083200  2
   1769   1766   1772   1773     1  0.0000000  1.2552000  3
   1769   1766   1772   1776     1  180.0000771  2.0083200  2
   1769   1766   1772   1776     1  0.0000000  1.2552000  3
   1772   1766   1769   1789     1  0.0000000  0.6508444  3
   1772   1773   1782   1786     1  0.0000000  0.6508444  3
   1772   1776   1779   1785     1  0.0000000  0.6508444  3
   1773   1772   1776   1779     1  180.0000771  2.0083200  2
   1773   1772   1776   1779     1  0.0000000  1.2552000  3
   1773   1782   1786   1788     1  180.0000771  0.0000000  2
   1773   1782   1786   3692     1  0.0000000  0.2928800  2
   1773   1782   1786   3692     1  0.0000000  0.4184000  4
   1776   1772   1773   1782     1  180.0000771  2.0083200  2
   1776   1772   1773   1782     1  0.0000000  1.2552000  3
   1776   1779   1785   3663     1  0.0000000  0.2928800  2
   1776   1779   1785   3663     1  0.0000000  0.4184000  4
   1776   1779   1785   1787     1  180.0000771  0.0000000  2
   1779   1785   3663   3665     1  180.0000771  6.2760000  1
   1779   1785   3663   3665     1  0.0000000  0.0000000  2
   1782   1786   3692   3694     1  180.0000771  6.2760000  1
   1782   1786   3692   3694     1  0.0000000  0.0000000  2
   1785   3663   3665   3667     1  0.0000000  2.2175200  1
   1785   3663   3665   3667     1  0.0000000  0.0000000  2
   1785   3663   3665   3667     1  180.0000771  0.6276000  3
   1785   3663   3665   3667     1  180.0000771  2.0920000  4
   1786   3692   3694   3696     1  0.0000000  2.2175200  1
   1786   3692   3694   3696     1  0.0000000  0.0000000  2
   1786   3692   3694   3696     1  180.0000771  0.6276000  3
   1786   3692   3694   3696     1  180.0000771  2.0920000  4
   1787   1785   3663   3665     1  180.0000771  10.4600000  2
   1788   1786   3692   3694     1  180.0000771  10.4600000  2
   1791   1797   1798   1807     1  180.0000771  2.0083200  2
   1791   1797   1798   1807     1  0.0000000  1.2552000  3
   1791   1797   1801   1804     1  180.0000771  2.0083200  2
   1791   1797   1801   1804     1  0.0000000  1.2552000  3
   1794   1791   1797   1798     1  180.0000771  2.0083200  2
   1794   1791   1797   1798     1  0.0000000  1.2552000  3
   1794   1791   1797   1801     1  180.0000771  2.0083200  2
   1794   1791   1797   1801     1  0.0000000  1.2552000  3
   1797   1791   1794   1814     1  0.0000000  0.6508444  3
   1797   1798   1807   1811     1  0.0000000  0.6508444  3
   1797   1801   1804   1810     1  0.0000000  0.6508444  3
   1798   1797   1801   1804     1  180.0000771  2.0083200  2
   1798   1797   1801   1804     1  0.0000000  1.2552000  3
   1798   1807   1811   1813     1  180.0000771  0.0000000  2
   1798   1807   1811   3750     1  0.0000000  0.2928800  2
   1798   1807   1811   3750     1  0.0000000  0.4184000  4
   1801   1797   1798   1807     1  180.0000771  2.0083200  2
   1801   1797   1798   1807     1  0.0000000  1.2552000  3
   1801   1804   1810   3721     1  0.0000000  0.2928800  2
   1801   1804   1810   3721     1  0.0000000  0.4184000  4
   1801   1804   1810   1812     1  180.0000771  0.0000000  2
   1804   1810   3721   3723     1  180.0000771  6.2760000  1
   1804   1810   3721   3723     1  0.0000000  0.0000000  2
   1807   1811   3750   3752     1  180.0000771  6.2760000  1
   1807   1811   3750   3752     1  0.0000000  0.0000000  2
   1810   3721   3723   3725     1  0.0000000  2.2175200  1
   1810   3721   3723   3725     1  0.0000000  0.0000000  2
   1810   3721   3723   3725     1  180.0000771  0.6276000  3
   1810   3721   3723   3725     1  180.0000771  2.0920000  4
   1811   3750   3752   3754     1  0.0000000  2.2175200  1
   1811   3750   3752   3754     1  0.0000000  0.0000000  2
   1811   3750   3752   3754     1  180.0000771  0.6276000  3
   1811   3750   3752   3754     1  180.0000771  2.0920000  4
   1812   1810   3721   3723     1  180.0000771  10.4600000  2
   1813   1811   3750   3752     1  180.0000771  10.4600000  2
   1816   1822   1823   1832     1  180.0000771  2.0083200  2
   1816   1822   1823   1832     1  0.0000000  1.2552000  3
   1816   1822   1826   1829     1  180.0000771  2.0083200  2
   1816   1822   1826   1829     1  0.0000000  1.2552000  3
   1819   1816   1822   1823     1  180.0000771  2.0083200  2
   1819   1816   1822   1823     1  0.0000000  1.2552000  3
   1819   1816   1822   1826     1  180.0000771  2.0083200  2
   1819   1816   1822   1826     1  0.0000000  1.2552000  3
   1822   1816   1819   1839     1  0.0000000  0.6508444  3
   1822   1823   1832   1836     1  0.0000000  0.6508444  3
   1822   1826   1829   1835     1  0.0000000  0.6508444  3
   1823   1822   1826   1829     1  180.0000771  2.0083200  2
   1823   1822   1826   1829     1  0.0000000  1.2552000  3
   1823   1832   1836   1838     1  180.0000771  0.0000000  2
   1823   1832   1836   3808     1  0.0000000  0.2928800  2
   1823   1832   1836   3808     1  0.0000000  0.4184000  4
   1826   1822   1823   1832     1  180.0000771  2.0083200  2
   1826   1822   1823   1832     1  0.0000000  1.2552000  3
   1826   1829   1835   3779     1  0.0000000  0.2928800  2
   1826   1829   1835   3779     1  0.0000000  0.4184000  4
   1826   1829   1835   1837     1  180.0000771  0.0000000  2
   1829   1835   3779   3781     1  180.0000771  6.2760000  1
   1829   1835   3779   3781     1  0.0000000  0.0000000  2
   1832   1836   3808   3810     1  180.0000771  6.2760000  1
   1832   1836   3808   3810     1  0.0000000  0.0000000  2
   1835   3779   3781   3783     1  0.0000000  2.2175200  1
   1835   3779   3781   3783     1  0.0000000  0.0000000  2
   1835   3779   3781   3783     1  180.0000771  0.6276000  3
   1835   3779   3781   3783     1  180.0000771  2.0920000  4
   1836   3808   3810   3812     1  0.0000000  2.2175200  1
   1836   3808   3810   3812     1  0.0000000  0.0000000  2
   1836   3808   3810   3812     1  180.0000771  0.6276000  3
   1836   3808   3810   3812     1  180.0000771  2.0920000  4
   1837   1835   3779   3781     1  180.0000771  10.4600000  2
   1838   1836   3808   3810     1  180.0000771  10.4600000  2
   1841   1847   1848   1857     1  180.0000771  2.0083200  2
   1841   1847   1848   1857     1  0.0000000  1.2552000  3
   1841   1847   1851   1854     1  180.0000771  2.0083200  2
   1841   1847   1851   1854     1  0.0000000  1.2552000  3
   1844   1841   1847   1848     1  180.0000771  2.0083200  2
   1844   1841   1847   1848     1  0.0000000  1.2552000  3
   1844   1841   1847   1851     1  180.0000771  2.0083200  2
   1844   1841   1847   1851     1  0.0000000  1.2552000  3
   1847   1841   1844   1864     1  0.0000000  0.6508444  3
   1847   1848   1857   1861     1  0.0000000  0.6508444  3
   1847   1851   1854   1860     1  0.0000000  0.6508444  3
   1848   1847   1851   1854     1  180.0000771  2.0083200  2
   1848   1847   1851   1854     1  0.0000000  1.2552000  3
   1848   1857   1861   1863     1  180.0000771  0.0000000  2
   1848   1857   1861   3866     1  0.0000000  0.2928800  2
   1848   1857   1861   3866     1  0.0000000  0.4184000  4
   1851   1847   1848   1857     1  180.0000771  2.0083200  2
   1851   1847   1848   1857     1  0.0000000  1.2552000  3
   1851   1854   1860   3837     1  0.0000000  0.2928800  2
   1851   1854   1860   3837     1  0.0000000  0.4184000  4
   1851   1854   1860   1862     1  180.0000771  0.0000000  2
   1854   1860   3837   3839     1  180.0000771  6.2760000  1
   1854   1860   3837   3839     1  0.0000000  0.0000000  2
   1857   1861   3866   3868     1  180.0000771  6.2760000  1
   1857   1861   3866   3868     1  0.0000000  0.0000000  2
   1860   3837   3839   3841     1  0.0000000  2.2175200  1
   1860   3837   3839   3841     1  0.0000000  0.0000000  2
   1860   3837   3839   3841     1  180.0000771  0.6276000  3
   1860   3837   3839   3841     1  180.0000771  2.0920000  4
   1861   3866   3868   3870     1  0.0000000  2.2175200  1
   1861   3866   3868   3870     1  0.0000000  0.0000000  2
   1861   3866   3868   3870     1  180.0000771  0.6276000  3
   1861   3866   3868   3870     1  180.0000771  2.0920000  4
   1862   1860   3837   3839     1  180.0000771  10.4600000  2
   1863   1861   3866   3868     1  180.0000771  10.4600000  2
   1866   1872   1873   1882     1  180.0000771  2.0083200  2
   1866   1872   1873   1882     1  0.0000000  1.2552000  3
   1866   1872   1876   1879     1  180.0000771  2.0083200  2
   1866   1872   1876   1879     1  0.0000000  1.2552000  3
   1869   1866   1872   1873     1  180.0000771  2.0083200  2
   1869   1866   1872   1873     1  0.0000000  1.2552000  3
   1869   1866   1872   1876     1  180.0000771  2.0083200  2
   1869   1866   1872   1876     1  0.0000000  1.2552000  3
   1872   1866   1869   1889     1  0.0000000  0.6508444  3
   1872   1873   1882   1886     1  0.0000000  0.6508444  3
   1872   1876   1879   1885     1  0.0000000  0.6508444  3
   1873   1872   1876   1879     1  180.0000771  2.0083200  2
   1873   1872   1876   1879     1  0.0000000  1.2552000  3
   1873   1882   1886   1888     1  180.0000771  0.0000000  2
   1873   1882   1886   3924     1  0.0000000  0.2928800  2
   1873   1882   1886   3924     1  0.0000000  0.4184000  4
   1876   1872   1873   1882     1  180.0000771  2.0083200  2
   1876   1872   1873   1882     1  0.0000000  1.2552000  3
   1876   1879   1885   3895     1  0.0000000  0.2928800  2
   1876   1879   1885   3895     1  0.0000000  0.4184000  4
   1876   1879   1885   1887     1  180.0000771  0.0000000  2
   1879   1885   3895   3897     1  180.0000771  6.2760000  1
   1879   1885   3895   3897     1  0.0000000  0.0000000  2
   1882   1886   3924   3926     1  180.0000771  6.2760000  1
   1882   1886   3924   3926     1  0.0000000  0.0000000  2
   1885   3895   3897   3899     1  0.0000000  2.2175200  1
   1885   3895   3897   3899     1  0.0000000  0.0000000  2
   1885   3895   3897   3899     1  180.0000771  0.6276000  3
   1885   3895   3897   3899     1  180.0000771  2.0920000  4
   1886   3924   3926   3928     1  0.0000000  2.2175200  1
   1886   3924   3926   3928     1  0.0000000  0.0000000  2
   1886   3924   3926   3928     1  180.0000771  0.6276000  3
   1886   3924   3926   3928     1  180.0000771  2.0920000  4
   1887   1885   3895   3897     1  180.0000771  10.4600000  2
   1888   1886   3924   3926     1  180.0000771  10.4600000  2
   1891   1897   1898   1907     1  180.0000771  2.0083200  2
   1891   1897   1898   1907     1  0.0000000  1.2552000  3
   1891   1897   1901   1904     1  180.0000771  2.0083200  2
   1891   1897   1901   1904     1  0.0000000  1.2552000  3
   1894   1891   1897   1898     1  180.0000771  2.0083200  2
   1894   1891   1897   1898     1  0.0000000  1.2552000  3
   1894   1891   1897   1901     1  180.0000771  2.0083200  2
   1894   1891   1897   1901     1  0.0000000  1.2552000  3
   1897   1891   1894   1914     1  0.0000000  0.6508444  3
   1897   1898   1907   1911     1  0.0000000  0.6508444  3
   1897   1901   1904   1910     1  0.0000000  0.6508444  3
   1898   1897   1901   1904     1  180.0000771  2.0083200  2
   1898   1897   1901   1904     1  0.0000000  1.2552000  3
   1898   1907   1911   1913     1  180.0000771  0.0000000  2
   1898   1907   1911   3982     1  0.0000000  0.2928800  2
   1898   1907   1911   3982     1  0.0000000  0.4184000  4
   1901   1897   1898   1907     1  180.0000771  2.0083200  2
   1901   1897   1898   1907     1  0.0000000  1.2552000  3
   1901   1904   1910   3953     1  0.0000000  0.2928800  2
   1901   1904   1910   3953     1  0.0000000  0.4184000  4
   1901   1904   1910   1912     1  180.0000771  0.0000000  2
   1904   1910   3953   3955     1  180.0000771  6.2760000  1
   1904   1910   3953   3955     1  0.0000000  0.0000000  2
   1907   1911   3982   3984     1  180.0000771  6.2760000  1
   1907   1911   3982   3984     1  0.0000000  0.0000000  2
   1910   3953   3955   3957     1  0.0000000  2.2175200  1
   1910   3953   3955   3957     1  0.0000000  0.0000000  2
   1910   3953   3955   3957     1  180.0000771  0.6276000  3
   1910   3953   3955   3957     1  180.0000771  2.0920000  4
   1911   3982   3984   3986     1  0.0000000  2.2175200  1
   1911   3982   3984   3986     1  0.0000000  0.0000000  2
   1911   3982   3984   3986     1  180.0000771  0.6276000  3
   1911   3982   3984   3986     1  180.0000771  2.0920000  4
   1912   1910   3953   3955     1  180.0000771  10.4600000  2
   1913   1911   3982   3984     1  180.0000771  10.4600000  2
   1916   1922   1923   1932     1  180.0000771  2.0083200  2
   1916   1922   1923   1932     1  0.0000000  1.2552000  3
   1916   1922   1926   1929     1  180.0000771  2.0083200  2
   1916   1922   1926   1929     1  0.0000000  1.2552000  3
   1919   1916   1922   1923     1  180.0000771  2.0083200  2
   1919   1916   1922   1923     1  0.0000000  1.2552000  3
   1919   1916   1922   1926     1  180.0000771  2.0083200  2
   1919   1916   1922   1926     1  0.0000000  1.2552000  3
   1922   1916   1919   1939     1  0.0000000  0.6508444  3
   1922   1923   1932   1936     1  0.0000000  0.6508444  3
   1922   1926   1929   1935     1  0.0000000  0.6508444  3
   1923   1922   1926   1929     1  180.0000771  2.0083200  2
   1923   1922   1926   1929     1  0.0000000  1.2552000  3
   1923   1932   1936   1938     1  180.0000771  0.0000000  2
   1923   1932   1936   4040     1  0.0000000  0.2928800  2
   1923   1932   1936   4040     1  0.0000000  0.4184000  4
   1926   1922   1923   1932     1  180.0000771  2.0083200  2
   1926   1922   1923   1932     1  0.0000000  1.2552000  3
   1926   1929   1935   4011     1  0.0000000  0.2928800  2
   1926   1929   1935   4011     1  0.0000000  0.4184000  4
   1926   1929   1935   1937     1  180.0000771  0.0000000  2
   1929   1935   4011   4013     1  180.0000771  6.2760000  1
   1929   1935   4011   4013     1  0.0000000  0.0000000  2
   1932   1936   4040   4042     1  180.0000771  6.2760000  1
   1932   1936   4040   4042     1  0.0000000  0.0000000  2
   1935   4011   4013   4015     1  0.0000000  2.2175200  1
   1935   4011   4013   4015     1  0.0000000  0.0000000  2
   1935   4011   4013   4015     1  180.0000771  0.6276000  3
   1935   4011   4013   4015     1  180.0000771  2.0920000  4
   1936   4040   4042   4044     1  0.0000000  2.2175200  1
   1936   4040   4042   4044     1  0.0000000  0.0000000  2
   1936   4040   4042   4044     1  180.0000771  0.6276000  3
   1936   4040   4042   4044     1  180.0000771  2.0920000  4
   1937   1935   4011   4013     1  180.0000771  10.4600000  2
   1938   1936   4040   4042     1  180.0000771  10.4600000  2
   1941   1947   1948   1957     1  180.0000771  2.0083200  2
   1941   1947   1948   1957     1  0.0000000  1.2552000  3
   1941   1947   1951   1954     1  180.0000771  2.0083200  2
   1941   1947   1951   1954     1  0.0000000  1.2552000  3
   1944   1941   1947   1948     1  180.0000771  2.0083200  2
   1944   1941   1947   1948     1  0.0000000  1.2552000  3
   1944   1941   1947   1951     1  180.0000771  2.0083200  2
   1944   1941   1947   1951     1  0.0000000  1.2552000  3
   1947   1941   1944   1964     1  0.0000000  0.6508444  3
   1947   1948   1957   1961     1  0.0000000  0.6508444  3
   1947   1951   1954   1960     1  0.0000000  0.6508444  3
   1948   1947   1951   1954     1  180.0000771  2.0083200  2
   1948   1947   1951   1954     1  0.0000000  1.2552000  3
   1948   1957   1961   1963     1  180.0000771  0.0000000  2
   1948   1957   1961   4098     1  0.0000000  0.2928800  2
   1948   1957   1961   4098     1  0.0000000  0.4184000  4
   1951   1947   1948   1957     1  180.0000771  2.0083200  2
   1951   1947   1948   1957     1  0.0000000  1.2552000  3
   1951   1954   1960   4069     1  0.0000000  0.2928800  2
   1951   1954   1960   4069     1  0.0000000  0.4184000  4
   1951   1954   1960   1962     1  180.0000771  0.0000000  2
   1954   1960   4069   4071     1  180.0000771  6.2760000  1
   1954   1960   4069   4071     1  0.0000000  0.0000000  2
   1957   1961   4098   4100     1  180.0000771  6.2760000  1
   1957   1961   4098   4100     1  0.0000000  0.0000000  2
   1960   4069   4071   4073     1  0.0000000  2.2175200  1
   1960   4069   4071   4073     1  0.0000000  0.0000000  2
   1960   4069   4071   4073     1  180.0000771  0.6276000  3
   1960   4069   4071   4073     1  180.0000771  2.0920000  4
   1961   4098   4100   4102     1  0.0000000  2.2175200  1
   1961   4098   4100   4102     1  0.0000000  0.0000000  2
   1961   4098   4100   4102     1  180.0000771  0.6276000  3
   1961   4098   4100   4102     1  180.0000771  2.0920000  4
   1962   1960   4069   4071     1  180.0000771  10.4600000  2
   1963   1961   4098   4100     1  180.0000771  10.4600000  2
   1966   1972   1973   1982     1  180.0000771  2.0083200  2
   1966   1972   1973   1982     1  0.0000000  1.2552000  3
   1966   1972   1976   1979     1  180.0000771  2.0083200  2
   1966   1972   1976   1979     1  0.0000000  1.2552000  3
   1969   1966   1972   1973     1  180.0000771  2.0083200  2
   1969   1966   1972   1973     1  0.0000000  1.2552000  3
   1969   1966   1972   1976     1  180.0000771  2.0083200  2
   1969   1966   1972   1976     1  0.0000000  1.2552000  3
   1972   1966   1969   1989     1  0.0000000  0.6508444  3
   1972   1973   1982   1986     1  0.0000000  0.6508444  3
   1972   1976   1979   1985     1  0.0000000  0.6508444  3
   1973   1972   1976   1979     1  180.0000771  2.0083200  2
   1973   1972   1976   1979     1  0.0000000  1.2552000  3
   1973   1982   1986   1988     1  180.0000771  0.0000000  2
   1973   1982   1986   4156     1  0.0000000  0.2928800  2
   1973   1982   1986   4156     1  0.0000000  0.4184000  4
   1976   1972   1973   1982     1  180.0000771  2.0083200  2
   1976   1972   1973   1982     1  0.0000000  1.2552000  3
   1976   1979   1985   4127     1  0.0000000  0.2928800  2
   1976   1979   1985   4127     1  0.0000000  0.4184000  4
   1976   1979   1985   1987     1  180.0000771  0.0000000  2
   1979   1985   4127   4129     1  180.0000771  6.2760000  1
   1979   1985   4127   4129     1  0.0000000  0.0000000  2
   1982   1986   4156   4158     1  180.0000771  6.2760000  1
   1982   1986   4156   4158     1  0.0000000  0.0000000  2
   1985   4127   4129   4131     1  0.0000000  2.2175200  1
   1985   4127   4129   4131     1  0.0000000  0.0000000  2
   1985   4127   4129   4131     1  180.0000771  0.6276000  3
   1985   4127   4129   4131     1  180.0000771  2.0920000  4
   1986   4156   4158   4160     1  0.0000000  2.2175200  1
   1986   4156   4158   4160     1  0.0000000  0.0000000  2
   1986   4156   4158   4160     1  180.0000771  0.6276000  3
   1986   4156   4158   4160     1  180.0000771  2.0920000  4
   1987   1985   4127   4129     1  180.0000771  10.4600000  2
   1988   1986   4156   4158     1  180.0000771  10.4600000  2
   1991   1997   1998   2007     1  180.0000771  2.0083200  2
   1991   1997   1998   2007     1  0.0000000  1.2552000  3
   1991   1997   2001   2004     1  180.0000771  2.0083200  2
   1991   1997   2001   2004     1  0.0000000  1.2552000  3
   1994   1991   1997   1998     1  180.0000771  2.0083200  2
   1994   1991   1997   1998     1  0.0000000  1.2552000  3
   1994   1991   1997   2001     1  180.0000771  2.0083200  2
   1994   1991   1997   2001     1  0.0000000  1.2552000  3
   1997   1991   1994   2014     1  0.0000000  0.6508444  3
   1997   1998   2007   2011     1  0.0000000  0.6508444  3
   1997   2001   2004   2010     1  0.0000000  0.6508444  3
   1998   1997   2001   2004     1  180.0000771  2.0083200  2
   1998   1997   2001   2004     1  0.0000000  1.2552000  3
   1998   2007   2011   2013     1  180.0000771  0.0000000  2
   1998   2007   2011   4214     1  0.0000000  0.2928800  2
   1998   2007   2011   4214     1  0.0000000  0.4184000  4
   2001   1997   1998   2007     1  180.0000771  2.0083200  2
   2001   1997   1998   2007     1  0.0000000  1.2552000  3
   2001   2004   2010   4185     1  0.0000000  0.2928800  2
   2001   2004   2010   4185     1  0.0000000  0.4184000  4
   2001   2004   2010   2012     1  180.0000771  0.0000000  2
   2004   2010   4185   4187     1  180.0000771  6.2760000  1
   2004   2010   4185   4187     1  0.0000000  0.0000000  2
   2007   2011   4214   4216     1  180.0000771  6.2760000  1
   2007   2011   4214   4216     1  0.0000000  0.0000000  2
   2010   4185   4187   4189     1  0.0000000  2.2175200  1
   2010   4185   4187   4189     1  0.0000000  0.0000000  2
   2010   4185   4187   4189     1  180.0000771  0.6276000  3
   2010   4185   4187   4189     1  180.0000771  2.0920000  4
   2011   4214   4216   4218     1  0.0000000  2.2175200  1
   2011   4214   4216   4218     1  0.0000000  0.0000000  2
   2011   4214   4216   4218     1  180.0000771  0.6276000  3
   2011   4214   4216   4218     1  180.0000771  2.0920000  4
   2012   2010   4185   4187     1  180.0000771  10.4600000  2
   2013   2011   4214   4216     1  180.0000771  10.4600000  2
   2016   2022   2023   2032     1  180.0000771  2.0083200  2
   2016   2022   2023   2032     1  0.0000000  1.2552000  3
   2016   2022   2026   2029     1  180.0000771  2.0083200  2
   2016   2022   2026   2029     1  0.0000000  1.2552000  3
   2019   2016   2022   2023     1  180.0000771  2.0083200  2
   2019   2016   2022   2023     1  0.0000000  1.2552000  3
   2019   2016   2022   2026     1  180.0000771  2.0083200  2
   2019   2016   2022   2026     1  0.0000000  1.2552000  3
   2022   2016   2019   2039     1  0.0000000  0.6508444  3
   2022   2023   2032   2036     1  0.0000000  0.6508444  3
   2022   2026   2029   2035     1  0.0000000  0.6508444  3
   2023   2022   2026   2029     1  180.0000771  2.0083200  2
   2023   2022   2026   2029     1  0.0000000  1.2552000  3
   2023   2032   2036   2038     1  180.0000771  0.0000000  2
   2023   2032   2036   4272     1  0.0000000  0.2928800  2
   2023   2032   2036   4272     1  0.0000000  0.4184000  4
   2026   2022   2023   2032     1  180.0000771  2.0083200  2
   2026   2022   2023   2032     1  0.0000000  1.2552000  3
   2026   2029   2035   4243     1  0.0000000  0.2928800  2
   2026   2029   2035   4243     1  0.0000000  0.4184000  4
   2026   2029   2035   2037     1  180.0000771  0.0000000  2
   2029   2035   4243   4245     1  180.0000771  6.2760000  1
   2029   2035   4243   4245     1  0.0000000  0.0000000  2
   2032   2036   4272   4274     1  180.0000771  6.2760000  1
   2032   2036   4272   4274     1  0.0000000  0.0000000  2
   2035   4243   4245   4247     1  0.0000000  2.2175200  1
   2035   4243   4245   4247     1  0.0000000  0.0000000  2
   2035   4243   4245   4247     1  180.0000771  0.6276000  3
   2035   4243   4245   4247     1  180.0000771  2.0920000  4
   2036   4272   4274   4276     1  0.0000000  2.2175200  1
   2036   4272   4274   4276     1  0.0000000  0.0000000  2
   2036   4272   4274   4276     1  180.0000771  0.6276000  3
   2036   4272   4274   4276     1  180.0000771  2.0920000  4
   2037   2035   4243   4245     1  180.0000771  10.4600000  2
   2038   2036   4272   4274     1  180.0000771  10.4600000  2
   2041   2047   2048   2057     1  180.0000771  2.0083200  2
   2041   2047   2048   2057     1  0.0000000  1.2552000  3
   2041   2047   2051   2054     1  180.0000771  2.0083200  2
   2041   2047   2051   2054     1  0.0000000  1.2552000  3
   2044   2041   2047   2048     1  180.0000771  2.0083200  2
   2044   2041   2047   2048     1  0.0000000  1.2552000  3
   2044   2041   2047   2051     1  180.0000771  2.0083200  2
   2044   2041   2047   2051     1  0.0000000  1.2552000  3
   2047   2041   2044   2064     1  0.0000000  0.6508444  3
   2047   2048   2057   2061     1  0.0000000  0.6508444  3
   2047   2051   2054   2060     1  0.0000000  0.6508444  3
   2048   2047   2051   2054     1  180.0000771  2.0083200  2
   2048   2047   2051   2054     1  0.0000000  1.2552000  3
   2048   2057   2061   2063     1  180.0000771  0.0000000  2
   2048   2057   2061   4330     1  0.0000000  0.2928800  2
   2048   2057   2061   4330     1  0.0000000  0.4184000  4
   2051   2047   2048   2057     1  180.0000771  2.0083200  2
   2051   2047   2048   2057     1  0.0000000  1.2552000  3
   2051   2054   2060   4301     1  0.0000000  0.2928800  2
   2051   2054   2060   4301     1  0.0000000  0.4184000  4
   2051   2054   2060   2062     1  180.0000771  0.0000000  2
   2054   2060   4301   4303     1  180.0000771  6.2760000  1
   2054   2060   4301   4303     1  0.0000000  0.0000000  2
   2057   2061   4330   4332     1  180.0000771  6.2760000  1
   2057   2061   4330   4332     1  0.0000000  0.0000000  2
   2060   4301   4303   4305     1  0.0000000  2.2175200  1
   2060   4301   4303   4305     1  0.0000000  0.0000000  2
   2060   4301   4303   4305     1  180.0000771  0.6276000  3
   2060   4301   4303   4305     1  180.0000771  2.0920000  4
   2061   4330   4332   4334     1  0.0000000  2.2175200  1
   2061   4330   4332   4334     1  0.0000000  0.0000000  2
   2061   4330   4332   4334     1  180.0000771  0.6276000  3
   2061   4330   4332   4334     1  180.0000771  2.0920000  4
   2062   2060   4301   4303     1  180.0000771  10.4600000  2
   2063   2061   4330   4332     1  180.0000771  10.4600000  2
   2066   2072   2073   2082     1  180.0000771  2.0083200  2
   2066   2072   2073   2082     1  0.0000000  1.2552000  3
   2066   2072   2076   2079     1  180.0000771  2.0083200  2
   2066   2072   2076   2079     1  0.0000000  1.2552000  3
   2069   2066   2072   2073     1  180.0000771  2.0083200  2
   2069   2066   2072   2073     1  0.0000000  1.2552000  3
   2069   2066   2072   2076     1  180.0000771  2.0083200  2
   2069   2066   2072   2076     1  0.0000000  1.2552000  3
   2072   2066   2069   2089     1  0.0000000  0.6508444  3
   2072   2073   2082   2086     1  0.0000000  0.6508444  3
   2072   2076   2079   2085     1  0.0000000  0.6508444  3
   2073   2072   2076   2079     1  180.0000771  2.0083200  2
   2073   2072   2076   2079     1  0.0000000  1.2552000  3
   2073   2082   2086   2088     1  180.0000771  0.0000000  2
   2073   2082   2086   4388     1  0.0000000  0.2928800  2
   2073   2082   2086   4388     1  0.0000000  0.4184000  4
   2076   2072   2073   2082     1  180.0000771  2.0083200  2
   2076   2072   2073   2082     1  0.0000000  1.2552000  3
   2076   2079   2085   4359     1  0.0000000  0.2928800  2
   2076   2079   2085   4359     1  0.0000000  0.4184000  4
   2076   2079   2085   2087     1  180.0000771  0.0000000  2
   2079   2085   4359   4361     1  180.0000771  6.2760000  1
   2079   2085   4359   4361     1  0.0000000  0.0000000  2
   2082   2086   4388   4390     1  180.0000771  6.2760000  1
   2082   2086   4388   4390     1  0.0000000  0.0000000  2
   2085   4359   4361   4363     1  0.0000000  2.2175200  1
   2085   4359   4361   4363     1  0.0000000  0.0000000  2
   2085   4359   4361   4363     1  180.0000771  0.6276000  3
   2085   4359   4361   4363     1  180.0000771  2.0920000  4
   2086   4388   4390   4392     1  0.0000000  2.2175200  1
   2086   4388   4390   4392     1  0.0000000  0.0000000  2
   2086   4388   4390   4392     1  180.0000771  0.6276000  3
   2086   4388   4390   4392     1  180.0000771  2.0920000  4
   2087   2085   4359   4361     1  180.0000771  10.4600000  2
   2088   2086   4388   4390     1  180.0000771  10.4600000  2
   2091   2097   2098   2107     1  180.0000771  2.0083200  2
   2091   2097   2098   2107     1  0.0000000  1.2552000  3
   2091   2097   2101   2104     1  180.0000771  2.0083200  2
   2091   2097   2101   2104     1  0.0000000  1.2552000  3
   2094   2091   2097   2098     1  180.0000771  2.0083200  2
   2094   2091   2097   2098     1  0.0000000  1.2552000  3
   2094   2091   2097   2101     1  180.0000771  2.0083200  2
   2094   2091   2097   2101     1  0.0000000  1.2552000  3
   2097   2091   2094   2114     1  0.0000000  0.6508444  3
   2097   2098   2107   2111     1  0.0000000  0.6508444  3
   2097   2101   2104   2110     1  0.0000000  0.6508444  3
   2098   2097   2101   2104     1  180.0000771  2.0083200  2
   2098   2097   2101   2104     1  0.0000000  1.2552000  3
   2098   2107   2111   2113     1  180.0000771  0.0000000  2
   2098   2107   2111   4446     1  0.0000000  0.2928800  2
   2098   2107   2111   4446     1  0.0000000  0.4184000  4
   2101   2097   2098   2107     1  180.0000771  2.0083200  2
   2101   2097   2098   2107     1  0.0000000  1.2552000  3
   2101   2104   2110   4417     1  0.0000000  0.2928800  2
   2101   2104   2110   4417     1  0.0000000  0.4184000  4
   2101   2104   2110   2112     1  180.0000771  0.0000000  2
   2104   2110   4417   4419     1  180.0000771  6.2760000  1
   2104   2110   4417   4419     1  0.0000000  0.0000000  2
   2107   2111   4446   4448     1  180.0000771  6.2760000  1
   2107   2111   4446   4448     1  0.0000000  0.0000000  2
   2110   4417   4419   4421     1  0.0000000  2.2175200  1
   2110   4417   4419   4421     1  0.0000000  0.0000000  2
   2110   4417   4419   4421     1  180.0000771  0.6276000  3
   2110   4417   4419   4421     1  180.0000771  2.0920000  4
   2111   4446   4448   4450     1  0.0000000  2.2175200  1
   2111   4446   4448   4450     1  0.0000000  0.0000000  2
   2111   4446   4448   4450     1  180.0000771  0.6276000  3
   2111   4446   4448   4450     1  180.0000771  2.0920000  4
   2112   2110   4417   4419     1  180.0000771  10.4600000  2
   2113   2111   4446   4448     1  180.0000771  10.4600000  2
   2116   2122   2123   2132     1  180.0000771  2.0083200  2
   2116   2122   2123   2132     1  0.0000000  1.2552000  3
   2116   2122   2126   2129     1  180.0000771  2.0083200  2
   2116   2122   2126   2129     1  0.0000000  1.2552000  3
   2119   2116   2122   2123     1  180.0000771  2.0083200  2
   2119   2116   2122   2123     1  0.0000000  1.2552000  3
   2119   2116   2122   2126     1  180.0000771  2.0083200  2
   2119   2116   2122   2126     1  0.0000000  1.2552000  3
   2122   2116   2119   2139     1  0.0000000  0.6508444  3
   2122   2123   2132   2136     1  0.0000000  0.6508444  3
   2122   2126   2129   2135     1  0.0000000  0.6508444  3
   2123   2122   2126   2129     1  180.0000771  2.0083200  2
   2123   2122   2126   2129     1  0.0000000  1.2552000  3
   2123   2132   2136   2138     1  180.0000771  0.0000000  2
   2123   2132   2136   4504     1  0.0000000  0.2928800  2
   2123   2132   2136   4504     1  0.0000000  0.4184000  4
   2126   2122   2123   2132     1  180.0000771  2.0083200  2
   2126   2122   2123   2132     1  0.0000000  1.2552000  3
   2126   2129   2135   4475     1  0.0000000  0.2928800  2
   2126   2129   2135   4475     1  0.0000000  0.4184000  4
   2126   2129   2135   2137     1  180.0000771  0.0000000  2
   2129   2135   4475   4477     1  180.0000771  6.2760000  1
   2129   2135   4475   4477     1  0.0000000  0.0000000  2
   2132   2136   4504   4506     1  180.0000771  6.2760000  1
   2132   2136   4504   4506     1  0.0000000  0.0000000  2
   2135   4475   4477   4479     1  0.0000000  2.2175200  1
   2135   4475   4477   4479     1  0.0000000  0.0000000  2
   2135   4475   4477   4479     1  180.0000771  0.6276000  3
   2135   4475   4477   4479     1  180.0000771  2.0920000  4
   2136   4504   4506   4508     1  0.0000000  2.2175200  1
   2136   4504   4506   4508     1  0.0000000  0.0000000  2
   2136   4504   4506   4508     1  180.0000771  0.6276000  3
   2136   4504   4506   4508     1  180.0000771  2.0920000  4
   2137   2135   4475   4477     1  180.0000771  10.4600000  2
   2138   2136   4504   4506     1  180.0000771  10.4600000  2
   2141   2147   2148   2157     1  180.0000771  2.0083200  2
   2141   2147   2148   2157     1  0.0000000  1.2552000  3
   2141   2147   2151   2154     1  180.0000771  2.0083200  2
   2141   2147   2151   2154     1  0.0000000  1.2552000  3
   2144   2141   2147   2148     1  180.0000771  2.0083200  2
   2144   2141   2147   2148     1  0.0000000  1.2552000  3
   2144   2141   2147   2151     1  180.0000771  2.0083200  2
   2144   2141   2147   2151     1  0.0000000  1.2552000  3
   2147   2141   2144   2164     1  0.0000000  0.6508444  3
   2147   2148   2157   2161     1  0.0000000  0.6508444  3
   2147   2151   2154   2160     1  0.0000000  0.6508444  3
   2148   2147   2151   2154     1  180.0000771  2.0083200  2
   2148   2147   2151   2154     1  0.0000000  1.2552000  3
   2148   2157   2161   2163     1  180.0000771  0.0000000  2
   2148   2157   2161   4562     1  0.0000000  0.2928800  2
   2148   2157   2161   4562     1  0.0000000  0.4184000  4
   2151   2147   2148   2157     1  180.0000771  2.0083200  2
   2151   2147   2148   2157     1  0.0000000  1.2552000  3
   2151   2154   2160   4533     1  0.0000000  0.2928800  2
   2151   2154   2160   4533     1  0.0000000  0.4184000  4
   2151   2154   2160   2162     1  180.0000771  0.0000000  2
   2154   2160   4533   4535     1  180.0000771  6.2760000  1
   2154   2160   4533   4535     1  0.0000000  0.0000000  2
   2157   2161   4562   4564     1  180.0000771  6.2760000  1
   2157   2161   4562   4564     1  0.0000000  0.0000000  2
   2160   4533   4535   4537     1  0.0000000  2.2175200  1
   2160   4533   4535   4537     1  0.0000000  0.0000000  2
   2160   4533   4535   4537     1  180.0000771  0.6276000  3
   2160   4533   4535   4537     1  180.0000771  2.0920000  4
   2161   4562   4564   4566     1  0.0000000  2.2175200  1
   2161   4562   4564   4566     1  0.0000000  0.0000000  2
   2161   4562   4564   4566     1  180.0000771  0.6276000  3
   2161   4562   4564   4566     1  180.0000771  2.0920000  4
   2162   2160   4533   4535     1  180.0000771  10.4600000  2
   2163   2161   4562   4564     1  180.0000771  10.4600000  2
   2166   2172   2173   2182     1  180.0000771  2.0083200  2
   2166   2172   2173   2182     1  0.0000000  1.2552000  3
   2166   2172   2176   2179     1  180.0000771  2.0083200  2
   2166   2172   2176   2179     1  0.0000000  1.2552000  3
   2169   2166   2172   2173     1  180.0000771  2.0083200  2
   2169   2166   2172   2173     1  0.0000000  1.2552000  3
   2169   2166   2172   2176     1  180.0000771  2.0083200  2
   2169   2166   2172   2176     1  0.0000000  1.2552000  3
   2172   2166   2169   2189     1  0.0000000  0.6508444  3
   2172   2173   2182   2186     1  0.0000000  0.6508444  3
   2172   2176   2179   2185     1  0.0000000  0.6508444  3
   2173   2172   2176   2179     1  180.0000771  2.0083200  2
   2173   2172   2176   2179     1  0.0000000  1.2552000  3
   2173   2182   2186   2188     1  180.0000771  0.0000000  2
   2173   2182   2186   4620     1  0.0000000  0.2928800  2
   2173   2182   2186   4620     1  0.0000000  0.4184000  4
   2176   2172   2173   2182     1  180.0000771  2.0083200  2
   2176   2172   2173   2182     1  0.0000000  1.2552000  3
   2176   2179   2185   4591     1  0.0000000  0.2928800  2
   2176   2179   2185   4591     1  0.0000000  0.4184000  4
   2176   2179   2185   2187     1  180.0000771  0.0000000  2
   2179   2185   4591   4593     1  180.0000771  6.2760000  1
   2179   2185   4591   4593     1  0.0000000  0.0000000  2
   2182   2186   4620   4622     1  180.0000771  6.2760000  1
   2182   2186   4620   4622     1  0.0000000  0.0000000  2
   2185   4591   4593   4595     1  0.0000000  2.2175200  1
   2185   4591   4593   4595     1  0.0000000  0.0000000  2
   2185   4591   4593   4595     1  180.0000771  0.6276000  3
   2185   4591   4593   4595     1  180.0000771  2.0920000  4
   2186   4620   4622   4624     1  0.0000000  2.2175200  1
   2186   4620   4622   4624     1  0.0000000  0.0000000  2
   2186   4620   4622   4624     1  180.0000771  0.6276000  3
   2186   4620   4622   4624     1  180.0000771  2.0920000  4
   2187   2185   4591   4593     1  180.0000771  10.4600000  2
   2188   2186   4620   4622     1  180.0000771  10.4600000  2
   2191   2197   2198   2207     1  180.0000771  2.0083200  2
   2191   2197   2198   2207     1  0.0000000  1.2552000  3
   2191   2197   2201   2204     1  180.0000771  2.0083200  2
   2191   2197   2201   2204     1  0.0000000  1.2552000  3
   2194   2191   2197   2198     1  180.0000771  2.0083200  2
   2194   2191   2197   2198     1  0.0000000  1.2552000  3
   2194   2191   2197   2201     1  180.0000771  2.0083200  2
   2194   2191   2197   2201     1  0.0000000  1.2552000  3
   2197   2191   2194   2214     1  0.0000000  0.6508444  3
   2197   2198   2207   2211     1  0.0000000  0.6508444  3
   2197   2201   2204   2210     1  0.0000000  0.6508444  3
   2198   2197   2201   2204     1  180.0000771  2.0083200  2
   2198   2197   2201   2204     1  0.0000000  1.2552000  3
   2198   2207   2211   2213     1  180.0000771  0.0000000  2
   2198   2207   2211   4678     1  0.0000000  0.2928800  2
   2198   2207   2211   4678     1  0.0000000  0.4184000  4
   2201   2197   2198   2207     1  180.0000771  2.0083200  2
   2201   2197   2198   2207     1  0.0000000  1.2552000  3
   2201   2204   2210   4649     1  0.0000000  0.2928800  2
   2201   2204   2210   4649     1  0.0000000  0.4184000  4
   2201   2204   2210   2212     1  180.0000771  0.0000000  2
   2204   2210   4649   4651     1  180.0000771  6.2760000  1
   2204   2210   4649   4651     1  0.0000000  0.0000000  2
   2207   2211   4678   4680     1  180.0000771  6.2760000  1
   2207   2211   4678   4680     1  0.0000000  0.0000000  2
   2210   4649   4651   4653     1  0.0000000  2.2175200  1
   2210   4649   4651   4653     1  0.0000000  0.0000000  2
   2210   4649   4651   4653     1  180.0000771  0.6276000  3
   2210   4649   4651   4653     1  180.0000771  2.0920000  4
   2211   4678   4680   4682     1  0.0000000  2.2175200  1
   2211   4678   4680   4682     1  0.0000000  0.0000000  2
   2211   4678   4680   4682     1  180.0000771  0.6276000  3
   2211   4678   4680   4682     1  180.0000771  2.0920000  4
   2212   2210   4649   4651     1  180.0000771  10.4600000  2
   2213   2211   4678   4680     1  180.0000771  10.4600000  2
   2216   2222   2223   2232     1  180.0000771  2.0083200  2
   2216   2222   2223   2232     1  0.0000000  1.2552000  3
   2216   2222   2226   2229     1  180.0000771  2.0083200  2
   2216   2222   2226   2229     1  0.0000000  1.2552000  3
   2219   2216   2222   2223     1  180.0000771  2.0083200  2
   2219   2216   2222   2223     1  0.0000000  1.2552000  3
   2219   2216   2222   2226     1  180.0000771  2.0083200  2
   2219   2216   2222   2226     1  0.0000000  1.2552000  3
   2222   2216   2219   2239     1  0.0000000  0.6508444  3
   2222   2223   2232   2236     1  0.0000000  0.6508444  3
   2222   2226   2229   2235     1  0.0000000  0.6508444  3
   2223   2222   2226   2229     1  180.0000771  2.0083200  2
   2223   2222   2226   2229     1  0.0000000  1.2552000  3
   2223   2232   2236   2238     1  180.0000771  0.0000000  2
   2223   2232   2236   4736     1  0.0000000  0.2928800  2
   2223   2232   2236   4736     1  0.0000000  0.4184000  4
   2226   2222   2223   2232     1  180.0000771  2.0083200  2
   2226   2222   2223   2232     1  0.0000000  1.2552000  3
   2226   2229   2235   4707     1  0.0000000  0.2928800  2
   2226   2229   2235   4707     1  0.0000000  0.4184000  4
   2226   2229   2235   2237     1  180.0000771  0.0000000  2
   2229   2235   4707   4709     1  180.0000771  6.2760000  1
   2229   2235   4707   4709     1  0.0000000  0.0000000  2
   2232   2236   4736   4738     1  180.0000771  6.2760000  1
   2232   2236   4736   4738     1  0.0000000  0.0000000  2
   2235   4707   4709   4711     1  0.0000000  2.2175200  1
   2235   4707   4709   4711     1  0.0000000  0.0000000  2
   2235   4707   4709   4711     1  180.0000771  0.6276000  3
   2235   4707   4709   4711     1  180.0000771  2.0920000  4
   2236   4736   4738   4740     1  0.0000000  2.2175200  1
   2236   4736   4738   4740     1  0.0000000  0.0000000  2
   2236   4736   4738   4740     1  180.0000771  0.6276000  3
   2236   4736   4738   4740     1  180.0000771  2.0920000  4
   2237   2235   4707   4709     1  180.0000771  10.4600000  2
   2238   2236   4736   4738     1  180.0000771  10.4600000  2
   2241   2247   2248   2257     1  180.0000771  2.0083200  2
   2241   2247   2248   2257     1  0.0000000  1.2552000  3
   2241   2247   2251   2254     1  180.0000771  2.0083200  2
   2241   2247   2251   2254     1  0.0000000  1.2552000  3
   2244   2241   2247   2248     1  180.0000771  2.0083200  2
   2244   2241   2247   2248     1  0.0000000  1.2552000  3
   2244   2241   2247   2251     1  180.0000771  2.0083200  2
   2244   2241   2247   2251     1  0.0000000  1.2552000  3
   2247   2241   2244   2264     1  0.0000000  0.6508444  3
   2247   2248   2257   2261     1  0.0000000  0.6508444  3
   2247   2251   2254   2260     1  0.0000000  0.6508444  3
   2248   2247   2251   2254     1  180.0000771  2.0083200  2
   2248   2247   2251   2254     1  0.0000000  1.2552000  3
   2248   2257   2261   2263     1  180.0000771  0.0000000  2
   2248   2257   2261   4794     1  0.0000000  0.2928800  2
   2248   2257   2261   4794     1  0.0000000  0.4184000  4
   2251   2247   2248   2257     1  180.0000771  2.0083200  2
   2251   2247   2248   2257     1  0.0000000  1.2552000  3
   2251   2254   2260   4765     1  0.0000000  0.2928800  2
   2251   2254   2260   4765     1  0.0000000  0.4184000  4
   2251   2254   2260   2262     1  180.0000771  0.0000000  2
   2254   2260   4765   4767     1  180.0000771  6.2760000  1
   2254   2260   4765   4767     1  0.0000000  0.0000000  2
   2257   2261   4794   4796     1  180.0000771  6.2760000  1
   2257   2261   4794   4796     1  0.0000000  0.0000000  2
   2260   4765   4767   4769     1  0.0000000  2.2175200  1
   2260   4765   4767   4769     1  0.0000000  0.0000000  2
   2260   4765   4767   4769     1  180.0000771  0.6276000  3
   2260   4765   4767   4769     1  180.0000771  2.0920000  4
   2261   4794   4796   4798     1  0.0000000  2.2175200  1
   2261   4794   4796   4798     1  0.0000000  0.0000000  2
   2261   4794   4796   4798     1  180.0000771  0.6276000  3
   2261   4794   4796   4798     1  180.0000771  2.0920000  4
   2262   2260   4765   4767     1  180.0000771  10.4600000  2
   2263   2261   4794   4796     1  180.0000771  10.4600000  2
   2266   2272   2273   2282     1  180.0000771  2.0083200  2
   2266   2272   2273   2282     1  0.0000000  1.2552000  3
   2266   2272   2276   2279     1  180.0000771  2.0083200  2
   2266   2272   2276   2279     1  0.0000000  1.2552000  3
   2269   2266   2272   2273     1  180.0000771  2.0083200  2
   2269   2266   2272   2273     1  0.0000000  1.2552000  3
   2269   2266   2272   2276     1  180.0000771  2.0083200  2
   2269   2266   2272   2276     1  0.0000000  1.2552000  3
   2272   2266   2269   2289     1  0.0000000  0.6508444  3
   2272   2273   2282   2286     1  0.0000000  0.6508444  3
   2272   2276   2279   2285     1  0.0000000  0.6508444  3
   2273   2272   2276   2279     1  180.0000771  2.0083200  2
   2273   2272   2276   2279     1  0.0000000  1.2552000  3
   2273   2282   2286   2288     1  180.0000771  0.0000000  2
   2273   2282   2286   4852     1  0.0000000  0.2928800  2
   2273   2282   2286   4852     1  0.0000000  0.4184000  4
   2276   2272   2273   2282     1  180.0000771  2.0083200  2
   2276   2272   2273   2282     1  0.0000000  1.2552000  3
   2276   2279   2285   4823     1  0.0000000  0.2928800  2
   2276   2279   2285   4823     1  0.0000000  0.4184000  4
   2276   2279   2285   2287     1  180.0000771  0.0000000  2
   2279   2285   4823   4825     1  180.0000771  6.2760000  1
   2279   2285   4823   4825     1  0.0000000  0.0000000  2
   2282   2286   4852   4854     1  180.0000771  6.2760000  1
   2282   2286   4852   4854     1  0.0000000  0.0000000  2
   2285   4823   4825   4827     1  0.0000000  2.2175200  1
   2285   4823   4825   4827     1  0.0000000  0.0000000  2
   2285   4823   4825   4827     1  180.0000771  0.6276000  3
   2285   4823   4825   4827     1  180.0000771  2.0920000  4
   2286   4852   4854   4856     1  0.0000000  2.2175200  1
   2286   4852   4854   4856     1  0.0000000  0.0000000  2
   2286   4852   4854   4856     1  180.0000771  0.6276000  3
   2286   4852   4854   4856     1  180.0000771  2.0920000  4
   2287   2285   4823   4825     1  180.0000771  10.4600000  2
   2288   2286   4852   4854     1  180.0000771  10.4600000  2
   2291   2297   2298   2307     1  180.0000771  2.0083200  2
   2291   2297   2298   2307     1  0.0000000  1.2552000  3
   2291   2297   2301   2304     1  180.0000771  2.0083200  2
   2291   2297   2301   2304     1  0.0000000  1.2552000  3
   2294   2291   2297   2298     1  180.0000771  2.0083200  2
   2294   2291   2297   2298     1  0.0000000  1.2552000  3
   2294   2291   2297   2301     1  180.0000771  2.0083200  2
   2294   2291   2297   2301     1  0.0000000  1.2552000  3
   2297   2291   2294   2314     1  0.0000000  0.6508444  3
   2297   2298   2307   2311     1  0.0000000  0.6508444  3
   2297   2301   2304   2310     1  0.0000000  0.6508444  3
   2298   2297   2301   2304     1  180.0000771  2.0083200  2
   2298   2297   2301   2304     1  0.0000000  1.2552000  3
   2298   2307   2311   2313     1  180.0000771  0.0000000  2
   2298   2307   2311   4910     1  0.0000000  0.2928800  2
   2298   2307   2311   4910     1  0.0000000  0.4184000  4
   2301   2297   2298   2307     1  180.0000771  2.0083200  2
   2301   2297   2298   2307     1  0.0000000  1.2552000  3
   2301   2304   2310   4881     1  0.0000000  0.2928800  2
   2301   2304   2310   4881     1  0.0000000  0.4184000  4
   2301   2304   2310   2312     1  180.0000771  0.0000000  2
   2304   2310   4881   4883     1  180.0000771  6.2760000  1
   2304   2310   4881   4883     1  0.0000000  0.0000000  2
   2307   2311   4910   4912     1  180.0000771  6.2760000  1
   2307   2311   4910   4912     1  0.0000000  0.0000000  2
   2310   4881   4883   4885     1  0.0000000  2.2175200  1
   2310   4881   4883   4885     1  0.0000000  0.0000000  2
   2310   4881   4883   4885     1  180.0000771  0.6276000  3
   2310   4881   4883   4885     1  180.0000771  2.0920000  4
   2311   4910   4912   4914     1  0.0000000  2.2175200  1
   2311   4910   4912   4914     1  0.0000000  0.0000000  2
   2311   4910   4912   4914     1  180.0000771  0.6276000  3
   2311   4910   4912   4914     1  180.0000771  2.0920000  4
   2312   2310   4881   4883     1  180.0000771  10.4600000  2
   2313   2311   4910   4912     1  180.0000771  10.4600000  2
   2316   2322   2323   2332     1  180.0000771  2.0083200  2
   2316   2322   2323   2332     1  0.0000000  1.2552000  3
   2316   2322   2326   2329     1  180.0000771  2.0083200  2
   2316   2322   2326   2329     1  0.0000000  1.2552000  3
   2319   2316   2322   2323     1  180.0000771  2.0083200  2
   2319   2316   2322   2323     1  0.0000000  1.2552000  3
   2319   2316   2322   2326     1  180.0000771  2.0083200  2
   2319   2316   2322   2326     1  0.0000000  1.2552000  3
   2322   2316   2319   2339     1  0.0000000  0.6508444  3
   2322   2323   2332   2336     1  0.0000000  0.6508444  3
   2322   2326   2329   2335     1  0.0000000  0.6508444  3
   2323   2322   2326   2329     1  180.0000771  2.0083200  2
   2323   2322   2326   2329     1  0.0000000  1.2552000  3
   2323   2332   2336   2338     1  180.0000771  0.0000000  2
   2323   2332   2336   4968     1  0.0000000  0.2928800  2
   2323   2332   2336   4968     1  0.0000000  0.4184000  4
   2326   2322   2323   2332     1  180.0000771  2.0083200  2
   2326   2322   2323   2332     1  0.0000000  1.2552000  3
   2326   2329   2335   4939     1  0.0000000  0.2928800  2
   2326   2329   2335   4939     1  0.0000000  0.4184000  4
   2326   2329   2335   2337     1  180.0000771  0.0000000  2
   2329   2335   4939   4941     1  180.0000771  6.2760000  1
   2329   2335   4939   4941     1  0.0000000  0.0000000  2
   2332   2336   4968   4970     1  180.0000771  6.2760000  1
   2332   2336   4968   4970     1  0.0000000  0.0000000  2
   2335   4939   4941   4943     1  0.0000000  2.2175200  1
   2335   4939   4941   4943     1  0.0000000  0.0000000  2
   2335   4939   4941   4943     1  180.0000771  0.6276000  3
   2335   4939   4941   4943     1  180.0000771  2.0920000  4
   2336   4968   4970   4972     1  0.0000000  2.2175200  1
   2336   4968   4970   4972     1  0.0000000  0.0000000  2
   2336   4968   4970   4972     1  180.0000771  0.6276000  3
   2336   4968   4970   4972     1  180.0000771  2.0920000  4
   2337   2335   4939   4941     1  180.0000771  10.4600000  2
   2338   2336   4968   4970     1  180.0000771  10.4600000  2
   2341   2347   2348   2357     1  180.0000771  2.0083200  2
   2341   2347   2348   2357     1  0.0000000  1.2552000  3
   2341   2347   2351   2354     1  180.0000771  2.0083200  2
   2341   2347   2351   2354     1  0.0000000  1.2552000  3
   2344   2341   2347   2348     1  180.0000771  2.0083200  2
   2344   2341   2347   2348     1  0.0000000  1.2552000  3
   2344   2341   2347   2351     1  180.0000771  2.0083200  2
   2344   2341   2347   2351     1  0.0000000  1.2552000  3
   2347   2341   2344   2364     1  0.0000000  0.6508444  3
   2347   2348   2357   2361     1  0.0000000  0.6508444  3
   2347   2351   2354   2360     1  0.0000000  0.6508444  3
   2348   2347   2351   2354     1  180.0000771  2.0083200  2
   2348   2347   2351   2354     1  0.0000000  1.2552000  3
   2348   2357   2361   2363     1  180.0000771  0.0000000  2
   2348   2357   2361   5026     1  0.0000000  0.2928800  2
   2348   2357   2361   5026     1  0.0000000  0.4184000  4
   2351   2347   2348   2357     1  180.0000771  2.0083200  2
   2351   2347   2348   2357     1  0.0000000  1.2552000  3
   2351   2354   2360   4997     1  0.0000000  0.2928800  2
   2351   2354   2360   4997     1  0.0000000  0.4184000  4
   2351   2354   2360   2362     1  180.0000771  0.0000000  2
   2354   2360   4997   4999     1  180.0000771  6.2760000  1
   2354   2360   4997   4999     1  0.0000000  0.0000000  2
   2357   2361   5026   5028     1  180.0000771  6.2760000  1
   2357   2361   5026   5028     1  0.0000000  0.0000000  2
   2360   4997   4999   5001     1  0.0000000  2.2175200  1
   2360   4997   4999   5001     1  0.0000000  0.0000000  2
   2360   4997   4999   5001     1  180.0000771  0.6276000  3
   2360   4997   4999   5001     1  180.0000771  2.0920000  4
   2361   5026   5028   5030     1  0.0000000  2.2175200  1
   2361   5026   5028   5030     1  0.0000000  0.0000000  2
   2361   5026   5028   5030     1  180.0000771  0.6276000  3
   2361   5026   5028   5030     1  180.0000771  2.0920000  4
   2362   2360   4997   4999     1  180.0000771  10.4600000  2
   2363   2361   5026   5028     1  180.0000771  10.4600000  2
   2366   2372   2373   2382     1  180.0000771  2.0083200  2
   2366   2372   2373   2382     1  0.0000000  1.2552000  3
   2366   2372   2376   2379     1  180.0000771  2.0083200  2
   2366   2372   2376   2379     1  0.0000000  1.2552000  3
   2369   2366   2372   2373     1  180.0000771  2.0083200  2
   2369   2366   2372   2373     1  0.0000000  1.2552000  3
   2369   2366   2372   2376     1  180.0000771  2.0083200  2
   2369   2366   2372   2376     1  0.0000000  1.2552000  3
   2372   2366   2369   2389     1  0.0000000  0.6508444  3
   2372   2373   2382   2386     1  0.0000000  0.6508444  3
   2372   2376   2379   2385     1  0.0000000  0.6508444  3
   2373   2372   2376   2379     1  180.0000771  2.0083200  2
   2373   2372   2376   2379     1  0.0000000  1.2552000  3
   2373   2382   2386   2388     1  180.0000771  0.0000000  2
   2373   2382   2386   5084     1  0.0000000  0.2928800  2
   2373   2382   2386   5084     1  0.0000000  0.4184000  4
   2376   2372   2373   2382     1  180.0000771  2.0083200  2
   2376   2372   2373   2382     1  0.0000000  1.2552000  3
   2376   2379   2385   5055     1  0.0000000  0.2928800  2
   2376   2379   2385   5055     1  0.0000000  0.4184000  4
   2376   2379   2385   2387     1  180.0000771  0.0000000  2
   2379   2385   5055   5057     1  180.0000771  6.2760000  1
   2379   2385   5055   5057     1  0.0000000  0.0000000  2
   2382   2386   5084   5086     1  180.0000771  6.2760000  1
   2382   2386   5084   5086     1  0.0000000  0.0000000  2
   2385   5055   5057   5059     1  0.0000000  2.2175200  1
   2385   5055   5057   5059     1  0.0000000  0.0000000  2
   2385   5055   5057   5059     1  180.0000771  0.6276000  3
   2385   5055   5057   5059     1  180.0000771  2.0920000  4
   2386   5084   5086   5088     1  0.0000000  2.2175200  1
   2386   5084   5086   5088     1  0.0000000  0.0000000  2
   2386   5084   5086   5088     1  180.0000771  0.6276000  3
   2386   5084   5086   5088     1  180.0000771  2.0920000  4
   2387   2385   5055   5057     1  180.0000771  10.4600000  2
   2388   2386   5084   5086     1  180.0000771  10.4600000  2
   2391   2397   2398   2407     1  180.0000771  2.0083200  2
   2391   2397   2398   2407     1  0.0000000  1.2552000  3
   2391   2397   2401   2404     1  180.0000771  2.0083200  2
   2391   2397   2401   2404     1  0.0000000  1.2552000  3
   2394   2391   2397   2398     1  180.0000771  2.0083200  2
   2394   2391   2397   2398     1  0.0000000  1.2552000  3
   2394   2391   2397   2401     1  180.0000771  2.0083200  2
   2394   2391   2397   2401     1  0.0000000  1.2552000  3
   2397   2391   2394   2414     1  0.0000000  0.6508444  3
   2397   2398   2407   2411     1  0.0000000  0.6508444  3
   2397   2401   2404   2410     1  0.0000000  0.6508444  3
   2398   2397   2401   2404     1  180.0000771  2.0083200  2
   2398   2397   2401   2404     1  0.0000000  1.2552000  3
   2398   2407   2411   2413     1  180.0000771  0.0000000  2
   2398   2407   2411   5142     1  0.0000000  0.2928800  2
   2398   2407   2411   5142     1  0.0000000  0.4184000  4
   2401   2397   2398   2407     1  180.0000771  2.0083200  2
   2401   2397   2398   2407     1  0.0000000  1.2552000  3
   2401   2404   2410   5113     1  0.0000000  0.2928800  2
   2401   2404   2410   5113     1  0.0000000  0.4184000  4
   2401   2404   2410   2412     1  180.0000771  0.0000000  2
   2404   2410   5113   5115     1  180.0000771  6.2760000  1
   2404   2410   5113   5115     1  0.0000000  0.0000000  2
   2407   2411   5142   5144     1  180.0000771  6.2760000  1
   2407   2411   5142   5144     1  0.0000000  0.0000000  2
   2410   5113   5115   5117     1  0.0000000  2.2175200  1
   2410   5113   5115   5117     1  0.0000000  0.0000000  2
   2410   5113   5115   5117     1  180.0000771  0.6276000  3
   2410   5113   5115   5117     1  180.0000771  2.0920000  4
   2411   5142   5144   5146     1  0.0000000  2.2175200  1
   2411   5142   5144   5146     1  0.0000000  0.0000000  2
   2411   5142   5144   5146     1  180.0000771  0.6276000  3
   2411   5142   5144   5146     1  180.0000771  2.0920000  4
   2412   2410   5113   5115     1  180.0000771  10.4600000  2
   2413   2411   5142   5144     1  180.0000771  10.4600000  2
   2416   2422   2423   2432     1  180.0000771  2.0083200  2
   2416   2422   2423   2432     1  0.0000000  1.2552000  3
   2416   2422   2426   2429     1  180.0000771  2.0083200  2
   2416   2422   2426   2429     1  0.0000000  1.2552000  3
   2419   2416   2422   2423     1  180.0000771  2.0083200  2
   2419   2416   2422   2423     1  0.0000000  1.2552000  3
   2419   2416   2422   2426     1  180.0000771  2.0083200  2
   2419   2416   2422   2426     1  0.0000000  1.2552000  3
   2422   2416   2419   2439     1  0.0000000  0.6508444  3
   2422   2423   2432   2436     1  0.0000000  0.6508444  3
   2422   2426   2429   2435     1  0.0000000  0.6508444  3
   2423   2422   2426   2429     1  180.0000771  2.0083200  2
   2423   2422   2426   2429     1  0.0000000  1.2552000  3
   2423   2432   2436   2438     1  180.0000771  0.0000000  2
   2423   2432   2436   5200     1  0.0000000  0.2928800  2
   2423   2432   2436   5200     1  0.0000000  0.4184000  4
   2426   2422   2423   2432     1  180.0000771  2.0083200  2
   2426   2422   2423   2432     1  0.0000000  1.2552000  3
   2426   2429   2435   5171     1  0.0000000  0.2928800  2
   2426   2429   2435   5171     1  0.0000000  0.4184000  4
   2426   2429   2435   2437     1  180.0000771  0.0000000  2
   2429   2435   5171   5173     1  180.0000771  6.2760000  1
   2429   2435   5171   5173     1  0.0000000  0.0000000  2
   2432   2436   5200   5202     1  180.0000771  6.2760000  1
   2432   2436   5200   5202     1  0.0000000  0.0000000  2
   2435   5171   5173   5175     1  0.0000000  2.2175200  1
   2435   5171   5173   5175     1  0.0000000  0.0000000  2
   2435   5171   5173   5175     1  180.0000771  0.6276000  3
   2435   5171   5173   5175     1  180.0000771  2.0920000  4
   2436   5200   5202   5204     1  0.0000000  2.2175200  1
   2436   5200   5202   5204     1  0.0000000  0.0000000  2
   2436   5200   5202   5204     1  180.0000771  0.6276000  3
   2436   5200   5202   5204     1  180.0000771  2.0920000  4
   2437   2435   5171   5173     1  180.0000771  10.4600000  2
   2438   2436   5200   5202     1  180.0000771  10.4600000  2
   2441   2447   2448   2457     1  180.0000771  2.0083200  2
   2441   2447   2448   2457     1  0.0000000  1.2552000  3
   2441   2447   2451   2454     1  180.0000771  2.0083200  2
   2441   2447   2451   2454     1  0.0000000  1.2552000  3
   2444   2441   2447   2448     1  180.0000771  2.0083200  2
   2444   2441   2447   2448     1  0.0000000  1.2552000  3
   2444   2441   2447   2451     1  180.0000771  2.0083200  2
   2444   2441   2447   2451     1  0.0000000  1.2552000  3
   2447   2441   2444   2464     1  0.0000000  0.6508444  3
   2447   2448   2457   2461     1  0.0000000  0.6508444  3
   2447   2451   2454   2460     1  0.0000000  0.6508444  3
   2448   2447   2451   2454     1  180.0000771  2.0083200  2
   2448   2447   2451   2454     1  0.0000000  1.2552000  3
   2448   2457   2461   2463     1  180.0000771  0.0000000  2
   2448   2457   2461   5258     1  0.0000000  0.2928800  2
   2448   2457   2461   5258     1  0.0000000  0.4184000  4
   2451   2447   2448   2457     1  180.0000771  2.0083200  2
   2451   2447   2448   2457     1  0.0000000  1.2552000  3
   2451   2454   2460   5229     1  0.0000000  0.2928800  2
   2451   2454   2460   5229     1  0.0000000  0.4184000  4
   2451   2454   2460   2462     1  180.0000771  0.0000000  2
   2454   2460   5229   5231     1  180.0000771  6.2760000  1
   2454   2460   5229   5231     1  0.0000000  0.0000000  2
   2457   2461   5258   5260     1  180.0000771  6.2760000  1
   2457   2461   5258   5260     1  0.0000000  0.0000000  2
   2460   5229   5231   5233     1  0.0000000  2.2175200  1
   2460   5229   5231   5233     1  0.0000000  0.0000000  2
   2460   5229   5231   5233     1  180.0000771  0.6276000  3
   2460   5229   5231   5233     1  180.0000771  2.0920000  4
   2461   5258   5260   5262     1  0.0000000  2.2175200  1
   2461   5258   5260   5262     1  0.0000000  0.0000000  2
   2461   5258   5260   5262     1  180.0000771  0.6276000  3
   2461   5258   5260   5262     1  180.0000771  2.0920000  4
   2462   2460   5229   5231     1  180.0000771  10.4600000  2
   2463   2461   5258   5260     1  180.0000771  10.4600000  2
   2466   2472   2473   2482     1  180.0000771  2.0083200  2
   2466   2472   2473   2482     1  0.0000000  1.2552000  3
   2466   2472   2476   2479     1  180.0000771  2.0083200  2
   2466   2472   2476   2479     1  0.0000000  1.2552000  3
   2469   2466   2472   2473     1  180.0000771  2.0083200  2
   2469   2466   2472   2473     1  0.0000000  1.2552000  3
   2469   2466   2472   2476     1  180.0000771  2.0083200  2
   2469   2466   2472   2476     1  0.0000000  1.2552000  3
   2472   2466   2469   2489     1  0.0000000  0.6508444  3
   2472   2473   2482   2486     1  0.0000000  0.6508444  3
   2472   2476   2479   2485     1  0.0000000  0.6508444  3
   2473   2472   2476   2479     1  180.0000771  2.0083200  2
   2473   2472   2476   2479     1  0.0000000  1.2552000  3
   2473   2482   2486   2488     1  180.0000771  0.0000000  2
   2473   2482   2486   5316     1  0.0000000  0.2928800  2
   2473   2482   2486   5316     1  0.0000000  0.4184000  4
   2476   2472   2473   2482     1  180.0000771  2.0083200  2
   2476   2472   2473   2482     1  0.0000000  1.2552000  3
   2476   2479   2485   5287     1  0.0000000  0.2928800  2
   2476   2479   2485   5287     1  0.0000000  0.4184000  4
   2476   2479   2485   2487     1  180.0000771  0.0000000  2
   2479   2485   5287   5289     1  180.0000771  6.2760000  1
   2479   2485   5287   5289     1  0.0000000  0.0000000  2
   2482   2486   5316   5318     1  180.0000771  6.2760000  1
   2482   2486   5316   5318     1  0.0000000  0.0000000  2
   2485   5287   5289   5291     1  0.0000000  2.2175200  1
   2485   5287   5289   5291     1  0.0000000  0.0000000  2
   2485   5287   5289   5291     1  180.0000771  0.6276000  3
   2485   5287   5289   5291     1  180.0000771  2.0920000  4
   2486   5316   5318   5320     1  0.0000000  2.2175200  1
   2486   5316   5318   5320     1  0.0000000  0.0000000  2
   2486   5316   5318   5320     1  180.0000771  0.6276000  3
   2486   5316   5318   5320     1  180.0000771  2.0920000  4
   2487   2485   5287   5289     1  180.0000771  10.4600000  2
   2488   2486   5316   5318     1  180.0000771  10.4600000  2
   2491   2497   2498   2507     1  180.0000771  2.0083200  2
   2491   2497   2498   2507     1  0.0000000  1.2552000  3
   2491   2497   2501   2504     1  180.0000771  2.0083200  2
   2491   2497   2501   2504     1  0.0000000  1.2552000  3
   2494   2491   2497   2498     1  180.0000771  2.0083200  2
   2494   2491   2497   2498     1  0.0000000  1.2552000  3
   2494   2491   2497   2501     1  180.0000771  2.0083200  2
   2494   2491   2497   2501     1  0.0000000  1.2552000  3
   2497   2491   2494   2514     1  0.0000000  0.6508444  3
   2497   2498   2507   2511     1  0.0000000  0.6508444  3
   2497   2501   2504   2510     1  0.0000000  0.6508444  3
   2498   2497   2501   2504     1  180.0000771  2.0083200  2
   2498   2497   2501   2504     1  0.0000000  1.2552000  3
   2498   2507   2511   2513     1  180.0000771  0.0000000  2
   2498   2507   2511   5374     1  0.0000000  0.2928800  2
   2498   2507   2511   5374     1  0.0000000  0.4184000  4
   2501   2497   2498   2507     1  180.0000771  2.0083200  2
   2501   2497   2498   2507     1  0.0000000  1.2552000  3
   2501   2504   2510   5345     1  0.0000000  0.2928800  2
   2501   2504   2510   5345     1  0.0000000  0.4184000  4
   2501   2504   2510   2512     1  180.0000771  0.0000000  2
   2504   2510   5345   5347     1  180.0000771  6.2760000  1
   2504   2510   5345   5347     1  0.0000000  0.0000000  2
   2507   2511   5374   5376     1  180.0000771  6.2760000  1
   2507   2511   5374   5376     1  0.0000000  0.0000000  2
   2510   5345   5347   5349     1  0.0000000  2.2175200  1
   2510   5345   5347   5349     1  0.0000000  0.0000000  2
   2510   5345   5347   5349     1  180.0000771  0.6276000  3
   2510   5345   5347   5349     1  180.0000771  2.0920000  4
   2511   5374   5376   5378     1  0.0000000  2.2175200  1
   2511   5374   5376   5378     1  0.0000000  0.0000000  2
   2511   5374   5376   5378     1  180.0000771  0.6276000  3
   2511   5374   5376   5378     1  180.0000771  2.0920000  4
   2512   2510   5345   5347     1  180.0000771  10.4600000  2
   2513   2511   5374   5376     1  180.0000771  10.4600000  2
   2516   2522   2523   2532     1  180.0000771  2.0083200  2
   2516   2522   2523   2532     1  0.0000000  1.2552000  3
   2516   2522   2526   2529     1  180.0000771  2.0083200  2
   2516   2522   2526   2529     1  0.0000000  1.2552000  3
   2519   2516   2522   2523     1  180.0000771  2.0083200  2
   2519   2516   2522   2523     1  0.0000000  1.2552000  3
   2519   2516   2522   2526     1  180.0000771  2.0083200  2
   2519   2516   2522   2526     1  0.0000000  1.2552000  3
   2522   2516   2519   2539     1  0.0000000  0.6508444  3
   2522   2523   2532   2536     1  0.0000000  0.6508444  3
   2522   2526   2529   2535     1  0.0000000  0.6508444  3
   2523   2522   2526   2529     1  180.0000771  2.0083200  2
   2523   2522   2526   2529     1  0.0000000  1.2552000  3
   2523   2532   2536   2538     1  180.0000771  0.0000000  2
   2523   2532   2536   5432     1  0.0000000  0.2928800  2
   2523   2532   2536   5432     1  0.0000000  0.4184000  4
   2526   2522   2523   2532     1  180.0000771  2.0083200  2
   2526   2522   2523   2532     1  0.0000000  1.2552000  3
   2526   2529   2535   5403     1  0.0000000  0.2928800  2
   2526   2529   2535   5403     1  0.0000000  0.4184000  4
   2526   2529   2535   2537     1  180.0000771  0.0000000  2
   2529   2535   5403   5405     1  180.0000771  6.2760000  1
   2529   2535   5403   5405     1  0.0000000  0.0000000  2
   2532   2536   5432   5434     1  180.0000771  6.2760000  1
   2532   2536   5432   5434     1  0.0000000  0.0000000  2
   2535   5403   5405   5407     1  0.0000000  2.2175200  1
   2535   5403   5405   5407     1  0.0000000  0.0000000  2
   2535   5403   5405   5407     1  180.0000771  0.6276000  3
   2535   5403   5405   5407     1  180.0000771  2.0920000  4
   2536   5432   5434   5436     1  0.0000000  2.2175200  1
   2536   5432   5434   5436     1  0.0000000  0.0000000  2
   2536   5432   5434   5436     1  180.0000771  0.6276000  3
   2536   5432   5434   5436     1  180.0000771  2.0920000  4
   2537   2535   5403   5405     1  180.0000771  10.4600000  2
   2538   2536   5432   5434     1  180.0000771  10.4600000  2
   2541   2547   2548   2557     1  180.0000771  2.0083200  2
   2541   2547   2548   2557     1  0.0000000  1.2552000  3
   2541   2547   2551   2554     1  180.0000771  2.0083200  2
   2541   2547   2551   2554     1  0.0000000  1.2552000  3
   2544   2541   2547   2548     1  180.0000771  2.0083200  2
   2544   2541   2547   2548     1  0.0000000  1.2552000  3
   2544   2541   2547   2551     1  180.0000771  2.0083200  2
   2544   2541   2547   2551     1  0.0000000  1.2552000  3
   2547   2541   2544   2564     1  0.0000000  0.6508444  3
   2547   2548   2557   2561     1  0.0000000  0.6508444  3
   2547   2551   2554   2560     1  0.0000000  0.6508444  3
   2548   2547   2551   2554     1  180.0000771  2.0083200  2
   2548   2547   2551   2554     1  0.0000000  1.2552000  3
   2548   2557   2561   2563     1  180.0000771  0.0000000  2
   2548   2557   2561   5490     1  0.0000000  0.2928800  2
   2548   2557   2561   5490     1  0.0000000  0.4184000  4
   2551   2547   2548   2557     1  180.0000771  2.0083200  2
   2551   2547   2548   2557     1  0.0000000  1.2552000  3
   2551   2554   2560   5461     1  0.0000000  0.2928800  2
   2551   2554   2560   5461     1  0.0000000  0.4184000  4
   2551   2554   2560   2562     1  180.0000771  0.0000000  2
   2554   2560   5461   5463     1  180.0000771  6.2760000  1
   2554   2560   5461   5463     1  0.0000000  0.0000000  2
   2557   2561   5490   5492     1  180.0000771  6.2760000  1
   2557   2561   5490   5492     1  0.0000000  0.0000000  2
   2560   5461   5463   5465     1  0.0000000  2.2175200  1
   2560   5461   5463   5465     1  0.0000000  0.0000000  2
   2560   5461   5463   5465     1  180.0000771  0.6276000  3
   2560   5461   5463   5465     1  180.0000771  2.0920000  4
   2561   5490   5492   5494     1  0.0000000  2.2175200  1
   2561   5490   5492   5494     1  0.0000000  0.0000000  2
   2561   5490   5492   5494     1  180.0000771  0.6276000  3
   2561   5490   5492   5494     1  180.0000771  2.0920000  4
   2562   2560   5461   5463     1  180.0000771  10.4600000  2
   2563   2561   5490   5492     1  180.0000771  10.4600000  2
   2566   2572   2573   2582     1  180.0000771  2.0083200  2
   2566   2572   2573   2582     1  0.0000000  1.2552000  3
   2566   2572   2576   2579     1  180.0000771  2.0083200  2
   2566   2572   2576   2579     1  0.0000000  1.2552000  3
   2569   2566   2572   2573     1  180.0000771  2.0083200  2
   2569   2566   2572   2573     1  0.0000000  1.2552000  3
   2569   2566   2572   2576     1  180.0000771  2.0083200  2
   2569   2566   2572   2576     1  0.0000000  1.2552000  3
   2572   2566   2569   2589     1  0.0000000  0.6508444  3
   2572   2573   2582   2586     1  0.0000000  0.6508444  3
   2572   2576   2579   2585     1  0.0000000  0.6508444  3
   2573   2572   2576   2579     1  180.0000771  2.0083200  2
   2573   2572   2576   2579     1  0.0000000  1.2552000  3
   2573   2582   2586   2588     1  180.0000771  0.0000000  2
   2573   2582   2586   5548     1  0.0000000  0.2928800  2
   2573   2582   2586   5548     1  0.0000000  0.4184000  4
   2576   2572   2573   2582     1  180.0000771  2.0083200  2
   2576   2572   2573   2582     1  0.0000000  1.2552000  3
   2576   2579   2585   5519     1  0.0000000  0.2928800  2
   2576   2579   2585   5519     1  0.0000000  0.4184000  4
   2576   2579   2585   2587     1  180.0000771  0.0000000  2
   2579   2585   5519   5521     1  180.0000771  6.2760000  1
   2579   2585   5519   5521     1  0.0000000  0.0000000  2
   2582   2586   5548   5550     1  180.0000771  6.2760000  1
   2582   2586   5548   5550     1  0.0000000  0.0000000  2
   2585   5519   5521   5523     1  0.0000000  2.2175200  1
   2585   5519   5521   5523     1  0.0000000  0.0000000  2
   2585   5519   5521   5523     1  180.0000771  0.6276000  3
   2585   5519   5521   5523     1  180.0000771  2.0920000  4
   2586   5548   5550   5552     1  0.0000000  2.2175200  1
   2586   5548   5550   5552     1  0.0000000  0.0000000  2
   2586   5548   5550   5552     1  180.0000771  0.6276000  3
   2586   5548   5550   5552     1  180.0000771  2.0920000  4
   2587   2585   5519   5521     1  180.0000771  10.4600000  2
   2588   2586   5548   5550     1  180.0000771  10.4600000  2
   2591   2597   2598   2607     1  180.0000771  2.0083200  2
   2591   2597   2598   2607     1  0.0000000  1.2552000  3
   2591   2597   2601   2604     1  180.0000771  2.0083200  2
   2591   2597   2601   2604     1  0.0000000  1.2552000  3
   2594   2591   2597   2598     1  180.0000771  2.0083200  2
   2594   2591   2597   2598     1  0.0000000  1.2552000  3
   2594   2591   2597   2601     1  180.0000771  2.0083200  2
   2594   2591   2597   2601     1  0.0000000  1.2552000  3
   2597   2591   2594   2614     1  0.0000000  0.6508444  3
   2597   2598   2607   2611     1  0.0000000  0.6508444  3
   2597   2601   2604   2610     1  0.0000000  0.6508444  3
   2598   2597   2601   2604     1  180.0000771  2.0083200  2
   2598   2597   2601   2604     1  0.0000000  1.2552000  3
   2598   2607   2611   2613     1  180.0000771  0.0000000  2
   2598   2607   2611   5606     1  0.0000000  0.2928800  2
   2598   2607   2611   5606     1  0.0000000  0.4184000  4
   2601   2597   2598   2607     1  180.0000771  2.0083200  2
   2601   2597   2598   2607     1  0.0000000  1.2552000  3
   2601   2604   2610   5577     1  0.0000000  0.2928800  2
   2601   2604   2610   5577     1  0.0000000  0.4184000  4
   2601   2604   2610   2612     1  180.0000771  0.0000000  2
   2604   2610   5577   5579     1  180.0000771  6.2760000  1
   2604   2610   5577   5579     1  0.0000000  0.0000000  2
   2607   2611   5606   5608     1  180.0000771  6.2760000  1
   2607   2611   5606   5608     1  0.0000000  0.0000000  2
   2610   5577   5579   5581     1  0.0000000  2.2175200  1
   2610   5577   5579   5581     1  0.0000000  0.0000000  2
   2610   5577   5579   5581     1  180.0000771  0.6276000  3
   2610   5577   5579   5581     1  180.0000771  2.0920000  4
   2611   5606   5608   5610     1  0.0000000  2.2175200  1
   2611   5606   5608   5610     1  0.0000000  0.0000000  2
   2611   5606   5608   5610     1  180.0000771  0.6276000  3
   2611   5606   5608   5610     1  180.0000771  2.0920000  4
   2612   2610   5577   5579     1  180.0000771  10.4600000  2
   2613   2611   5606   5608     1  180.0000771  10.4600000  2
   2616   2622   2623   2632     1  180.0000771  2.0083200  2
   2616   2622   2623   2632     1  0.0000000  1.2552000  3
   2616   2622   2626   2629     1  180.0000771  2.0083200  2
   2616   2622   2626   2629     1  0.0000000  1.2552000  3
   2619   2616   2622   2623     1  180.0000771  2.0083200  2
   2619   2616   2622   2623     1  0.0000000  1.2552000  3
   2619   2616   2622   2626     1  180.0000771  2.0083200  2
   2619   2616   2622   2626     1  0.0000000  1.2552000  3
   2622   2616   2619   2639     1  0.0000000  0.6508444  3
   2622   2623   2632   2636     1  0.0000000  0.6508444  3
   2622   2626   2629   2635     1  0.0000000  0.6508444  3
   2623   2622   2626   2629     1  180.0000771  2.0083200  2
   2623   2622   2626   2629     1  0.0000000  1.2552000  3
   2623   2632   2636   2638     1  180.0000771  0.0000000  2
   2623   2632   2636   5664     1  0.0000000  0.2928800  2
   2623   2632   2636   5664     1  0.0000000  0.4184000  4
   2626   2622   2623   2632     1  180.0000771  2.0083200  2
   2626   2622   2623   2632     1  0.0000000  1.2552000  3
   2626   2629   2635   5635     1  0.0000000  0.2928800  2
   2626   2629   2635   5635     1  0.0000000  0.4184000  4
   2626   2629   2635   2637     1  180.0000771  0.0000000  2
   2629   2635   5635   5637     1  180.0000771  6.2760000  1
   2629   2635   5635   5637     1  0.0000000  0.0000000  2
   2632   2636   5664   5666     1  180.0000771  6.2760000  1
   2632   2636   5664   5666     1  0.0000000  0.0000000  2
   2635   5635   5637   5639     1  0.0000000  2.2175200  1
   2635   5635   5637   5639     1  0.0000000  0.0000000  2
   2635   5635   5637   5639     1  180.0000771  0.6276000  3
   2635   5635   5637   5639     1  180.0000771  2.0920000  4
   2636   5664   5666   5668     1  0.0000000  2.2175200  1
   2636   5664   5666   5668     1  0.0000000  0.0000000  2
   2636   5664   5666   5668     1  180.0000771  0.6276000  3
   2636   5664   5666   5668     1  180.0000771  2.0920000  4
   2637   2635   5635   5637     1  180.0000771  10.4600000  2
   2638   2636   5664   5666     1  180.0000771  10.4600000  2
   2641   2647   2648   2657     1  180.0000771  2.0083200  2
   2641   2647   2648   2657     1  0.0000000  1.2552000  3
   2641   2647   2651   2654     1  180.0000771  2.0083200  2
   2641   2647   2651   2654     1  0.0000000  1.2552000  3
   2644   2641   2647   2648     1  180.0000771  2.0083200  2
   2644   2641   2647   2648     1  0.0000000  1.2552000  3
   2644   2641   2647   2651     1  180.0000771  2.0083200  2
   2644   2641   2647   2651     1  0.0000000  1.2552000  3
   2647   2641   2644   2664     1  0.0000000  0.6508444  3
   2647   2648   2657   2661     1  0.0000000  0.6508444  3
   2647   2651   2654   2660     1  0.0000000  0.6508444  3
   2648   2647   2651   2654     1  180.0000771  2.0083200  2
   2648   2647   2651   2654     1  0.0000000  1.2552000  3
   2648   2657   2661   2663     1  180.0000771  0.0000000  2
   2648   2657   2661   5722     1  0.0000000  0.2928800  2
   2648   2657   2661   5722     1  0.0000000  0.4184000  4
   2651   2647   2648   2657     1  180.0000771  2.0083200  2
   2651   2647   2648   2657     1  0.0000000  1.2552000  3
   2651   2654   2660   5693     1  0.0000000  0.2928800  2
   2651   2654   2660   5693     1  0.0000000  0.4184000  4
   2651   2654   2660   2662     1  180.0000771  0.0000000  2
   2654   2660   5693   5695     1  180.0000771  6.2760000  1
   2654   2660   5693   5695     1  0.0000000  0.0000000  2
   2657   2661   5722   5724     1  180.0000771  6.2760000  1
   2657   2661   5722   5724     1  0.0000000  0.0000000  2
   2660   5693   5695   5697     1  0.0000000  2.2175200  1
   2660   5693   5695   5697     1  0.0000000  0.0000000  2
   2660   5693   5695   5697     1  180.0000771  0.6276000  3
   2660   5693   5695   5697     1  180.0000771  2.0920000  4
   2661   5722   5724   5726     1  0.0000000  2.2175200  1
   2661   5722   5724   5726     1  0.0000000  0.0000000  2
   2661   5722   5724   5726     1  180.0000771  0.6276000  3
   2661   5722   5724   5726     1  180.0000771  2.0920000  4
   2662   2660   5693   5695     1  180.0000771  10.4600000  2
   2663   2661   5722   5724     1  180.0000771  10.4600000  2
   2666   2672   2673   2682     1  180.0000771  2.0083200  2
   2666   2672   2673   2682     1  0.0000000  1.2552000  3
   2666   2672   2676   2679     1  180.0000771  2.0083200  2
   2666   2672   2676   2679     1  0.0000000  1.2552000  3
   2669   2666   2672   2673     1  180.0000771  2.0083200  2
   2669   2666   2672   2673     1  0.0000000  1.2552000  3
   2669   2666   2672   2676     1  180.0000771  2.0083200  2
   2669   2666   2672   2676     1  0.0000000  1.2552000  3
   2672   2666   2669   2689     1  0.0000000  0.6508444  3
   2672   2673   2682   2686     1  0.0000000  0.6508444  3
   2672   2676   2679   2685     1  0.0000000  0.6508444  3
   2673   2672   2676   2679     1  180.0000771  2.0083200  2
   2673   2672   2676   2679     1  0.0000000  1.2552000  3
   2673   2682   2686   2688     1  180.0000771  0.0000000  2
   2673   2682   2686   5780     1  0.0000000  0.2928800  2
   2673   2682   2686   5780     1  0.0000000  0.4184000  4
   2676   2672   2673   2682     1  180.0000771  2.0083200  2
   2676   2672   2673   2682     1  0.0000000  1.2552000  3
   2676   2679   2685   5751     1  0.0000000  0.2928800  2
   2676   2679   2685   5751     1  0.0000000  0.4184000  4
   2676   2679   2685   2687     1  180.0000771  0.0000000  2
   2679   2685   5751   5753     1  180.0000771  6.2760000  1
   2679   2685   5751   5753     1  0.0000000  0.0000000  2
   2682   2686   5780   5782     1  180.0000771  6.2760000  1
   2682   2686   5780   5782     1  0.0000000  0.0000000  2
   2685   5751   5753   5755     1  0.0000000  2.2175200  1
   2685   5751   5753   5755     1  0.0000000  0.0000000  2
   2685   5751   5753   5755     1  180.0000771  0.6276000  3
   2685   5751   5753   5755     1  180.0000771  2.0920000  4
   2686   5780   5782   5784     1  0.0000000  2.2175200  1
   2686   5780   5782   5784     1  0.0000000  0.0000000  2
   2686   5780   5782   5784     1  180.0000771  0.6276000  3
   2686   5780   5782   5784     1  180.0000771  2.0920000  4
   2687   2685   5751   5753     1  180.0000771  10.4600000  2
   2688   2686   5780   5782     1  180.0000771  10.4600000  2
   2691   2697   2698   2707     1  180.0000771  2.0083200  2
   2691   2697   2698   2707     1  0.0000000  1.2552000  3
   2691   2697   2701   2704     1  180.0000771  2.0083200  2
   2691   2697   2701   2704     1  0.0000000  1.2552000  3
   2694   2691   2697   2698     1  180.0000771  2.0083200  2
   2694   2691   2697   2698     1  0.0000000  1.2552000  3
   2694   2691   2697   2701     1  180.0000771  2.0083200  2
   2694   2691   2697   2701     1  0.0000000  1.2552000  3
   2697   2691   2694   2714     1  0.0000000  0.6508444  3
   2697   2698   2707   2711     1  0.0000000  0.6508444  3
   2697   2701   2704   2710     1  0.0000000  0.6508444  3
   2698   2697   2701   2704     1  180.0000771  2.0083200  2
   2698   2697   2701   2704     1  0.0000000  1.2552000  3
   2698   2707   2711   2713     1  180.0000771  0.0000000  2
   2698   2707   2711   5838     1  0.0000000  0.2928800  2
   2698   2707   2711   5838     1  0.0000000  0.4184000  4
   2701   2697   2698   2707     1  180.0000771  2.0083200  2
   2701   2697   2698   2707     1  0.0000000  1.2552000  3
   2701   2704   2710   5809     1  0.0000000  0.2928800  2
   2701   2704   2710   5809     1  0.0000000  0.4184000  4
   2701   2704   2710   2712     1  180.0000771  0.0000000  2
   2704   2710   5809   5811     1  180.0000771  6.2760000  1
   2704   2710   5809   5811     1  0.0000000  0.0000000  2
   2707   2711   5838   5840     1  180.0000771  6.2760000  1
   2707   2711   5838   5840     1  0.0000000  0.0000000  2
   2710   5809   5811   5813     1  0.0000000  2.2175200  1
   2710   5809   5811   5813     1  0.0000000  0.0000000  2
   2710   5809   5811   5813     1  180.0000771  0.6276000  3
   2710   5809   5811   5813     1  180.0000771  2.0920000  4
   2711   5838   5840   5842     1  0.0000000  2.2175200  1
   2711   5838   5840   5842     1  0.0000000  0.0000000  2
   2711   5838   5840   5842     1  180.0000771  0.6276000  3
   2711   5838   5840   5842     1  180.0000771  2.0920000  4
   2712   2710   5809   5811     1  180.0000771  10.4600000  2
   2713   2711   5838   5840     1  180.0000771  10.4600000  2
   2716   2722   2723   2732     1  180.0000771  2.0083200  2
   2716   2722   2723   2732     1  0.0000000  1.2552000  3
   2716   2722   2726   2729     1  180.0000771  2.0083200  2
   2716   2722   2726   2729     1  0.0000000  1.2552000  3
   2719   2716   2722   2723     1  180.0000771  2.0083200  2
   2719   2716   2722   2723     1  0.0000000  1.2552000  3
   2719   2716   2722   2726     1  180.0000771  2.0083200  2
   2719   2716   2722   2726     1  0.0000000  1.2552000  3
   2722   2716   2719   2739     1  0.0000000  0.6508444  3
   2722   2723   2732   2736     1  0.0000000  0.6508444  3
   2722   2726   2729   2735     1  0.0000000  0.6508444  3
   2723   2722   2726   2729     1  180.0000771  2.0083200  2
   2723   2722   2726   2729     1  0.0000000  1.2552000  3
   2723   2732   2736   2738     1  180.0000771  0.0000000  2
   2723   2732   2736   5896     1  0.0000000  0.2928800  2
   2723   2732   2736   5896     1  0.0000000  0.4184000  4
   2726   2722   2723   2732     1  180.0000771  2.0083200  2
   2726   2722   2723   2732     1  0.0000000  1.2552000  3
   2726   2729   2735   5867     1  0.0000000  0.2928800  2
   2726   2729   2735   5867     1  0.0000000  0.4184000  4
   2726   2729   2735   2737     1  180.0000771  0.0000000  2
   2729   2735   5867   5869     1  180.0000771  6.2760000  1
   2729   2735   5867   5869     1  0.0000000  0.0000000  2
   2732   2736   5896   5898     1  180.0000771  6.2760000  1
   2732   2736   5896   5898     1  0.0000000  0.0000000  2
   2735   5867   5869   5871     1  0.0000000  2.2175200  1
   2735   5867   5869   5871     1  0.0000000  0.0000000  2
   2735   5867   5869   5871     1  180.0000771  0.6276000  3
   2735   5867   5869   5871     1  180.0000771  2.0920000  4
   2736   5896   5898   5900     1  0.0000000  2.2175200  1
   2736   5896   5898   5900     1  0.0000000  0.0000000  2
   2736   5896   5898   5900     1  180.0000771  0.6276000  3
   2736   5896   5898   5900     1  180.0000771  2.0920000  4
   2737   2735   5867   5869     1  180.0000771  10.4600000  2
   2738   2736   5896   5898     1  180.0000771  10.4600000  2
   2741   2747   2748   2757     1  180.0000771  2.0083200  2
   2741   2747   2748   2757     1  0.0000000  1.2552000  3
   2741   2747   2751   2754     1  180.0000771  2.0083200  2
   2741   2747   2751   2754     1  0.0000000  1.2552000  3
   2744   2741   2747   2748     1  180.0000771  2.0083200  2
   2744   2741   2747   2748     1  0.0000000  1.2552000  3
   2744   2741   2747   2751     1  180.0000771  2.0083200  2
   2744   2741   2747   2751     1  0.0000000  1.2552000  3
   2747   2741   2744   2764     1  0.0000000  0.6508444  3
   2747   2748   2757   2761     1  0.0000000  0.6508444  3
   2747   2751   2754   2760     1  0.0000000  0.6508444  3
   2748   2747   2751   2754     1  180.0000771  2.0083200  2
   2748   2747   2751   2754     1  0.0000000  1.2552000  3
   2748   2757   2761   2763     1  180.0000771  0.0000000  2
   2748   2757   2761   5954     1  0.0000000  0.2928800  2
   2748   2757   2761   5954     1  0.0000000  0.4184000  4
   2751   2747   2748   2757     1  180.0000771  2.0083200  2
   2751   2747   2748   2757     1  0.0000000  1.2552000  3
   2751   2754   2760   5925     1  0.0000000  0.2928800  2
   2751   2754   2760   5925     1  0.0000000  0.4184000  4
   2751   2754   2760   2762     1  180.0000771  0.0000000  2
   2754   2760   5925   5927     1  180.0000771  6.2760000  1
   2754   2760   5925   5927     1  0.0000000  0.0000000  2
   2757   2761   5954   5956     1  180.0000771  6.2760000  1
   2757   2761   5954   5956     1  0.0000000  0.0000000  2
   2760   5925   5927   5929     1  0.0000000  2.2175200  1
   2760   5925   5927   5929     1  0.0000000  0.0000000  2
   2760   5925   5927   5929     1  180.0000771  0.6276000  3
   2760   5925   5927   5929     1  180.0000771  2.0920000  4
   2761   5954   5956   5958     1  0.0000000  2.2175200  1
   2761   5954   5956   5958     1  0.0000000  0.0000000  2
   2761   5954   5956   5958     1  180.0000771  0.6276000  3
   2761   5954   5956   5958     1  180.0000771  2.0920000  4
   2762   2760   5925   5927     1  180.0000771  10.4600000  2
   2763   2761   5954   5956     1  180.0000771  10.4600000  2
   2766   2772   2773   2782     1  180.0000771  2.0083200  2
   2766   2772   2773   2782     1  0.0000000  1.2552000  3
   2766   2772   2776   2779     1  180.0000771  2.0083200  2
   2766   2772   2776   2779     1  0.0000000  1.2552000  3
   2769   2766   2772   2773     1  180.0000771  2.0083200  2
   2769   2766   2772   2773     1  0.0000000  1.2552000  3
   2769   2766   2772   2776     1  180.0000771  2.0083200  2
   2769   2766   2772   2776     1  0.0000000  1.2552000  3
   2772   2766   2769   2789     1  0.0000000  0.6508444  3
   2772   2773   2782   2786     1  0.0000000  0.6508444  3
   2772   2776   2779   2785     1  0.0000000  0.6508444  3
   2773   2772   2776   2779     1  180.0000771  2.0083200  2
   2773   2772   2776   2779     1  0.0000000  1.2552000  3
   2773   2782   2786   2788     1  180.0000771  0.0000000  2
   2773   2782   2786   6012     1  0.0000000  0.2928800  2
   2773   2782   2786   6012     1  0.0000000  0.4184000  4
   2776   2772   2773   2782     1  180.0000771  2.0083200  2
   2776   2772   2773   2782     1  0.0000000  1.2552000  3
   2776   2779   2785   5983     1  0.0000000  0.2928800  2
   2776   2779   2785   5983     1  0.0000000  0.4184000  4
   2776   2779   2785   2787     1  180.0000771  0.0000000  2
   2779   2785   5983   5985     1  180.0000771  6.2760000  1
   2779   2785   5983   5985     1  0.0000000  0.0000000  2
   2782   2786   6012   6014     1  180.0000771  6.2760000  1
   2782   2786   6012   6014     1  0.0000000  0.0000000  2
   2785   5983   5985   5987     1  0.0000000  2.2175200  1
   2785   5983   5985   5987     1  0.0000000  0.0000000  2
   2785   5983   5985   5987     1  180.0000771  0.6276000  3
   2785   5983   5985   5987     1  180.0000771  2.0920000  4
   2786   6012   6014   6016     1  0.0000000  2.2175200  1
   2786   6012   6014   6016     1  0.0000000  0.0000000  2
   2786   6012   6014   6016     1  180.0000771  0.6276000  3
   2786   6012   6014   6016     1  180.0000771  2.0920000  4
   2787   2785   5983   5985     1  180.0000771  10.4600000  2
   2788   2786   6012   6014     1  180.0000771  10.4600000  2
   2791   2797   2798   2807     1  180.0000771  2.0083200  2
   2791   2797   2798   2807     1  0.0000000  1.2552000  3
   2791   2797   2801   2804     1  180.0000771  2.0083200  2
   2791   2797   2801   2804     1  0.0000000  1.2552000  3
   2794   2791   2797   2798     1  180.0000771  2.0083200  2
   2794   2791   2797   2798     1  0.0000000  1.2552000  3
   2794   2791   2797   2801     1  180.0000771  2.0083200  2
   2794   2791   2797   2801     1  0.0000000  1.2552000  3
   2797   2791   2794   2814     1  0.0000000  0.6508444  3
   2797   2798   2807   2811     1  0.0000000  0.6508444  3
   2797   2801   2804   2810     1  0.0000000  0.6508444  3
   2798   2797   2801   2804     1  180.0000771  2.0083200  2
   2798   2797   2801   2804     1  0.0000000  1.2552000  3
   2798   2807   2811   2813     1  180.0000771  0.0000000  2
   2798   2807   2811   6070     1  0.0000000  0.2928800  2
   2798   2807   2811   6070     1  0.0000000  0.4184000  4
   2801   2797   2798   2807     1  180.0000771  2.0083200  2
   2801   2797   2798   2807     1  0.0000000  1.2552000  3
   2801   2804   2810   6041     1  0.0000000  0.2928800  2
   2801   2804   2810   6041     1  0.0000000  0.4184000  4
   2801   2804   2810   2812     1  180.0000771  0.0000000  2
   2804   2810   6041   6043     1  180.0000771  6.2760000  1
   2804   2810   6041   6043     1  0.0000000  0.0000000  2
   2807   2811   6070   6072     1  180.0000771  6.2760000  1
   2807   2811   6070   6072     1  0.0000000  0.0000000  2
   2810   6041   6043   6045     1  0.0000000  2.2175200  1
   2810   6041   6043   6045     1  0.0000000  0.0000000  2
   2810   6041   6043   6045     1  180.0000771  0.6276000  3
   2810   6041   6043   6045     1  180.0000771  2.0920000  4
   2811   6070   6072   6074     1  0.0000000  2.2175200  1
   2811   6070   6072   6074     1  0.0000000  0.0000000  2
   2811   6070   6072   6074     1  180.0000771  0.6276000  3
   2811   6070   6072   6074     1  180.0000771  2.0920000  4
   2812   2810   6041   6043     1  180.0000771  10.4600000  2
   2813   2811   6070   6072     1  180.0000771  10.4600000  2
   2816   2822   2823   2832     1  180.0000771  2.0083200  2
   2816   2822   2823   2832     1  0.0000000  1.2552000  3
   2816   2822   2826   2829     1  180.0000771  2.0083200  2
   2816   2822   2826   2829     1  0.0000000  1.2552000  3
   2819   2816   2822   2823     1  180.0000771  2.0083200  2
   2819   2816   2822   2823     1  0.0000000  1.2552000  3
   2819   2816   2822   2826     1  180.0000771  2.0083200  2
   2819   2816   2822   2826     1  0.0000000  1.2552000  3
   2822   2816   2819   2839     1  0.0000000  0.6508444  3
   2822   2823   2832   2836     1  0.0000000  0.6508444  3
   2822   2826   2829   2835     1  0.0000000  0.6508444  3
   2823   2822   2826   2829     1  180.0000771  2.0083200  2
   2823   2822   2826   2829     1  0.0000000  1.2552000  3
   2823   2832   2836   2838     1  180.0000771  0.0000000  2
   2823   2832   2836   6128     1  0.0000000  0.2928800  2
   2823   2832   2836   6128     1  0.0000000  0.4184000  4
   2826   2822   2823   2832     1  180.0000771  2.0083200  2
   2826   2822   2823   2832     1  0.0000000  1.2552000  3
   2826   2829   2835   6099     1  0.0000000  0.2928800  2
   2826   2829   2835   6099     1  0.0000000  0.4184000  4
   2826   2829   2835   2837     1  180.0000771  0.0000000  2
   2829   2835   6099   6101     1  180.0000771  6.2760000  1
   2829   2835   6099   6101     1  0.0000000  0.0000000  2
   2832   2836   6128   6130     1  180.0000771  6.2760000  1
   2832   2836   6128   6130     1  0.0000000  0.0000000  2
   2835   6099   6101   6103     1  0.0000000  2.2175200  1
   2835   6099   6101   6103     1  0.0000000  0.0000000  2
   2835   6099   6101   6103     1  180.0000771  0.6276000  3
   2835   6099   6101   6103     1  180.0000771  2.0920000  4
   2836   6128   6130   6132     1  0.0000000  2.2175200  1
   2836   6128   6130   6132     1  0.0000000  0.0000000  2
   2836   6128   6130   6132     1  180.0000771  0.6276000  3
   2836   6128   6130   6132     1  180.0000771  2.0920000  4
   2837   2835   6099   6101     1  180.0000771  10.4600000  2
   2838   2836   6128   6130     1  180.0000771  10.4600000  2
   2841   2847   2848   2857     1  180.0000771  2.0083200  2
   2841   2847   2848   2857     1  0.0000000  1.2552000  3
   2841   2847   2851   2854     1  180.0000771  2.0083200  2
   2841   2847   2851   2854     1  0.0000000  1.2552000  3
   2844   2841   2847   2848     1  180.0000771  2.0083200  2
   2844   2841   2847   2848     1  0.0000000  1.2552000  3
   2844   2841   2847   2851     1  180.0000771  2.0083200  2
   2844   2841   2847   2851     1  0.0000000  1.2552000  3
   2847   2841   2844   2864     1  0.0000000  0.6508444  3
   2847   2848   2857   2861     1  0.0000000  0.6508444  3
   2847   2851   2854   2860     1  0.0000000  0.6508444  3
   2848   2847   2851   2854     1  180.0000771  2.0083200  2
   2848   2847   2851   2854     1  0.0000000  1.2552000  3
   2848   2857   2861   2863     1  180.0000771  0.0000000  2
   2848   2857   2861   6186     1  0.0000000  0.2928800  2
   2848   2857   2861   6186     1  0.0000000  0.4184000  4
   2851   2847   2848   2857     1  180.0000771  2.0083200  2
   2851   2847   2848   2857     1  0.0000000  1.2552000  3
   2851   2854   2860   6157     1  0.0000000  0.2928800  2
   2851   2854   2860   6157     1  0.0000000  0.4184000  4
   2851   2854   2860   2862     1  180.0000771  0.0000000  2
   2854   2860   6157   6159     1  180.0000771  6.2760000  1
   2854   2860   6157   6159     1  0.0000000  0.0000000  2
   2857   2861   6186   6188     1  180.0000771  6.2760000  1
   2857   2861   6186   6188     1  0.0000000  0.0000000  2
   2860   6157   6159   6161     1  0.0000000  2.2175200  1
   2860   6157   6159   6161     1  0.0000000  0.0000000  2
   2860   6157   6159   6161     1  180.0000771  0.6276000  3
   2860   6157   6159   6161     1  180.0000771  2.0920000  4
   2861   6186   6188   6190     1  0.0000000  2.2175200  1
   2861   6186   6188   6190     1  0.0000000  0.0000000  2
   2861   6186   6188   6190     1  180.0000771  0.6276000  3
   2861   6186   6188   6190     1  180.0000771  2.0920000  4
   2862   2860   6157   6159     1  180.0000771  10.4600000  2
   2863   2861   6186   6188     1  180.0000771  10.4600000  2
   2866   2872   2873   2882     1  180.0000771  2.0083200  2
   2866   2872   2873   2882     1  0.0000000  1.2552000  3
   2866   2872   2876   2879     1  180.0000771  2.0083200  2
   2866   2872   2876   2879     1  0.0000000  1.2552000  3
   2869   2866   2872   2873     1  180.0000771  2.0083200  2
   2869   2866   2872   2873     1  0.0000000  1.2552000  3
   2869   2866   2872   2876     1  180.0000771  2.0083200  2
   2869   2866   2872   2876     1  0.0000000  1.2552000  3
   2872   2866   2869   2889     1  0.0000000  0.6508444  3
   2872   2873   2882   2886     1  0.0000000  0.6508444  3
   2872   2876   2879   2885     1  0.0000000  0.6508444  3
   2873   2872   2876   2879     1  180.0000771  2.0083200  2
   2873   2872   2876   2879     1  0.0000000  1.2552000  3
   2873   2882   2886   2888     1  180.0000771  0.0000000  2
   2873   2882   2886   6244     1  0.0000000  0.2928800  2
   2873   2882   2886   6244     1  0.0000000  0.4184000  4
   2876   2872   2873   2882     1  180.0000771  2.0083200  2
   2876   2872   2873   2882     1  0.0000000  1.2552000  3
   2876   2879   2885   6215     1  0.0000000  0.2928800  2
   2876   2879   2885   6215     1  0.0000000  0.4184000  4
   2876   2879   2885   2887     1  180.0000771  0.0000000  2
   2879   2885   6215   6217     1  180.0000771  6.2760000  1
   2879   2885   6215   6217     1  0.0000000  0.0000000  2
   2882   2886   6244   6246     1  180.0000771  6.2760000  1
   2882   2886   6244   6246     1  0.0000000  0.0000000  2
   2885   6215   6217   6219     1  0.0000000  2.2175200  1
   2885   6215   6217   6219     1  0.0000000  0.0000000  2
   2885   6215   6217   6219     1  180.0000771  0.6276000  3
   2885   6215   6217   6219     1  180.0000771  2.0920000  4
   2886   6244   6246   6248     1  0.0000000  2.2175200  1
   2886   6244   6246   6248     1  0.0000000  0.0000000  2
   2886   6244   6246   6248     1  180.0000771  0.6276000  3
   2886   6244   6246   6248     1  180.0000771  2.0920000  4
   2887   2885   6215   6217     1  180.0000771  10.4600000  2
   2888   2886   6244   6246     1  180.0000771  10.4600000  2
   2891   2897   2898   2907     1  180.0000771  2.0083200  2
   2891   2897   2898   2907     1  0.0000000  1.2552000  3
   2891   2897   2901   2904     1  180.0000771  2.0083200  2
   2891   2897   2901   2904     1  0.0000000  1.2552000  3
   2894   2891   2897   2898     1  180.0000771  2.0083200  2
   2894   2891   2897   2898     1  0.0000000  1.2552000  3
   2894   2891   2897   2901     1  180.0000771  2.0083200  2
   2894   2891   2897   2901     1  0.0000000  1.2552000  3
   2897   2891   2894   2914     1  0.0000000  0.6508444  3
   2897   2898   2907   2911     1  0.0000000  0.6508444  3
   2897   2901   2904   2910     1  0.0000000  0.6508444  3
   2898   2897   2901   2904     1  180.0000771  2.0083200  2
   2898   2897   2901   2904     1  0.0000000  1.2552000  3
   2898   2907   2911   2913     1  180.0000771  0.0000000  2
   2898   2907   2911   6302     1  0.0000000  0.2928800  2
   2898   2907   2911   6302     1  0.0000000  0.4184000  4
   2901   2897   2898   2907     1  180.0000771  2.0083200  2
   2901   2897   2898   2907     1  0.0000000  1.2552000  3
   2901   2904   2910   6273     1  0.0000000  0.2928800  2
   2901   2904   2910   6273     1  0.0000000  0.4184000  4
   2901   2904   2910   2912     1  180.0000771  0.0000000  2
   2904   2910   6273   6275     1  180.0000771  6.2760000  1
   2904   2910   6273   6275     1  0.0000000  0.0000000  2
   2907   2911   6302   6304     1  180.0000771  6.2760000  1
   2907   2911   6302   6304     1  0.0000000  0.0000000  2
   2910   6273   6275   6277     1  0.0000000  2.2175200  1
   2910   6273   6275   6277     1  0.0000000  0.0000000  2
   2910   6273   6275   6277     1  180.0000771  0.6276000  3
   2910   6273   6275   6277     1  180.0000771  2.0920000  4
   2911   6302   6304   6306     1  0.0000000  2.2175200  1
   2911   6302   6304   6306     1  0.0000000  0.0000000  2
   2911   6302   6304   6306     1  180.0000771  0.6276000  3
   2911   6302   6304   6306     1  180.0000771  2.0920000  4
   2912   2910   6273   6275     1  180.0000771  10.4600000  2
   2913   2911   6302   6304     1  180.0000771  10.4600000  2
   2916   2922   2923   2932     1  180.0000771  2.0083200  2
   2916   2922   2923   2932     1  0.0000000  1.2552000  3
   2916   2922   2926   2929     1  180.0000771  2.0083200  2
   2916   2922   2926   2929     1  0.0000000  1.2552000  3
   2919   2916   2922   2923     1  180.0000771  2.0083200  2
   2919   2916   2922   2923     1  0.0000000  1.2552000  3
   2919   2916   2922   2926     1  180.0000771  2.0083200  2
   2919   2916   2922   2926     1  0.0000000  1.2552000  3
   2922   2916   2919   2939     1  0.0000000  0.6508444  3
   2922   2923   2932   2936     1  0.0000000  0.6508444  3
   2922   2926   2929   2935     1  0.0000000  0.6508444  3
   2923   2922   2926   2929     1  180.0000771  2.0083200  2
   2923   2922   2926   2929     1  0.0000000  1.2552000  3
   2923   2932   2936   2938     1  180.0000771  0.0000000  2
   2923   2932   2936   6360     1  0.0000000  0.2928800  2
   2923   2932   2936   6360     1  0.0000000  0.4184000  4
   2926   2922   2923   2932     1  180.0000771  2.0083200  2
   2926   2922   2923   2932     1  0.0000000  1.2552000  3
   2926   2929   2935   6331     1  0.0000000  0.2928800  2
   2926   2929   2935   6331     1  0.0000000  0.4184000  4
   2926   2929   2935   2937     1  180.0000771  0.0000000  2
   2929   2935   6331   6333     1  180.0000771  6.2760000  1
   2929   2935   6331   6333     1  0.0000000  0.0000000  2
   2932   2936   6360   6362     1  180.0000771  6.2760000  1
   2932   2936   6360   6362     1  0.0000000  0.0000000  2
   2935   6331   6333   6335     1  0.0000000  2.2175200  1
   2935   6331   6333   6335     1  0.0000000  0.0000000  2
   2935   6331   6333   6335     1  180.0000771  0.6276000  3
   2935   6331   6333   6335     1  180.0000771  2.0920000  4
   2936   6360   6362   6364     1  0.0000000  2.2175200  1
   2936   6360   6362   6364     1  0.0000000  0.0000000  2
   2936   6360   6362   6364     1  180.0000771  0.6276000  3
   2936   6360   6362   6364     1  180.0000771  2.0920000  4
   2937   2935   6331   6333     1  180.0000771  10.4600000  2
   2938   2936   6360   6362     1  180.0000771  10.4600000  2
   2941   2947   2948   2957     1  180.0000771  2.0083200  2
   2941   2947   2948   2957     1  0.0000000  1.2552000  3
   2941   2947   2951   2954     1  180.0000771  2.0083200  2
   2941   2947   2951   2954     1  0.0000000  1.2552000  3
   2944   2941   2947   2948     1  180.0000771  2.0083200  2
   2944   2941   2947   2948     1  0.0000000  1.2552000  3
   2944   2941   2947   2951     1  180.0000771  2.0083200  2
   2944   2941   2947   2951     1  0.0000000  1.2552000  3
   2947   2941   2944   2964     1  0.0000000  0.6508444  3
   2947   2948   2957   2961     1  0.0000000  0.6508444  3
   2947   2951   2954   2960     1  0.0000000  0.6508444  3
   2948   2947   2951   2954     1  180.0000771  2.0083200  2
   2948   2947   2951   2954     1  0.0000000  1.2552000  3
   2948   2957   2961   2963     1  180.0000771  0.0000000  2
   2948   2957   2961   6418     1  0.0000000  0.2928800  2
   2948   2957   2961   6418     1  0.0000000  0.4184000  4
   2951   2947   2948   2957     1  180.0000771  2.0083200  2
   2951   2947   2948   2957     1  0.0000000  1.2552000  3
   2951   2954   2960   6389     1  0.0000000  0.2928800  2
   2951   2954   2960   6389     1  0.0000000  0.4184000  4
   2951   2954   2960   2962     1  180.0000771  0.0000000  2
   2954   2960   6389   6391     1  180.0000771  6.2760000  1
   2954   2960   6389   6391     1  0.0000000  0.0000000  2
   2957   2961   6418   6420     1  180.0000771  6.2760000  1
   2957   2961   6418   6420     1  0.0000000  0.0000000  2
   2960   6389   6391   6393     1  0.0000000  2.2175200  1
   2960   6389   6391   6393     1  0.0000000  0.0000000  2
   2960   6389   6391   6393     1  180.0000771  0.6276000  3
   2960   6389   6391   6393     1  180.0000771  2.0920000  4
   2961   6418   6420   6422     1  0.0000000  2.2175200  1
   2961   6418   6420   6422     1  0.0000000  0.0000000  2
   2961   6418   6420   6422     1  180.0000771  0.6276000  3
   2961   6418   6420   6422     1  180.0000771  2.0920000  4
   2962   2960   6389   6391     1  180.0000771  10.4600000  2
   2963   2961   6418   6420     1  180.0000771  10.4600000  2
   2966   2972   2973   2982     1  180.0000771  2.0083200  2
   2966   2972   2973   2982     1  0.0000000  1.2552000  3
   2966   2972   2976   2979     1  180.0000771  2.0083200  2
   2966   2972   2976   2979     1  0.0000000  1.2552000  3
   2969   2966   2972   2973     1  180.0000771  2.0083200  2
   2969   2966   2972   2973     1  0.0000000  1.2552000  3
   2969   2966   2972   2976     1  180.0000771  2.0083200  2
   2969   2966   2972   2976     1  0.0000000  1.2552000  3
   2972   2966   2969   2989     1  0.0000000  0.6508444  3
   2972   2973   2982   2986     1  0.0000000  0.6508444  3
   2972   2976   2979   2985     1  0.0000000  0.6508444  3
   2973   2972   2976   2979     1  180.0000771  2.0083200  2
   2973   2972   2976   2979     1  0.0000000  1.2552000  3
   2973   2982   2986   2988     1  180.0000771  0.0000000  2
   2973   2982   2986   6476     1  0.0000000  0.2928800  2
   2973   2982   2986   6476     1  0.0000000  0.4184000  4
   2976   2972   2973   2982     1  180.0000771  2.0083200  2
   2976   2972   2973   2982     1  0.0000000  1.2552000  3
   2976   2979   2985   6447     1  0.0000000  0.2928800  2
   2976   2979   2985   6447     1  0.0000000  0.4184000  4
   2976   2979   2985   2987     1  180.0000771  0.0000000  2
   2979   2985   6447   6449     1  180.0000771  6.2760000  1
   2979   2985   6447   6449     1  0.0000000  0.0000000  2
   2982   2986   6476   6478     1  180.0000771  6.2760000  1
   2982   2986   6476   6478     1  0.0000000  0.0000000  2
   2985   6447   6449   6451     1  0.0000000  2.2175200  1
   2985   6447   6449   6451     1  0.0000000  0.0000000  2
   2985   6447   6449   6451     1  180.0000771  0.6276000  3
   2985   6447   6449   6451     1  180.0000771  2.0920000  4
   2986   6476   6478   6480     1  0.0000000  2.2175200  1
   2986   6476   6478   6480     1  0.0000000  0.0000000  2
   2986   6476   6478   6480     1  180.0000771  0.6276000  3
   2986   6476   6478   6480     1  180.0000771  2.0920000  4
   2987   2985   6447   6449     1  180.0000771  10.4600000  2
   2988   2986   6476   6478     1  180.0000771  10.4600000  2
   2991   2997   2998   3007     1  180.0000771  2.0083200  2
   2991   2997   2998   3007     1  0.0000000  1.2552000  3
   2991   2997   3001   3004     1  180.0000771  2.0083200  2
   2991   2997   3001   3004     1  0.0000000  1.2552000  3
   2994   2991   2997   2998     1  180.0000771  2.0083200  2
   2994   2991   2997   2998     1  0.0000000  1.2552000  3
   2994   2991   2997   3001     1  180.0000771  2.0083200  2
   2994   2991   2997   3001     1  0.0000000  1.2552000  3
   2997   2991   2994   3014     1  0.0000000  0.6508444  3
   2997   2998   3007   3011     1  0.0000000  0.6508444  3
   2997   3001   3004   3010     1  0.0000000  0.6508444  3
   2998   2997   3001   3004     1  180.0000771  2.0083200  2
   2998   2997   3001   3004     1  0.0000000  1.2552000  3
   2998   3007   3011   3013     1  180.0000771  0.0000000  2
   2998   3007   3011   6534     1  0.0000000  0.2928800  2
   2998   3007   3011   6534     1  0.0000000  0.4184000  4
   3001   2997   2998   3007     1  180.0000771  2.0083200  2
   3001   2997   2998   3007     1  0.0000000  1.2552000  3
   3001   3004   3010   6505     1  0.0000000  0.2928800  2
   3001   3004   3010   6505     1  0.0000000  0.4184000  4
   3001   3004   3010   3012     1  180.0000771  0.0000000  2
   3004   3010   6505   6507     1  180.0000771  6.2760000  1
   3004   3010   6505   6507     1  0.0000000  0.0000000  2
   3007   3011   6534   6536     1  180.0000771  6.2760000  1
   3007   3011   6534   6536     1  0.0000000  0.0000000  2
   3010   6505   6507   6509     1  0.0000000  2.2175200  1
   3010   6505   6507   6509     1  0.0000000  0.0000000  2
   3010   6505   6507   6509     1  180.0000771  0.6276000  3
   3010   6505   6507   6509     1  180.0000771  2.0920000  4
   3011   6534   6536   6538     1  0.0000000  2.2175200  1
   3011   6534   6536   6538     1  0.0000000  0.0000000  2
   3011   6534   6536   6538     1  180.0000771  0.6276000  3
   3011   6534   6536   6538     1  180.0000771  2.0920000  4
   3012   3010   6505   6507     1  180.0000771  10.4600000  2
   3013   3011   6534   6536     1  180.0000771  10.4600000  2
   3016   3022   3023   3032     1  180.0000771  2.0083200  2
   3016   3022   3023   3032     1  0.0000000  1.2552000  3
   3016   3022   3026   3029     1  180.0000771  2.0083200  2
   3016   3022   3026   3029     1  0.0000000  1.2552000  3
   3019   3016   3022   3023     1  180.0000771  2.0083200  2
   3019   3016   3022   3023     1  0.0000000  1.2552000  3
   3019   3016   3022   3026     1  180.0000771  2.0083200  2
   3019   3016   3022   3026     1  0.0000000  1.2552000  3
   3022   3016   3019   3039     1  0.0000000  0.6508444  3
   3022   3023   3032   3036     1  0.0000000  0.6508444  3
   3022   3026   3029   3035     1  0.0000000  0.6508444  3
   3023   3022   3026   3029     1  180.0000771  2.0083200  2
   3023   3022   3026   3029     1  0.0000000  1.2552000  3
   3023   3032   3036   3038     1  180.0000771  0.0000000  2
   3023   3032   3036   6592     1  0.0000000  0.2928800  2
   3023   3032   3036   6592     1  0.0000000  0.4184000  4
   3026   3022   3023   3032     1  180.0000771  2.0083200  2
   3026   3022   3023   3032     1  0.0000000  1.2552000  3
   3026   3029   3035   6563     1  0.0000000  0.2928800  2
   3026   3029   3035   6563     1  0.0000000  0.4184000  4
   3026   3029   3035   3037     1  180.0000771  0.0000000  2
   3029   3035   6563   6565     1  180.0000771  6.2760000  1
   3029   3035   6563   6565     1  0.0000000  0.0000000  2
   3032   3036   6592   6594     1  180.0000771  6.2760000  1
   3032   3036   6592   6594     1  0.0000000  0.0000000  2
   3035   6563   6565   6567     1  0.0000000  2.2175200  1
   3035   6563   6565   6567     1  0.0000000  0.0000000  2
   3035   6563   6565   6567     1  180.0000771  0.6276000  3
   3035   6563   6565   6567     1  180.0000771  2.0920000  4
   3036   6592   6594   6596     1  0.0000000  2.2175200  1
   3036   6592   6594   6596     1  0.0000000  0.0000000  2
   3036   6592   6594   6596     1  180.0000771  0.6276000  3
   3036   6592   6594   6596     1  180.0000771  2.0920000  4
   3037   3035   6563   6565     1  180.0000771  10.4600000  2
   3038   3036   6592   6594     1  180.0000771  10.4600000  2
   3041   3047   3048   3057     1  180.0000771  2.0083200  2
   3041   3047   3048   3057     1  0.0000000  1.2552000  3
   3041   3047   3051   3054     1  180.0000771  2.0083200  2
   3041   3047   3051   3054     1  0.0000000  1.2552000  3
   3044   3041   3047   3048     1  180.0000771  2.0083200  2
   3044   3041   3047   3048     1  0.0000000  1.2552000  3
   3044   3041   3047   3051     1  180.0000771  2.0083200  2
   3044   3041   3047   3051     1  0.0000000  1.2552000  3
   3047   3041   3044   3064     1  0.0000000  0.6508444  3
   3047   3048   3057   3061     1  0.0000000  0.6508444  3
   3047   3051   3054   3060     1  0.0000000  0.6508444  3
   3048   3047   3051   3054     1  180.0000771  2.0083200  2
   3048   3047   3051   3054     1  0.0000000  1.2552000  3
   3048   3057   3061   3063     1  180.0000771  0.0000000  2
   3048   3057   3061   6650     1  0.0000000  0.2928800  2
   3048   3057   3061   6650     1  0.0000000  0.4184000  4
   3051   3047   3048   3057     1  180.0000771  2.0083200  2
   3051   3047   3048   3057     1  0.0000000  1.2552000  3
   3051   3054   3060   6621     1  0.0000000  0.2928800  2
   3051   3054   3060   6621     1  0.0000000  0.4184000  4
   3051   3054   3060   3062     1  180.0000771  0.0000000  2
   3054   3060   6621   6623     1  180.0000771  6.2760000  1
   3054   3060   6621   6623     1  0.0000000  0.0000000  2
   3057   3061   6650   6652     1  180.0000771  6.2760000  1
   3057   3061   6650   6652     1  0.0000000  0.0000000  2
   3060   6621   6623   6625     1  0.0000000  2.2175200  1
   3060   6621   6623   6625     1  0.0000000  0.0000000  2
   3060   6621   6623   6625     1  180.0000771  0.6276000  3
   3060   6621   6623   6625     1  180.0000771  2.0920000  4
   3061   6650   6652   6654     1  0.0000000  2.2175200  1
   3061   6650   6652   6654     1  0.0000000  0.0000000  2
   3061   6650   6652   6654     1  180.0000771  0.6276000  3
   3061   6650   6652   6654     1  180.0000771  2.0920000  4
   3062   3060   6621   6623     1  180.0000771  10.4600000  2
   3063   3061   6650   6652     1  180.0000771  10.4600000  2
   3066   3072   3073   3082     1  180.0000771  2.0083200  2
   3066   3072   3073   3082     1  0.0000000  1.2552000  3
   3066   3072   3076   3079     1  180.0000771  2.0083200  2
   3066   3072   3076   3079     1  0.0000000  1.2552000  3
   3069   3066   3072   3073     1  180.0000771  2.0083200  2
   3069   3066   3072   3073     1  0.0000000  1.2552000  3
   3069   3066   3072   3076     1  180.0000771  2.0083200  2
   3069   3066   3072   3076     1  0.0000000  1.2552000  3
   3072   3066   3069   3089     1  0.0000000  0.6508444  3
   3072   3073   3082   3086     1  0.0000000  0.6508444  3
   3072   3076   3079   3085     1  0.0000000  0.6508444  3
   3073   3072   3076   3079     1  180.0000771  2.0083200  2
   3073   3072   3076   3079     1  0.0000000  1.2552000  3
   3073   3082   3086   3088     1  180.0000771  0.0000000  2
   3073   3082   3086   6708     1  0.0000000  0.2928800  2
   3073   3082   3086   6708     1  0.0000000  0.4184000  4
   3076   3072   3073   3082     1  180.0000771  2.0083200  2
   3076   3072   3073   3082     1  0.0000000  1.2552000  3
   3076   3079   3085   6679     1  0.0000000  0.2928800  2
   3076   3079   3085   6679     1  0.0000000  0.4184000  4
   3076   3079   3085   3087     1  180.0000771  0.0000000  2
   3079   3085   6679   6681     1  180.0000771  6.2760000  1
   3079   3085   6679   6681     1  0.0000000  0.0000000  2
   3082   3086   6708   6710     1  180.0000771  6.2760000  1
   3082   3086   6708   6710     1  0.0000000  0.0000000  2
   3085   6679   6681   6683     1  0.0000000  2.2175200  1
   3085   6679   6681   6683     1  0.0000000  0.0000000  2
   3085   6679   6681   6683     1  180.0000771  0.6276000  3
   3085   6679   6681   6683     1  180.0000771  2.0920000  4
   3086   6708   6710   6712     1  0.0000000  2.2175200  1
   3086   6708   6710   6712     1  0.0000000  0.0000000  2
   3086   6708   6710   6712     1  180.0000771  0.6276000  3
   3086   6708   6710   6712     1  180.0000771  2.0920000  4
   3087   3085   6679   6681     1  180.0000771  10.4600000  2
   3088   3086   6708   6710     1  180.0000771  10.4600000  2
   3091   3097   3098   3107     1  180.0000771  2.0083200  2
   3091   3097   3098   3107     1  0.0000000  1.2552000  3
   3091   3097   3101   3104     1  180.0000771  2.0083200  2
   3091   3097   3101   3104     1  0.0000000  1.2552000  3
   3094   3091   3097   3098     1  180.0000771  2.0083200  2
   3094   3091   3097   3098     1  0.0000000  1.2552000  3
   3094   3091   3097   3101     1  180.0000771  2.0083200  2
   3094   3091   3097   3101     1  0.0000000  1.2552000  3
   3097   3091   3094   3114     1  0.0000000  0.6508444  3
   3097   3098   3107   3111     1  0.0000000  0.6508444  3
   3097   3101   3104   3110     1  0.0000000  0.6508444  3
   3098   3097   3101   3104     1  180.0000771  2.0083200  2
   3098   3097   3101   3104     1  0.0000000  1.2552000  3
   3098   3107   3111   3113     1  180.0000771  0.0000000  2
   3098   3107   3111   6766     1  0.0000000  0.2928800  2
   3098   3107   3111   6766     1  0.0000000  0.4184000  4
   3101   3097   3098   3107     1  180.0000771  2.0083200  2
   3101   3097   3098   3107     1  0.0000000  1.2552000  3
   3101   3104   3110   6737     1  0.0000000  0.2928800  2
   3101   3104   3110   6737     1  0.0000000  0.4184000  4
   3101   3104   3110   3112     1  180.0000771  0.0000000  2
   3104   3110   6737   6739     1  180.0000771  6.2760000  1
   3104   3110   6737   6739     1  0.0000000  0.0000000  2
   3107   3111   6766   6768     1  180.0000771  6.2760000  1
   3107   3111   6766   6768     1  0.0000000  0.0000000  2
   3110   6737   6739   6741     1  0.0000000  2.2175200  1
   3110   6737   6739   6741     1  0.0000000  0.0000000  2
   3110   6737   6739   6741     1  180.0000771  0.6276000  3
   3110   6737   6739   6741     1  180.0000771  2.0920000  4
   3111   6766   6768   6770     1  0.0000000  2.2175200  1
   3111   6766   6768   6770     1  0.0000000  0.0000000  2
   3111   6766   6768   6770     1  180.0000771  0.6276000  3
   3111   6766   6768   6770     1  180.0000771  2.0920000  4
   3112   3110   6737   6739     1  180.0000771  10.4600000  2
   3113   3111   6766   6768     1  180.0000771  10.4600000  2
   3116   3122   3123   3132     1  180.0000771  2.0083200  2
   3116   3122   3123   3132     1  0.0000000  1.2552000  3
   3116   3122   3126   3129     1  180.0000771  2.0083200  2
   3116   3122   3126   3129     1  0.0000000  1.2552000  3
   3119   3116   3122   3123     1  180.0000771  2.0083200  2
   3119   3116   3122   3123     1  0.0000000  1.2552000  3
   3119   3116   3122   3126     1  180.0000771  2.0083200  2
   3119   3116   3122   3126     1  0.0000000  1.2552000  3
   3122   3116   3119   3139     1  0.0000000  0.6508444  3
   3122   3123   3132   3136     1  0.0000000  0.6508444  3
   3122   3126   3129   3135     1  0.0000000  0.6508444  3
   3123   3122   3126   3129     1  180.0000771  2.0083200  2
   3123   3122   3126   3129     1  0.0000000  1.2552000  3
   3123   3132   3136   6824     1  0.0000000  0.2928800  2
   3123   3132   3136   6824     1  0.0000000  0.4184000  4
   3123   3132   3136   3138     1  180.0000771  0.0000000  2
   3126   3122   3123   3132     1  180.0000771  2.0083200  2
   3126   3122   3123   3132     1  0.0000000  1.2552000  3
   3126   3129   3135   6795     1  0.0000000  0.2928800  2
   3126   3129   3135   6795     1  0.0000000  0.4184000  4
   3126   3129   3135   3137     1  180.0000771  0.0000000  2
   3129   3135   6795   6797     1  180.0000771  6.2760000  1
   3129   3135   6795   6797     1  0.0000000  0.0000000  2
   3132   3136   6824   6826     1  180.0000771  6.2760000  1
   3132   3136   6824   6826     1  0.0000000  0.0000000  2
   3135   6795   6797   6799     1  0.0000000  2.2175200  1
   3135   6795   6797   6799     1  0.0000000  0.0000000  2
   3135   6795   6797   6799     1  180.0000771  0.6276000  3
   3135   6795   6797   6799     1  180.0000771  2.0920000  4
   3136   6824   6826   6828     1  0.0000000  2.2175200  1
   3136   6824   6826   6828     1  0.0000000  0.0000000  2
   3136   6824   6826   6828     1  180.0000771  0.6276000  3
   3136   6824   6826   6828     1  180.0000771  2.0920000  4
   3137   3135   6795   6797     1  180.0000771  10.4600000  2
   3138   3136   6824   6826     1  180.0000771  10.4600000  2
   3141   3143   3145   3149     1  0.0000000  0.6508444  3
   3143   3145   3149   3150     1  180.0000771  2.0083200  2
   3143   3145   3149   3150     1  0.0000000  1.2552000  3
   3143   3145   3149   3151     1  180.0000771  2.0083200  2
   3143   3145   3149   3151     1  0.0000000  1.2552000  3
   3145   3149   3150   3162     1  180.0000771  2.0083200  2
   3145   3149   3150   3162     1  0.0000000  1.2552000  3
   3145   3149   3151   3153     1  180.0000771  2.0083200  2
   3145   3149   3151   3153     1  0.0000000  1.2552000  3
   3149   3150   3162   3165     1  0.0000000  0.6508444  3
   3149   3151   3153   3157     1  0.0000000  0.6508444  3
   3150   3149   3151   3153     1  180.0000771  2.0083200  2
   3150   3149   3151   3153     1  0.0000000  1.2552000  3
   3150   3162   3165   3166     1  180.0000771  0.0000000  2
   3150   3162   3165   3167     1  180.0000771  0.0000000  2
   3151   3149   3150   3162     1  180.0000771  2.0083200  2
   3151   3149   3150   3162     1  0.0000000  1.2552000  3
   3151   3153   3157   3158     1  180.0000771  0.0000000  2
   3151   3153   3157   3159     1  180.0000771  0.0000000  2
   3170   3172   3174   3178     1  0.0000000  0.6508444  3
   3172   3174   3178   3179     1  180.0000771  2.0083200  2
   3172   3174   3178   3179     1  0.0000000  1.2552000  3
   3172   3174   3178   3180     1  180.0000771  2.0083200  2
   3172   3174   3178   3180     1  0.0000000  1.2552000  3
   3174   3178   3179   3191     1  180.0000771  2.0083200  2
   3174   3178   3179   3191     1  0.0000000  1.2552000  3
   3174   3178   3180   3182     1  180.0000771  2.0083200  2
   3174   3178   3180   3182     1  0.0000000  1.2552000  3
   3178   3179   3191   3194     1  0.0000000  0.6508444  3
   3178   3180   3182   3186     1  0.0000000  0.6508444  3
   3179   3191   3194   3195     1  180.0000771  0.0000000  2
   3179   3191   3194   3196     1  180.0000771  0.0000000  2
   3179   3178   3180   3182     1  180.0000771  2.0083200  2
   3179   3178   3180   3182     1  0.0000000  1.2552000  3
   3180   3182   3186   3187     1  180.0000771  0.0000000  2
   3180   3182   3186   3188     1  180.0000771  0.0000000  2
   3180   3178   3179   3191     1  180.0000771  2.0083200  2
   3180   3178   3179   3191     1  0.0000000  1.2552000  3
   3199   3201   3203   3207     1  0.0000000  0.6508444  3
   3201   3203   3207   3208     1  180.0000771  2.0083200  2
   3201   3203   3207   3208     1  0.0000000  1.2552000  3
   3201   3203   3207   3209     1  180.0000771  2.0083200  2
   3201   3203   3207   3209     1  0.0000000  1.2552000  3
   3203   3207   3208   3220     1  180.0000771  2.0083200  2
   3203   3207   3208   3220     1  0.0000000  1.2552000  3
   3203   3207   3209   3211     1  180.0000771  2.0083200  2
   3203   3207   3209   3211     1  0.0000000  1.2552000  3
   3207   3208   3220   3223     1  0.0000000  0.6508444  3
   3207   3209   3211   3215     1  0.0000000  0.6508444  3
   3208   3207   3209   3211     1  180.0000771  2.0083200  2
   3208   3207   3209   3211     1  0.0000000  1.2552000  3
   3208   3220   3223   3224     1  180.0000771  0.0000000  2
   3208   3220   3223   3225     1  180.0000771  0.0000000  2
   3209   3207   3208   3220     1  180.0000771  2.0083200  2
   3209   3207   3208   3220     1  0.0000000  1.2552000  3
   3209   3211   3215   3216     1  180.0000771  0.0000000  2
   3209   3211   3215   3217     1  180.0000771  0.0000000  2
   3228   3230   3232   3236     1  0.0000000  0.6508444  3
   3230   3232   3236   3237     1  180.0000771  2.0083200  2
   3230   3232   3236   3237     1  0.0000000  1.2552000  3
   3230   3232   3236   3238     1  180.0000771  2.0083200  2
   3230   3232   3236   3238     1  0.0000000  1.2552000  3
   3232   3236   3237   3249     1  180.0000771  2.0083200  2
   3232   3236   3237   3249     1  0.0000000  1.2552000  3
   3232   3236   3238   3240     1  180.0000771  2.0083200  2
   3232   3236   3238   3240     1  0.0000000  1.2552000  3
   3236   3237   3249   3252     1  0.0000000  0.6508444  3
   3236   3238   3240   3244     1  0.0000000  0.6508444  3
   3237   3249   3252   3253     1  180.0000771  0.0000000  2
   3237   3249   3252   3254     1  180.0000771  0.0000000  2
   3237   3236   3238   3240     1  180.0000771  2.0083200  2
   3237   3236   3238   3240     1  0.0000000  1.2552000  3
   3238   3240   3244   3245     1  180.0000771  0.0000000  2
   3238   3240   3244   3246     1  180.0000771  0.0000000  2
   3238   3236   3237   3249     1  180.0000771  2.0083200  2
   3238   3236   3237   3249     1  0.0000000  1.2552000  3
   3257   3259   3261   3265     1  0.0000000  0.6508444  3
   3259   3261   3265   3266     1  180.0000771  2.0083200  2
   3259   3261   3265   3266     1  0.0000000  1.2552000  3
   3259   3261   3265   3267     1  180.0000771  2.0083200  2
   3259   3261   3265   3267     1  0.0000000  1.2552000  3
   3261   3265   3266   3278     1  180.0000771  2.0083200  2
   3261   3265   3266   3278     1  0.0000000  1.2552000  3
   3261   3265   3267   3269     1  180.0000771  2.0083200  2
   3261   3265   3267   3269     1  0.0000000  1.2552000  3
   3265   3266   3278   3281     1  0.0000000  0.6508444  3
   3265   3267   3269   3273     1  0.0000000  0.6508444  3
   3266   3265   3267   3269     1  180.0000771  2.0083200  2
   3266   3265   3267   3269     1  0.0000000  1.2552000  3
   3266   3278   3281   3282     1  180.0000771  0.0000000  2
   3266   3278   3281   3283     1  180.0000771  0.0000000  2
   3267   3265   3266   3278     1  180.0000771  2.0083200  2
   3267   3265   3266   3278     1  0.0000000  1.2552000  3
   3267   3269   3273   3274     1  180.0000771  0.0000000  2
   3267   3269   3273   3275     1  180.0000771  0.0000000  2
   3286   3288   3290   3294     1  0.0000000  0.6508444  3
   3288   3290   3294   3295     1  180.0000771  2.0083200  2
   3288   3290   3294   3295     1  0.0000000  1.2552000  3
   3288   3290   3294   3296     1  180.0000771  2.0083200  2
   3288   3290   3294   3296     1  0.0000000  1.2552000  3
   3290   3294   3295   3307     1  180.0000771  2.0083200  2
   3290   3294   3295   3307     1  0.0000000  1.2552000  3
   3290   3294   3296   3298     1  180.0000771  2.0083200  2
   3290   3294   3296   3298     1  0.0000000  1.2552000  3
   3294   3295   3307   3310     1  0.0000000  0.6508444  3
   3294   3296   3298   3302     1  0.0000000  0.6508444  3
   3295   3307   3310   3311     1  180.0000771  0.0000000  2
   3295   3307   3310   3312     1  180.0000771  0.0000000  2
   3295   3294   3296   3298     1  180.0000771  2.0083200  2
   3295   3294   3296   3298     1  0.0000000  1.2552000  3
   3296   3298   3302   3303     1  180.0000771  0.0000000  2
   3296   3298   3302   3304     1  180.0000771  0.0000000  2
   3296   3294   3295   3307     1  180.0000771  2.0083200  2
   3296   3294   3295   3307     1  0.0000000  1.2552000  3
   3315   3317   3319   3323     1  0.0000000  0.6508444  3
   3317   3319   3323   3324     1  180.0000771  2.0083200  2
   3317   3319   3323   3324     1  0.0000000  1.2552000  3
   3317   3319   3323   3325     1  180.0000771  2.0083200  2
   3317   3319   3323   3325     1  0.0000000  1.2552000  3
   3319   3323   3324   3336     1  180.0000771  2.0083200  2
   3319   3323   3324   3336     1  0.0000000  1.2552000  3
   3319   3323   3325   3327     1  180.0000771  2.0083200  2
   3319   3323   3325   3327     1  0.0000000  1.2552000  3
   3323   3324   3336   3339     1  0.0000000  0.6508444  3
   3323   3325   3327   3331     1  0.0000000  0.6508444  3
   3324   3323   3325   3327     1  180.0000771  2.0083200  2
   3324   3323   3325   3327     1  0.0000000  1.2552000  3
   3324   3336   3339   3340     1  180.0000771  0.0000000  2
   3324   3336   3339   3341     1  180.0000771  0.0000000  2
   3325   3323   3324   3336     1  180.0000771  2.0083200  2
   3325   3323   3324   3336     1  0.0000000  1.2552000  3
   3325   3327   3331   3332     1  180.0000771  0.0000000  2
   3325   3327   3331   3333     1  180.0000771  0.0000000  2
   3344   3346   3348   3352     1  0.0000000  0.6508444  3
   3346   3348   3352   3353     1  180.0000771  2.0083200  2
   3346   3348   3352   3353     1  0.0000000  1.2552000  3
   3346   3348   3352   3354     1  180.0000771  2.0083200  2
   3346   3348   3352   3354     1  0.0000000  1.2552000  3
   3348   3352   3353   3365     1  180.0000771  2.0083200  2
   3348   3352   3353   3365     1  0.0000000  1.2552000  3
   3348   3352   3354   3356     1  180.0000771  2.0083200  2
   3348   3352   3354   3356     1  0.0000000  1.2552000  3
   3352   3353   3365   3368     1  0.0000000  0.6508444  3
   3352   3354   3356   3360     1  0.0000000  0.6508444  3
   3353   3365   3368   3369     1  180.0000771  0.0000000  2
   3353   3365   3368   3370     1  180.0000771  0.0000000  2
   3353   3352   3354   3356     1  180.0000771  2.0083200  2
   3353   3352   3354   3356     1  0.0000000  1.2552000  3
   3354   3356   3360   3361     1  180.0000771  0.0000000  2
   3354   3356   3360   3362     1  180.0000771  0.0000000  2
   3354   3352   3353   3365     1  180.0000771  2.0083200  2
   3354   3352   3353   3365     1  0.0000000  1.2552000  3
   3373   3375   3377   3381     1  0.0000000  0.6508444  3
   3375   3377   3381   3382     1  180.0000771  2.0083200  2
   3375   3377   3381   3382     1  0.0000000  1.2552000  3
   3375   3377   3381   3383     1  180.0000771  2.0083200  2
   3375   3377   3381   3383     1  0.0000000  1.2552000  3
   3377   3381   3382   3394     1  180.0000771  2.0083200  2
   3377   3381   3382   3394     1  0.0000000  1.2552000  3
   3377   3381   3383   3385     1  180.0000771  2.0083200  2
   3377   3381   3383   3385     1  0.0000000  1.2552000  3
   3381   3382   3394   3397     1  0.0000000  0.6508444  3
   3381   3383   3385   3389     1  0.0000000  0.6508444  3
   3382   3381   3383   3385     1  180.0000771  2.0083200  2
   3382   3381   3383   3385     1  0.0000000  1.2552000  3
   3382   3394   3397   3398     1  180.0000771  0.0000000  2
   3382   3394   3397   3399     1  180.0000771  0.0000000  2
   3383   3381   3382   3394     1  180.0000771  2.0083200  2
   3383   3381   3382   3394     1  0.0000000  1.2552000  3
   3383   3385   3389   3390     1  180.0000771  0.0000000  2
   3383   3385   3389   3391     1  180.0000771  0.0000000  2
   3402   3404   3406   3410     1  0.0000000  0.6508444  3
   3404   3406   3410   3411     1  180.0000771  2.0083200  2
   3404   3406   3410   3411     1  0.0000000  1.2552000  3
   3404   3406   3410   3412     1  180.0000771  2.0083200  2
   3404   3406   3410   3412     1  0.0000000  1.2552000  3
   3406   3410   3411   3423     1  180.0000771  2.0083200  2
   3406   3410   3411   3423     1  0.0000000  1.2552000  3
   3406   3410   3412   3414     1  180.0000771  2.0083200  2
   3406   3410   3412   3414     1  0.0000000  1.2552000  3
   3410   3411   3423   3426     1  0.0000000  0.6508444  3
   3410   3412   3414   3418     1  0.0000000  0.6508444  3
   3411   3423   3426   3427     1  180.0000771  0.0000000  2
   3411   3423   3426   3428     1  180.0000771  0.0000000  2
   3411   3410   3412   3414     1  180.0000771  2.0083200  2
   3411   3410   3412   3414     1  0.0000000  1.2552000  3
   3412   3414   3418   3419     1  180.0000771  0.0000000  2
   3412   3414   3418   3420     1  180.0000771  0.0000000  2
   3412   3410   3411   3423     1  180.0000771  2.0083200  2
   3412   3410   3411   3423     1  0.0000000  1.2552000  3
   3431   3433   3435   3439     1  0.0000000  0.6508444  3
   3433   3435   3439   3440     1  180.0000771  2.0083200  2
   3433   3435   3439   3440     1  0.0000000  1.2552000  3
   3433   3435   3439   3441     1  180.0000771  2.0083200  2
   3433   3435   3439   3441     1  0.0000000  1.2552000  3
   3435   3439   3440   3452     1  180.0000771  2.0083200  2
   3435   3439   3440   3452     1  0.0000000  1.2552000  3
   3435   3439   3441   3443     1  180.0000771  2.0083200  2
   3435   3439   3441   3443     1  0.0000000  1.2552000  3
   3439   3440   3452   3455     1  0.0000000  0.6508444  3
   3439   3441   3443   3447     1  0.0000000  0.6508444  3
   3440   3439   3441   3443     1  180.0000771  2.0083200  2
   3440   3439   3441   3443     1  0.0000000  1.2552000  3
   3440   3452   3455   3456     1  180.0000771  0.0000000  2
   3440   3452   3455   3457     1  180.0000771  0.0000000  2
   3441   3439   3440   3452     1  180.0000771  2.0083200  2
   3441   3439   3440   3452     1  0.0000000  1.2552000  3
   3441   3443   3447   3448     1  180.0000771  0.0000000  2
   3441   3443   3447   3449     1  180.0000771  0.0000000  2
   3460   3462   3464   3468     1  0.0000000  0.6508444  3
   3462   3464   3468   3469     1  180.0000771  2.0083200  2
   3462   3464   3468   3469     1  0.0000000  1.2552000  3
   3462   3464   3468   3470     1  180.0000771  2.0083200  2
   3462   3464   3468   3470     1  0.0000000  1.2552000  3
   3464   3468   3469   3481     1  180.0000771  2.0083200  2
   3464   3468   3469   3481     1  0.0000000  1.2552000  3
   3464   3468   3470   3472     1  180.0000771  2.0083200  2
   3464   3468   3470   3472     1  0.0000000  1.2552000  3
   3468   3469   3481   3484     1  0.0000000  0.6508444  3
   3468   3470   3472   3476     1  0.0000000  0.6508444  3
   3469   3481   3484   3485     1  180.0000771  0.0000000  2
   3469   3481   3484   3486     1  180.0000771  0.0000000  2
   3469   3468   3470   3472     1  180.0000771  2.0083200  2
   3469   3468   3470   3472     1  0.0000000  1.2552000  3
   3470   3472   3476   3477     1  180.0000771  0.0000000  2
   3470   3472   3476   3478     1  180.0000771  0.0000000  2
   3470   3468   3469   3481     1  180.0000771  2.0083200  2
   3470   3468   3469   3481     1  0.0000000  1.2552000  3
   3489   3491   3493   3497     1  0.0000000  0.6508444  3
   3491   3493   3497   3498     1  180.0000771  2.0083200  2
   3491   3493   3497   3498     1  0.0000000  1.2552000  3
   3491   3493   3497   3499     1  180.0000771  2.0083200  2
   3491   3493   3497   3499     1  0.0000000  1.2552000  3
   3493   3497   3498   3510     1  180.0000771  2.0083200  2
   3493   3497   3498   3510     1  0.0000000  1.2552000  3
   3493   3497   3499   3501     1  180.0000771  2.0083200  2
   3493   3497   3499   3501     1  0.0000000  1.2552000  3
   3497   3498   3510   3513     1  0.0000000  0.6508444  3
   3497   3499   3501   3505     1  0.0000000  0.6508444  3
   3498   3497   3499   3501     1  180.0000771  2.0083200  2
   3498   3497   3499   3501     1  0.0000000  1.2552000  3
   3498   3510   3513   3514     1  180.0000771  0.0000000  2
   3498   3510   3513   3515     1  180.0000771  0.0000000  2
   3499   3497   3498   3510     1  180.0000771  2.0083200  2
   3499   3497   3498   3510     1  0.0000000  1.2552000  3
   3499   3501   3505   3506     1  180.0000771  0.0000000  2
   3499   3501   3505   3507     1  180.0000771  0.0000000  2
   3518   3520   3522   3526     1  0.0000000  0.6508444  3
   3520   3522   3526   3527     1  180.0000771  2.0083200  2
   3520   3522   3526   3527     1  0.0000000  1.2552000  3
   3520   3522   3526   3528     1  180.0000771  2.0083200  2
   3520   3522   3526   3528     1  0.0000000  1.2552000  3
   3522   3526   3527   3539     1  180.0000771  2.0083200  2
   3522   3526   3527   3539     1  0.0000000  1.2552000  3
   3522   3526   3528   3530     1  180.0000771  2.0083200  2
   3522   3526   3528   3530     1  0.0000000  1.2552000  3
   3526   3527   3539   3542     1  0.0000000  0.6508444  3
   3526   3528   3530   3534     1  0.0000000  0.6508444  3
   3527   3539   3542   3543     1  180.0000771  0.0000000  2
   3527   3539   3542   3544     1  180.0000771  0.0000000  2
   3527   3526   3528   3530     1  180.0000771  2.0083200  2
   3527   3526   3528   3530     1  0.0000000  1.2552000  3
   3528   3530   3534   3535     1  180.0000771  0.0000000  2
   3528   3530   3534   3536     1  180.0000771  0.0000000  2
   3528   3526   3527   3539     1  180.0000771  2.0083200  2
   3528   3526   3527   3539     1  0.0000000  1.2552000  3
   3547   3549   3551   3555     1  0.0000000  0.6508444  3
   3549   3551   3555   3556     1  180.0000771  2.0083200  2
   3549   3551   3555   3556     1  0.0000000  1.2552000  3
   3549   3551   3555   3557     1  180.0000771  2.0083200  2
   3549   3551   3555   3557     1  0.0000000  1.2552000  3
   3551   3555   3556   3568     1  180.0000771  2.0083200  2
   3551   3555   3556   3568     1  0.0000000  1.2552000  3
   3551   3555   3557   3559     1  180.0000771  2.0083200  2
   3551   3555   3557   3559     1  0.0000000  1.2552000  3
   3555   3556   3568   3571     1  0.0000000  0.6508444  3
   3555   3557   3559   3563     1  0.0000000  0.6508444  3
   3556   3555   3557   3559     1  180.0000771  2.0083200  2
   3556   3555   3557   3559     1  0.0000000  1.2552000  3
   3556   3568   3571   3572     1  180.0000771  0.0000000  2
   3556   3568   3571   3573     1  180.0000771  0.0000000  2
   3557   3555   3556   3568     1  180.0000771  2.0083200  2
   3557   3555   3556   3568     1  0.0000000  1.2552000  3
   3557   3559   3563   3564     1  180.0000771  0.0000000  2
   3557   3559   3563   3565     1  180.0000771  0.0000000  2
   3576   3578   3580   3584     1  0.0000000  0.6508444  3
   3578   3580   3584   3585     1  180.0000771  2.0083200  2
   3578   3580   3584   3585     1  0.0000000  1.2552000  3
   3578   3580   3584   3586     1  180.0000771  2.0083200  2
   3578   3580   3584   3586     1  0.0000000  1.2552000  3
   3580   3584   3585   3597     1  180.0000771  2.0083200  2
   3580   3584   3585   3597     1  0.0000000  1.2552000  3
   3580   3584   3586   3588     1  180.0000771  2.0083200  2
   3580   3584   3586   3588     1  0.0000000  1.2552000  3
   3584   3585   3597   3600     1  0.0000000  0.6508444  3
   3584   3586   3588   3592     1  0.0000000  0.6508444  3
   3585   3597   3600   3601     1  180.0000771  0.0000000  2
   3585   3597   3600   3602     1  180.0000771  0.0000000  2
   3585   3584   3586   3588     1  180.0000771  2.0083200  2
   3585   3584   3586   3588     1  0.0000000  1.2552000  3
   3586   3588   3592   3593     1  180.0000771  0.0000000  2
   3586   3588   3592   3594     1  180.0000771  0.0000000  2
   3586   3584   3585   3597     1  180.0000771  2.0083200  2
   3586   3584   3585   3597     1  0.0000000  1.2552000  3
   3605   3607   3609   3613     1  0.0000000  0.6508444  3
   3607   3609   3613   3614     1  180.0000771  2.0083200  2
   3607   3609   3613   3614     1  0.0000000  1.2552000  3
   3607   3609   3613   3615     1  180.0000771  2.0083200  2
   3607   3609   3613   3615     1  0.0000000  1.2552000  3
   3609   3613   3614   3626     1  180.0000771  2.0083200  2
   3609   3613   3614   3626     1  0.0000000  1.2552000  3
   3609   3613   3615   3617     1  180.0000771  2.0083200  2
   3609   3613   3615   3617     1  0.0000000  1.2552000  3
   3613   3614   3626   3629     1  0.0000000  0.6508444  3
   3613   3615   3617   3621     1  0.0000000  0.6508444  3
   3614   3613   3615   3617     1  180.0000771  2.0083200  2
   3614   3613   3615   3617     1  0.0000000  1.2552000  3
   3614   3626   3629   3630     1  180.0000771  0.0000000  2
   3614   3626   3629   3631     1  180.0000771  0.0000000  2
   3615   3613   3614   3626     1  180.0000771  2.0083200  2
   3615   3613   3614   3626     1  0.0000000  1.2552000  3
   3615   3617   3621   3622     1  180.0000771  0.0000000  2
   3615   3617   3621   3623     1  180.0000771  0.0000000  2
   3634   3636   3638   3642     1  0.0000000  0.6508444  3
   3636   3638   3642   3643     1  180.0000771  2.0083200  2
   3636   3638   3642   3643     1  0.0000000  1.2552000  3
   3636   3638   3642   3644     1  180.0000771  2.0083200  2
   3636   3638   3642   3644     1  0.0000000  1.2552000  3
   3638   3642   3643   3655     1  180.0000771  2.0083200  2
   3638   3642   3643   3655     1  0.0000000  1.2552000  3
   3638   3642   3644   3646     1  180.0000771  2.0083200  2
   3638   3642   3644   3646     1  0.0000000  1.2552000  3
   3642   3643   3655   3658     1  0.0000000  0.6508444  3
   3642   3644   3646   3650     1  0.0000000  0.6508444  3
   3643   3655   3658   3659     1  180.0000771  0.0000000  2
   3643   3655   3658   3660     1  180.0000771  0.0000000  2
   3643   3642   3644   3646     1  180.0000771  2.0083200  2
   3643   3642   3644   3646     1  0.0000000  1.2552000  3
   3644   3646   3650   3651     1  180.0000771  0.0000000  2
   3644   3646   3650   3652     1  180.0000771  0.0000000  2
   3644   3642   3643   3655     1  180.0000771  2.0083200  2
   3644   3642   3643   3655     1  0.0000000  1.2552000  3
   3663   3665   3667   3671     1  0.0000000  0.6508444  3
   3665   3667   3671   3672     1  180.0000771  2.0083200  2
   3665   3667   3671   3672     1  0.0000000  1.2552000  3
   3665   3667   3671   3673     1  180.0000771  2.0083200  2
   3665   3667   3671   3673     1  0.0000000  1.2552000  3
   3667   3671   3672   3684     1  180.0000771  2.0083200  2
   3667   3671   3672   3684     1  0.0000000  1.2552000  3
   3667   3671   3673   3675     1  180.0000771  2.0083200  2
   3667   3671   3673   3675     1  0.0000000  1.2552000  3
   3671   3672   3684   3687     1  0.0000000  0.6508444  3
   3671   3673   3675   3679     1  0.0000000  0.6508444  3
   3672   3671   3673   3675     1  180.0000771  2.0083200  2
   3672   3671   3673   3675     1  0.0000000  1.2552000  3
   3672   3684   3687   3688     1  180.0000771  0.0000000  2
   3672   3684   3687   3689     1  180.0000771  0.0000000  2
   3673   3671   3672   3684     1  180.0000771  2.0083200  2
   3673   3671   3672   3684     1  0.0000000  1.2552000  3
   3673   3675   3679   3680     1  180.0000771  0.0000000  2
   3673   3675   3679   3681     1  180.0000771  0.0000000  2
   3692   3694   3696   3700     1  0.0000000  0.6508444  3
   3694   3696   3700   3701     1  180.0000771  2.0083200  2
   3694   3696   3700   3701     1  0.0000000  1.2552000  3
   3694   3696   3700   3702     1  180.0000771  2.0083200  2
   3694   3696   3700   3702     1  0.0000000  1.2552000  3
   3696   3700   3701   3713     1  180.0000771  2.0083200  2
   3696   3700   3701   3713     1  0.0000000  1.2552000  3
   3696   3700   3702   3704     1  180.0000771  2.0083200  2
   3696   3700   3702   3704     1  0.0000000  1.2552000  3
   3700   3701   3713   3716     1  0.0000000  0.6508444  3
   3700   3702   3704   3708     1  0.0000000  0.6508444  3
   3701   3713   3716   3717     1  180.0000771  0.0000000  2
   3701   3713   3716   3718     1  180.0000771  0.0000000  2
   3701   3700   3702   3704     1  180.0000771  2.0083200  2
   3701   3700   3702   3704     1  0.0000000  1.2552000  3
   3702   3704   3708   3709     1  180.0000771  0.0000000  2
   3702   3704   3708   3710     1  180.0000771  0.0000000  2
   3702   3700   3701   3713     1  180.0000771  2.0083200  2
   3702   3700   3701   3713     1  0.0000000  1.2552000  3
   3721   3723   3725   3729     1  0.0000000  0.6508444  3
   3723   3725   3729   3730     1  180.0000771  2.0083200  2
   3723   3725   3729   3730     1  0.0000000  1.2552000  3
   3723   3725   3729   3731     1  180.0000771  2.0083200  2
   3723   3725   3729   3731     1  0.0000000  1.2552000  3
   3725   3729   3730   3742     1  180.0000771  2.0083200  2
   3725   3729   3730   3742     1  0.0000000  1.2552000  3
   3725   3729   3731   3733     1  180.0000771  2.0083200  2
   3725   3729   3731   3733     1  0.0000000  1.2552000  3
   3729   3730   3742   3745     1  0.0000000  0.6508444  3
   3729   3731   3733   3737     1  0.0000000  0.6508444  3
   3730   3729   3731   3733     1  180.0000771  2.0083200  2
   3730   3729   3731   3733     1  0.0000000  1.2552000  3
   3730   3742   3745   3746     1  180.0000771  0.0000000  2
   3730   3742   3745   3747     1  180.0000771  0.0000000  2
   3731   3729   3730   3742     1  180.0000771  2.0083200  2
   3731   3729   3730   3742     1  0.0000000  1.2552000  3
   3731   3733   3737   3738     1  180.0000771  0.0000000  2
   3731   3733   3737   3739     1  180.0000771  0.0000000  2
   3750   3752   3754   3758     1  0.0000000  0.6508444  3
   3752   3754   3758   3759     1  180.0000771  2.0083200  2
   3752   3754   3758   3759     1  0.0000000  1.2552000  3
   3752   3754   3758   3760     1  180.0000771  2.0083200  2
   3752   3754   3758   3760     1  0.0000000  1.2552000  3
   3754   3758   3759   3771     1  180.0000771  2.0083200  2
   3754   3758   3759   3771     1  0.0000000  1.2552000  3
   3754   3758   3760   3762     1  180.0000771  2.0083200  2
   3754   3758   3760   3762     1  0.0000000  1.2552000  3
   3758   3759   3771   3774     1  0.0000000  0.6508444  3
   3758   3760   3762   3766     1  0.0000000  0.6508444  3
   3759   3771   3774   3775     1  180.0000771  0.0000000  2
   3759   3771   3774   3776     1  180.0000771  0.0000000  2
   3759   3758   3760   3762     1  180.0000771  2.0083200  2
   3759   3758   3760   3762     1  0.0000000  1.2552000  3
   3760   3762   3766   3767     1  180.0000771  0.0000000  2
   3760   3762   3766   3768     1  180.0000771  0.0000000  2
   3760   3758   3759   3771     1  180.0000771  2.0083200  2
   3760   3758   3759   3771     1  0.0000000  1.2552000  3
   3779   3781   3783   3787     1  0.0000000  0.6508444  3
   3781   3783   3787   3788     1  180.0000771  2.0083200  2
   3781   3783   3787   3788     1  0.0000000  1.2552000  3
   3781   3783   3787   3789     1  180.0000771  2.0083200  2
   3781   3783   3787   3789     1  0.0000000  1.2552000  3
   3783   3787   3788   3800     1  180.0000771  2.0083200  2
   3783   3787   3788   3800     1  0.0000000  1.2552000  3
   3783   3787   3789   3791     1  180.0000771  2.0083200  2
   3783   3787   3789   3791     1  0.0000000  1.2552000  3
   3787   3788   3800   3803     1  0.0000000  0.6508444  3
   3787   3789   3791   3795     1  0.0000000  0.6508444  3
   3788   3787   3789   3791     1  180.0000771  2.0083200  2
   3788   3787   3789   3791     1  0.0000000  1.2552000  3
   3788   3800   3803   3804     1  180.0000771  0.0000000  2
   3788   3800   3803   3805     1  180.0000771  0.0000000  2
   3789   3787   3788   3800     1  180.0000771  2.0083200  2
   3789   3787   3788   3800     1  0.0000000  1.2552000  3
   3789   3791   3795   3796     1  180.0000771  0.0000000  2
   3789   3791   3795   3797     1  180.0000771  0.0000000  2
   3808   3810   3812   3816     1  0.0000000  0.6508444  3
   3810   3812   3816   3817     1  180.0000771  2.0083200  2
   3810   3812   3816   3817     1  0.0000000  1.2552000  3
   3810   3812   3816   3818     1  180.0000771  2.0083200  2
   3810   3812   3816   3818     1  0.0000000  1.2552000  3
   3812   3816   3817   3829     1  180.0000771  2.0083200  2
   3812   3816   3817   3829     1  0.0000000  1.2552000  3
   3812   3816   3818   3820     1  180.0000771  2.0083200  2
   3812   3816   3818   3820     1  0.0000000  1.2552000  3
   3816   3817   3829   3832     1  0.0000000  0.6508444  3
   3816   3818   3820   3824     1  0.0000000  0.6508444  3
   3817   3829   3832   3833     1  180.0000771  0.0000000  2
   3817   3829   3832   3834     1  180.0000771  0.0000000  2
   3817   3816   3818   3820     1  180.0000771  2.0083200  2
   3817   3816   3818   3820     1  0.0000000  1.2552000  3
   3818   3820   3824   3825     1  180.0000771  0.0000000  2
   3818   3820   3824   3826     1  180.0000771  0.0000000  2
   3818   3816   3817   3829     1  180.0000771  2.0083200  2
   3818   3816   3817   3829     1  0.0000000  1.2552000  3
   3837   3839   3841   3845     1  0.0000000  0.6508444  3
   3839   3841   3845   3846     1  180.0000771  2.0083200  2
   3839   3841   3845   3846     1  0.0000000  1.2552000  3
   3839   3841   3845   3847     1  180.0000771  2.0083200  2
   3839   3841   3845   3847     1  0.0000000  1.2552000  3
   3841   3845   3846   3858     1  180.0000771  2.0083200  2
   3841   3845   3846   3858     1  0.0000000  1.2552000  3
   3841   3845   3847   3849     1  180.0000771  2.0083200  2
   3841   3845   3847   3849     1  0.0000000  1.2552000  3
   3845   3846   3858   3861     1  0.0000000  0.6508444  3
   3845   3847   3849   3853     1  0.0000000  0.6508444  3
   3846   3845   3847   3849     1  180.0000771  2.0083200  2
   3846   3845   3847   3849     1  0.0000000  1.2552000  3
   3846   3858   3861   3862     1  180.0000771  0.0000000  2
   3846   3858   3861   3863     1  180.0000771  0.0000000  2
   3847   3845   3846   3858     1  180.0000771  2.0083200  2
   3847   3845   3846   3858     1  0.0000000  1.2552000  3
   3847   3849   3853   3854     1  180.0000771  0.0000000  2
   3847   3849   3853   3855     1  180.0000771  0.0000000  2
   3866   3868   3870   3874     1  0.0000000  0.6508444  3
   3868   3870   3874   3875     1  180.0000771  2.0083200  2
   3868   3870   3874   3875     1  0.0000000  1.2552000  3
   3868   3870   3874   3876     1  180.0000771  2.0083200  2
   3868   3870   3874   3876     1  0.0000000  1.2552000  3
   3870   3874   3875   3887     1  180.0000771  2.0083200  2
   3870   3874   3875   3887     1  0.0000000  1.2552000  3
   3870   3874   3876   3878     1  180.0000771  2.0083200  2
   3870   3874   3876   3878     1  0.0000000  1.2552000  3
   3874   3875   3887   3890     1  0.0000000  0.6508444  3
   3874   3876   3878   3882     1  0.0000000  0.6508444  3
   3875   3887   3890   3891     1  180.0000771  0.0000000  2
   3875   3887   3890   3892     1  180.0000771  0.0000000  2
   3875   3874   3876   3878     1  180.0000771  2.0083200  2
   3875   3874   3876   3878     1  0.0000000  1.2552000  3
   3876   3878   3882   3883     1  180.0000771  0.0000000  2
   3876   3878   3882   3884     1  180.0000771  0.0000000  2
   3876   3874   3875   3887     1  180.0000771  2.0083200  2
   3876   3874   3875   3887     1  0.0000000  1.2552000  3
   3895   3897   3899   3903     1  0.0000000  0.6508444  3
   3897   3899   3903   3904     1  180.0000771  2.0083200  2
   3897   3899   3903   3904     1  0.0000000  1.2552000  3
   3897   3899   3903   3905     1  180.0000771  2.0083200  2
   3897   3899   3903   3905     1  0.0000000  1.2552000  3
   3899   3903   3904   3916     1  180.0000771  2.0083200  2
   3899   3903   3904   3916     1  0.0000000  1.2552000  3
   3899   3903   3905   3907     1  180.0000771  2.0083200  2
   3899   3903   3905   3907     1  0.0000000  1.2552000  3
   3903   3904   3916   3919     1  0.0000000  0.6508444  3
   3903   3905   3907   3911     1  0.0000000  0.6508444  3
   3904   3903   3905   3907     1  180.0000771  2.0083200  2
   3904   3903   3905   3907     1  0.0000000  1.2552000  3
   3904   3916   3919   3920     1  180.0000771  0.0000000  2
   3904   3916   3919   3921     1  180.0000771  0.0000000  2
   3905   3903   3904   3916     1  180.0000771  2.0083200  2
   3905   3903   3904   3916     1  0.0000000  1.2552000  3
   3905   3907   3911   3912     1  180.0000771  0.0000000  2
   3905   3907   3911   3913     1  180.0000771  0.0000000  2
   3924   3926   3928   3932     1  0.0000000  0.6508444  3
   3926   3928   3932   3933     1  180.0000771  2.0083200  2
   3926   3928   3932   3933     1  0.0000000  1.2552000  3
   3926   3928   3932   3934     1  180.0000771  2.0083200  2
   3926   3928   3932   3934     1  0.0000000  1.2552000  3
   3928   3932   3933   3945     1  180.0000771  2.0083200  2
   3928   3932   3933   3945     1  0.0000000  1.2552000  3
   3928   3932   3934   3936     1  180.0000771  2.0083200  2
   3928   3932   3934   3936     1  0.0000000  1.2552000  3
   3932   3933   3945   3948     1  0.0000000  0.6508444  3
   3932   3934   3936   3940     1  0.0000000  0.6508444  3
   3933   3945   3948   3949     1  180.0000771  0.0000000  2
   3933   3945   3948   3950     1  180.0000771  0.0000000  2
   3933   3932   3934   3936     1  180.0000771  2.0083200  2
   3933   3932   3934   3936     1  0.0000000  1.2552000  3
   3934   3936   3940   3941     1  180.0000771  0.0000000  2
   3934   3936   3940   3942     1  180.0000771  0.0000000  2
   3934   3932   3933   3945     1  180.0000771  2.0083200  2
   3934   3932   3933   3945     1  0.0000000  1.2552000  3
   3953   3955   3957   3961     1  0.0000000  0.6508444  3
   3955   3957   3961   3962     1  180.0000771  2.0083200  2
   3955   3957   3961   3962     1  0.0000000  1.2552000  3
   3955   3957   3961   3963     1  180.0000771  2.0083200  2
   3955   3957   3961   3963     1  0.0000000  1.2552000  3
   3957   3961   3962   3974     1  180.0000771  2.0083200  2
   3957   3961   3962   3974     1  0.0000000  1.2552000  3
   3957   3961   3963   3965     1  180.0000771  2.0083200  2
   3957   3961   3963   3965     1  0.0000000  1.2552000  3
   3961   3962   3974   3977     1  0.0000000  0.6508444  3
   3961   3963   3965   3969     1  0.0000000  0.6508444  3
   3962   3961   3963   3965     1  180.0000771  2.0083200  2
   3962   3961   3963   3965     1  0.0000000  1.2552000  3
   3962   3974   3977   3978     1  180.0000771  0.0000000  2
   3962   3974   3977   3979     1  180.0000771  0.0000000  2
   3963   3961   3962   3974     1  180.0000771  2.0083200  2
   3963   3961   3962   3974     1  0.0000000  1.2552000  3
   3963   3965   3969   3970     1  180.0000771  0.0000000  2
   3963   3965   3969   3971     1  180.0000771  0.0000000  2
   3982   3984   3986   3990     1  0.0000000  0.6508444  3
   3984   3986   3990   3991     1  180.0000771  2.0083200  2
   3984   3986   3990   3991     1  0.0000000  1.2552000  3
   3984   3986   3990   3992     1  180.0000771  2.0083200  2
   3984   3986   3990   3992     1  0.0000000  1.2552000  3
   3986   3990   3991   4003     1  180.0000771  2.0083200  2
   3986   3990   3991   4003     1  0.0000000  1.2552000  3
   3986   3990   3992   3994     1  180.0000771  2.0083200  2
   3986   3990   3992   3994     1  0.0000000  1.2552000  3
   3990   3991   4003   4006     1  0.0000000  0.6508444  3
   3990   3992   3994   3998     1  0.0000000  0.6508444  3
   3991   4003   4006   4007     1  180.0000771  0.0000000  2
   3991   4003   4006   4008     1  180.0000771  0.0000000  2
   3991   3990   3992   3994     1  180.0000771  2.0083200  2
   3991   3990   3992   3994     1  0.0000000  1.2552000  3
   3992   3994   3998   3999     1  180.0000771  0.0000000  2
   3992   3994   3998   4000     1  180.0000771  0.0000000  2
   3992   3990   3991   4003     1  180.0000771  2.0083200  2
   3992   3990   3991   4003     1  0.0000000  1.2552000  3
   4011   4013   4015   4019     1  0.0000000  0.6508444  3
   4013   4015   4019   4020     1  180.0000771  2.0083200  2
   4013   4015   4019   4020     1  0.0000000  1.2552000  3
   4013   4015   4019   4021     1  180.0000771  2.0083200  2
   4013   4015   4019   4021     1  0.0000000  1.2552000  3
   4015   4019   4020   4032     1  180.0000771  2.0083200  2
   4015   4019   4020   4032     1  0.0000000  1.2552000  3
   4015   4019   4021   4023     1  180.0000771  2.0083200  2
   4015   4019   4021   4023     1  0.0000000  1.2552000  3
   4019   4020   4032   4035     1  0.0000000  0.6508444  3
   4019   4021   4023   4027     1  0.0000000  0.6508444  3
   4020   4019   4021   4023     1  180.0000771  2.0083200  2
   4020   4019   4021   4023     1  0.0000000  1.2552000  3
   4020   4032   4035   4036     1  180.0000771  0.0000000  2
   4020   4032   4035   4037     1  180.0000771  0.0000000  2
   4021   4019   4020   4032     1  180.0000771  2.0083200  2
   4021   4019   4020   4032     1  0.0000000  1.2552000  3
   4021   4023   4027   4028     1  180.0000771  0.0000000  2
   4021   4023   4027   4029     1  180.0000771  0.0000000  2
   4040   4042   4044   4048     1  0.0000000  0.6508444  3
   4042   4044   4048   4049     1  180.0000771  2.0083200  2
   4042   4044   4048   4049     1  0.0000000  1.2552000  3
   4042   4044   4048   4050     1  180.0000771  2.0083200  2
   4042   4044   4048   4050     1  0.0000000  1.2552000  3
   4044   4048   4049   4061     1  180.0000771  2.0083200  2
   4044   4048   4049   4061     1  0.0000000  1.2552000  3
   4044   4048   4050   4052     1  180.0000771  2.0083200  2
   4044   4048   4050   4052     1  0.0000000  1.2552000  3
   4048   4049   4061   4064     1  0.0000000  0.6508444  3
   4048   4050   4052   4056     1  0.0000000  0.6508444  3
   4049   4061   4064   4065     1  180.0000771  0.0000000  2
   4049   4061   4064   4066     1  180.0000771  0.0000000  2
   4049   4048   4050   4052     1  180.0000771  2.0083200  2
   4049   4048   4050   4052     1  0.0000000  1.2552000  3
   4050   4052   4056   4057     1  180.0000771  0.0000000  2
   4050   4052   4056   4058     1  180.0000771  0.0000000  2
   4050   4048   4049   4061     1  180.0000771  2.0083200  2
   4050   4048   4049   4061     1  0.0000000  1.2552000  3
   4069   4071   4073   4077     1  0.0000000  0.6508444  3
   4071   4073   4077   4078     1  180.0000771  2.0083200  2
   4071   4073   4077   4078     1  0.0000000  1.2552000  3
   4071   4073   4077   4079     1  180.0000771  2.0083200  2
   4071   4073   4077   4079     1  0.0000000  1.2552000  3
   4073   4077   4078   4090     1  180.0000771  2.0083200  2
   4073   4077   4078   4090     1  0.0000000  1.2552000  3
   4073   4077   4079   4081     1  180.0000771  2.0083200  2
   4073   4077   4079   4081     1  0.0000000  1.2552000  3
   4077   4078   4090   4093     1  0.0000000  0.6508444  3
   4077   4079   4081   4085     1  0.0000000  0.6508444  3
   4078   4077   4079   4081     1  180.0000771  2.0083200  2
   4078   4077   4079   4081     1  0.0000000  1.2552000  3
   4078   4090   4093   4094     1  180.0000771  0.0000000  2
   4078   4090   4093   4095     1  180.0000771  0.0000000  2
   4079   4077   4078   4090     1  180.0000771  2.0083200  2
   4079   4077   4078   4090     1  0.0000000  1.2552000  3
   4079   4081   4085   4086     1  180.0000771  0.0000000  2
   4079   4081   4085   4087     1  180.0000771  0.0000000  2
   4098   4100   4102   4106     1  0.0000000  0.6508444  3
   4100   4102   4106   4107     1  180.0000771  2.0083200  2
   4100   4102   4106   4107     1  0.0000000  1.2552000  3
   4100   4102   4106   4108     1  180.0000771  2.0083200  2
   4100   4102   4106   4108     1  0.0000000  1.2552000  3
   4102   4106   4107   4119     1  180.0000771  2.0083200  2
   4102   4106   4107   4119     1  0.0000000  1.2552000  3
   4102   4106   4108   4110     1  180.0000771  2.0083200  2
   4102   4106   4108   4110     1  0.0000000  1.2552000  3
   4106   4107   4119   4122     1  0.0000000  0.6508444  3
   4106   4108   4110   4114     1  0.0000000  0.6508444  3
   4107   4119   4122   4123     1  180.0000771  0.0000000  2
   4107   4119   4122   4124     1  180.0000771  0.0000000  2
   4107   4106   4108   4110     1  180.0000771  2.0083200  2
   4107   4106   4108   4110     1  0.0000000  1.2552000  3
   4108   4110   4114   4115     1  180.0000771  0.0000000  2
   4108   4110   4114   4116     1  180.0000771  0.0000000  2
   4108   4106   4107   4119     1  180.0000771  2.0083200  2
   4108   4106   4107   4119     1  0.0000000  1.2552000  3
   4127   4129   4131   4135     1  0.0000000  0.6508444  3
   4129   4131   4135   4136     1  180.0000771  2.0083200  2
   4129   4131   4135   4136     1  0.0000000  1.2552000  3
   4129   4131   4135   4137     1  180.0000771  2.0083200  2
   4129   4131   4135   4137     1  0.0000000  1.2552000  3
   4131   4135   4136   4148     1  180.0000771  2.0083200  2
   4131   4135   4136   4148     1  0.0000000  1.2552000  3
   4131   4135   4137   4139     1  180.0000771  2.0083200  2
   4131   4135   4137   4139     1  0.0000000  1.2552000  3
   4135   4136   4148   4151     1  0.0000000  0.6508444  3
   4135   4137   4139   4143     1  0.0000000  0.6508444  3
   4136   4135   4137   4139     1  180.0000771  2.0083200  2
   4136   4135   4137   4139     1  0.0000000  1.2552000  3
   4136   4148   4151   4152     1  180.0000771  0.0000000  2
   4136   4148   4151   4153     1  180.0000771  0.0000000  2
   4137   4135   4136   4148     1  180.0000771  2.0083200  2
   4137   4135   4136   4148     1  0.0000000  1.2552000  3
   4137   4139   4143   4144     1  180.0000771  0.0000000  2
   4137   4139   4143   4145     1  180.0000771  0.0000000  2
   4156   4158   4160   4164     1  0.0000000  0.6508444  3
   4158   4160   4164   4165     1  180.0000771  2.0083200  2
   4158   4160   4164   4165     1  0.0000000  1.2552000  3
   4158   4160   4164   4166     1  180.0000771  2.0083200  2
   4158   4160   4164   4166     1  0.0000000  1.2552000  3
   4160   4164   4165   4177     1  180.0000771  2.0083200  2
   4160   4164   4165   4177     1  0.0000000  1.2552000  3
   4160   4164   4166   4168     1  180.0000771  2.0083200  2
   4160   4164   4166   4168     1  0.0000000  1.2552000  3
   4164   4165   4177   4180     1  0.0000000  0.6508444  3
   4164   4166   4168   4172     1  0.0000000  0.6508444  3
   4165   4177   4180   4181     1  180.0000771  0.0000000  2
   4165   4177   4180   4182     1  180.0000771  0.0000000  2
   4165   4164   4166   4168     1  180.0000771  2.0083200  2
   4165   4164   4166   4168     1  0.0000000  1.2552000  3
   4166   4168   4172   4173     1  180.0000771  0.0000000  2
   4166   4168   4172   4174     1  180.0000771  0.0000000  2
   4166   4164   4165   4177     1  180.0000771  2.0083200  2
   4166   4164   4165   4177     1  0.0000000  1.2552000  3
   4185   4187   4189   4193     1  0.0000000  0.6508444  3
   4187   4189   4193   4194     1  180.0000771  2.0083200  2
   4187   4189   4193   4194     1  0.0000000  1.2552000  3
   4187   4189   4193   4195     1  180.0000771  2.0083200  2
   4187   4189   4193   4195     1  0.0000000  1.2552000  3
   4189   4193   4194   4206     1  180.0000771  2.0083200  2
   4189   4193   4194   4206     1  0.0000000  1.2552000  3
   4189   4193   4195   4197     1  180.0000771  2.0083200  2
   4189   4193   4195   4197     1  0.0000000  1.2552000  3
   4193   4194   4206   4209     1  0.0000000  0.6508444  3
   4193   4195   4197   4201     1  0.0000000  0.6508444  3
   4194   4193   4195   4197     1  180.0000771  2.0083200  2
   4194   4193   4195   4197     1  0.0000000  1.2552000  3
   4194   4206   4209   4210     1  180.0000771  0.0000000  2
   4194   4206   4209   4211     1  180.0000771  0.0000000  2
   4195   4193   4194   4206     1  180.0000771  2.0083200  2
   4195   4193   4194   4206     1  0.0000000  1.2552000  3
   4195   4197   4201   4202     1  180.0000771  0.0000000  2
   4195   4197   4201   4203     1  180.0000771  0.0000000  2
   4214   4216   4218   4222     1  0.0000000  0.6508444  3
   4216   4218   4222   4223     1  180.0000771  2.0083200  2
   4216   4218   4222   4223     1  0.0000000  1.2552000  3
   4216   4218   4222   4224     1  180.0000771  2.0083200  2
   4216   4218   4222   4224     1  0.0000000  1.2552000  3
   4218   4222   4223   4235     1  180.0000771  2.0083200  2
   4218   4222   4223   4235     1  0.0000000  1.2552000  3
   4218   4222   4224   4226     1  180.0000771  2.0083200  2
   4218   4222   4224   4226     1  0.0000000  1.2552000  3
   4222   4223   4235   4238     1  0.0000000  0.6508444  3
   4222   4224   4226   4230     1  0.0000000  0.6508444  3
   4223   4235   4238   4239     1  180.0000771  0.0000000  2
   4223   4235   4238   4240     1  180.0000771  0.0000000  2
   4223   4222   4224   4226     1  180.0000771  2.0083200  2
   4223   4222   4224   4226     1  0.0000000  1.2552000  3
   4224   4226   4230   4231     1  180.0000771  0.0000000  2
   4224   4226   4230   4232     1  180.0000771  0.0000000  2
   4224   4222   4223   4235     1  180.0000771  2.0083200  2
   4224   4222   4223   4235     1  0.0000000  1.2552000  3
   4243   4245   4247   4251     1  0.0000000  0.6508444  3
   4245   4247   4251   4252     1  180.0000771  2.0083200  2
   4245   4247   4251   4252     1  0.0000000  1.2552000  3
   4245   4247   4251   4253     1  180.0000771  2.0083200  2
   4245   4247   4251   4253     1  0.0000000  1.2552000  3
   4247   4251   4252   4264     1  180.0000771  2.0083200  2
   4247   4251   4252   4264     1  0.0000000  1.2552000  3
   4247   4251   4253   4255     1  180.0000771  2.0083200  2
   4247   4251   4253   4255     1  0.0000000  1.2552000  3
   4251   4252   4264   4267     1  0.0000000  0.6508444  3
   4251   4253   4255   4259     1  0.0000000  0.6508444  3
   4252   4251   4253   4255     1  180.0000771  2.0083200  2
   4252   4251   4253   4255     1  0.0000000  1.2552000  3
   4252   4264   4267   4268     1  180.0000771  0.0000000  2
   4252   4264   4267   4269     1  180.0000771  0.0000000  2
   4253   4251   4252   4264     1  180.0000771  2.0083200  2
   4253   4251   4252   4264     1  0.0000000  1.2552000  3
   4253   4255   4259   4260     1  180.0000771  0.0000000  2
   4253   4255   4259   4261     1  180.0000771  0.0000000  2
   4272   4274   4276   4280     1  0.0000000  0.6508444  3
   4274   4276   4280   4281     1  180.0000771  2.0083200  2
   4274   4276   4280   4281     1  0.0000000  1.2552000  3
   4274   4276   4280   4282     1  180.0000771  2.0083200  2
   4274   4276   4280   4282     1  0.0000000  1.2552000  3
   4276   4280   4281   4293     1  180.0000771  2.0083200  2
   4276   4280   4281   4293     1  0.0000000  1.2552000  3
   4276   4280   4282   4284     1  180.0000771  2.0083200  2
   4276   4280   4282   4284     1  0.0000000  1.2552000  3
   4280   4281   4293   4296     1  0.0000000  0.6508444  3
   4280   4282   4284   4288     1  0.0000000  0.6508444  3
   4281   4293   4296   4297     1  180.0000771  0.0000000  2
   4281   4293   4296   4298     1  180.0000771  0.0000000  2
   4281   4280   4282   4284     1  180.0000771  2.0083200  2
   4281   4280   4282   4284     1  0.0000000  1.2552000  3
   4282   4284   4288   4289     1  180.0000771  0.0000000  2
   4282   4284   4288   4290     1  180.0000771  0.0000000  2
   4282   4280   4281   4293     1  180.0000771  2.0083200  2
   4282   4280   4281   4293     1  0.0000000  1.2552000  3
   4301   4303   4305   4309     1  0.0000000  0.6508444  3
   4303   4305   4309   4310     1  180.0000771  2.0083200  2
   4303   4305   4309   4310     1  0.0000000  1.2552000  3
   4303   4305   4309   4311     1  180.0000771  2.0083200  2
   4303   4305   4309   4311     1  0.0000000  1.2552000  3
   4305   4309   4310   4322     1  180.0000771  2.0083200  2
   4305   4309   4310   4322     1  0.0000000  1.2552000  3
   4305   4309   4311   4313     1  180.0000771  2.0083200  2
   4305   4309   4311   4313     1  0.0000000  1.2552000  3
   4309   4310   4322   4325     1  0.0000000  0.6508444  3
   4309   4311   4313   4317     1  0.0000000  0.6508444  3
   4310   4309   4311   4313     1  180.0000771  2.0083200  2
   4310   4309   4311   4313     1  0.0000000  1.2552000  3
   4310   4322   4325   4326     1  180.0000771  0.0000000  2
   4310   4322   4325   4327     1  180.0000771  0.0000000  2
   4311   4309   4310   4322     1  180.0000771  2.0083200  2
   4311   4309   4310   4322     1  0.0000000  1.2552000  3
   4311   4313   4317   4318     1  180.0000771  0.0000000  2
   4311   4313   4317   4319     1  180.0000771  0.0000000  2
   4330   4332   4334   4338     1  0.0000000  0.6508444  3
   4332   4334   4338   4339     1  180.0000771  2.0083200  2
   4332   4334   4338   4339     1  0.0000000  1.2552000  3
   4332   4334   4338   4340     1  180.0000771  2.0083200  2
   4332   4334   4338   4340     1  0.0000000  1.2552000  3
   4334   4338   4339   4351     1  180.0000771  2.0083200  2
   4334   4338   4339   4351     1  0.0000000  1.2552000  3
   4334   4338   4340   4342     1  180.0000771  2.0083200  2
   4334   4338   4340   4342     1  0.0000000  1.2552000  3
   4338   4339   4351   4354     1  0.0000000  0.6508444  3
   4338   4340   4342   4346     1  0.0000000  0.6508444  3
   4339   4351   4354   4355     1  180.0000771  0.0000000  2
   4339   4351   4354   4356     1  180.0000771  0.0000000  2
   4339   4338   4340   4342     1  180.0000771  2.0083200  2
   4339   4338   4340   4342     1  0.0000000  1.2552000  3
   4340   4342   4346   4347     1  180.0000771  0.0000000  2
   4340   4342   4346   4348     1  180.0000771  0.0000000  2
   4340   4338   4339   4351     1  180.0000771  2.0083200  2
   4340   4338   4339   4351     1  0.0000000  1.2552000  3
   4359   4361   4363   4367     1  0.0000000  0.6508444  3
   4361   4363   4367   4368     1  180.0000771  2.0083200  2
   4361   4363   4367   4368     1  0.0000000  1.2552000  3
   4361   4363   4367   4369     1  180.0000771  2.0083200  2
   4361   4363   4367   4369     1  0.0000000  1.2552000  3
   4363   4367   4368   4380     1  180.0000771  2.0083200  2
   4363   4367   4368   4380     1  0.0000000  1.2552000  3
   4363   4367   4369   4371     1  180.0000771  2.0083200  2
   4363   4367   4369   4371     1  0.0000000  1.2552000  3
   4367   4368   4380   4383     1  0.0000000  0.6508444  3
   4367   4369   4371   4375     1  0.0000000  0.6508444  3
   4368   4367   4369   4371     1  180.0000771  2.0083200  2
   4368   4367   4369   4371     1  0.0000000  1.2552000  3
   4368   4380   4383   4384     1  180.0000771  0.0000000  2
   4368   4380   4383   4385     1  180.0000771  0.0000000  2
   4369   4367   4368   4380     1  180.0000771  2.0083200  2
   4369   4367   4368   4380     1  0.0000000  1.2552000  3
   4369   4371   4375   4376     1  180.0000771  0.0000000  2
   4369   4371   4375   4377     1  180.0000771  0.0000000  2
   4388   4390   4392   4396     1  0.0000000  0.6508444  3
   4390   4392   4396   4397     1  180.0000771  2.0083200  2
   4390   4392   4396   4397     1  0.0000000  1.2552000  3
   4390   4392   4396   4398     1  180.0000771  2.0083200  2
   4390   4392   4396   4398     1  0.0000000  1.2552000  3
   4392   4396   4397   4409     1  180.0000771  2.0083200  2
   4392   4396   4397   4409     1  0.0000000  1.2552000  3
   4392   4396   4398   4400     1  180.0000771  2.0083200  2
   4392   4396   4398   4400     1  0.0000000  1.2552000  3
   4396   4397   4409   4412     1  0.0000000  0.6508444  3
   4396   4398   4400   4404     1  0.0000000  0.6508444  3
   4397   4409   4412   4413     1  180.0000771  0.0000000  2
   4397   4409   4412   4414     1  180.0000771  0.0000000  2
   4397   4396   4398   4400     1  180.0000771  2.0083200  2
   4397   4396   4398   4400     1  0.0000000  1.2552000  3
   4398   4400   4404   4405     1  180.0000771  0.0000000  2
   4398   4400   4404   4406     1  180.0000771  0.0000000  2
   4398   4396   4397   4409     1  180.0000771  2.0083200  2
   4398   4396   4397   4409     1  0.0000000  1.2552000  3
   4417   4419   4421   4425     1  0.0000000  0.6508444  3
   4419   4421   4425   4426     1  180.0000771  2.0083200  2
   4419   4421   4425   4426     1  0.0000000  1.2552000  3
   4419   4421   4425   4427     1  180.0000771  2.0083200  2
   4419   4421   4425   4427     1  0.0000000  1.2552000  3
   4421   4425   4426   4438     1  180.0000771  2.0083200  2
   4421   4425   4426   4438     1  0.0000000  1.2552000  3
   4421   4425   4427   4429     1  180.0000771  2.0083200  2
   4421   4425   4427   4429     1  0.0000000  1.2552000  3
   4425   4426   4438   4441     1  0.0000000  0.6508444  3
   4425   4427   4429   4433     1  0.0000000  0.6508444  3
   4426   4425   4427   4429     1  180.0000771  2.0083200  2
   4426   4425   4427   4429     1  0.0000000  1.2552000  3
   4426   4438   4441   4442     1  180.0000771  0.0000000  2
   4426   4438   4441   4443     1  180.0000771  0.0000000  2
   4427   4425   4426   4438     1  180.0000771  2.0083200  2
   4427   4425   4426   4438     1  0.0000000  1.2552000  3
   4427   4429   4433   4434     1  180.0000771  0.0000000  2
   4427   4429   4433   4435     1  180.0000771  0.0000000  2
   4446   4448   4450   4454     1  0.0000000  0.6508444  3
   4448   4450   4454   4455     1  180.0000771  2.0083200  2
   4448   4450   4454   4455     1  0.0000000  1.2552000  3
   4448   4450   4454   4456     1  180.0000771  2.0083200  2
   4448   4450   4454   4456     1  0.0000000  1.2552000  3
   4450   4454   4455   4467     1  180.0000771  2.0083200  2
   4450   4454   4455   4467     1  0.0000000  1.2552000  3
   4450   4454   4456   4458     1  180.0000771  2.0083200  2
   4450   4454   4456   4458     1  0.0000000  1.2552000  3
   4454   4455   4467   4470     1  0.0000000  0.6508444  3
   4454   4456   4458   4462     1  0.0000000  0.6508444  3
   4455   4467   4470   4471     1  180.0000771  0.0000000  2
   4455   4467   4470   4472     1  180.0000771  0.0000000  2
   4455   4454   4456   4458     1  180.0000771  2.0083200  2
   4455   4454   4456   4458     1  0.0000000  1.2552000  3
   4456   4458   4462   4463     1  180.0000771  0.0000000  2
   4456   4458   4462   4464     1  180.0000771  0.0000000  2
   4456   4454   4455   4467     1  180.0000771  2.0083200  2
   4456   4454   4455   4467     1  0.0000000  1.2552000  3
   4475   4477   4479   4483     1  0.0000000  0.6508444  3
   4477   4479   4483   4484     1  180.0000771  2.0083200  2
   4477   4479   4483   4484     1  0.0000000  1.2552000  3
   4477   4479   4483   4485     1  180.0000771  2.0083200  2
   4477   4479   4483   4485     1  0.0000000  1.2552000  3
   4479   4483   4484   4496     1  180.0000771  2.0083200  2
   4479   4483   4484   4496     1  0.0000000  1.2552000  3
   4479   4483   4485   4487     1  180.0000771  2.0083200  2
   4479   4483   4485   4487     1  0.0000000  1.2552000  3
   4483   4484   4496   4499     1  0.0000000  0.6508444  3
   4483   4485   4487   4491     1  0.0000000  0.6508444  3
   4484   4483   4485   4487     1  180.0000771  2.0083200  2
   4484   4483   4485   4487     1  0.0000000  1.2552000  3
   4484   4496   4499   4500     1  180.0000771  0.0000000  2
   4484   4496   4499   4501     1  180.0000771  0.0000000  2
   4485   4483   4484   4496     1  180.0000771  2.0083200  2
   4485   4483   4484   4496     1  0.0000000  1.2552000  3
   4485   4487   4491   4492     1  180.0000771  0.0000000  2
   4485   4487   4491   4493     1  180.0000771  0.0000000  2
   4504   4506   4508   4512     1  0.0000000  0.6508444  3
   4506   4508   4512   4513     1  180.0000771  2.0083200  2
   4506   4508   4512   4513     1  0.0000000  1.2552000  3
   4506   4508   4512   4514     1  180.0000771  2.0083200  2
   4506   4508   4512   4514     1  0.0000000  1.2552000  3
   4508   4512   4513   4525     1  180.0000771  2.0083200  2
   4508   4512   4513   4525     1  0.0000000  1.2552000  3
   4508   4512   4514   4516     1  180.0000771  2.0083200  2
   4508   4512   4514   4516     1  0.0000000  1.2552000  3
   4512   4513   4525   4528     1  0.0000000  0.6508444  3
   4512   4514   4516   4520     1  0.0000000  0.6508444  3
   4513   4525   4528   4529     1  180.0000771  0.0000000  2
   4513   4525   4528   4530     1  180.0000771  0.0000000  2
   4513   4512   4514   4516     1  180.0000771  2.0083200  2
   4513   4512   4514   4516     1  0.0000000  1.2552000  3
   4514   4516   4520   4521     1  180.0000771  0.0000000  2
   4514   4516   4520   4522     1  180.0000771  0.0000000  2
   4514   4512   4513   4525     1  180.0000771  2.0083200  2
   4514   4512   4513   4525     1  0.0000000  1.2552000  3
   4533   4535   4537   4541     1  0.0000000  0.6508444  3
   4535   4537   4541   4542     1  180.0000771  2.0083200  2
   4535   4537   4541   4542     1  0.0000000  1.2552000  3
   4535   4537   4541   4543     1  180.0000771  2.0083200  2
   4535   4537   4541   4543     1  0.0000000  1.2552000  3
   4537   4541   4542   4554     1  180.0000771  2.0083200  2
   4537   4541   4542   4554     1  0.0000000  1.2552000  3
   4537   4541   4543   4545     1  180.0000771  2.0083200  2
   4537   4541   4543   4545     1  0.0000000  1.2552000  3
   4541   4542   4554   4557     1  0.0000000  0.6508444  3
   4541   4543   4545   4549     1  0.0000000  0.6508444  3
   4542   4541   4543   4545     1  180.0000771  2.0083200  2
   4542   4541   4543   4545     1  0.0000000  1.2552000  3
   4542   4554   4557   4558     1  180.0000771  0.0000000  2
   4542   4554   4557   4559     1  180.0000771  0.0000000  2
   4543   4541   4542   4554     1  180.0000771  2.0083200  2
   4543   4541   4542   4554     1  0.0000000  1.2552000  3
   4543   4545   4549   4550     1  180.0000771  0.0000000  2
   4543   4545   4549   4551     1  180.0000771  0.0000000  2
   4562   4564   4566   4570     1  0.0000000  0.6508444  3
   4564   4566   4570   4571     1  180.0000771  2.0083200  2
   4564   4566   4570   4571     1  0.0000000  1.2552000  3
   4564   4566   4570   4572     1  180.0000771  2.0083200  2
   4564   4566   4570   4572     1  0.0000000  1.2552000  3
   4566   4570   4571   4583     1  180.0000771  2.0083200  2
   4566   4570   4571   4583     1  0.0000000  1.2552000  3
   4566   4570   4572   4574     1  180.0000771  2.0083200  2
   4566   4570   4572   4574     1  0.0000000  1.2552000  3
   4570   4571   4583   4586     1  0.0000000  0.6508444  3
   4570   4572   4574   4578     1  0.0000000  0.6508444  3
   4571   4583   4586   4587     1  180.0000771  0.0000000  2
   4571   4583   4586   4588     1  180.0000771  0.0000000  2
   4571   4570   4572   4574     1  180.0000771  2.0083200  2
   4571   4570   4572   4574     1  0.0000000  1.2552000  3
   4572   4574   4578   4579     1  180.0000771  0.0000000  2
   4572   4574   4578   4580     1  180.0000771  0.0000000  2
   4572   4570   4571   4583     1  180.0000771  2.0083200  2
   4572   4570   4571   4583     1  0.0000000  1.2552000  3
   4591   4593   4595   4599     1  0.0000000  0.6508444  3
   4593   4595   4599   4600     1  180.0000771  2.0083200  2
   4593   4595   4599   4600     1  0.0000000  1.2552000  3
   4593   4595   4599   4601     1  180.0000771  2.0083200  2
   4593   4595   4599   4601     1  0.0000000  1.2552000  3
   4595   4599   4600   4612     1  180.0000771  2.0083200  2
   4595   4599   4600   4612     1  0.0000000  1.2552000  3
   4595   4599   4601   4603     1  180.0000771  2.0083200  2
   4595   4599   4601   4603     1  0.0000000  1.2552000  3
   4599   4600   4612   4615     1  0.0000000  0.6508444  3
   4599   4601   4603   4607     1  0.0000000  0.6508444  3
   4600   4599   4601   4603     1  180.0000771  2.0083200  2
   4600   4599   4601   4603     1  0.0000000  1.2552000  3
   4600   4612   4615   4616     1  180.0000771  0.0000000  2
   4600   4612   4615   4617     1  180.0000771  0.0000000  2
   4601   4599   4600   4612     1  180.0000771  2.0083200  2
   4601   4599   4600   4612     1  0.0000000  1.2552000  3
   4601   4603   4607   4608     1  180.0000771  0.0000000  2
   4601   4603   4607   4609     1  180.0000771  0.0000000  2
   4620   4622   4624   4628     1  0.0000000  0.6508444  3
   4622   4624   4628   4629     1  180.0000771  2.0083200  2
   4622   4624   4628   4629     1  0.0000000  1.2552000  3
   4622   4624   4628   4630     1  180.0000771  2.0083200  2
   4622   4624   4628   4630     1  0.0000000  1.2552000  3
   4624   4628   4629   4641     1  180.0000771  2.0083200  2
   4624   4628   4629   4641     1  0.0000000  1.2552000  3
   4624   4628   4630   4632     1  180.0000771  2.0083200  2
   4624   4628   4630   4632     1  0.0000000  1.2552000  3
   4628   4629   4641   4644     1  0.0000000  0.6508444  3
   4628   4630   4632   4636     1  0.0000000  0.6508444  3
   4629   4641   4644   4645     1  180.0000771  0.0000000  2
   4629   4641   4644   4646     1  180.0000771  0.0000000  2
   4629   4628   4630   4632     1  180.0000771  2.0083200  2
   4629   4628   4630   4632     1  0.0000000  1.2552000  3
   4630   4632   4636   4637     1  180.0000771  0.0000000  2
   4630   4632   4636   4638     1  180.0000771  0.0000000  2
   4630   4628   4629   4641     1  180.0000771  2.0083200  2
   4630   4628   4629   4641     1  0.0000000  1.2552000  3
   4649   4651   4653   4657     1  0.0000000  0.6508444  3
   4651   4653   4657   4658     1  180.0000771  2.0083200  2
   4651   4653   4657   4658     1  0.0000000  1.2552000  3
   4651   4653   4657   4659     1  180.0000771  2.0083200  2
   4651   4653   4657   4659     1  0.0000000  1.2552000  3
   4653   4657   4658   4670     1  180.0000771  2.0083200  2
   4653   4657   4658   4670     1  0.0000000  1.2552000  3
   4653   4657   4659   4661     1  180.0000771  2.0083200  2
   4653   4657   4659   4661     1  0.0000000  1.2552000  3
   4657   4658   4670   4673     1  0.0000000  0.6508444  3
   4657   4659   4661   4665     1  0.0000000  0.6508444  3
   4658   4657   4659   4661     1  180.0000771  2.0083200  2
   4658   4657   4659   4661     1  0.0000000  1.2552000  3
   4658   4670   4673   4674     1  180.0000771  0.0000000  2
   4658   4670   4673   4675     1  180.0000771  0.0000000  2
   4659   4657   4658   4670     1  180.0000771  2.0083200  2
   4659   4657   4658   4670     1  0.0000000  1.2552000  3
   4659   4661   4665   4666     1  180.0000771  0.0000000  2
   4659   4661   4665   4667     1  180.0000771  0.0000000  2
   4678   4680   4682   4686     1  0.0000000  0.6508444  3
   4680   4682   4686   4687     1  180.0000771  2.0083200  2
   4680   4682   4686   4687     1  0.0000000  1.2552000  3
   4680   4682   4686   4688     1  180.0000771  2.0083200  2
   4680   4682   4686   4688     1  0.0000000  1.2552000  3
   4682   4686   4687   4699     1  180.0000771  2.0083200  2
   4682   4686   4687   4699     1  0.0000000  1.2552000  3
   4682   4686   4688   4690     1  180.0000771  2.0083200  2
   4682   4686   4688   4690     1  0.0000000  1.2552000  3
   4686   4687   4699   4702     1  0.0000000  0.6508444  3
   4686   4688   4690   4694     1  0.0000000  0.6508444  3
   4687   4699   4702   4703     1  180.0000771  0.0000000  2
   4687   4699   4702   4704     1  180.0000771  0.0000000  2
   4687   4686   4688   4690     1  180.0000771  2.0083200  2
   4687   4686   4688   4690     1  0.0000000  1.2552000  3
   4688   4690   4694   4695     1  180.0000771  0.0000000  2
   4688   4690   4694   4696     1  180.0000771  0.0000000  2
   4688   4686   4687   4699     1  180.0000771  2.0083200  2
   4688   4686   4687   4699     1  0.0000000  1.2552000  3
   4707   4709   4711   4715     1  0.0000000  0.6508444  3
   4709   4711   4715   4716     1  180.0000771  2.0083200  2
   4709   4711   4715   4716     1  0.0000000  1.2552000  3
   4709   4711   4715   4717     1  180.0000771  2.0083200  2
   4709   4711   4715   4717     1  0.0000000  1.2552000  3
   4711   4715   4716   4728     1  180.0000771  2.0083200  2
   4711   4715   4716   4728     1  0.0000000  1.2552000  3
   4711   4715   4717   4719     1  180.0000771  2.0083200  2
   4711   4715   4717   4719     1  0.0000000  1.2552000  3
   4715   4716   4728   4731     1  0.0000000  0.6508444  3
   4715   4717   4719   4723     1  0.0000000  0.6508444  3
   4716   4715   4717   4719     1  180.0000771  2.0083200  2
   4716   4715   4717   4719     1  0.0000000  1.2552000  3
   4716   4728   4731   4732     1  180.0000771  0.0000000  2
   4716   4728   4731   4733     1  180.0000771  0.0000000  2
   4717   4715   4716   4728     1  180.0000771  2.0083200  2
   4717   4715   4716   4728     1  0.0000000  1.2552000  3
   4717   4719   4723   4724     1  180.0000771  0.0000000  2
   4717   4719   4723   4725     1  180.0000771  0.0000000  2
   4736   4738   4740   4744     1  0.0000000  0.6508444  3
   4738   4740   4744   4745     1  180.0000771  2.0083200  2
   4738   4740   4744   4745     1  0.0000000  1.2552000  3
   4738   4740   4744   4746     1  180.0000771  2.0083200  2
   4738   4740   4744   4746     1  0.0000000  1.2552000  3
   4740   4744   4745   4757     1  180.0000771  2.0083200  2
   4740   4744   4745   4757     1  0.0000000  1.2552000  3
   4740   4744   4746   4748     1  180.0000771  2.0083200  2
   4740   4744   4746   4748     1  0.0000000  1.2552000  3
   4744   4745   4757   4760     1  0.0000000  0.6508444  3
   4744   4746   4748   4752     1  0.0000000  0.6508444  3
   4745   4757   4760   4761     1  180.0000771  0.0000000  2
   4745   4757   4760   4762     1  180.0000771  0.0000000  2
   4745   4744   4746   4748     1  180.0000771  2.0083200  2
   4745   4744   4746   4748     1  0.0000000  1.2552000  3
   4746   4748   4752   4753     1  180.0000771  0.0000000  2
   4746   4748   4752   4754     1  180.0000771  0.0000000  2
   4746   4744   4745   4757     1  180.0000771  2.0083200  2
   4746   4744   4745   4757     1  0.0000000  1.2552000  3
   4765   4767   4769   4773     1  0.0000000  0.6508444  3
   4767   4769   4773   4774     1  180.0000771  2.0083200  2
   4767   4769   4773   4774     1  0.0000000  1.2552000  3
   4767   4769   4773   4775     1  180.0000771  2.0083200  2
   4767   4769   4773   4775     1  0.0000000  1.2552000  3
   4769   4773   4774   4786     1  180.0000771  2.0083200  2
   4769   4773   4774   4786     1  0.0000000  1.2552000  3
   4769   4773   4775   4777     1  180.0000771  2.0083200  2
   4769   4773   4775   4777     1  0.0000000  1.2552000  3
   4773   4774   4786   4789     1  0.0000000  0.6508444  3
   4773   4775   4777   4781     1  0.0000000  0.6508444  3
   4774   4773   4775   4777     1  180.0000771  2.0083200  2
   4774   4773   4775   4777     1  0.0000000  1.2552000  3
   4774   4786   4789   4790     1  180.0000771  0.0000000  2
   4774   4786   4789   4791     1  180.0000771  0.0000000  2
   4775   4773   4774   4786     1  180.0000771  2.0083200  2
   4775   4773   4774   4786     1  0.0000000  1.2552000  3
   4775   4777   4781   4782     1  180.0000771  0.0000000  2
   4775   4777   4781   4783     1  180.0000771  0.0000000  2
   4794   4796   4798   4802     1  0.0000000  0.6508444  3
   4796   4798   4802   4803     1  180.0000771  2.0083200  2
   4796   4798   4802   4803     1  0.0000000  1.2552000  3
   4796   4798   4802   4804     1  180.0000771  2.0083200  2
   4796   4798   4802   4804     1  0.0000000  1.2552000  3
   4798   4802   4803   4815     1  180.0000771  2.0083200  2
   4798   4802   4803   4815     1  0.0000000  1.2552000  3
   4798   4802   4804   4806     1  180.0000771  2.0083200  2
   4798   4802   4804   4806     1  0.0000000  1.2552000  3
   4802   4803   4815   4818     1  0.0000000  0.6508444  3
   4802   4804   4806   4810     1  0.0000000  0.6508444  3
   4803   4815   4818   4819     1  180.0000771  0.0000000  2
   4803   4815   4818   4820     1  180.0000771  0.0000000  2
   4803   4802   4804   4806     1  180.0000771  2.0083200  2
   4803   4802   4804   4806     1  0.0000000  1.2552000  3
   4804   4806   4810   4811     1  180.0000771  0.0000000  2
   4804   4806   4810   4812     1  180.0000771  0.0000000  2
   4804   4802   4803   4815     1  180.0000771  2.0083200  2
   4804   4802   4803   4815     1  0.0000000  1.2552000  3
   4823   4825   4827   4831     1  0.0000000  0.6508444  3
   4825   4827   4831   4832     1  180.0000771  2.0083200  2
   4825   4827   4831   4832     1  0.0000000  1.2552000  3
   4825   4827   4831   4833     1  180.0000771  2.0083200  2
   4825   4827   4831   4833     1  0.0000000  1.2552000  3
   4827   4831   4832   4844     1  180.0000771  2.0083200  2
   4827   4831   4832   4844     1  0.0000000  1.2552000  3
   4827   4831   4833   4835     1  180.0000771  2.0083200  2
   4827   4831   4833   4835     1  0.0000000  1.2552000  3
   4831   4832   4844   4847     1  0.0000000  0.6508444  3
   4831   4833   4835   4839     1  0.0000000  0.6508444  3
   4832   4831   4833   4835     1  180.0000771  2.0083200  2
   4832   4831   4833   4835     1  0.0000000  1.2552000  3
   4832   4844   4847   4848     1  180.0000771  0.0000000  2
   4832   4844   4847   4849     1  180.0000771  0.0000000  2
   4833   4831   4832   4844     1  180.0000771  2.0083200  2
   4833   4831   4832   4844     1  0.0000000  1.2552000  3
   4833   4835   4839   4840     1  180.0000771  0.0000000  2
   4833   4835   4839   4841     1  180.0000771  0.0000000  2
   4852   4854   4856   4860     1  0.0000000  0.6508444  3
   4854   4856   4860   4861     1  180.0000771  2.0083200  2
   4854   4856   4860   4861     1  0.0000000  1.2552000  3
   4854   4856   4860   4862     1  180.0000771  2.0083200  2
   4854   4856   4860   4862     1  0.0000000  1.2552000  3
   4856   4860   4861   4873     1  180.0000771  2.0083200  2
   4856   4860   4861   4873     1  0.0000000  1.2552000  3
   4856   4860   4862   4864     1  180.0000771  2.0083200  2
   4856   4860   4862   4864     1  0.0000000  1.2552000  3
   4860   4861   4873   4876     1  0.0000000  0.6508444  3
   4860   4862   4864   4868     1  0.0000000  0.6508444  3
   4861   4873   4876   4877     1  180.0000771  0.0000000  2
   4861   4873   4876   4878     1  180.0000771  0.0000000  2
   4861   4860   4862   4864     1  180.0000771  2.0083200  2
   4861   4860   4862   4864     1  0.0000000  1.2552000  3
   4862   4864   4868   4869     1  180.0000771  0.0000000  2
   4862   4864   4868   4870     1  180.0000771  0.0000000  2
   4862   4860   4861   4873     1  180.0000771  2.0083200  2
   4862   4860   4861   4873     1  0.0000000  1.2552000  3
   4881   4883   4885   4889     1  0.0000000  0.6508444  3
   4883   4885   4889   4890     1  180.0000771  2.0083200  2
   4883   4885   4889   4890     1  0.0000000  1.2552000  3
   4883   4885   4889   4891     1  180.0000771  2.0083200  2
   4883   4885   4889   4891     1  0.0000000  1.2552000  3
   4885   4889   4890   4902     1  180.0000771  2.0083200  2
   4885   4889   4890   4902     1  0.0000000  1.2552000  3
   4885   4889   4891   4893     1  180.0000771  2.0083200  2
   4885   4889   4891   4893     1  0.0000000  1.2552000  3
   4889   4890   4902   4905     1  0.0000000  0.6508444  3
   4889   4891   4893   4897     1  0.0000000  0.6508444  3
   4890   4889   4891   4893     1  180.0000771  2.0083200  2
   4890   4889   4891   4893     1  0.0000000  1.2552000  3
   4890   4902   4905   4906     1  180.0000771  0.0000000  2
   4890   4902   4905   4907     1  180.0000771  0.0000000  2
   4891   4889   4890   4902     1  180.0000771  2.0083200  2
   4891   4889   4890   4902     1  0.0000000  1.2552000  3
   4891   4893   4897   4898     1  180.0000771  0.0000000  2
   4891   4893   4897   4899     1  180.0000771  0.0000000  2
   4910   4912   4914   4918     1  0.0000000  0.6508444  3
   4912   4914   4918   4919     1  180.0000771  2.0083200  2
   4912   4914   4918   4919     1  0.0000000  1.2552000  3
   4912   4914   4918   4920     1  180.0000771  2.0083200  2
   4912   4914   4918   4920     1  0.0000000  1.2552000  3
   4914   4918   4919   4931     1  180.0000771  2.0083200  2
   4914   4918   4919   4931     1  0.0000000  1.2552000  3
   4914   4918   4920   4922     1  180.0000771  2.0083200  2
   4914   4918   4920   4922     1  0.0000000  1.2552000  3
   4918   4919   4931   4934     1  0.0000000  0.6508444  3
   4918   4920   4922   4926     1  0.0000000  0.6508444  3
   4919   4931   4934   4935     1  180.0000771  0.0000000  2
   4919   4931   4934   4936     1  180.0000771  0.0000000  2
   4919   4918   4920   4922     1  180.0000771  2.0083200  2
   4919   4918   4920   4922     1  0.0000000  1.2552000  3
   4920   4922   4926   4927     1  180.0000771  0.0000000  2
   4920   4922   4926   4928     1  180.0000771  0.0000000  2
   4920   4918   4919   4931     1  180.0000771  2.0083200  2
   4920   4918   4919   4931     1  0.0000000  1.2552000  3
   4939   4941   4943   4947     1  0.0000000  0.6508444  3
   4941   4943   4947   4948     1  180.0000771  2.0083200  2
   4941   4943   4947   4948     1  0.0000000  1.2552000  3
   4941   4943   4947   4949     1  180.0000771  2.0083200  2
   4941   4943   4947   4949     1  0.0000000  1.2552000  3
   4943   4947   4948   4960     1  180.0000771  2.0083200  2
   4943   4947   4948   4960     1  0.0000000  1.2552000  3
   4943   4947   4949   4951     1  180.0000771  2.0083200  2
   4943   4947   4949   4951     1  0.0000000  1.2552000  3
   4947   4948   4960   4963     1  0.0000000  0.6508444  3
   4947   4949   4951   4955     1  0.0000000  0.6508444  3
   4948   4947   4949   4951     1  180.0000771  2.0083200  2
   4948   4947   4949   4951     1  0.0000000  1.2552000  3
   4948   4960   4963   4964     1  180.0000771  0.0000000  2
   4948   4960   4963   4965     1  180.0000771  0.0000000  2
   4949   4947   4948   4960     1  180.0000771  2.0083200  2
   4949   4947   4948   4960     1  0.0000000  1.2552000  3
   4949   4951   4955   4956     1  180.0000771  0.0000000  2
   4949   4951   4955   4957     1  180.0000771  0.0000000  2
   4968   4970   4972   4976     1  0.0000000  0.6508444  3
   4970   4972   4976   4977     1  180.0000771  2.0083200  2
   4970   4972   4976   4977     1  0.0000000  1.2552000  3
   4970   4972   4976   4978     1  180.0000771  2.0083200  2
   4970   4972   4976   4978     1  0.0000000  1.2552000  3
   4972   4976   4977   4989     1  180.0000771  2.0083200  2
   4972   4976   4977   4989     1  0.0000000  1.2552000  3
   4972   4976   4978   4980     1  180.0000771  2.0083200  2
   4972   4976   4978   4980     1  0.0000000  1.2552000  3
   4976   4977   4989   4992     1  0.0000000  0.6508444  3
   4976   4978   4980   4984     1  0.0000000  0.6508444  3
   4977   4989   4992   4993     1  180.0000771  0.0000000  2
   4977   4989   4992   4994     1  180.0000771  0.0000000  2
   4977   4976   4978   4980     1  180.0000771  2.0083200  2
   4977   4976   4978   4980     1  0.0000000  1.2552000  3
   4978   4980   4984   4985     1  180.0000771  0.0000000  2
   4978   4980   4984   4986     1  180.0000771  0.0000000  2
   4978   4976   4977   4989     1  180.0000771  2.0083200  2
   4978   4976   4977   4989     1  0.0000000  1.2552000  3
   4997   4999   5001   5005     1  0.0000000  0.6508444  3
   4999   5001   5005   5006     1  180.0000771  2.0083200  2
   4999   5001   5005   5006     1  0.0000000  1.2552000  3
   4999   5001   5005   5007     1  180.0000771  2.0083200  2
   4999   5001   5005   5007     1  0.0000000  1.2552000  3
   5001   5005   5006   5018     1  180.0000771  2.0083200  2
   5001   5005   5006   5018     1  0.0000000  1.2552000  3
   5001   5005   5007   5009     1  180.0000771  2.0083200  2
   5001   5005   5007   5009     1  0.0000000  1.2552000  3
   5005   5006   5018   5021     1  0.0000000  0.6508444  3
   5005   5007   5009   5013     1  0.0000000  0.6508444  3
   5006   5005   5007   5009     1  180.0000771  2.0083200  2
   5006   5005   5007   5009     1  0.0000000  1.2552000  3
   5006   5018   5021   5022     1  180.0000771  0.0000000  2
   5006   5018   5021   5023     1  180.0000771  0.0000000  2
   5007   5005   5006   5018     1  180.0000771  2.0083200  2
   5007   5005   5006   5018     1  0.0000000  1.2552000  3
   5007   5009   5013   5014     1  180.0000771  0.0000000  2
   5007   5009   5013   5015     1  180.0000771  0.0000000  2
   5026   5028   5030   5034     1  0.0000000  0.6508444  3
   5028   5030   5034   5035     1  180.0000771  2.0083200  2
   5028   5030   5034   5035     1  0.0000000  1.2552000  3
   5028   5030   5034   5036     1  180.0000771  2.0083200  2
   5028   5030   5034   5036     1  0.0000000  1.2552000  3
   5030   5034   5035   5047     1  180.0000771  2.0083200  2
   5030   5034   5035   5047     1  0.0000000  1.2552000  3
   5030   5034   5036   5038     1  180.0000771  2.0083200  2
   5030   5034   5036   5038     1  0.0000000  1.2552000  3
   5034   5035   5047   5050     1  0.0000000  0.6508444  3
   5034   5036   5038   5042     1  0.0000000  0.6508444  3
   5035   5047   5050   5051     1  180.0000771  0.0000000  2
   5035   5047   5050   5052     1  180.0000771  0.0000000  2
   5035   5034   5036   5038     1  180.0000771  2.0083200  2
   5035   5034   5036   5038     1  0.0000000  1.2552000  3
   5036   5038   5042   5043     1  180.0000771  0.0000000  2
   5036   5038   5042   5044     1  180.0000771  0.0000000  2
   5036   5034   5035   5047     1  180.0000771  2.0083200  2
   5036   5034   5035   5047     1  0.0000000  1.2552000  3
   5055   5057   5059   5063     1  0.0000000  0.6508444  3
   5057   5059   5063   5064     1  180.0000771  2.0083200  2
   5057   5059   5063   5064     1  0.0000000  1.2552000  3
   5057   5059   5063   5065     1  180.0000771  2.0083200  2
   5057   5059   5063   5065     1  0.0000000  1.2552000  3
   5059   5063   5064   5076     1  180.0000771  2.0083200  2
   5059   5063   5064   5076     1  0.0000000  1.2552000  3
   5059   5063   5065   5067     1  180.0000771  2.0083200  2
   5059   5063   5065   5067     1  0.0000000  1.2552000  3
   5063   5064   5076   5079     1  0.0000000  0.6508444  3
   5063   5065   5067   5071     1  0.0000000  0.6508444  3
   5064   5063   5065   5067     1  180.0000771  2.0083200  2
   5064   5063   5065   5067     1  0.0000000  1.2552000  3
   5064   5076   5079   5080     1  180.0000771  0.0000000  2
   5064   5076   5079   5081     1  180.0000771  0.0000000  2
   5065   5063   5064   5076     1  180.0000771  2.0083200  2
   5065   5063   5064   5076     1  0.0000000  1.2552000  3
   5065   5067   5071   5072     1  180.0000771  0.0000000  2
   5065   5067   5071   5073     1  180.0000771  0.0000000  2
   5084   5086   5088   5092     1  0.0000000  0.6508444  3
   5086   5088   5092   5093     1  180.0000771  2.0083200  2
   5086   5088   5092   5093     1  0.0000000  1.2552000  3
   5086   5088   5092   5094     1  180.0000771  2.0083200  2
   5086   5088   5092   5094     1  0.0000000  1.2552000  3
   5088   5092   5093   5105     1  180.0000771  2.0083200  2
   5088   5092   5093   5105     1  0.0000000  1.2552000  3
   5088   5092   5094   5096     1  180.0000771  2.0083200  2
   5088   5092   5094   5096     1  0.0000000  1.2552000  3
   5092   5093   5105   5108     1  0.0000000  0.6508444  3
   5092   5094   5096   5100     1  0.0000000  0.6508444  3
   5093   5105   5108   5109     1  180.0000771  0.0000000  2
   5093   5105   5108   5110     1  180.0000771  0.0000000  2
   5093   5092   5094   5096     1  180.0000771  2.0083200  2
   5093   5092   5094   5096     1  0.0000000  1.2552000  3
   5094   5096   5100   5101     1  180.0000771  0.0000000  2
   5094   5096   5100   5102     1  180.0000771  0.0000000  2
   5094   5092   5093   5105     1  180.0000771  2.0083200  2
   5094   5092   5093   5105     1  0.0000000  1.2552000  3
   5113   5115   5117   5121     1  0.0000000  0.6508444  3
   5115   5117   5121   5122     1  180.0000771  2.0083200  2
   5115   5117   5121   5122     1  0.0000000  1.2552000  3
   5115   5117   5121   5123     1  180.0000771  2.0083200  2
   5115   5117   5121   5123     1  0.0000000  1.2552000  3
   5117   5121   5122   5134     1  180.0000771  2.0083200  2
   5117   5121   5122   5134     1  0.0000000  1.2552000  3
   5117   5121   5123   5125     1  180.0000771  2.0083200  2
   5117   5121   5123   5125     1  0.0000000  1.2552000  3
   5121   5122   5134   5137     1  0.0000000  0.6508444  3
   5121   5123   5125   5129     1  0.0000000  0.6508444  3
   5122   5121   5123   5125     1  180.0000771  2.0083200  2
   5122   5121   5123   5125     1  0.0000000  1.2552000  3
   5122   5134   5137   5138     1  180.0000771  0.0000000  2
   5122   5134   5137   5139     1  180.0000771  0.0000000  2
   5123   5121   5122   5134     1  180.0000771  2.0083200  2
   5123   5121   5122   5134     1  0.0000000  1.2552000  3
   5123   5125   5129   5130     1  180.0000771  0.0000000  2
   5123   5125   5129   5131     1  180.0000771  0.0000000  2
   5142   5144   5146   5150     1  0.0000000  0.6508444  3
   5144   5146   5150   5151     1  180.0000771  2.0083200  2
   5144   5146   5150   5151     1  0.0000000  1.2552000  3
   5144   5146   5150   5152     1  180.0000771  2.0083200  2
   5144   5146   5150   5152     1  0.0000000  1.2552000  3
   5146   5150   5151   5163     1  180.0000771  2.0083200  2
   5146   5150   5151   5163     1  0.0000000  1.2552000  3
   5146   5150   5152   5154     1  180.0000771  2.0083200  2
   5146   5150   5152   5154     1  0.0000000  1.2552000  3
   5150   5151   5163   5166     1  0.0000000  0.6508444  3
   5150   5152   5154   5158     1  0.0000000  0.6508444  3
   5151   5163   5166   5167     1  180.0000771  0.0000000  2
   5151   5163   5166   5168     1  180.0000771  0.0000000  2
   5151   5150   5152   5154     1  180.0000771  2.0083200  2
   5151   5150   5152   5154     1  0.0000000  1.2552000  3
   5152   5154   5158   5159     1  180.0000771  0.0000000  2
   5152   5154   5158   5160     1  180.0000771  0.0000000  2
   5152   5150   5151   5163     1  180.0000771  2.0083200  2
   5152   5150   5151   5163     1  0.0000000  1.2552000  3
   5171   5173   5175   5179     1  0.0000000  0.6508444  3
   5173   5175   5179   5180     1  180.0000771  2.0083200  2
   5173   5175   5179   5180     1  0.0000000  1.2552000  3
   5173   5175   5179   5181     1  180.0000771  2.0083200  2
   5173   5175   5179   5181     1  0.0000000  1.2552000  3
   5175   5179   5180   5192     1  180.0000771  2.0083200  2
   5175   5179   5180   5192     1  0.0000000  1.2552000  3
   5175   5179   5181   5183     1  180.0000771  2.0083200  2
   5175   5179   5181   5183     1  0.0000000  1.2552000  3
   5179   5180   5192   5195     1  0.0000000  0.6508444  3
   5179   5181   5183   5187     1  0.0000000  0.6508444  3
   5180   5179   5181   5183     1  180.0000771  2.0083200  2
   5180   5179   5181   5183     1  0.0000000  1.2552000  3
   5180   5192   5195   5196     1  180.0000771  0.0000000  2
   5180   5192   5195   5197     1  180.0000771  0.0000000  2
   5181   5179   5180   5192     1  180.0000771  2.0083200  2
   5181   5179   5180   5192     1  0.0000000  1.2552000  3
   5181   5183   5187   5188     1  180.0000771  0.0000000  2
   5181   5183   5187   5189     1  180.0000771  0.0000000  2
   5200   5202   5204   5208     1  0.0000000  0.6508444  3
   5202   5204   5208   5209     1  180.0000771  2.0083200  2
   5202   5204   5208   5209     1  0.0000000  1.2552000  3
   5202   5204   5208   5210     1  180.0000771  2.0083200  2
   5202   5204   5208   5210     1  0.0000000  1.2552000  3
   5204   5208   5209   5221     1  180.0000771  2.0083200  2
   5204   5208   5209   5221     1  0.0000000  1.2552000  3
   5204   5208   5210   5212     1  180.0000771  2.0083200  2
   5204   5208   5210   5212     1  0.0000000  1.2552000  3
   5208   5209   5221   5224     1  0.0000000  0.6508444  3
   5208   5210   5212   5216     1  0.0000000  0.6508444  3
   5209   5221   5224   5225     1  180.0000771  0.0000000  2
   5209   5221   5224   5226     1  180.0000771  0.0000000  2
   5209   5208   5210   5212     1  180.0000771  2.0083200  2
   5209   5208   5210   5212     1  0.0000000  1.2552000  3
   5210   5212   5216   5217     1  180.0000771  0.0000000  2
   5210   5212   5216   5218     1  180.0000771  0.0000000  2
   5210   5208   5209   5221     1  180.0000771  2.0083200  2
   5210   5208   5209   5221     1  0.0000000  1.2552000  3
   5229   5231   5233   5237     1  0.0000000  0.6508444  3
   5231   5233   5237   5238     1  180.0000771  2.0083200  2
   5231   5233   5237   5238     1  0.0000000  1.2552000  3
   5231   5233   5237   5239     1  180.0000771  2.0083200  2
   5231   5233   5237   5239     1  0.0000000  1.2552000  3
   5233   5237   5238   5250     1  180.0000771  2.0083200  2
   5233   5237   5238   5250     1  0.0000000  1.2552000  3
   5233   5237   5239   5241     1  180.0000771  2.0083200  2
   5233   5237   5239   5241     1  0.0000000  1.2552000  3
   5237   5238   5250   5253     1  0.0000000  0.6508444  3
   5237   5239   5241   5245     1  0.0000000  0.6508444  3
   5238   5237   5239   5241     1  180.0000771  2.0083200  2
   5238   5237   5239   5241     1  0.0000000  1.2552000  3
   5238   5250   5253   5254     1  180.0000771  0.0000000  2
   5238   5250   5253   5255     1  180.0000771  0.0000000  2
   5239   5237   5238   5250     1  180.0000771  2.0083200  2
   5239   5237   5238   5250     1  0.0000000  1.2552000  3
   5239   5241   5245   5246     1  180.0000771  0.0000000  2
   5239   5241   5245   5247     1  180.0000771  0.0000000  2
   5258   5260   5262   5266     1  0.0000000  0.6508444  3
   5260   5262   5266   5267     1  180.0000771  2.0083200  2
   5260   5262   5266   5267     1  0.0000000  1.2552000  3
   5260   5262   5266   5268     1  180.0000771  2.0083200  2
   5260   5262   5266   5268     1  0.0000000  1.2552000  3
   5262   5266   5267   5279     1  180.0000771  2.0083200  2
   5262   5266   5267   5279     1  0.0000000  1.2552000  3
   5262   5266   5268   5270     1  180.0000771  2.0083200  2
   5262   5266   5268   5270     1  0.0000000  1.2552000  3
   5266   5267   5279   5282     1  0.0000000  0.6508444  3
   5266   5268   5270   5274     1  0.0000000  0.6508444  3
   5267   5279   5282   5283     1  180.0000771  0.0000000  2
   5267   5279   5282   5284     1  180.0000771  0.0000000  2
   5267   5266   5268   5270     1  180.0000771  2.0083200  2
   5267   5266   5268   5270     1  0.0000000  1.2552000  3
   5268   5270   5274   5275     1  180.0000771  0.0000000  2
   5268   5270   5274   5276     1  180.0000771  0.0000000  2
   5268   5266   5267   5279     1  180.0000771  2.0083200  2
   5268   5266   5267   5279     1  0.0000000  1.2552000  3
   5287   5289   5291   5295     1  0.0000000  0.6508444  3
   5289   5291   5295   5296     1  180.0000771  2.0083200  2
   5289   5291   5295   5296     1  0.0000000  1.2552000  3
   5289   5291   5295   5297     1  180.0000771  2.0083200  2
   5289   5291   5295   5297     1  0.0000000  1.2552000  3
   5291   5295   5296   5308     1  180.0000771  2.0083200  2
   5291   5295   5296   5308     1  0.0000000  1.2552000  3
   5291   5295   5297   5299     1  180.0000771  2.0083200  2
   5291   5295   5297   5299     1  0.0000000  1.2552000  3
   5295   5296   5308   5311     1  0.0000000  0.6508444  3
   5295   5297   5299   5303     1  0.0000000  0.6508444  3
   5296   5295   5297   5299     1  180.0000771  2.0083200  2
   5296   5295   5297   5299     1  0.0000000  1.2552000  3
   5296   5308   5311   5312     1  180.0000771  0.0000000  2
   5296   5308   5311   5313     1  180.0000771  0.0000000  2
   5297   5295   5296   5308     1  180.0000771  2.0083200  2
   5297   5295   5296   5308     1  0.0000000  1.2552000  3
   5297   5299   5303   5304     1  180.0000771  0.0000000  2
   5297   5299   5303   5305     1  180.0000771  0.0000000  2
   5316   5318   5320   5324     1  0.0000000  0.6508444  3
   5318   5320   5324   5325     1  180.0000771  2.0083200  2
   5318   5320   5324   5325     1  0.0000000  1.2552000  3
   5318   5320   5324   5326     1  180.0000771  2.0083200  2
   5318   5320   5324   5326     1  0.0000000  1.2552000  3
   5320   5324   5325   5337     1  180.0000771  2.0083200  2
   5320   5324   5325   5337     1  0.0000000  1.2552000  3
   5320   5324   5326   5328     1  180.0000771  2.0083200  2
   5320   5324   5326   5328     1  0.0000000  1.2552000  3
   5324   5325   5337   5340     1  0.0000000  0.6508444  3
   5324   5326   5328   5332     1  0.0000000  0.6508444  3
   5325   5337   5340   5341     1  180.0000771  0.0000000  2
   5325   5337   5340   5342     1  180.0000771  0.0000000  2
   5325   5324   5326   5328     1  180.0000771  2.0083200  2
   5325   5324   5326   5328     1  0.0000000  1.2552000  3
   5326   5328   5332   5333     1  180.0000771  0.0000000  2
   5326   5328   5332   5334     1  180.0000771  0.0000000  2
   5326   5324   5325   5337     1  180.0000771  2.0083200  2
   5326   5324   5325   5337     1  0.0000000  1.2552000  3
   5345   5347   5349   5353     1  0.0000000  0.6508444  3
   5347   5349   5353   5354     1  180.0000771  2.0083200  2
   5347   5349   5353   5354     1  0.0000000  1.2552000  3
   5347   5349   5353   5355     1  180.0000771  2.0083200  2
   5347   5349   5353   5355     1  0.0000000  1.2552000  3
   5349   5353   5354   5366     1  180.0000771  2.0083200  2
   5349   5353   5354   5366     1  0.0000000  1.2552000  3
   5349   5353   5355   5357     1  180.0000771  2.0083200  2
   5349   5353   5355   5357     1  0.0000000  1.2552000  3
   5353   5354   5366   5369     1  0.0000000  0.6508444  3
   5353   5355   5357   5361     1  0.0000000  0.6508444  3
   5354   5353   5355   5357     1  180.0000771  2.0083200  2
   5354   5353   5355   5357     1  0.0000000  1.2552000  3
   5354   5366   5369   5370     1  180.0000771  0.0000000  2
   5354   5366   5369   5371     1  180.0000771  0.0000000  2
   5355   5353   5354   5366     1  180.0000771  2.0083200  2
   5355   5353   5354   5366     1  0.0000000  1.2552000  3
   5355   5357   5361   5362     1  180.0000771  0.0000000  2
   5355   5357   5361   5363     1  180.0000771  0.0000000  2
   5374   5376   5378   5382     1  0.0000000  0.6508444  3
   5376   5378   5382   5383     1  180.0000771  2.0083200  2
   5376   5378   5382   5383     1  0.0000000  1.2552000  3
   5376   5378   5382   5384     1  180.0000771  2.0083200  2
   5376   5378   5382   5384     1  0.0000000  1.2552000  3
   5378   5382   5383   5395     1  180.0000771  2.0083200  2
   5378   5382   5383   5395     1  0.0000000  1.2552000  3
   5378   5382   5384   5386     1  180.0000771  2.0083200  2
   5378   5382   5384   5386     1  0.0000000  1.2552000  3
   5382   5383   5395   5398     1  0.0000000  0.6508444  3
   5382   5384   5386   5390     1  0.0000000  0.6508444  3
   5383   5395   5398   5399     1  180.0000771  0.0000000  2
   5383   5395   5398   5400     1  180.0000771  0.0000000  2
   5383   5382   5384   5386     1  180.0000771  2.0083200  2
   5383   5382   5384   5386     1  0.0000000  1.2552000  3
   5384   5386   5390   5391     1  180.0000771  0.0000000  2
   5384   5386   5390   5392     1  180.0000771  0.0000000  2
   5384   5382   5383   5395     1  180.0000771  2.0083200  2
   5384   5382   5383   5395     1  0.0000000  1.2552000  3
   5403   5405   5407   5411     1  0.0000000  0.6508444  3
   5405   5407   5411   5412     1  180.0000771  2.0083200  2
   5405   5407   5411   5412     1  0.0000000  1.2552000  3
   5405   5407   5411   5413     1  180.0000771  2.0083200  2
   5405   5407   5411   5413     1  0.0000000  1.2552000  3
   5407   5411   5412   5424     1  180.0000771  2.0083200  2
   5407   5411   5412   5424     1  0.0000000  1.2552000  3
   5407   5411   5413   5415     1  180.0000771  2.0083200  2
   5407   5411   5413   5415     1  0.0000000  1.2552000  3
   5411   5412   5424   5427     1  0.0000000  0.6508444  3
   5411   5413   5415   5419     1  0.0000000  0.6508444  3
   5412   5411   5413   5415     1  180.0000771  2.0083200  2
   5412   5411   5413   5415     1  0.0000000  1.2552000  3
   5412   5424   5427   5428     1  180.0000771  0.0000000  2
   5412   5424   5427   5429     1  180.0000771  0.0000000  2
   5413   5411   5412   5424     1  180.0000771  2.0083200  2
   5413   5411   5412   5424     1  0.0000000  1.2552000  3
   5413   5415   5419   5420     1  180.0000771  0.0000000  2
   5413   5415   5419   5421     1  180.0000771  0.0000000  2
   5432   5434   5436   5440     1  0.0000000  0.6508444  3
   5434   5436   5440   5441     1  180.0000771  2.0083200  2
   5434   5436   5440   5441     1  0.0000000  1.2552000  3
   5434   5436   5440   5442     1  180.0000771  2.0083200  2
   5434   5436   5440   5442     1  0.0000000  1.2552000  3
   5436   5440   5441   5453     1  180.0000771  2.0083200  2
   5436   5440   5441   5453     1  0.0000000  1.2552000  3
   5436   5440   5442   5444     1  180.0000771  2.0083200  2
   5436   5440   5442   5444     1  0.0000000  1.2552000  3
   5440   5441   5453   5456     1  0.0000000  0.6508444  3
   5440   5442   5444   5448     1  0.0000000  0.6508444  3
   5441   5453   5456   5457     1  180.0000771  0.0000000  2
   5441   5453   5456   5458     1  180.0000771  0.0000000  2
   5441   5440   5442   5444     1  180.0000771  2.0083200  2
   5441   5440   5442   5444     1  0.0000000  1.2552000  3
   5442   5444   5448   5449     1  180.0000771  0.0000000  2
   5442   5444   5448   5450     1  180.0000771  0.0000000  2
   5442   5440   5441   5453     1  180.0000771  2.0083200  2
   5442   5440   5441   5453     1  0.0000000  1.2552000  3
   5461   5463   5465   5469     1  0.0000000  0.6508444  3
   5463   5465   5469   5470     1  180.0000771  2.0083200  2
   5463   5465   5469   5470     1  0.0000000  1.2552000  3
   5463   5465   5469   5471     1  180.0000771  2.0083200  2
   5463   5465   5469   5471     1  0.0000000  1.2552000  3
   5465   5469   5470   5482     1  180.0000771  2.0083200  2
   5465   5469   5470   5482     1  0.0000000  1.2552000  3
   5465   5469   5471   5473     1  180.0000771  2.0083200  2
   5465   5469   5471   5473     1  0.0000000  1.2552000  3
   5469   5470   5482   5485     1  0.0000000  0.6508444  3
   5469   5471   5473   5477     1  0.0000000  0.6508444  3
   5470   5469   5471   5473     1  180.0000771  2.0083200  2
   5470   5469   5471   5473     1  0.0000000  1.2552000  3
   5470   5482   5485   5486     1  180.0000771  0.0000000  2
   5470   5482   5485   5487     1  180.0000771  0.0000000  2
   5471   5469   5470   5482     1  180.0000771  2.0083200  2
   5471   5469   5470   5482     1  0.0000000  1.2552000  3
   5471   5473   5477   5478     1  180.0000771  0.0000000  2
   5471   5473   5477   5479     1  180.0000771  0.0000000  2
   5490   5492   5494   5498     1  0.0000000  0.6508444  3
   5492   5494   5498   5499     1  180.0000771  2.0083200  2
   5492   5494   5498   5499     1  0.0000000  1.2552000  3
   5492   5494   5498   5500     1  180.0000771  2.0083200  2
   5492   5494   5498   5500     1  0.0000000  1.2552000  3
   5494   5498   5499   5511     1  180.0000771  2.0083200  2
   5494   5498   5499   5511     1  0.0000000  1.2552000  3
   5494   5498   5500   5502     1  180.0000771  2.0083200  2
   5494   5498   5500   5502     1  0.0000000  1.2552000  3
   5498   5499   5511   5514     1  0.0000000  0.6508444  3
   5498   5500   5502   5506     1  0.0000000  0.6508444  3
   5499   5511   5514   5515     1  180.0000771  0.0000000  2
   5499   5511   5514   5516     1  180.0000771  0.0000000  2
   5499   5498   5500   5502     1  180.0000771  2.0083200  2
   5499   5498   5500   5502     1  0.0000000  1.2552000  3
   5500   5502   5506   5507     1  180.0000771  0.0000000  2
   5500   5502   5506   5508     1  180.0000771  0.0000000  2
   5500   5498   5499   5511     1  180.0000771  2.0083200  2
   5500   5498   5499   5511     1  0.0000000  1.2552000  3
   5519   5521   5523   5527     1  0.0000000  0.6508444  3
   5521   5523   5527   5528     1  180.0000771  2.0083200  2
   5521   5523   5527   5528     1  0.0000000  1.2552000  3
   5521   5523   5527   5529     1  180.0000771  2.0083200  2
   5521   5523   5527   5529     1  0.0000000  1.2552000  3
   5523   5527   5528   5540     1  180.0000771  2.0083200  2
   5523   5527   5528   5540     1  0.0000000  1.2552000  3
   5523   5527   5529   5531     1  180.0000771  2.0083200  2
   5523   5527   5529   5531     1  0.0000000  1.2552000  3
   5527   5528   5540   5543     1  0.0000000  0.6508444  3
   5527   5529   5531   5535     1  0.0000000  0.6508444  3
   5528   5527   5529   5531     1  180.0000771  2.0083200  2
   5528   5527   5529   5531     1  0.0000000  1.2552000  3
   5528   5540   5543   5544     1  180.0000771  0.0000000  2
   5528   5540   5543   5545     1  180.0000771  0.0000000  2
   5529   5527   5528   5540     1  180.0000771  2.0083200  2
   5529   5527   5528   5540     1  0.0000000  1.2552000  3
   5529   5531   5535   5536     1  180.0000771  0.0000000  2
   5529   5531   5535   5537     1  180.0000771  0.0000000  2
   5548   5550   5552   5556     1  0.0000000  0.6508444  3
   5550   5552   5556   5557     1  180.0000771  2.0083200  2
   5550   5552   5556   5557     1  0.0000000  1.2552000  3
   5550   5552   5556   5558     1  180.0000771  2.0083200  2
   5550   5552   5556   5558     1  0.0000000  1.2552000  3
   5552   5556   5557   5569     1  180.0000771  2.0083200  2
   5552   5556   5557   5569     1  0.0000000  1.2552000  3
   5552   5556   5558   5560     1  180.0000771  2.0083200  2
   5552   5556   5558   5560     1  0.0000000  1.2552000  3
   5556   5557   5569   5572     1  0.0000000  0.6508444  3
   5556   5558   5560   5564     1  0.0000000  0.6508444  3
   5557   5569   5572   5573     1  180.0000771  0.0000000  2
   5557   5569   5572   5574     1  180.0000771  0.0000000  2
   5557   5556   5558   5560     1  180.0000771  2.0083200  2
   5557   5556   5558   5560     1  0.0000000  1.2552000  3
   5558   5560   5564   5565     1  180.0000771  0.0000000  2
   5558   5560   5564   5566     1  180.0000771  0.0000000  2
   5558   5556   5557   5569     1  180.0000771  2.0083200  2
   5558   5556   5557   5569     1  0.0000000  1.2552000  3
   5577   5579   5581   5585     1  0.0000000  0.6508444  3
   5579   5581   5585   5586     1  180.0000771  2.0083200  2
   5579   5581   5585   5586     1  0.0000000  1.2552000  3
   5579   5581   5585   5587     1  180.0000771  2.0083200  2
   5579   5581   5585   5587     1  0.0000000  1.2552000  3
   5581   5585   5586   5598     1  180.0000771  2.0083200  2
   5581   5585   5586   5598     1  0.0000000  1.2552000  3
   5581   5585   5587   5589     1  180.0000771  2.0083200  2
   5581   5585   5587   5589     1  0.0000000  1.2552000  3
   5585   5586   5598   5601     1  0.0000000  0.6508444  3
   5585   5587   5589   5593     1  0.0000000  0.6508444  3
   5586   5585   5587   5589     1  180.0000771  2.0083200  2
   5586   5585   5587   5589     1  0.0000000  1.2552000  3
   5586   5598   5601   5602     1  180.0000771  0.0000000  2
   5586   5598   5601   5603     1  180.0000771  0.0000000  2
   5587   5585   5586   5598     1  180.0000771  2.0083200  2
   5587   5585   5586   5598     1  0.0000000  1.2552000  3
   5587   5589   5593   5594     1  180.0000771  0.0000000  2
   5587   5589   5593   5595     1  180.0000771  0.0000000  2
   5606   5608   5610   5614     1  0.0000000  0.6508444  3
   5608   5610   5614   5615     1  180.0000771  2.0083200  2
   5608   5610   5614   5615     1  0.0000000  1.2552000  3
   5608   5610   5614   5616     1  180.0000771  2.0083200  2
   5608   5610   5614   5616     1  0.0000000  1.2552000  3
   5610   5614   5615   5627     1  180.0000771  2.0083200  2
   5610   5614   5615   5627     1  0.0000000  1.2552000  3
   5610   5614   5616   5618     1  180.0000771  2.0083200  2
   5610   5614   5616   5618     1  0.0000000  1.2552000  3
   5614   5615   5627   5630     1  0.0000000  0.6508444  3
   5614   5616   5618   5622     1  0.0000000  0.6508444  3
   5615   5627   5630   5631     1  180.0000771  0.0000000  2
   5615   5627   5630   5632     1  180.0000771  0.0000000  2
   5615   5614   5616   5618     1  180.0000771  2.0083200  2
   5615   5614   5616   5618     1  0.0000000  1.2552000  3
   5616   5618   5622   5623     1  180.0000771  0.0000000  2
   5616   5618   5622   5624     1  180.0000771  0.0000000  2
   5616   5614   5615   5627     1  180.0000771  2.0083200  2
   5616   5614   5615   5627     1  0.0000000  1.2552000  3
   5635   5637   5639   5643     1  0.0000000  0.6508444  3
   5637   5639   5643   5644     1  180.0000771  2.0083200  2
   5637   5639   5643   5644     1  0.0000000  1.2552000  3
   5637   5639   5643   5645     1  180.0000771  2.0083200  2
   5637   5639   5643   5645     1  0.0000000  1.2552000  3
   5639   5643   5644   5656     1  180.0000771  2.0083200  2
   5639   5643   5644   5656     1  0.0000000  1.2552000  3
   5639   5643   5645   5647     1  180.0000771  2.0083200  2
   5639   5643   5645   5647     1  0.0000000  1.2552000  3
   5643   5644   5656   5659     1  0.0000000  0.6508444  3
   5643   5645   5647   5651     1  0.0000000  0.6508444  3
   5644   5643   5645   5647     1  180.0000771  2.0083200  2
   5644   5643   5645   5647     1  0.0000000  1.2552000  3
   5644   5656   5659   5660     1  180.0000771  0.0000000  2
   5644   5656   5659   5661     1  180.0000771  0.0000000  2
   5645   5643   5644   5656     1  180.0000771  2.0083200  2
   5645   5643   5644   5656     1  0.0000000  1.2552000  3
   5645   5647   5651   5652     1  180.0000771  0.0000000  2
   5645   5647   5651   5653     1  180.0000771  0.0000000  2
   5664   5666   5668   5672     1  0.0000000  0.6508444  3
   5666   5668   5672   5673     1  180.0000771  2.0083200  2
   5666   5668   5672   5673     1  0.0000000  1.2552000  3
   5666   5668   5672   5674     1  180.0000771  2.0083200  2
   5666   5668   5672   5674     1  0.0000000  1.2552000  3
   5668   5672   5673   5685     1  180.0000771  2.0083200  2
   5668   5672   5673   5685     1  0.0000000  1.2552000  3
   5668   5672   5674   5676     1  180.0000771  2.0083200  2
   5668   5672   5674   5676     1  0.0000000  1.2552000  3
   5672   5673   5685   5688     1  0.0000000  0.6508444  3
   5672   5674   5676   5680     1  0.0000000  0.6508444  3
   5673   5685   5688   5689     1  180.0000771  0.0000000  2
   5673   5685   5688   5690     1  180.0000771  0.0000000  2
   5673   5672   5674   5676     1  180.0000771  2.0083200  2
   5673   5672   5674   5676     1  0.0000000  1.2552000  3
   5674   5676   5680   5681     1  180.0000771  0.0000000  2
   5674   5676   5680   5682     1  180.0000771  0.0000000  2
   5674   5672   5673   5685     1  180.0000771  2.0083200  2
   5674   5672   5673   5685     1  0.0000000  1.2552000  3
   5693   5695   5697   5701     1  0.0000000  0.6508444  3
   5695   5697   5701   5702     1  180.0000771  2.0083200  2
   5695   5697   5701   5702     1  0.0000000  1.2552000  3
   5695   5697   5701   5703     1  180.0000771  2.0083200  2
   5695   5697   5701   5703     1  0.0000000  1.2552000  3
   5697   5701   5702   5714     1  180.0000771  2.0083200  2
   5697   5701   5702   5714     1  0.0000000  1.2552000  3
   5697   5701   5703   5705     1  180.0000771  2.0083200  2
   5697   5701   5703   5705     1  0.0000000  1.2552000  3
   5701   5702   5714   5717     1  0.0000000  0.6508444  3
   5701   5703   5705   5709     1  0.0000000  0.6508444  3
   5702   5701   5703   5705     1  180.0000771  2.0083200  2
   5702   5701   5703   5705     1  0.0000000  1.2552000  3
   5702   5714   5717   5718     1  180.0000771  0.0000000  2
   5702   5714   5717   5719     1  180.0000771  0.0000000  2
   5703   5701   5702   5714     1  180.0000771  2.0083200  2
   5703   5701   5702   5714     1  0.0000000  1.2552000  3
   5703   5705   5709   5710     1  180.0000771  0.0000000  2
   5703   5705   5709   5711     1  180.0000771  0.0000000  2
   5722   5724   5726   5730     1  0.0000000  0.6508444  3
   5724   5726   5730   5731     1  180.0000771  2.0083200  2
   5724   5726   5730   5731     1  0.0000000  1.2552000  3
   5724   5726   5730   5732     1  180.0000771  2.0083200  2
   5724   5726   5730   5732     1  0.0000000  1.2552000  3
   5726   5730   5731   5743     1  180.0000771  2.0083200  2
   5726   5730   5731   5743     1  0.0000000  1.2552000  3
   5726   5730   5732   5734     1  180.0000771  2.0083200  2
   5726   5730   5732   5734     1  0.0000000  1.2552000  3
   5730   5731   5743   5746     1  0.0000000  0.6508444  3
   5730   5732   5734   5738     1  0.0000000  0.6508444  3
   5731   5743   5746   5747     1  180.0000771  0.0000000  2
   5731   5743   5746   5748     1  180.0000771  0.0000000  2
   5731   5730   5732   5734     1  180.0000771  2.0083200  2
   5731   5730   5732   5734     1  0.0000000  1.2552000  3
   5732   5734   5738   5739     1  180.0000771  0.0000000  2
   5732   5734   5738   5740     1  180.0000771  0.0000000  2
   5732   5730   5731   5743     1  180.0000771  2.0083200  2
   5732   5730   5731   5743     1  0.0000000  1.2552000  3
   5751   5753   5755   5759     1  0.0000000  0.6508444  3
   5753   5755   5759   5760     1  180.0000771  2.0083200  2
   5753   5755   5759   5760     1  0.0000000  1.2552000  3
   5753   5755   5759   5761     1  180.0000771  2.0083200  2
   5753   5755   5759   5761     1  0.0000000  1.2552000  3
   5755   5759   5760   5772     1  180.0000771  2.0083200  2
   5755   5759   5760   5772     1  0.0000000  1.2552000  3
   5755   5759   5761   5763     1  180.0000771  2.0083200  2
   5755   5759   5761   5763     1  0.0000000  1.2552000  3
   5759   5760   5772   5775     1  0.0000000  0.6508444  3
   5759   5761   5763   5767     1  0.0000000  0.6508444  3
   5760   5759   5761   5763     1  180.0000771  2.0083200  2
   5760   5759   5761   5763     1  0.0000000  1.2552000  3
   5760   5772   5775   5776     1  180.0000771  0.0000000  2
   5760   5772   5775   5777     1  180.0000771  0.0000000  2
   5761   5759   5760   5772     1  180.0000771  2.0083200  2
   5761   5759   5760   5772     1  0.0000000  1.2552000  3
   5761   5763   5767   5768     1  180.0000771  0.0000000  2
   5761   5763   5767   5769     1  180.0000771  0.0000000  2
   5780   5782   5784   5788     1  0.0000000  0.6508444  3
   5782   5784   5788   5789     1  180.0000771  2.0083200  2
   5782   5784   5788   5789     1  0.0000000  1.2552000  3
   5782   5784   5788   5790     1  180.0000771  2.0083200  2
   5782   5784   5788   5790     1  0.0000000  1.2552000  3
   5784   5788   5789   5801     1  180.0000771  2.0083200  2
   5784   5788   5789   5801     1  0.0000000  1.2552000  3
   5784   5788   5790   5792     1  180.0000771  2.0083200  2
   5784   5788   5790   5792     1  0.0000000  1.2552000  3
   5788   5789   5801   5804     1  0.0000000  0.6508444  3
   5788   5790   5792   5796     1  0.0000000  0.6508444  3
   5789   5801   5804   5805     1  180.0000771  0.0000000  2
   5789   5801   5804   5806     1  180.0000771  0.0000000  2
   5789   5788   5790   5792     1  180.0000771  2.0083200  2
   5789   5788   5790   5792     1  0.0000000  1.2552000  3
   5790   5792   5796   5797     1  180.0000771  0.0000000  2
   5790   5792   5796   5798     1  180.0000771  0.0000000  2
   5790   5788   5789   5801     1  180.0000771  2.0083200  2
   5790   5788   5789   5801     1  0.0000000  1.2552000  3
   5809   5811   5813   5817     1  0.0000000  0.6508444  3
   5811   5813   5817   5818     1  180.0000771  2.0083200  2
   5811   5813   5817   5818     1  0.0000000  1.2552000  3
   5811   5813   5817   5819     1  180.0000771  2.0083200  2
   5811   5813   5817   5819     1  0.0000000  1.2552000  3
   5813   5817   5818   5830     1  180.0000771  2.0083200  2
   5813   5817   5818   5830     1  0.0000000  1.2552000  3
   5813   5817   5819   5821     1  180.0000771  2.0083200  2
   5813   5817   5819   5821     1  0.0000000  1.2552000  3
   5817   5818   5830   5833     1  0.0000000  0.6508444  3
   5817   5819   5821   5825     1  0.0000000  0.6508444  3
   5818   5817   5819   5821     1  180.0000771  2.0083200  2
   5818   5817   5819   5821     1  0.0000000  1.2552000  3
   5818   5830   5833   5834     1  180.0000771  0.0000000  2
   5818   5830   5833   5835     1  180.0000771  0.0000000  2
   5819   5817   5818   5830     1  180.0000771  2.0083200  2
   5819   5817   5818   5830     1  0.0000000  1.2552000  3
   5819   5821   5825   5826     1  180.0000771  0.0000000  2
   5819   5821   5825   5827     1  180.0000771  0.0000000  2
   5838   5840   5842   5846     1  0.0000000  0.6508444  3
   5840   5842   5846   5847     1  180.0000771  2.0083200  2
   5840   5842   5846   5847     1  0.0000000  1.2552000  3
   5840   5842   5846   5848     1  180.0000771  2.0083200  2
   5840   5842   5846   5848     1  0.0000000  1.2552000  3
   5842   5846   5847   5859     1  180.0000771  2.0083200  2
   5842   5846   5847   5859     1  0.0000000  1.2552000  3
   5842   5846   5848   5850     1  180.0000771  2.0083200  2
   5842   5846   5848   5850     1  0.0000000  1.2552000  3
   5846   5847   5859   5862     1  0.0000000  0.6508444  3
   5846   5848   5850   5854     1  0.0000000  0.6508444  3
   5847   5859   5862   5863     1  180.0000771  0.0000000  2
   5847   5859   5862   5864     1  180.0000771  0.0000000  2
   5847   5846   5848   5850     1  180.0000771  2.0083200  2
   5847   5846   5848   5850     1  0.0000000  1.2552000  3
   5848   5850   5854   5855     1  180.0000771  0.0000000  2
   5848   5850   5854   5856     1  180.0000771  0.0000000  2
   5848   5846   5847   5859     1  180.0000771  2.0083200  2
   5848   5846   5847   5859     1  0.0000000  1.2552000  3
   5867   5869   5871   5875     1  0.0000000  0.6508444  3
   5869   5871   5875   5876     1  180.0000771  2.0083200  2
   5869   5871   5875   5876     1  0.0000000  1.2552000  3
   5869   5871   5875   5877     1  180.0000771  2.0083200  2
   5869   5871   5875   5877     1  0.0000000  1.2552000  3
   5871   5875   5876   5888     1  180.0000771  2.0083200  2
   5871   5875   5876   5888     1  0.0000000  1.2552000  3
   5871   5875   5877   5879     1  180.0000771  2.0083200  2
   5871   5875   5877   5879     1  0.0000000  1.2552000  3
   5875   5876   5888   5891     1  0.0000000  0.6508444  3
   5875   5877   5879   5883     1  0.0000000  0.6508444  3
   5876   5875   5877   5879     1  180.0000771  2.0083200  2
   5876   5875   5877   5879     1  0.0000000  1.2552000  3
   5876   5888   5891   5892     1  180.0000771  0.0000000  2
   5876   5888   5891   5893     1  180.0000771  0.0000000  2
   5877   5875   5876   5888     1  180.0000771  2.0083200  2
   5877   5875   5876   5888     1  0.0000000  1.2552000  3
   5877   5879   5883   5884     1  180.0000771  0.0000000  2
   5877   5879   5883   5885     1  180.0000771  0.0000000  2
   5896   5898   5900   5904     1  0.0000000  0.6508444  3
   5898   5900   5904   5905     1  180.0000771  2.0083200  2
   5898   5900   5904   5905     1  0.0000000  1.2552000  3
   5898   5900   5904   5906     1  180.0000771  2.0083200  2
   5898   5900   5904   5906     1  0.0000000  1.2552000  3
   5900   5904   5905   5917     1  180.0000771  2.0083200  2
   5900   5904   5905   5917     1  0.0000000  1.2552000  3
   5900   5904   5906   5908     1  180.0000771  2.0083200  2
   5900   5904   5906   5908     1  0.0000000  1.2552000  3
   5904   5905   5917   5920     1  0.0000000  0.6508444  3
   5904   5906   5908   5912     1  0.0000000  0.6508444  3
   5905   5917   5920   5921     1  180.0000771  0.0000000  2
   5905   5917   5920   5922     1  180.0000771  0.0000000  2
   5905   5904   5906   5908     1  180.0000771  2.0083200  2
   5905   5904   5906   5908     1  0.0000000  1.2552000  3
   5906   5908   5912   5913     1  180.0000771  0.0000000  2
   5906   5908   5912   5914     1  180.0000771  0.0000000  2
   5906   5904   5905   5917     1  180.0000771  2.0083200  2
   5906   5904   5905   5917     1  0.0000000  1.2552000  3
   5925   5927   5929   5933     1  0.0000000  0.6508444  3
   5927   5929   5933   5934     1  180.0000771  2.0083200  2
   5927   5929   5933   5934     1  0.0000000  1.2552000  3
   5927   5929   5933   5935     1  180.0000771  2.0083200  2
   5927   5929   5933   5935     1  0.0000000  1.2552000  3
   5929   5933   5934   5946     1  180.0000771  2.0083200  2
   5929   5933   5934   5946     1  0.0000000  1.2552000  3
   5929   5933   5935   5937     1  180.0000771  2.0083200  2
   5929   5933   5935   5937     1  0.0000000  1.2552000  3
   5933   5934   5946   5949     1  0.0000000  0.6508444  3
   5933   5935   5937   5941     1  0.0000000  0.6508444  3
   5934   5933   5935   5937     1  180.0000771  2.0083200  2
   5934   5933   5935   5937     1  0.0000000  1.2552000  3
   5934   5946   5949   5950     1  180.0000771  0.0000000  2
   5934   5946   5949   5951     1  180.0000771  0.0000000  2
   5935   5933   5934   5946     1  180.0000771  2.0083200  2
   5935   5933   5934   5946     1  0.0000000  1.2552000  3
   5935   5937   5941   5942     1  180.0000771  0.0000000  2
   5935   5937   5941   5943     1  180.0000771  0.0000000  2
   5954   5956   5958   5962     1  0.0000000  0.6508444  3
   5956   5958   5962   5963     1  180.0000771  2.0083200  2
   5956   5958   5962   5963     1  0.0000000  1.2552000  3
   5956   5958   5962   5964     1  180.0000771  2.0083200  2
   5956   5958   5962   5964     1  0.0000000  1.2552000  3
   5958   5962   5963   5975     1  180.0000771  2.0083200  2
   5958   5962   5963   5975     1  0.0000000  1.2552000  3
   5958   5962   5964   5966     1  180.0000771  2.0083200  2
   5958   5962   5964   5966     1  0.0000000  1.2552000  3
   5962   5963   5975   5978     1  0.0000000  0.6508444  3
   5962   5964   5966   5970     1  0.0000000  0.6508444  3
   5963   5975   5978   5979     1  180.0000771  0.0000000  2
   5963   5975   5978   5980     1  180.0000771  0.0000000  2
   5963   5962   5964   5966     1  180.0000771  2.0083200  2
   5963   5962   5964   5966     1  0.0000000  1.2552000  3
   5964   5966   5970   5971     1  180.0000771  0.0000000  2
   5964   5966   5970   5972     1  180.0000771  0.0000000  2
   5964   5962   5963   5975     1  180.0000771  2.0083200  2
   5964   5962   5963   5975     1  0.0000000  1.2552000  3
   5983   5985   5987   5991     1  0.0000000  0.6508444  3
   5985   5987   5991   5992     1  180.0000771  2.0083200  2
   5985   5987   5991   5992     1  0.0000000  1.2552000  3
   5985   5987   5991   5993     1  180.0000771  2.0083200  2
   5985   5987   5991   5993     1  0.0000000  1.2552000  3
   5987   5991   5992   6004     1  180.0000771  2.0083200  2
   5987   5991   5992   6004     1  0.0000000  1.2552000  3
   5987   5991   5993   5995     1  180.0000771  2.0083200  2
   5987   5991   5993   5995     1  0.0000000  1.2552000  3
   5991   5992   6004   6007     1  0.0000000  0.6508444  3
   5991   5993   5995   5999     1  0.0000000  0.6508444  3
   5992   5991   5993   5995     1  180.0000771  2.0083200  2
   5992   5991   5993   5995     1  0.0000000  1.2552000  3
   5992   6004   6007   6008     1  180.0000771  0.0000000  2
   5992   6004   6007   6009     1  180.0000771  0.0000000  2
   5993   5991   5992   6004     1  180.0000771  2.0083200  2
   5993   5991   5992   6004     1  0.0000000  1.2552000  3
   5993   5995   5999   6000     1  180.0000771  0.0000000  2
   5993   5995   5999   6001     1  180.0000771  0.0000000  2
   6012   6014   6016   6020     1  0.0000000  0.6508444  3
   6014   6016   6020   6021     1  180.0000771  2.0083200  2
   6014   6016   6020   6021     1  0.0000000  1.2552000  3
   6014   6016   6020   6022     1  180.0000771  2.0083200  2
   6014   6016   6020   6022     1  0.0000000  1.2552000  3
   6016   6020   6021   6033     1  180.0000771  2.0083200  2
   6016   6020   6021   6033     1  0.0000000  1.2552000  3
   6016   6020   6022   6024     1  180.0000771  2.0083200  2
   6016   6020   6022   6024     1  0.0000000  1.2552000  3
   6020   6021   6033   6036     1  0.0000000  0.6508444  3
   6020   6022   6024   6028     1  0.0000000  0.6508444  3
   6021   6033   6036   6037     1  180.0000771  0.0000000  2
   6021   6033   6036   6038     1  180.0000771  0.0000000  2
   6021   6020   6022   6024     1  180.0000771  2.0083200  2
   6021   6020   6022   6024     1  0.0000000  1.2552000  3
   6022   6024   6028   6029     1  180.0000771  0.0000000  2
   6022   6024   6028   6030     1  180.0000771  0.0000000  2
   6022   6020   6021   6033     1  180.0000771  2.0083200  2
   6022   6020   6021   6033     1  0.0000000  1.2552000  3
   6041   6043   6045   6049     1  0.0000000  0.6508444  3
   6043   6045   6049   6050     1  180.0000771  2.0083200  2
   6043   6045   6049   6050     1  0.0000000  1.2552000  3
   6043   6045   6049   6051     1  180.0000771  2.0083200  2
   6043   6045   6049   6051     1  0.0000000  1.2552000  3
   6045   6049   6050   6062     1  180.0000771  2.0083200  2
   6045   6049   6050   6062     1  0.0000000  1.2552000  3
   6045   6049   6051   6053     1  180.0000771  2.0083200  2
   6045   6049   6051   6053     1  0.0000000  1.2552000  3
   6049   6050   6062   6065     1  0.0000000  0.6508444  3
   6049   6051   6053   6057     1  0.0000000  0.6508444  3
   6050   6049   6051   6053     1  180.0000771  2.0083200  2
   6050   6049   6051   6053     1  0.0000000  1.2552000  3
   6050   6062   6065   6066     1  180.0000771  0.0000000  2
   6050   6062   6065   6067     1  180.0000771  0.0000000  2
   6051   6049   6050   6062     1  180.0000771  2.0083200  2
   6051   6049   6050   6062     1  0.0000000  1.2552000  3
   6051   6053   6057   6058     1  180.0000771  0.0000000  2
   6051   6053   6057   6059     1  180.0000771  0.0000000  2
   6070   6072   6074   6078     1  0.0000000  0.6508444  3
   6072   6074   6078   6079     1  180.0000771  2.0083200  2
   6072   6074   6078   6079     1  0.0000000  1.2552000  3
   6072   6074   6078   6080     1  180.0000771  2.0083200  2
   6072   6074   6078   6080     1  0.0000000  1.2552000  3
   6074   6078   6079   6091     1  180.0000771  2.0083200  2
   6074   6078   6079   6091     1  0.0000000  1.2552000  3
   6074   6078   6080   6082     1  180.0000771  2.0083200  2
   6074   6078   6080   6082     1  0.0000000  1.2552000  3
   6078   6079   6091   6094     1  0.0000000  0.6508444  3
   6078   6080   6082   6086     1  0.0000000  0.6508444  3
   6079   6091   6094   6095     1  180.0000771  0.0000000  2
   6079   6091   6094   6096     1  180.0000771  0.0000000  2
   6079   6078   6080   6082     1  180.0000771  2.0083200  2
   6079   6078   6080   6082     1  0.0000000  1.2552000  3
   6080   6082   6086   6087     1  180.0000771  0.0000000  2
   6080   6082   6086   6088     1  180.0000771  0.0000000  2
   6080   6078   6079   6091     1  180.0000771  2.0083200  2
   6080   6078   6079   6091     1  0.0000000  1.2552000  3
   6099   6101   6103   6107     1  0.0000000  0.6508444  3
   6101   6103   6107   6108     1  180.0000771  2.0083200  2
   6101   6103   6107   6108     1  0.0000000  1.2552000  3
   6101   6103   6107   6109     1  180.0000771  2.0083200  2
   6101   6103   6107   6109     1  0.0000000  1.2552000  3
   6103   6107   6108   6120     1  180.0000771  2.0083200  2
   6103   6107   6108   6120     1  0.0000000  1.2552000  3
   6103   6107   6109   6111     1  180.0000771  2.0083200  2
   6103   6107   6109   6111     1  0.0000000  1.2552000  3
   6107   6108   6120   6123     1  0.0000000  0.6508444  3
   6107   6109   6111   6115     1  0.0000000  0.6508444  3
   6108   6107   6109   6111     1  180.0000771  2.0083200  2
   6108   6107   6109   6111     1  0.0000000  1.2552000  3
   6108   6120   6123   6124     1  180.0000771  0.0000000  2
   6108   6120   6123   6125     1  180.0000771  0.0000000  2
   6109   6107   6108   6120     1  180.0000771  2.0083200  2
   6109   6107   6108   6120     1  0.0000000  1.2552000  3
   6109   6111   6115   6116     1  180.0000771  0.0000000  2
   6109   6111   6115   6117     1  180.0000771  0.0000000  2
   6128   6130   6132   6136     1  0.0000000  0.6508444  3
   6130   6132   6136   6137     1  180.0000771  2.0083200  2
   6130   6132   6136   6137     1  0.0000000  1.2552000  3
   6130   6132   6136   6138     1  180.0000771  2.0083200  2
   6130   6132   6136   6138     1  0.0000000  1.2552000  3
   6132   6136   6137   6149     1  180.0000771  2.0083200  2
   6132   6136   6137   6149     1  0.0000000  1.2552000  3
   6132   6136   6138   6140     1  180.0000771  2.0083200  2
   6132   6136   6138   6140     1  0.0000000  1.2552000  3
   6136   6137   6149   6152     1  0.0000000  0.6508444  3
   6136   6138   6140   6144     1  0.0000000  0.6508444  3
   6137   6149   6152   6153     1  180.0000771  0.0000000  2
   6137   6149   6152   6154     1  180.0000771  0.0000000  2
   6137   6136   6138   6140     1  180.0000771  2.0083200  2
   6137   6136   6138   6140     1  0.0000000  1.2552000  3
   6138   6140   6144   6145     1  180.0000771  0.0000000  2
   6138   6140   6144   6146     1  180.0000771  0.0000000  2
   6138   6136   6137   6149     1  180.0000771  2.0083200  2
   6138   6136   6137   6149     1  0.0000000  1.2552000  3
   6157   6159   6161   6165     1  0.0000000  0.6508444  3
   6159   6161   6165   6166     1  180.0000771  2.0083200  2
   6159   6161   6165   6166     1  0.0000000  1.2552000  3
   6159   6161   6165   6167     1  180.0000771  2.0083200  2
   6159   6161   6165   6167     1  0.0000000  1.2552000  3
   6161   6165   6166   6178     1  180.0000771  2.0083200  2
   6161   6165   6166   6178     1  0.0000000  1.2552000  3
   6161   6165   6167   6169     1  180.0000771  2.0083200  2
   6161   6165   6167   6169     1  0.0000000  1.2552000  3
   6165   6166   6178   6181     1  0.0000000  0.6508444  3
   6165   6167   6169   6173     1  0.0000000  0.6508444  3
   6166   6165   6167   6169     1  180.0000771  2.0083200  2
   6166   6165   6167   6169     1  0.0000000  1.2552000  3
   6166   6178   6181   6182     1  180.0000771  0.0000000  2
   6166   6178   6181   6183     1  180.0000771  0.0000000  2
   6167   6165   6166   6178     1  180.0000771  2.0083200  2
   6167   6165   6166   6178     1  0.0000000  1.2552000  3
   6167   6169   6173   6174     1  180.0000771  0.0000000  2
   6167   6169   6173   6175     1  180.0000771  0.0000000  2
   6186   6188   6190   6194     1  0.0000000  0.6508444  3
   6188   6190   6194   6195     1  180.0000771  2.0083200  2
   6188   6190   6194   6195     1  0.0000000  1.2552000  3
   6188   6190   6194   6196     1  180.0000771  2.0083200  2
   6188   6190   6194   6196     1  0.0000000  1.2552000  3
   6190   6194   6195   6207     1  180.0000771  2.0083200  2
   6190   6194   6195   6207     1  0.0000000  1.2552000  3
   6190   6194   6196   6198     1  180.0000771  2.0083200  2
   6190   6194   6196   6198     1  0.0000000  1.2552000  3
   6194   6195   6207   6210     1  0.0000000  0.6508444  3
   6194   6196   6198   6202     1  0.0000000  0.6508444  3
   6195   6207   6210   6211     1  180.0000771  0.0000000  2
   6195   6207   6210   6212     1  180.0000771  0.0000000  2
   6195   6194   6196   6198     1  180.0000771  2.0083200  2
   6195   6194   6196   6198     1  0.0000000  1.2552000  3
   6196   6198   6202   6203     1  180.0000771  0.0000000  2
   6196   6198   6202   6204     1  180.0000771  0.0000000  2
   6196   6194   6195   6207     1  180.0000771  2.0083200  2
   6196   6194   6195   6207     1  0.0000000  1.2552000  3
   6215   6217   6219   6223     1  0.0000000  0.6508444  3
   6217   6219   6223   6224     1  180.0000771  2.0083200  2
   6217   6219   6223   6224     1  0.0000000  1.2552000  3
   6217   6219   6223   6225     1  180.0000771  2.0083200  2
   6217   6219   6223   6225     1  0.0000000  1.2552000  3
   6219   6223   6224   6236     1  180.0000771  2.0083200  2
   6219   6223   6224   6236     1  0.0000000  1.2552000  3
   6219   6223   6225   6227     1  180.0000771  2.0083200  2
   6219   6223   6225   6227     1  0.0000000  1.2552000  3
   6223   6224   6236   6239     1  0.0000000  0.6508444  3
   6223   6225   6227   6231     1  0.0000000  0.6508444  3
   6224   6223   6225   6227     1  180.0000771  2.0083200  2
   6224   6223   6225   6227     1  0.0000000  1.2552000  3
   6224   6236   6239   6240     1  180.0000771  0.0000000  2
   6224   6236   6239   6241     1  180.0000771  0.0000000  2
   6225   6223   6224   6236     1  180.0000771  2.0083200  2
   6225   6223   6224   6236     1  0.0000000  1.2552000  3
   6225   6227   6231   6232     1  180.0000771  0.0000000  2
   6225   6227   6231   6233     1  180.0000771  0.0000000  2
   6244   6246   6248   6252     1  0.0000000  0.6508444  3
   6246   6248   6252   6253     1  180.0000771  2.0083200  2
   6246   6248   6252   6253     1  0.0000000  1.2552000  3
   6246   6248   6252   6254     1  180.0000771  2.0083200  2
   6246   6248   6252   6254     1  0.0000000  1.2552000  3
   6248   6252   6253   6265     1  180.0000771  2.0083200  2
   6248   6252   6253   6265     1  0.0000000  1.2552000  3
   6248   6252   6254   6256     1  180.0000771  2.0083200  2
   6248   6252   6254   6256     1  0.0000000  1.2552000  3
   6252   6253   6265   6268     1  0.0000000  0.6508444  3
   6252   6254   6256   6260     1  0.0000000  0.6508444  3
   6253   6265   6268   6269     1  180.0000771  0.0000000  2
   6253   6265   6268   6270     1  180.0000771  0.0000000  2
   6253   6252   6254   6256     1  180.0000771  2.0083200  2
   6253   6252   6254   6256     1  0.0000000  1.2552000  3
   6254   6256   6260   6261     1  180.0000771  0.0000000  2
   6254   6256   6260   6262     1  180.0000771  0.0000000  2
   6254   6252   6253   6265     1  180.0000771  2.0083200  2
   6254   6252   6253   6265     1  0.0000000  1.2552000  3
   6273   6275   6277   6281     1  0.0000000  0.6508444  3
   6275   6277   6281   6282     1  180.0000771  2.0083200  2
   6275   6277   6281   6282     1  0.0000000  1.2552000  3
   6275   6277   6281   6283     1  180.0000771  2.0083200  2
   6275   6277   6281   6283     1  0.0000000  1.2552000  3
   6277   6281   6282   6294     1  180.0000771  2.0083200  2
   6277   6281   6282   6294     1  0.0000000  1.2552000  3
   6277   6281   6283   6285     1  180.0000771  2.0083200  2
   6277   6281   6283   6285     1  0.0000000  1.2552000  3
   6281   6282   6294   6297     1  0.0000000  0.6508444  3
   6281   6283   6285   6289     1  0.0000000  0.6508444  3
   6282   6281   6283   6285     1  180.0000771  2.0083200  2
   6282   6281   6283   6285     1  0.0000000  1.2552000  3
   6282   6294   6297   6298     1  180.0000771  0.0000000  2
   6282   6294   6297   6299     1  180.0000771  0.0000000  2
   6283   6281   6282   6294     1  180.0000771  2.0083200  2
   6283   6281   6282   6294     1  0.0000000  1.2552000  3
   6283   6285   6289   6290     1  180.0000771  0.0000000  2
   6283   6285   6289   6291     1  180.0000771  0.0000000  2
   6302   6304   6306   6310     1  0.0000000  0.6508444  3
   6304   6306   6310   6311     1  180.0000771  2.0083200  2
   6304   6306   6310   6311     1  0.0000000  1.2552000  3
   6304   6306   6310   6312     1  180.0000771  2.0083200  2
   6304   6306   6310   6312     1  0.0000000  1.2552000  3
   6306   6310   6311   6323     1  180.0000771  2.0083200  2
   6306   6310   6311   6323     1  0.0000000  1.2552000  3
   6306   6310   6312   6314     1  180.0000771  2.0083200  2
   6306   6310   6312   6314     1  0.0000000  1.2552000  3
   6310   6311   6323   6326     1  0.0000000  0.6508444  3
   6310   6312   6314   6318     1  0.0000000  0.6508444  3
   6311   6323   6326   6327     1  180.0000771  0.0000000  2
   6311   6323   6326   6328     1  180.0000771  0.0000000  2
   6311   6310   6312   6314     1  180.0000771  2.0083200  2
   6311   6310   6312   6314     1  0.0000000  1.2552000  3
   6312   6314   6318   6319     1  180.0000771  0.0000000  2
   6312   6314   6318   6320     1  180.0000771  0.0000000  2
   6312   6310   6311   6323     1  180.0000771  2.0083200  2
   6312   6310   6311   6323     1  0.0000000  1.2552000  3
   6331   6333   6335   6339     1  0.0000000  0.6508444  3
   6333   6335   6339   6340     1  180.0000771  2.0083200  2
   6333   6335   6339   6340     1  0.0000000  1.2552000  3
   6333   6335   6339   6341     1  180.0000771  2.0083200  2
   6333   6335   6339   6341     1  0.0000000  1.2552000  3
   6335   6339   6340   6352     1  180.0000771  2.0083200  2
   6335   6339   6340   6352     1  0.0000000  1.2552000  3
   6335   6339   6341   6343     1  180.0000771  2.0083200  2
   6335   6339   6341   6343     1  0.0000000  1.2552000  3
   6339   6340   6352   6355     1  0.0000000  0.6508444  3
   6339   6341   6343   6347     1  0.0000000  0.6508444  3
   6340   6339   6341   6343     1  180.0000771  2.0083200  2
   6340   6339   6341   6343     1  0.0000000  1.2552000  3
   6340   6352   6355   6356     1  180.0000771  0.0000000  2
   6340   6352   6355   6357     1  180.0000771  0.0000000  2
   6341   6339   6340   6352     1  180.0000771  2.0083200  2
   6341   6339   6340   6352     1  0.0000000  1.2552000  3
   6341   6343   6347   6348     1  180.0000771  0.0000000  2
   6341   6343   6347   6349     1  180.0000771  0.0000000  2
   6360   6362   6364   6368     1  0.0000000  0.6508444  3
   6362   6364   6368   6369     1  180.0000771  2.0083200  2
   6362   6364   6368   6369     1  0.0000000  1.2552000  3
   6362   6364   6368   6370     1  180.0000771  2.0083200  2
   6362   6364   6368   6370     1  0.0000000  1.2552000  3
   6364   6368   6369   6381     1  180.0000771  2.0083200  2
   6364   6368   6369   6381     1  0.0000000  1.2552000  3
   6364   6368   6370   6372     1  180.0000771  2.0083200  2
   6364   6368   6370   6372     1  0.0000000  1.2552000  3
   6368   6369   6381   6384     1  0.0000000  0.6508444  3
   6368   6370   6372   6376     1  0.0000000  0.6508444  3
   6369   6381   6384   6385     1  180.0000771  0.0000000  2
   6369   6381   6384   6386     1  180.0000771  0.0000000  2
   6369   6368   6370   6372     1  180.0000771  2.0083200  2
   6369   6368   6370   6372     1  0.0000000  1.2552000  3
   6370   6372   6376   6377     1  180.0000771  0.0000000  2
   6370   6372   6376   6378     1  180.0000771  0.0000000  2
   6370   6368   6369   6381     1  180.0000771  2.0083200  2
   6370   6368   6369   6381     1  0.0000000  1.2552000  3
   6389   6391   6393   6397     1  0.0000000  0.6508444  3
   6391   6393   6397   6398     1  180.0000771  2.0083200  2
   6391   6393   6397   6398     1  0.0000000  1.2552000  3
   6391   6393   6397   6399     1  180.0000771  2.0083200  2
   6391   6393   6397   6399     1  0.0000000  1.2552000  3
   6393   6397   6398   6410     1  180.0000771  2.0083200  2
   6393   6397   6398   6410     1  0.0000000  1.2552000  3
   6393   6397   6399   6401     1  180.0000771  2.0083200  2
   6393   6397   6399   6401     1  0.0000000  1.2552000  3
   6397   6398   6410   6413     1  0.0000000  0.6508444  3
   6397   6399   6401   6405     1  0.0000000  0.6508444  3
   6398   6397   6399   6401     1  180.0000771  2.0083200  2
   6398   6397   6399   6401     1  0.0000000  1.2552000  3
   6398   6410   6413   6414     1  180.0000771  0.0000000  2
   6398   6410   6413   6415     1  180.0000771  0.0000000  2
   6399   6397   6398   6410     1  180.0000771  2.0083200  2
   6399   6397   6398   6410     1  0.0000000  1.2552000  3
   6399   6401   6405   6406     1  180.0000771  0.0000000  2
   6399   6401   6405   6407     1  180.0000771  0.0000000  2
   6418   6420   6422   6426     1  0.0000000  0.6508444  3
   6420   6422   6426   6427     1  180.0000771  2.0083200  2
   6420   6422   6426   6427     1  0.0000000  1.2552000  3
   6420   6422   6426   6428     1  180.0000771  2.0083200  2
   6420   6422   6426   6428     1  0.0000000  1.2552000  3
   6422   6426   6427   6439     1  180.0000771  2.0083200  2
   6422   6426   6427   6439     1  0.0000000  1.2552000  3
   6422   6426   6428   6430     1  180.0000771  2.0083200  2
   6422   6426   6428   6430     1  0.0000000  1.2552000  3
   6426   6427   6439   6442     1  0.0000000  0.6508444  3
   6426   6428   6430   6434     1  0.0000000  0.6508444  3
   6427   6439   6442   6443     1  180.0000771  0.0000000  2
   6427   6439   6442   6444     1  180.0000771  0.0000000  2
   6427   6426   6428   6430     1  180.0000771  2.0083200  2
   6427   6426   6428   6430     1  0.0000000  1.2552000  3
   6428   6430   6434   6435     1  180.0000771  0.0000000  2
   6428   6430   6434   6436     1  180.0000771  0.0000000  2
   6428   6426   6427   6439     1  180.0000771  2.0083200  2
   6428   6426   6427   6439     1  0.0000000  1.2552000  3
   6447   6449   6451   6455     1  0.0000000  0.6508444  3
   6449   6451   6455   6456     1  180.0000771  2.0083200  2
   6449   6451   6455   6456     1  0.0000000  1.2552000  3
   6449   6451   6455   6457     1  180.0000771  2.0083200  2
   6449   6451   6455   6457     1  0.0000000  1.2552000  3
   6451   6455   6456   6468     1  180.0000771  2.0083200  2
   6451   6455   6456   6468     1  0.0000000  1.2552000  3
   6451   6455   6457   6459     1  180.0000771  2.0083200  2
   6451   6455   6457   6459     1  0.0000000  1.2552000  3
   6455   6456   6468   6471     1  0.0000000  0.6508444  3
   6455   6457   6459   6463     1  0.0000000  0.6508444  3
   6456   6455   6457   6459     1  180.0000771  2.0083200  2
   6456   6455   6457   6459     1  0.0000000  1.2552000  3
   6456   6468   6471   6472     1  180.0000771  0.0000000  2
   6456   6468   6471   6473     1  180.0000771  0.0000000  2
   6457   6455   6456   6468     1  180.0000771  2.0083200  2
   6457   6455   6456   6468     1  0.0000000  1.2552000  3
   6457   6459   6463   6464     1  180.0000771  0.0000000  2
   6457   6459   6463   6465     1  180.0000771  0.0000000  2
   6476   6478   6480   6484     1  0.0000000  0.6508444  3
   6478   6480   6484   6485     1  180.0000771  2.0083200  2
   6478   6480   6484   6485     1  0.0000000  1.2552000  3
   6478   6480   6484   6486     1  180.0000771  2.0083200  2
   6478   6480   6484   6486     1  0.0000000  1.2552000  3
   6480   6484   6485   6497     1  180.0000771  2.0083200  2
   6480   6484   6485   6497     1  0.0000000  1.2552000  3
   6480   6484   6486   6488     1  180.0000771  2.0083200  2
   6480   6484   6486   6488     1  0.0000000  1.2552000  3
   6484   6485   6497   6500     1  0.0000000  0.6508444  3
   6484   6486   6488   6492     1  0.0000000  0.6508444  3
   6485   6497   6500   6501     1  180.0000771  0.0000000  2
   6485   6497   6500   6502     1  180.0000771  0.0000000  2
   6485   6484   6486   6488     1  180.0000771  2.0083200  2
   6485   6484   6486   6488     1  0.0000000  1.2552000  3
   6486   6488   6492   6493     1  180.0000771  0.0000000  2
   6486   6488   6492   6494     1  180.0000771  0.0000000  2
   6486   6484   6485   6497     1  180.0000771  2.0083200  2
   6486   6484   6485   6497     1  0.0000000  1.2552000  3
   6505   6507   6509   6513     1  0.0000000  0.6508444  3
   6507   6509   6513   6514     1  180.0000771  2.0083200  2
   6507   6509   6513   6514     1  0.0000000  1.2552000  3
   6507   6509   6513   6515     1  180.0000771  2.0083200  2
   6507   6509   6513   6515     1  0.0000000  1.2552000  3
   6509   6513   6514   6526     1  180.0000771  2.0083200  2
   6509   6513   6514   6526     1  0.0000000  1.2552000  3
   6509   6513   6515   6517     1  180.0000771  2.0083200  2
   6509   6513   6515   6517     1  0.0000000  1.2552000  3
   6513   6514   6526   6529     1  0.0000000  0.6508444  3
   6513   6515   6517   6521     1  0.0000000  0.6508444  3
   6514   6513   6515   6517     1  180.0000771  2.0083200  2
   6514   6513   6515   6517     1  0.0000000  1.2552000  3
   6514   6526   6529   6530     1  180.0000771  0.0000000  2
   6514   6526   6529   6531     1  180.0000771  0.0000000  2
   6515   6513   6514   6526     1  180.0000771  2.0083200  2
   6515   6513   6514   6526     1  0.0000000  1.2552000  3
   6515   6517   6521   6522     1  180.0000771  0.0000000  2
   6515   6517   6521   6523     1  180.0000771  0.0000000  2
   6534   6536   6538   6542     1  0.0000000  0.6508444  3
   6536   6538   6542   6543     1  180.0000771  2.0083200  2
   6536   6538   6542   6543     1  0.0000000  1.2552000  3
   6536   6538   6542   6544     1  180.0000771  2.0083200  2
   6536   6538   6542   6544     1  0.0000000  1.2552000  3
   6538   6542   6543   6555     1  180.0000771  2.0083200  2
   6538   6542   6543   6555     1  0.0000000  1.2552000  3
   6538   6542   6544   6546     1  180.0000771  2.0083200  2
   6538   6542   6544   6546     1  0.0000000  1.2552000  3
   6542   6543   6555   6558     1  0.0000000  0.6508444  3
   6542   6544   6546   6550     1  0.0000000  0.6508444  3
   6543   6555   6558   6559     1  180.0000771  0.0000000  2
   6543   6555   6558   6560     1  180.0000771  0.0000000  2
   6543   6542   6544   6546     1  180.0000771  2.0083200  2
   6543   6542   6544   6546     1  0.0000000  1.2552000  3
   6544   6546   6550   6551     1  180.0000771  0.0000000  2
   6544   6546   6550   6552     1  180.0000771  0.0000000  2
   6544   6542   6543   6555     1  180.0000771  2.0083200  2
   6544   6542   6543   6555     1  0.0000000  1.2552000  3
   6563   6565   6567   6571     1  0.0000000  0.6508444  3
   6565   6567   6571   6572     1  180.0000771  2.0083200  2
   6565   6567   6571   6572     1  0.0000000  1.2552000  3
   6565   6567   6571   6573     1  180.0000771  2.0083200  2
   6565   6567   6571   6573     1  0.0000000  1.2552000  3
   6567   6571   6572   6584     1  180.0000771  2.0083200  2
   6567   6571   6572   6584     1  0.0000000  1.2552000  3
   6567   6571   6573   6575     1  180.0000771  2.0083200  2
   6567   6571   6573   6575     1  0.0000000  1.2552000  3
   6571   6572   6584   6587     1  0.0000000  0.6508444  3
   6571   6573   6575   6579     1  0.0000000  0.6508444  3
   6572   6571   6573   6575     1  180.0000771  2.0083200  2
   6572   6571   6573   6575     1  0.0000000  1.2552000  3
   6572   6584   6587   6588     1  180.0000771  0.0000000  2
   6572   6584   6587   6589     1  180.0000771  0.0000000  2
   6573   6571   6572   6584     1  180.0000771  2.0083200  2
   6573   6571   6572   6584     1  0.0000000  1.2552000  3
   6573   6575   6579   6580     1  180.0000771  0.0000000  2
   6573   6575   6579   6581     1  180.0000771  0.0000000  2
   6592   6594   6596   6600     1  0.0000000  0.6508444  3
   6594   6596   6600   6601     1  180.0000771  2.0083200  2
   6594   6596   6600   6601     1  0.0000000  1.2552000  3
   6594   6596   6600   6602     1  180.0000771  2.0083200  2
   6594   6596   6600   6602     1  0.0000000  1.2552000  3
   6596   6600   6601   6613     1  180.0000771  2.0083200  2
   6596   6600   6601   6613     1  0.0000000  1.2552000  3
   6596   6600   6602   6604     1  180.0000771  2.0083200  2
   6596   6600   6602   6604     1  0.0000000  1.2552000  3
   6600   6601   6613   6616     1  0.0000000  0.6508444  3
   6600   6602   6604   6608     1  0.0000000  0.6508444  3
   6601   6613   6616   6617     1  180.0000771  0.0000000  2
   6601   6613   6616   6618     1  180.0000771  0.0000000  2
   6601   6600   6602   6604     1  180.0000771  2.0083200  2
   6601   6600   6602   6604     1  0.0000000  1.2552000  3
   6602   6604   6608   6609     1  180.0000771  0.0000000  2
   6602   6604   6608   6610     1  180.0000771  0.0000000  2
   6602   6600   6601   6613     1  180.0000771  2.0083200  2
   6602   6600   6601   6613     1  0.0000000  1.2552000  3
   6621   6623   6625   6629     1  0.0000000  0.6508444  3
   6623   6625   6629   6630     1  180.0000771  2.0083200  2
   6623   6625   6629   6630     1  0.0000000  1.2552000  3
   6623   6625   6629   6631     1  180.0000771  2.0083200  2
   6623   6625   6629   6631     1  0.0000000  1.2552000  3
   6625   6629   6630   6642     1  180.0000771  2.0083200  2
   6625   6629   6630   6642     1  0.0000000  1.2552000  3
   6625   6629   6631   6633     1  180.0000771  2.0083200  2
   6625   6629   6631   6633     1  0.0000000  1.2552000  3
   6629   6630   6642   6645     1  0.0000000  0.6508444  3
   6629   6631   6633   6637     1  0.0000000  0.6508444  3
   6630   6629   6631   6633     1  180.0000771  2.0083200  2
   6630   6629   6631   6633     1  0.0000000  1.2552000  3
   6630   6642   6645   6646     1  180.0000771  0.0000000  2
   6630   6642   6645   6647     1  180.0000771  0.0000000  2
   6631   6629   6630   6642     1  180.0000771  2.0083200  2
   6631   6629   6630   6642     1  0.0000000  1.2552000  3
   6631   6633   6637   6638     1  180.0000771  0.0000000  2
   6631   6633   6637   6639     1  180.0000771  0.0000000  2
   6650   6652   6654   6658     1  0.0000000  0.6508444  3
   6652   6654   6658   6659     1  180.0000771  2.0083200  2
   6652   6654   6658   6659     1  0.0000000  1.2552000  3
   6652   6654   6658   6660     1  180.0000771  2.0083200  2
   6652   6654   6658   6660     1  0.0000000  1.2552000  3
   6654   6658   6659   6671     1  180.0000771  2.0083200  2
   6654   6658   6659   6671     1  0.0000000  1.2552000  3
   6654   6658   6660   6662     1  180.0000771  2.0083200  2
   6654   6658   6660   6662     1  0.0000000  1.2552000  3
   6658   6659   6671   6674     1  0.0000000  0.6508444  3
   6658   6660   6662   6666     1  0.0000000  0.6508444  3
   6659   6671   6674   6675     1  180.0000771  0.0000000  2
   6659   6671   6674   6676     1  180.0000771  0.0000000  2
   6659   6658   6660   6662     1  180.0000771  2.0083200  2
   6659   6658   6660   6662     1  0.0000000  1.2552000  3
   6660   6662   6666   6667     1  180.0000771  0.0000000  2
   6660   6662   6666   6668     1  180.0000771  0.0000000  2
   6660   6658   6659   6671     1  180.0000771  2.0083200  2
   6660   6658   6659   6671     1  0.0000000  1.2552000  3
   6679   6681   6683   6687     1  0.0000000  0.6508444  3
   6681   6683   6687   6688     1  180.0000771  2.0083200  2
   6681   6683   6687   6688     1  0.0000000  1.2552000  3
   6681   6683   6687   6689     1  180.0000771  2.0083200  2
   6681   6683   6687   6689     1  0.0000000  1.2552000  3
   6683   6687   6688   6700     1  180.0000771  2.0083200  2
   6683   6687   6688   6700     1  0.0000000  1.2552000  3
   6683   6687   6689   6691     1  180.0000771  2.0083200  2
   6683   6687   6689   6691     1  0.0000000  1.2552000  3
   6687   6688   6700   6703     1  0.0000000  0.6508444  3
   6687   6689   6691   6695     1  0.0000000  0.6508444  3
   6688   6687   6689   6691     1  180.0000771  2.0083200  2
   6688   6687   6689   6691     1  0.0000000  1.2552000  3
   6688   6700   6703   6704     1  180.0000771  0.0000000  2
   6688   6700   6703   6705     1  180.0000771  0.0000000  2
   6689   6687   6688   6700     1  180.0000771  2.0083200  2
   6689   6687   6688   6700     1  0.0000000  1.2552000  3
   6689   6691   6695   6696     1  180.0000771  0.0000000  2
   6689   6691   6695   6697     1  180.0000771  0.0000000  2
   6708   6710   6712   6716     1  0.0000000  0.6508444  3
   6710   6712   6716   6717     1  180.0000771  2.0083200  2
   6710   6712   6716   6717     1  0.0000000  1.2552000  3
   6710   6712   6716   6718     1  180.0000771  2.0083200  2
   6710   6712   6716   6718     1  0.0000000  1.2552000  3
   6712   6716   6717   6729     1  180.0000771  2.0083200  2
   6712   6716   6717   6729     1  0.0000000  1.2552000  3
   6712   6716   6718   6720     1  180.0000771  2.0083200  2
   6712   6716   6718   6720     1  0.0000000  1.2552000  3
   6716   6717   6729   6732     1  0.0000000  0.6508444  3
   6716   6718   6720   6724     1  0.0000000  0.6508444  3
   6717   6729   6732   6733     1  180.0000771  0.0000000  2
   6717   6729   6732   6734     1  180.0000771  0.0000000  2
   6717   6716   6718   6720     1  180.0000771  2.0083200  2
   6717   6716   6718   6720     1  0.0000000  1.2552000  3
   6718   6720   6724   6725     1  180.0000771  0.0000000  2
   6718   6720   6724   6726     1  180.0000771  0.0000000  2
   6718   6716   6717   6729     1  180.0000771  2.0083200  2
   6718   6716   6717   6729     1  0.0000000  1.2552000  3
   6737   6739   6741   6745     1  0.0000000  0.6508444  3
   6739   6741   6745   6746     1  180.0000771  2.0083200  2
   6739   6741   6745   6746     1  0.0000000  1.2552000  3
   6739   6741   6745   6747     1  180.0000771  2.0083200  2
   6739   6741   6745   6747     1  0.0000000  1.2552000  3
   6741   6745   6746   6758     1  180.0000771  2.0083200  2
   6741   6745   6746   6758     1  0.0000000  1.2552000  3
   6741   6745   6747   6749     1  180.0000771  2.0083200  2
   6741   6745   6747   6749     1  0.0000000  1.2552000  3
   6745   6746   6758   6761     1  0.0000000  0.6508444  3
   6745   6747   6749   6753     1  0.0000000  0.6508444  3
   6746   6745   6747   6749     1  180.0000771  2.0083200  2
   6746   6745   6747   6749     1  0.0000000  1.2552000  3
   6746   6758   6761   6762     1  180.0000771  0.0000000  2
   6746   6758   6761   6763     1  180.0000771  0.0000000  2
   6747   6745   6746   6758     1  180.0000771  2.0083200  2
   6747   6745   6746   6758     1  0.0000000  1.2552000  3
   6747   6749   6753   6754     1  180.0000771  0.0000000  2
   6747   6749   6753   6755     1  180.0000771  0.0000000  2
   6766   6768   6770   6774     1  0.0000000  0.6508444  3
   6768   6770   6774   6775     1  180.0000771  2.0083200  2
   6768   6770   6774   6775     1  0.0000000  1.2552000  3
   6768   6770   6774   6776     1  180.0000771  2.0083200  2
   6768   6770   6774   6776     1  0.0000000  1.2552000  3
   6770   6774   6775   6787     1  180.0000771  2.0083200  2
   6770   6774   6775   6787     1  0.0000000  1.2552000  3
   6770   6774   6776   6778     1  180.0000771  2.0083200  2
   6770   6774   6776   6778     1  0.0000000  1.2552000  3
   6774   6775   6787   6790     1  0.0000000  0.6508444  3
   6774   6776   6778   6782     1  0.0000000  0.6508444  3
   6775   6787   6790   6791     1  180.0000771  0.0000000  2
   6775   6787   6790   6792     1  180.0000771  0.0000000  2
   6775   6774   6776   6778     1  180.0000771  2.0083200  2
   6775   6774   6776   6778     1  0.0000000  1.2552000  3
   6776   6778   6782   6783     1  180.0000771  0.0000000  2
   6776   6778   6782   6784     1  180.0000771  0.0000000  2
   6776   6774   6775   6787     1  180.0000771  2.0083200  2
   6776   6774   6775   6787     1  0.0000000  1.2552000  3
   6795   6797   6799   6803     1  0.0000000  0.6508444  3
   6797   6799   6803   6804     1  180.0000771  2.0083200  2
   6797   6799   6803   6804     1  0.0000000  1.2552000  3
   6797   6799   6803   6805     1  180.0000771  2.0083200  2
   6797   6799   6803   6805     1  0.0000000  1.2552000  3
   6799   6803   6804   6816     1  180.0000771  2.0083200  2
   6799   6803   6804   6816     1  0.0000000  1.2552000  3
   6799   6803   6805   6807     1  180.0000771  2.0083200  2
   6799   6803   6805   6807     1  0.0000000  1.2552000  3
   6803   6804   6816   6819     1  0.0000000  0.6508444  3
   6803   6805   6807   6811     1  0.0000000  0.6508444  3
   6804   6803   6805   6807     1  180.0000771  2.0083200  2
   6804   6803   6805   6807     1  0.0000000  1.2552000  3
   6804   6816   6819   6820     1  180.0000771  0.0000000  2
   6804   6816   6819   6821     1  180.0000771  0.0000000  2
   6805   6803   6804   6816     1  180.0000771  2.0083200  2
   6805   6803   6804   6816     1  0.0000000  1.2552000  3
   6805   6807   6811   6812     1  180.0000771  0.0000000  2
   6805   6807   6811   6813     1  180.0000771  0.0000000  2
   6824   6826   6828   6832     1  0.0000000  0.6508444  3
   6826   6828   6832   6833     1  180.0000771  2.0083200  2
   6826   6828   6832   6833     1  0.0000000  1.2552000  3
   6826   6828   6832   6834     1  180.0000771  2.0083200  2
   6826   6828   6832   6834     1  0.0000000  1.2552000  3
   6828   6832   6833   6845     1  180.0000771  2.0083200  2
   6828   6832   6833   6845     1  0.0000000  1.2552000  3
   6828   6832   6834   6836     1  180.0000771  2.0083200  2
   6828   6832   6834   6836     1  0.0000000  1.2552000  3
   6832   6833   6845   6848     1  0.0000000  0.6508444  3
   6832   6834   6836   6840     1  0.0000000  0.6508444  3
   6833   6845   6848   6849     1  180.0000771  0.0000000  2
   6833   6845   6848   6850     1  180.0000771  0.0000000  2
   6833   6832   6834   6836     1  180.0000771  2.0083200  2
   6833   6832   6834   6836     1  0.0000000  1.2552000  3
   6834   6836   6840   6841     1  180.0000771  0.0000000  2
   6834   6836   6840   6842     1  180.0000771  0.0000000  2
   6834   6832   6833   6845     1  180.0000771  2.0083200  2
   6834   6832   6833   6845     1  0.0000000  1.2552000  3
     27     64     33     37     4  180.0000771  43.9320000  2
     30     89     34     40     4  180.0000771  43.9320000  2
     21    114     35     38     4  180.0000771  43.9320000  2
     24    139     36     39     4  180.0000771  43.9320000  2
     54    164     60     62     4  180.0000771  43.9320000  2
     57    189     61     63     4  180.0000771  43.9320000  2
     79    214     85     87     4  180.0000771  43.9320000  2
     82    239     86     88     4  180.0000771  43.9320000  2
    104    264    110    112     4  180.0000771  43.9320000  2
    107    289    111    113     4  180.0000771  43.9320000  2
    129    314    135    137     4  180.0000771  43.9320000  2
    132    339    136    138     4  180.0000771  43.9320000  2
    154    364    160    162     4  180.0000771  43.9320000  2
    157    389    161    163     4  180.0000771  43.9320000  2
    179    414    185    187     4  180.0000771  43.9320000  2
    182    439    186    188     4  180.0000771  43.9320000  2
    204    464    210    212     4  180.0000771  43.9320000  2
    207    489    211    213     4  180.0000771  43.9320000  2
    229    514    235    237     4  180.0000771  43.9320000  2
    232    539    236    238     4  180.0000771  43.9320000  2
    254    564    260    262     4  180.0000771  43.9320000  2
    257    589    261    263     4  180.0000771  43.9320000  2
    279    614    285    287     4  180.0000771  43.9320000  2
    282    639    286    288     4  180.0000771  43.9320000  2
    304    664    310    312     4  180.0000771  43.9320000  2
    307    689    311    313     4  180.0000771  43.9320000  2
    329    714    335    337     4  180.0000771  43.9320000  2
    332    739    336    338     4  180.0000771  43.9320000  2
    354    764    360    362     4  180.0000771  43.9320000  2
    357    789    361    363     4  180.0000771  43.9320000  2
    379    814    385    387     4  180.0000771  43.9320000  2
    382    839    386    388     4  180.0000771  43.9320000  2
    404    864    410    412     4  180.0000771  43.9320000  2
    407    889    411    413     4  180.0000771  43.9320000  2
    429    914    435    437     4  180.0000771  43.9320000  2
    432    939    436    438     4  180.0000771  43.9320000  2
    454    964    460    462     4  180.0000771  43.9320000  2
    457    989    461    463     4  180.0000771  43.9320000  2
    479   1014    485    487     4  180.0000771  43.9320000  2
    482   1039    486    488     4  180.0000771  43.9320000  2
    504   1064    510    512     4  180.0000771  43.9320000  2
    507   1089    511    513     4  180.0000771  43.9320000  2
    529   1114    535    537     4  180.0000771  43.9320000  2
    532   1139    536    538     4  180.0000771  43.9320000  2
    554   1164    560    562     4  180.0000771  43.9320000  2
    557   1189    561    563     4  180.0000771  43.9320000  2
    579   1214    585    587     4  180.0000771  43.9320000  2
    582   1239    586    588     4  180.0000771  43.9320000  2
    604   1264    610    612     4  180.0000771  43.9320000  2
    607   1289    611    613     4  180.0000771  43.9320000  2
    629   1314    635    637     4  180.0000771  43.9320000  2
    632   1339    636    638     4  180.0000771  43.9320000  2
    654   1364    660    662     4  180.0000771  43.9320000  2
    657   1389    661    663     4  180.0000771  43.9320000  2
    679   1414    685    687     4  180.0000771  43.9320000  2
    682   1439    686    688     4  180.0000771  43.9320000  2
    704   1464    710    712     4  180.0000771  43.9320000  2
    707   1489    711    713     4  180.0000771  43.9320000  2
    729   1514    735    737     4  180.0000771  43.9320000  2
    732   1539    736    738     4  180.0000771  43.9320000  2
    754   1564    760    762     4  180.0000771  43.9320000  2
    757   1589    761    763     4  180.0000771  43.9320000  2
    779   1614    785    787     4  180.0000771  43.9320000  2
    782   1639    786    788     4  180.0000771  43.9320000  2
    804   1664    810    812     4  180.0000771  43.9320000  2
    807   1689    811    813     4  180.0000771  43.9320000  2
    829   1714    835    837     4  180.0000771  43.9320000  2
    832   1739    836    838     4  180.0000771  43.9320000  2
    854   1764    860    862     4  180.0000771  43.9320000  2
    857   1789    861    863     4  180.0000771  43.9320000  2
    879   1814    885    887     4  180.0000771  43.9320000  2
    882   1839    886    888     4  180.0000771  43.9320000  2
    904   1864    910    912     4  180.0000771  43.9320000  2
    907   1889    911    913     4  180.0000771  43.9320000  2
    929   1914    935    937     4  180.0000771  43.9320000  2
    932   1939    936    938     4  180.0000771  43.9320000  2
    954   1964    960    962     4  180.0000771  43.9320000  2
    957   1989    961    963     4  180.0000771  43.9320000  2
    979   2014    985    987     4  180.0000771  43.9320000  2
    982   2039    986    988     4  180.0000771  43.9320000  2
   1004   2064   1010   1012     4  180.0000771  43.9320000  2
   1007   2089   1011   1013     4  180.0000771  43.9320000  2
   1029   2114   1035   1037     4  180.0000771  43.9320000  2
   1032   2139   1036   1038     4  180.0000771  43.9320000  2
   1054   2164   1060   1062     4  180.0000771  43.9320000  2
   1057   2189   1061   1063     4  180.0000771  43.9320000  2
   1079   2214   1085   1087     4  180.0000771  43.9320000  2
   1082   2239   1086   1088     4  180.0000771  43.9320000  2
   1104   2264   1110   1112     4  180.0000771  43.9320000  2
   1107   2289   1111   1113     4  180.0000771  43.9320000  2
   1129   2314   1135   1137     4  180.0000771  43.9320000  2
   1132   2339   1136   1138     4  180.0000771  43.9320000  2
   1154   2364   1160   1162     4  180.0000771  43.9320000  2
   1157   2389   1161   1163     4  180.0000771  43.9320000  2
   1179   2414   1185   1187     4  180.0000771  43.9320000  2
   1182   2439   1186   1188     4  180.0000771  43.9320000  2
   1204   2464   1210   1212     4  180.0000771  43.9320000  2
   1207   2489   1211   1213     4  180.0000771  43.9320000  2
   1229   2514   1235   1237     4  180.0000771  43.9320000  2
   1232   2539   1236   1238     4  180.0000771  43.9320000  2
   1254   2564   1260   1262     4  180.0000771  43.9320000  2
   1257   2589   1261   1263     4  180.0000771  43.9320000  2
   1279   2614   1285   1287     4  180.0000771  43.9320000  2
   1282   2639   1286   1288     4  180.0000771  43.9320000  2
   1304   2664   1310   1312     4  180.0000771  43.9320000  2
   1307   2689   1311   1313     4  180.0000771  43.9320000  2
   1329   2714   1335   1337     4  180.0000771  43.9320000  2
   1332   2739   1336   1338     4  180.0000771  43.9320000  2
   1354   2764   1360   1362     4  180.0000771  43.9320000  2
   1357   2789   1361   1363     4  180.0000771  43.9320000  2
   1379   2814   1385   1387     4  180.0000771  43.9320000  2
   1382   2839   1386   1388     4  180.0000771  43.9320000  2
   1404   2864   1410   1412     4  180.0000771  43.9320000  2
   1407   2889   1411   1413     4  180.0000771  43.9320000  2
   1429   2914   1435   1437     4  180.0000771  43.9320000  2
   1432   2939   1436   1438     4  180.0000771  43.9320000  2
   1454   2964   1460   1462     4  180.0000771  43.9320000  2
   1457   2989   1461   1463     4  180.0000771  43.9320000  2
   1479   3014   1485   1487     4  180.0000771  43.9320000  2
   1482   3039   1486   1488     4  180.0000771  43.9320000  2
   1504   3064   1510   1512     4  180.0000771  43.9320000  2
   1507   3089   1511   1513     4  180.0000771  43.9320000  2
   1529   3114   1535   1537     4  180.0000771  43.9320000  2
   1532   3139   1536   1538     4  180.0000771  43.9320000  2
   1554   3141   1560   1562     4  180.0000771  43.9320000  2
   1557   3170   1561   1563     4  180.0000771  43.9320000  2
   1579   3199   1585   1587     4  180.0000771  43.9320000  2
   1582   3228   1586   1588     4  180.0000771  43.9320000  2
   1604   3257   1610   1612     4  180.0000771  43.9320000  2
   1607   3286   1611   1613     4  180.0000771  43.9320000  2
   1629   3315   1635   1637     4  180.0000771  43.9320000  2
   1632   3344   1636   1638     4  180.0000771  43.9320000  2
   1654   3373   1660   1662     4  180.0000771  43.9320000  2
   1657   3402   1661   1663     4  180.0000771  43.9320000  2
   1679   3431   1685   1687     4  180.0000771  43.9320000  2
   1682   3460   1686   1688     4  180.0000771  43.9320000  2
   1704   3489   1710   1712     4  180.0000771  43.9320000  2
   1707   3518   1711   1713     4  180.0000771  43.9320000  2
   1729   3547   1735   1737     4  180.0000771  43.9320000  2
   1732   3576   1736   1738     4  180.0000771  43.9320000  2
   1754   3605   1760   1762     4  180.0000771  43.9320000  2
   1757   3634   1761   1763     4  180.0000771  43.9320000  2
   1779   3663   1785   1787     4  180.0000771  43.9320000  2
   1782   3692   1786   1788     4  180.0000771  43.9320000  2
   1804   3721   1810   1812     4  180.0000771  43.9320000  2
   1807   3750   1811   1813     4  180.0000771  43.9320000  2
   1829   3779   1835   1837     4  180.0000771  43.9320000  2
   1832   3808   1836   1838     4  180.0000771  43.9320000  2
   1854   3837   1860   1862     4  180.0000771  43.9320000  2
   1857   3866   1861   1863     4  180.0000771  43.9320000  2
   1879   3895   1885   1887     4  180.0000771  43.9320000  2
   1882   3924   1886   1888     4  180.0000771  43.9320000  2
   1904   3953   1910   1912     4  180.0000771  43.9320000  2
   1907   3982   1911   1913     4  180.0000771  43.9320000  2
   1929   4011   1935   1937     4  180.0000771  43.9320000  2
   1932   4040   1936   1938     4  180.0000771  43.9320000  2
   1954   4069   1960   1962     4  180.0000771  43.9320000  2
   1957   4098   1961   1963     4  180.0000771  43.9320000  2
   1979   4127   1985   1987     4  180.0000771  43.9320000  2
   1982   4156   1986   1988     4  180.0000771  43.9320000  2
   2004   4185   2010   2012     4  180.0000771  43.9320000  2
   2007   4214   2011   2013     4  180.0000771  43.9320000  2
   2029   4243   2035   2037     4  180.0000771  43.9320000  2
   2032   4272   2036   2038     4  180.0000771  43.9320000  2
   2054   4301   2060   2062     4  180.0000771  43.9320000  2
   2057   4330   2061   2063     4  180.0000771  43.9320000  2
   2079   4359   2085   2087     4  180.0000771  43.9320000  2
   2082   4388   2086   2088     4  180.0000771  43.9320000  2
   2104   4417   2110   2112     4  180.0000771  43.9320000  2
   2107   4446   2111   2113     4  180.0000771  43.9320000  2
   2129   4475   2135   2137     4  180.0000771  43.9320000  2
   2132   4504   2136   2138     4  180.0000771  43.9320000  2
   2154   4533   2160   2162     4  180.0000771  43.9320000  2
   2157   4562   2161   2163     4  180.0000771  43.9320000  2
   2179   4591   2185   2187     4  180.0000771  43.9320000  2
   2182   4620   2186   2188     4  180.0000771  43.9320000  2
   2204   4649   2210   2212     4  180.0000771  43.9320000  2
   2207   4678   2211   2213     4  180.0000771  43.9320000  2
   2229   4707   2235   2237     4  180.0000771  43.9320000  2
   2232   4736   2236   2238     4  180.0000771  43.9320000  2
   2254   4765   2260   2262     4  180.0000771  43.9320000  2
   2257   4794   2261   2263     4  180.0000771  43.9320000  2
   2279   4823   2285   2287     4  180.0000771  43.9320000  2
   2282   4852   2286   2288     4  180.0000771  43.9320000  2
   2304   4881   2310   2312     4  180.0000771  43.9320000  2
   2307   4910   2311   2313     4  180.0000771  43.9320000  2
   2329   4939   2335   2337     4  180.0000771  43.9320000  2
   2332   4968   2336   2338     4  180.0000771  43.9320000  2
   2354   4997   2360   2362     4  180.0000771  43.9320000  2
   2357   5026   2361   2363     4  180.0000771  43.9320000  2
   2379   5055   2385   2387     4  180.0000771  43.9320000  2
   2382   5084   2386   2388     4  180.0000771  43.9320000  2
   2404   5113   2410   2412     4  180.0000771  43.9320000  2
   2407   5142   2411   2413     4  180.0000771  43.9320000  2
   2429   5171   2435   2437     4  180.0000771  43.9320000  2
   2432   5200   2436   2438     4  180.0000771  43.9320000  2
   2454   5229   2460   2462     4  180.0000771  43.9320000  2
   2457   5258   2461   2463     4  180.0000771  43.9320000  2
   2479   5287   2485   2487     4  180.0000771  43.9320000  2
   2482   5316   2486   2488     4  180.0000771  43.9320000  2
   2504   5345   2510   2512     4  180.0000771  43.9320000  2
   2507   5374   2511   2513     4  180.0000771  43.9320000  2
   2529   5403   2535   2537     4  180.0000771  43.9320000  2
   2532   5432   2536   2538     4  180.0000771  43.9320000  2
   2554   5461   2560   2562     4  180.0000771  43.9320000  2
   2557   5490   2561   2563     4  180.0000771  43.9320000  2
   2579   5519   2585   2587     4  180.0000771  43.9320000  2
   2582   5548   2586   2588     4  180.0000771  43.9320000  2
   2604   5577   2610   2612     4  180.0000771  43.9320000  2
   2607   5606   2611   2613     4  180.0000771  43.9320000  2
   2629   5635   2635   2637     4  180.0000771  43.9320000  2
   2632   5664   2636   2638     4  180.0000771  43.9320000  2
   2654   5693   2660   2662     4  180.0000771  43.9320000  2
   2657   5722   2661   2663     4  180.0000771  43.9320000  2
   2679   5751   2685   2687     4  180.0000771  43.9320000  2
   2682   5780   2686   2688     4  180.0000771  43.9320000  2
   2704   5809   2710   2712     4  180.0000771  43.9320000  2
   2707   5838   2711   2713     4  180.0000771  43.9320000  2
   2729   5867   2735   2737     4  180.0000771  43.9320000  2
   2732   5896   2736   2738     4  180.0000771  43.9320000  2
   2754   5925   2760   2762     4  180.0000771  43.9320000  2
   2757   5954   2761   2763     4  180.0000771  43.9320000  2
   2779   5983   2785   2787     4  180.0000771  43.9320000  2
   2782   6012   2786   2788     4  180.0000771  43.9320000  2
   2804   6041   2810   2812     4  180.0000771  43.9320000  2
   2807   6070   2811   2813     4  180.0000771  43.9320000  2
   2829   6099   2835   2837     4  180.0000771  43.9320000  2
   2832   6128   2836   2838     4  180.0000771  43.9320000  2
   2854   6157   2860   2862     4  180.0000771  43.9320000  2
   2857   6186   2861   2863     4  180.0000771  43.9320000  2
   2879   6215   2885   2887     4  180.0000771  43.9320000  2
   2882   6244   2886   2888     4  180.0000771  43.9320000  2
   2904   6273   2910   2912     4  180.0000771  43.9320000  2
   2907   6302   2911   2913     4  180.0000771  43.9320000  2
   2929   6331   2935   2937     4  180.0000771  43.9320000  2
   2932   6360   2936   2938     4  180.0000771  43.9320000  2
   2954   6389   2960   2962     4  180.0000771  43.9320000  2
   2957   6418   2961   2963     4  180.0000771  43.9320000  2
   2979   6447   2985   2987     4  180.0000771  43.9320000  2
   2982   6476   2986   2988     4  180.0000771  43.9320000  2
   3004   6505   3010   3012     4  180.0000771  43.9320000  2
   3007   6534   3011   3013     4  180.0000771  43.9320000  2
   3029   6563   3035   3037     4  180.0000771  43.9320000  2
   3032   6592   3036   3038     4  180.0000771  43.9320000  2
   3054   6621   3060   3062     4  180.0000771  43.9320000  2
   3057   6650   3061   3063     4  180.0000771  43.9320000  2
   3079   6679   3085   3087     4  180.0000771  43.9320000  2
   3082   6708   3086   3088     4  180.0000771  43.9320000  2
   3104   6737   3110   3112     4  180.0000771  43.9320000  2
   3107   6766   3111   3113     4  180.0000771  43.9320000  2
   3129   6795   3135   3137     4  180.0000771  43.9320000  2
   3132   6824   3136   3138     4  180.0000771  43.9320000  2
   3153   3159   3157   3158     4  180.0000771  4.6024000  2
   3162   3166   3165   3167     4  180.0000771  4.6024000  2
   3182   3188   3186   3187     4  180.0000771  4.6024000  2
   3191   3195   3194   3196     4  180.0000771  4.6024000  2
   3211   3217   3215   3216     4  180.0000771  4.6024000  2
   3220   3224   3223   3225     4  180.0000771  4.6024000  2
   3240   3246   3244   3245     4  180.0000771  4.6024000  2
   3249   3253   3252   3254     4  180.0000771  4.6024000  2
   3269   3275   3273   3274     4  180.0000771  4.6024000  2
   3278   3282   3281   3283     4  180.0000771  4.6024000  2
   3298   3304   3302   3303     4  180.0000771  4.6024000  2
   3307   3311   3310   3312     4  180.0000771  4.6024000  2
   3327   3333   3331   3332     4  180.0000771  4.6024000  2
   3336   3340   3339   3341     4  180.0000771  4.6024000  2
   3356   3362   3360   3361     4  180.0000771  4.6024000  2
   3365   3369   3368   3370     4  180.0000771  4.6024000  2
   3385   3391   3389   3390     4  180.0000771  4.6024000  2
   3394   3398   3397   3399     4  180.0000771  4.6024000  2
   3414   3420   3418   3419     4  180.0000771  4.6024000  2
   3423   3427   3426   3428     4  180.0000771  4.6024000  2
   3443   3449   3447   3448     4  180.0000771  4.6024000  2
   3452   3456   3455   3457     4  180.0000771  4.6024000  2
   3472   3478   3476   3477     4  180.0000771  4.6024000  2
   3481   3485   3484   3486     4  180.0000771  4.6024000  2
   3501   3507   3505   3506     4  180.0000771  4.6024000  2
   3510   3514   3513   3515     4  180.0000771  4.6024000  2
   3530   3536   3534   3535     4  180.0000771  4.6024000  2
   3539   3543   3542   3544     4  180.0000771  4.6024000  2
   3559   3565   3563   3564     4  180.0000771  4.6024000  2
   3568   3572   3571   3573     4  180.0000771  4.6024000  2
   3588   3594   3592   3593     4  180.0000771  4.6024000  2
   3597   3601   3600   3602     4  180.0000771  4.6024000  2
   3617   3623   3621   3622     4  180.0000771  4.6024000  2
   3626   3630   3629   3631     4  180.0000771  4.6024000  2
   3646   3652   3650   3651     4  180.0000771  4.6024000  2
   3655   3659   3658   3660     4  180.0000771  4.6024000  2
   3675   3681   3679   3680     4  180.0000771  4.6024000  2
   3684   3688   3687   3689     4  180.0000771  4.6024000  2
   3704   3710   3708   3709     4  180.0000771  4.6024000  2
   3713   3717   3716   3718     4  180.0000771  4.6024000  2
   3733   3739   3737   3738     4  180.0000771  4.6024000  2
   3742   3746   3745   3747     4  180.0000771  4.6024000  2
   3762   3768   3766   3767     4  180.0000771  4.6024000  2
   3771   3775   3774   3776     4  180.0000771  4.6024000  2
   3791   3797   3795   3796     4  180.0000771  4.6024000  2
   3800   3804   3803   3805     4  180.0000771  4.6024000  2
   3820   3826   3824   3825     4  180.0000771  4.6024000  2
   3829   3833   3832   3834     4  180.0000771  4.6024000  2
   3849   3855   3853   3854     4  180.0000771  4.6024000  2
   3858   3862   3861   3863     4  180.0000771  4.6024000  2
   3878   3884   3882   3883     4  180.0000771  4.6024000  2
   3887   3891   3890   3892     4  180.0000771  4.6024000  2
   3907   3913   3911   3912     4  180.0000771  4.6024000  2
   3916   3920   3919   3921     4  180.0000771  4.6024000  2
   3936   3942   3940   3941     4  180.0000771  4.6024000  2
   3945   3949   3948   3950     4  180.0000771  4.6024000  2
   3965   3971   3969   3970     4  180.0000771  4.6024000  2
   3974   3978   3977   3979     4  180.0000771  4.6024000  2
   3994   4000   3998   3999     4  180.0000771  4.6024000  2
   4003   4007   4006   4008     4  180.0000771  4.6024000  2
   4023   4029   4027   4028     4  180.0000771  4.6024000  2
   4032   4036   4035   4037     4  180.0000771  4.6024000  2
   4052   4058   4056   4057     4  180.0000771  4.6024000  2
   4061   4065   4064   4066     4  180.0000771  4.6024000  2
   4081   4087   4085   4086     4  180.0000771  4.6024000  2
   4090   4094   4093   4095     4  180.0000771  4.6024000  2
   4110   4116   4114   4115     4  180.0000771  4.6024000  2
   4119   4123   4122   4124     4  180.0000771  4.6024000  2
   4139   4145   4143   4144     4  180.0000771  4.6024000  2
   4148   4152   4151   4153     4  180.0000771  4.6024000  2
   4168   4174   4172   4173     4  180.0000771  4.6024000  2
   4177   4181   4180   4182     4  180.0000771  4.6024000  2
   4197   4203   4201   4202     4  180.0000771  4.6024000  2
   4206   4210   4209   4211     4  180.0000771  4.6024000  2
   4226   4232   4230   4231     4  180.0000771  4.6024000  2
   4235   4239   4238   4240     4  180.0000771  4.6024000  2
   4255   4261   4259   4260     4  180.0000771  4.6024000  2
   4264   4268   4267   4269     4  180.0000771  4.6024000  2
   4284   4290   4288   4289     4  180.0000771  4.6024000  2
   4293   4297   4296   4298     4  180.0000771  4.6024000  2
   4313   4319   4317   4318     4  180.0000771  4.6024000  2
   4322   4326   4325   4327     4  180.0000771  4.6024000  2
   4342   4348   4346   4347     4  180.0000771  4.6024000  2
   4351   4355   4354   4356     4  180.0000771  4.6024000  2
   4371   4377   4375   4376     4  180.0000771  4.6024000  2
   4380   4384   4383   4385     4  180.0000771  4.6024000  2
   4400   4406   4404   4405     4  180.0000771  4.6024000  2
   4409   4413   4412   4414     4  180.0000771  4.6024000  2
   4429   4435   4433   4434     4  180.0000771  4.6024000  2
   4438   4442   4441   4443     4  180.0000771  4.6024000  2
   4458   4464   4462   4463     4  180.0000771  4.6024000  2
   4467   4471   4470   4472     4  180.0000771  4.6024000  2
   4487   4493   4491   4492     4  180.0000771  4.6024000  2
   4496   4500   4499   4501     4  180.0000771  4.6024000  2
   4516   4522   4520   4521     4  180.0000771  4.6024000  2
   4525   4529   4528   4530     4  180.0000771  4.6024000  2
   4545   4551   4549   4550     4  180.0000771  4.6024000  2
   4554   4558   4557   4559     4  180.0000771  4.6024000  2
   4574   4580   4578   4579     4  180.0000771  4.6024000  2
   4583   4587   4586   4588     4  180.0000771  4.6024000  2
   4603   4609   4607   4608     4  180.0000771  4.6024000  2
   4612   4616   4615   4617     4  180.0000771  4.6024000  2
   4632   4638   4636   4637     4  180.0000771  4.6024000  2
   4641   4645   4644   4646     4  180.0000771  4.6024000  2
   4661   4667   4665   4666     4  180.0000771  4.6024000  2
   4670   4674   4673   4675     4  180.0000771  4.6024000  2
   4690   4696   4694   4695     4  180.0000771  4.6024000  2
   4699   4703   4702   4704     4  180.0000771  4.6024000  2
   4719   4725   4723   4724     4  180.0000771  4.6024000  2
   4728   4732   4731   4733     4  180.0000771  4.6024000  2
   4748   4754   4752   4753     4  180.0000771  4.6024000  2
   4757   4761   4760   4762     4  180.0000771  4.6024000  2
   4777   4783   4781   4782     4  180.0000771  4.6024000  2
   4786   4790   4789   4791     4  180.0000771  4.6024000  2
   4806   4812   4810   4811     4  180.0000771  4.6024000  2
   4815   4819   4818   4820     4  180.0000771  4.6024000  2
   4835   4841   4839   4840     4  180.0000771  4.6024000  2
   4844   4848   4847   4849     4  180.0000771  4.6024000  2
   4864   4870   4868   4869     4  180.0000771  4.6024000  2
   4873   4877   4876   4878     4  180.0000771  4.6024000  2
   4893   4899   4897   4898     4  180.0000771  4.6024000  2
   4902   4906   4905   4907     4  180.0000771  4.6024000  2
   4922   4928   4926   4927     4  180.0000771  4.6024000  2
   4931   4935   4934   4936     4  180.0000771  4.6024000  2
   4951   4957   4955   4956     4  180.0000771  4.6024000  2
   4960   4964   4963   4965     4  180.0000771  4.6024000  2
   4980   4986   4984   4985     4  180.0000771  4.6024000  2
   4989   4993   4992   4994     4  180.0000771  4.6024000  2
   5009   5015   5013   5014     4  180.0000771  4.6024000  2
   5018   5022   5021   5023     4  180.0000771  4.6024000  2
   5038   5044   5042   5043     4  180.0000771  4.6024000  2
   5047   5051   5050   5052     4  180.0000771  4.6024000  2
   5067   5073   5071   5072     4  180.0000771  4.6024000  2
   5076   5080   5079   5081     4  180.0000771  4.6024000  2
   5096   5102   5100   5101     4  180.0000771  4.6024000  2
   5105   5109   5108   5110     4  180.0000771  4.6024000  2
   5125   5131   5129   5130     4  180.0000771  4.6024000  2
   5134   5138   5137   5139     4  180.0000771  4.6024000  2
   5154   5160   5158   5159     4  180.0000771  4.6024000  2
   5163   5167   5166   5168     4  180.0000771  4.6024000  2
   5183   5189   5187   5188     4  180.0000771  4.6024000  2
   5192   5196   5195   5197     4  180.0000771  4.6024000  2
   5212   5218   5216   5217     4  180.0000771  4.6024000  2
   5221   5225   5224   5226     4  180.0000771  4.6024000  2
   5241   5247   5245   5246     4  180.0000771  4.6024000  2
   5250   5254   5253   5255     4  180.0000771  4.6024000  2
   5270   5276   5274   5275     4  180.0000771  4.6024000  2
   5279   5283   5282   5284     4  180.0000771  4.6024000  2
   5299   5305   5303   5304     4  180.0000771  4.6024000  2
   5308   5312   5311   5313     4  180.0000771  4.6024000  2
   5328   5334   5332   5333     4  180.0000771  4.6024000  2
   5337   5341   5340   5342     4  180.0000771  4.6024000  2
   5357   5363   5361   5362     4  180.0000771  4.6024000  2
   5366   5370   5369   5371     4  180.0000771  4.6024000  2
   5386   5392   5390   5391     4  180.0000771  4.6024000  2
   5395   5399   5398   5400     4  180.0000771  4.6024000  2
   5415   5421   5419   5420     4  180.0000771  4.6024000  2
   5424   5428   5427   5429     4  180.0000771  4.6024000  2
   5444   5450   5448   5449     4  180.0000771  4.6024000  2
   5453   5457   5456   5458     4  180.0000771  4.6024000  2
   5473   5479   5477   5478     4  180.0000771  4.6024000  2
   5482   5486   5485   5487     4  180.0000771  4.6024000  2
   5502   5508   5506   5507     4  180.0000771  4.6024000  2
   5511   5515   5514   5516     4  180.0000771  4.6024000  2
   5531   5537   5535   5536     4  180.0000771  4.6024000  2
   5540   5544   5543   5545     4  180.0000771  4.6024000  2
   5560   5566   5564   5565     4  180.0000771  4.6024000  2
   5569   5573   5572   5574     4  180.0000771  4.6024000  2
   5589   5595   5593   5594     4  180.0000771  4.6024000  2
   5598   5602   5601   5603     4  180.0000771  4.6024000  2
   5618   5624   5622   5623     4  180.0000771  4.6024000  2
   5627   5631   5630   5632     4  180.0000771  4.6024000  2
   5647   5653   5651   5652     4  180.0000771  4.6024000  2
   5656   5660   5659   5661     4  180.0000771  4.6024000  2
   5676   5682   5680   5681     4  180.0000771  4.6024000  2
   5685   5689   5688   5690     4  180.0000771  4.6024000  2
   5705   5711   5709   5710     4  180.0000771  4.6024000  2
   5714   5718   5717   5719     4  180.0000771  4.6024000  2
   5734   5740   5738   5739     4  180.0000771  4.6024000  2
   5743   5747   5746   5748     4  180.0000771  4.6024000  2
   5763   5769   5767   5768     4  180.0000771  4.6024000  2
   5772   5776   5775   5777     4  180.0000771  4.6024000  2
   5792   5798   5796   5797     4  180.0000771  4.6024000  2
   5801   5805   5804   5806     4  180.0000771  4.6024000  2
   5821   5827   5825   5826     4  180.0000771  4.6024000  2
   5830   5834   5833   5835     4  180.0000771  4.6024000  2
   5850   5856   5854   5855     4  180.0000771  4.6024000  2
   5859   5863   5862   5864     4  180.0000771  4.6024000  2
   5879   5885   5883   5884     4  180.0000771  4.6024000  2
   5888   5892   5891   5893     4  180.0000771  4.6024000  2
   5908   5914   5912   5913     4  180.0000771  4.6024000  2
   5917   5921   5920   5922     4  180.0000771  4.6024000  2
   5937   5943   5941   5942     4  180.0000771  4.6024000  2
   5946   5950   5949   5951     4  180.0000771  4.6024000  2
   5966   5972   5970   5971     4  180.0000771  4.6024000  2
   5975   5979   5978   5980     4  180.0000771  4.6024000  2
   5995   6001   5999   6000     4  180.0000771  4.6024000  2
   6004   6008   6007   6009     4  180.0000771  4.6024000  2
   6024   6030   6028   6029     4  180.0000771  4.6024000  2
   6033   6037   6036   6038     4  180.0000771  4.6024000  2
   6053   6059   6057   6058     4  180.0000771  4.6024000  2
   6062   6066   6065   6067     4  180.0000771  4.6024000  2
   6082   6088   6086   6087     4  180.0000771  4.6024000  2
   6091   6095   6094   6096     4  180.0000771  4.6024000  2
   6111   6117   6115   6116     4  180.0000771  4.6024000  2
   6120   6124   6123   6125     4  180.0000771  4.6024000  2
   6140   6146   6144   6145     4  180.0000771  4.6024000  2
   6149   6153   6152   6154     4  180.0000771  4.6024000  2
   6169   6175   6173   6174     4  180.0000771  4.6024000  2
   6178   6182   6181   6183     4  180.0000771  4.6024000  2
   6198   6204   6202   6203     4  180.0000771  4.6024000  2
   6207   6211   6210   6212     4  180.0000771  4.6024000  2
   6227   6233   6231   6232     4  180.0000771  4.6024000  2
   6236   6240   6239   6241     4  180.0000771  4.6024000  2
   6256   6262   6260   6261     4  180.0000771  4.6024000  2
   6265   6269   6268   6270     4  180.0000771  4.6024000  2
   6285   6291   6289   6290     4  180.0000771  4.6024000  2
   6294   6298   6297   6299     4  180.0000771  4.6024000  2
   6314   6320   6318   6319     4  180.0000771  4.6024000  2
   6323   6327   6326   6328     4  180.0000771  4.6024000  2
   6343   6349   6347   6348     4  180.0000771  4.6024000  2
   6352   6356   6355   6357     4  180.0000771  4.6024000  2
   6372   6378   6376   6377     4  180.0000771  4.6024000  2
   6381   6385   6384   6386     4  180.0000771  4.6024000  2
   6401   6407   6405   6406     4  180.0000771  4.6024000  2
   6410   6414   6413   6415     4  180.0000771  4.6024000  2
   6430   6436   6434   6435     4  180.0000771  4.6024000  2
   6439   6443   6442   6444     4  180.0000771  4.6024000  2
   6459   6465   6463   6464     4  180.0000771  4.6024000  2
   6468   6472   6471   6473     4  180.0000771  4.6024000  2
   6488   6494   6492   6493     4  180.0000771  4.6024000  2
   6497   6501   6500   6502     4  180.0000771  4.6024000  2
   6517   6523   6521   6522     4  180.0000771  4.6024000  2
   6526   6530   6529   6531     4  180.0000771  4.6024000  2
   6546   6552   6550   6551     4  180.0000771  4.6024000  2
   6555   6559   6558   6560     4  180.0000771  4.6024000  2
   6575   6581   6579   6580     4  180.0000771  4.6024000  2
   6584   6588   6587   6589     4  180.0000771  4.6024000  2
   6604   6610   6608   6609     4  180.0000771  4.6024000  2
   6613   6617   6616   6618     4  180.0000771  4.6024000  2
   6633   6639   6637   6638     4  180.0000771  4.6024000  2
   6642   6646   6645   6647     4  180.0000771  4.6024000  2
   6662   6668   6666   6667     4  180.0000771  4.6024000  2
   6671   6675   6674   6676     4  180.0000771  4.6024000  2
   6691   6697   6695   6696     4  180.0000771  4.6024000  2
   6700   6704   6703   6705     4  180.0000771  4.6024000  2
   6720   6726   6724   6725     4  180.0000771  4.6024000  2
   6729   6733   6732   6734     4  180.0000771  4.6024000  2
   6749   6755   6753   6754     4  180.0000771  4.6024000  2
   6758   6762   6761   6763     4  180.0000771  4.6024000  2
   6778   6784   6782   6783     4  180.0000771  4.6024000  2
   6787   6791   6790   6792     4  180.0000771  4.6024000  2
   6807   6813   6811   6812     4  180.0000771  4.6024000  2
   6816   6820   6819   6821     4  180.0000771  4.6024000  2
   6836   6842   6840   6841     4  180.0000771  4.6024000  2
   6845   6849   6848   6850     4  180.0000771  4.6024000  2
      1      8      9     10     1  0.0000000  1.2552000  3
      1      8      9     11     1  0.0000000  1.2552000  3
      1      8     12     13     1  0.0000000  1.2552000  3
      1      8     12     14     1  0.0000000  1.2552000  3
      2      1      4      7     1  0.0000000  0.6508444  3
      2      1      4      5     1  0.0000000  0.6508444  3
      2      1      4      6     1  0.0000000  0.6508444  3
      2      1      8      9     1  0.0000000  1.2552000  3
      2      1      8     12     1  0.0000000  1.2552000  3
      3      1      4      7     1  0.0000000  0.6508444  3
      3      1      4      5     1  0.0000000  0.6508444  3
      3      1      4      6     1  0.0000000  0.6508444  3
      3      1      8      9     1  0.0000000  1.2552000  3
      3      1      8     12     1  0.0000000  1.2552000  3
      4      7     15     16     1  0.0000000  1.2552000  3
      4      7     15     17     1  0.0000000  1.2552000  3
      4      7     18     19     1  0.0000000  1.2552000  3
      4      7     18     20     1  0.0000000  1.2552000  3
      8      1      4      5     1  0.0000000  0.6508444  3
      5      4      7     15     1  0.0000000  1.2552000  3
      5      4      7     18     1  0.0000000  1.2552000  3
      8      1      4      6     1  0.0000000  0.6508444  3
      6      4      7     15     1  0.0000000  1.2552000  3
      6      4      7     18     1  0.0000000  1.2552000  3
      7     15     21     22     1  0.0000000  0.6508444  3
      7     15     21     23     1  0.0000000  0.6508444  3
      7     18     24     25     1  0.0000000  0.6508444  3
      7     18     24     26     1  0.0000000  0.6508444  3
      8      9     30     31     1  0.0000000  0.6508444  3
      8      9     30     32     1  0.0000000  0.6508444  3
      8     12     27     28     1  0.0000000  0.6508444  3
      8     12     27     29     1  0.0000000  0.6508444  3
      9      8     12     13     1  0.0000000  1.2552000  3
      9      8     12     14     1  0.0000000  1.2552000  3
     10      9      8     12     1  0.0000000  1.2552000  3
     10      9     30     34     1  0.0000000  0.6508444  3
     10      9     30     31     1  0.0000000  0.6508444  3
     10      9     30     32     1  0.0000000  0.6508444  3
     11      9      8     12     1  0.0000000  1.2552000  3
     11      9     30     34     1  0.0000000  0.6508444  3
     11      9     30     31     1  0.0000000  0.6508444  3
     11      9     30     32     1  0.0000000  0.6508444  3
     13     12     27     33     1  0.0000000  0.6508444  3
     13     12     27     28     1  0.0000000  0.6508444  3
     13     12     27     29     1  0.0000000  0.6508444  3
     14     12     27     33     1  0.0000000  0.6508444  3
     14     12     27     28     1  0.0000000  0.6508444  3
     14     12     27     29     1  0.0000000  0.6508444  3
     15      7     18     19     1  0.0000000  1.2552000  3
     15      7     18     20     1  0.0000000  1.2552000  3
     16     15      7     18     1  0.0000000  1.2552000  3
     16     15     21     35     1  0.0000000  0.6508444  3
     16     15     21     22     1  0.0000000  0.6508444  3
     16     15     21     23     1  0.0000000  0.6508444  3
     17     15      7     18     1  0.0000000  1.2552000  3
     17     15     21     35     1  0.0000000  0.6508444  3
     17     15     21     22     1  0.0000000  0.6508444  3
     17     15     21     23     1  0.0000000  0.6508444  3
     19     18     24     36     1  0.0000000  0.6508444  3
     19     18     24     25     1  0.0000000  0.6508444  3
     19     18     24     26     1  0.0000000  0.6508444  3
     20     18     24     36     1  0.0000000  0.6508444  3
     20     18     24     25     1  0.0000000  0.6508444  3
     20     18     24     26     1  0.0000000  0.6508444  3
     21     35    114    115     1  180.0000771  10.4600000  2
     22     21     35     38     1  0.0000000  3.3472000  1
     22     21     35     38     1  0.0000000  0.0000000  2
     22     21     35     38     1  180.0000771  0.3347200  3
     22     21     35    114     1  180.0000771  0.0000000  2
     23     21     35     38     1  0.0000000  3.3472000  1
     23     21     35     38     1  0.0000000  0.0000000  2
     23     21     35     38     1  180.0000771  0.3347200  3
     23     21     35    114     1  180.0000771  0.0000000  2
     24     36    139    140     1  180.0000771  10.4600000  2
     25     24     36     39     1  0.0000000  3.3472000  1
     25     24     36     39     1  0.0000000  0.0000000  2
     25     24     36     39     1  180.0000771  0.3347200  3
     25     24     36    139     1  180.0000771  0.0000000  2
     26     24     36     39     1  0.0000000  3.3472000  1
     26     24     36     39     1  0.0000000  0.0000000  2
     26     24     36     39     1  180.0000771  0.3347200  3
     26     24     36    139     1  180.0000771  0.0000000  2
     27     33     64     65     1  180.0000771  10.4600000  2
     28     27     33     37     1  0.0000000  3.3472000  1
     28     27     33     37     1  0.0000000  0.0000000  2
     28     27     33     37     1  180.0000771  0.3347200  3
     28     27     33     64     1  180.0000771  0.0000000  2
     29     27     33     37     1  0.0000000  3.3472000  1
     29     27     33     37     1  0.0000000  0.0000000  2
     29     27     33     37     1  180.0000771  0.3347200  3
     29     27     33     64     1  180.0000771  0.0000000  2
     30     34     89     90     1  180.0000771  10.4600000  2
     31     30     34     40     1  0.0000000  3.3472000  1
     31     30     34     40     1  0.0000000  0.0000000  2
     31     30     34     40     1  180.0000771  0.3347200  3
     31     30     34     89     1  180.0000771  0.0000000  2
     32     30     34     40     1  0.0000000  3.3472000  1
     32     30     34     40     1  0.0000000  0.0000000  2
     32     30     34     40     1  180.0000771  0.3347200  3
     32     30     34     89     1  180.0000771  0.0000000  2
     33     64     44     45     1  0.0000000  0.0000000  2
     33     64     44     46     1  0.0000000  0.0000000  2
     34     89     69     70     1  0.0000000  0.0000000  2
     34     89     69     71     1  0.0000000  0.0000000  2
     35    114     94     95     1  0.0000000  0.0000000  2
     35    114     94     96     1  0.0000000  0.0000000  2
     36    139    119    120     1  0.0000000  0.0000000  2
     36    139    119    121     1  0.0000000  0.0000000  2
     37     33     64     65     1  0.0000000  8.3680000  1
     37     33     64     65     1  180.0000771  10.4600000  2
     38     35    114    115     1  0.0000000  8.3680000  1
     38     35    114    115     1  180.0000771  10.4600000  2
     39     36    139    140     1  0.0000000  8.3680000  1
     39     36    139    140     1  180.0000771  10.4600000  2
     40     34     89     90     1  0.0000000  8.3680000  1
     40     34     89     90     1  180.0000771  10.4600000  2
     41     44     64     65     1  0.0000000  0.0000000  2
     41     47     48     49     1  0.0000000  1.2552000  3
     41     47     48     50     1  0.0000000  1.2552000  3
     41     47     51     52     1  0.0000000  1.2552000  3
     41     47     51     53     1  0.0000000  1.2552000  3
     42     41     44     64     1  0.0000000  0.6508444  3
     42     41     44     45     1  0.0000000  0.6508444  3
     42     41     44     46     1  0.0000000  0.6508444  3
     42     41     47     48     1  0.0000000  1.2552000  3
     42     41     47     51     1  0.0000000  1.2552000  3
     43     41     44     64     1  0.0000000  0.6508444  3
     43     41     44     45     1  0.0000000  0.6508444  3
     43     41     44     46     1  0.0000000  0.6508444  3
     43     41     47     48     1  0.0000000  1.2552000  3
     43     41     47     51     1  0.0000000  1.2552000  3
     45     44     41     47     1  0.0000000  0.6508444  3
     45     44     64     65     1  0.0000000  0.0000000  2
     46     44     41     47     1  0.0000000  0.6508444  3
     46     44     64     65     1  0.0000000  0.0000000  2
     47     48     57     58     1  0.0000000  0.6508444  3
     47     48     57     59     1  0.0000000  0.6508444  3
     47     51     54     55     1  0.0000000  0.6508444  3
     47     51     54     56     1  0.0000000  0.6508444  3
     48     47     51     52     1  0.0000000  1.2552000  3
     48     47     51     53     1  0.0000000  1.2552000  3
     49     48     47     51     1  0.0000000  1.2552000  3
     49     48     57     61     1  0.0000000  0.6508444  3
     49     48     57     58     1  0.0000000  0.6508444  3
     49     48     57     59     1  0.0000000  0.6508444  3
     50     48     47     51     1  0.0000000  1.2552000  3
     50     48     57     61     1  0.0000000  0.6508444  3
     50     48     57     58     1  0.0000000  0.6508444  3
     50     48     57     59     1  0.0000000  0.6508444  3
     52     51     54     60     1  0.0000000  0.6508444  3
     52     51     54     55     1  0.0000000  0.6508444  3
     52     51     54     56     1  0.0000000  0.6508444  3
     53     51     54     60     1  0.0000000  0.6508444  3
     53     51     54     55     1  0.0000000  0.6508444  3
     53     51     54     56     1  0.0000000  0.6508444  3
     54     60    164    165     1  180.0000771  10.4600000  2
     55     54     60     62     1  0.0000000  3.3472000  1
     55     54     60     62     1  0.0000000  0.0000000  2
     55     54     60     62     1  180.0000771  0.3347200  3
     55     54     60    164     1  180.0000771  0.0000000  2
     56     54     60     62     1  0.0000000  3.3472000  1
     56     54     60     62     1  0.0000000  0.0000000  2
     56     54     60     62     1  180.0000771  0.3347200  3
     56     54     60    164     1  180.0000771  0.0000000  2
     57     61    189    190     1  180.0000771  10.4600000  2
     58     57     61     63     1  0.0000000  3.3472000  1
     58     57     61     63     1  0.0000000  0.0000000  2
     58     57     61     63     1  180.0000771  0.3347200  3
     58     57     61    189     1  180.0000771  0.0000000  2
     59     57     61     63     1  0.0000000  3.3472000  1
     59     57     61     63     1  0.0000000  0.0000000  2
     59     57     61     63     1  180.0000771  0.3347200  3
     59     57     61    189     1  180.0000771  0.0000000  2
     60    164    144    145     1  0.0000000  0.0000000  2
     60    164    144    146     1  0.0000000  0.0000000  2
     61    189    169    170     1  0.0000000  0.0000000  2
     61    189    169    171     1  0.0000000  0.0000000  2
     62     60    164    165     1  0.0000000  8.3680000  1
     62     60    164    165     1  180.0000771  10.4600000  2
     63     61    189    190     1  0.0000000  8.3680000  1
     63     61    189    190     1  180.0000771  10.4600000  2
     66     69     89     90     1  0.0000000  0.0000000  2
     66     72     73     74     1  0.0000000  1.2552000  3
     66     72     73     75     1  0.0000000  1.2552000  3
     66     72     76     77     1  0.0000000  1.2552000  3
     66     72     76     78     1  0.0000000  1.2552000  3
     67     66     69     89     1  0.0000000  0.6508444  3
     67     66     69     70     1  0.0000000  0.6508444  3
     67     66     69     71     1  0.0000000  0.6508444  3
     67     66     72     73     1  0.0000000  1.2552000  3
     67     66     72     76     1  0.0000000  1.2552000  3
     68     66     69     89     1  0.0000000  0.6508444  3
     68     66     69     70     1  0.0000000  0.6508444  3
     68     66     69     71     1  0.0000000  0.6508444  3
     68     66     72     73     1  0.0000000  1.2552000  3
     68     66     72     76     1  0.0000000  1.2552000  3
     70     69     66     72     1  0.0000000  0.6508444  3
     70     69     89     90     1  0.0000000  0.0000000  2
     71     69     66     72     1  0.0000000  0.6508444  3
     71     69     89     90     1  0.0000000  0.0000000  2
     72     73     82     83     1  0.0000000  0.6508444  3
     72     73     82     84     1  0.0000000  0.6508444  3
     72     76     79     80     1  0.0000000  0.6508444  3
     72     76     79     81     1  0.0000000  0.6508444  3
     73     72     76     77     1  0.0000000  1.2552000  3
     73     72     76     78     1  0.0000000  1.2552000  3
     74     73     72     76     1  0.0000000  1.2552000  3
     74     73     82     86     1  0.0000000  0.6508444  3
     74     73     82     83     1  0.0000000  0.6508444  3
     74     73     82     84     1  0.0000000  0.6508444  3
     75     73     72     76     1  0.0000000  1.2552000  3
     75     73     82     86     1  0.0000000  0.6508444  3
     75     73     82     83     1  0.0000000  0.6508444  3
     75     73     82     84     1  0.0000000  0.6508444  3
     77     76     79     85     1  0.0000000  0.6508444  3
     77     76     79     80     1  0.0000000  0.6508444  3
     77     76     79     81     1  0.0000000  0.6508444  3
     78     76     79     85     1  0.0000000  0.6508444  3
     78     76     79     80     1  0.0000000  0.6508444  3
     78     76     79     81     1  0.0000000  0.6508444  3
     79     85    214    215     1  180.0000771  10.4600000  2
     80     79     85     87     1  0.0000000  3.3472000  1
     80     79     85     87     1  0.0000000  0.0000000  2
     80     79     85     87     1  180.0000771  0.3347200  3
     80     79     85    214     1  180.0000771  0.0000000  2
     81     79     85     87     1  0.0000000  3.3472000  1
     81     79     85     87     1  0.0000000  0.0000000  2
     81     79     85     87     1  180.0000771  0.3347200  3
     81     79     85    214     1  180.0000771  0.0000000  2
     82     86    239    240     1  180.0000771  10.4600000  2
     83     82     86     88     1  0.0000000  3.3472000  1
     83     82     86     88     1  0.0000000  0.0000000  2
     83     82     86     88     1  180.0000771  0.3347200  3
     83     82     86    239     1  180.0000771  0.0000000  2
     84     82     86     88     1  0.0000000  3.3472000  1
     84     82     86     88     1  0.0000000  0.0000000  2
     84     82     86     88     1  180.0000771  0.3347200  3
     84     82     86    239     1  180.0000771  0.0000000  2
     85    214    194    195     1  0.0000000  0.0000000  2
     85    214    194    196     1  0.0000000  0.0000000  2
     86    239    219    220     1  0.0000000  0.0000000  2
     86    239    219    221     1  0.0000000  0.0000000  2
     87     85    214    215     1  0.0000000  8.3680000  1
     87     85    214    215     1  180.0000771  10.4600000  2
     88     86    239    240     1  0.0000000  8.3680000  1
     88     86    239    240     1  180.0000771  10.4600000  2
     91     94    114    115     1  0.0000000  0.0000000  2
     91     97     98     99     1  0.0000000  1.2552000  3
     91     97     98    100     1  0.0000000  1.2552000  3
     91     97    101    102     1  0.0000000  1.2552000  3
     91     97    101    103     1  0.0000000  1.2552000  3
     92     91     94    114     1  0.0000000  0.6508444  3
     92     91     94     95     1  0.0000000  0.6508444  3
     92     91     94     96     1  0.0000000  0.6508444  3
     92     91     97     98     1  0.0000000  1.2552000  3
     92     91     97    101     1  0.0000000  1.2552000  3
     93     91     94    114     1  0.0000000  0.6508444  3
     93     91     94     95     1  0.0000000  0.6508444  3
     93     91     94     96     1  0.0000000  0.6508444  3
     93     91     97     98     1  0.0000000  1.2552000  3
     93     91     97    101     1  0.0000000  1.2552000  3
     95     94     91     97     1  0.0000000  0.6508444  3
     95     94    114    115     1  0.0000000  0.0000000  2
     96     94     91     97     1  0.0000000  0.6508444  3
     96     94    114    115     1  0.0000000  0.0000000  2
     97     98    107    108     1  0.0000000  0.6508444  3
     97     98    107    109     1  0.0000000  0.6508444  3
     97    101    104    105     1  0.0000000  0.6508444  3
     97    101    104    106     1  0.0000000  0.6508444  3
     98     97    101    102     1  0.0000000  1.2552000  3
     98     97    101    103     1  0.0000000  1.2552000  3
     99     98     97    101     1  0.0000000  1.2552000  3
     99     98    107    111     1  0.0000000  0.6508444  3
     99     98    107    108     1  0.0000000  0.6508444  3
     99     98    107    109     1  0.0000000  0.6508444  3
    100     98     97    101     1  0.0000000  1.2552000  3
    100     98    107    111     1  0.0000000  0.6508444  3
    100     98    107    108     1  0.0000000  0.6508444  3
    100     98    107    109     1  0.0000000  0.6508444  3
    102    101    104    110     1  0.0000000  0.6508444  3
    102    101    104    105     1  0.0000000  0.6508444  3
    102    101    104    106     1  0.0000000  0.6508444  3
    103    101    104    110     1  0.0000000  0.6508444  3
    103    101    104    105     1  0.0000000  0.6508444  3
    103    101    104    106     1  0.0000000  0.6508444  3
    104    110    264    265     1  180.0000771  10.4600000  2
    105    104    110    112     1  0.0000000  3.3472000  1
    105    104    110    112     1  0.0000000  0.0000000  2
    105    104    110    112     1  180.0000771  0.3347200  3
    105    104    110    264     1  180.0000771  0.0000000  2
    106    104    110    112     1  0.0000000  3.3472000  1
    106    104    110    112     1  0.0000000  0.0000000  2
    106    104    110    112     1  180.0000771  0.3347200  3
    106    104    110    264     1  180.0000771  0.0000000  2
    107    111    289    290     1  180.0000771  10.4600000  2
    108    107    111    113     1  0.0000000  3.3472000  1
    108    107    111    113     1  0.0000000  0.0000000  2
    108    107    111    113     1  180.0000771  0.3347200  3
    108    107    111    289     1  180.0000771  0.0000000  2
    109    107    111    113     1  0.0000000  3.3472000  1
    109    107    111    113     1  0.0000000  0.0000000  2
    109    107    111    113     1  180.0000771  0.3347200  3
    109    107    111    289     1  180.0000771  0.0000000  2
    110    264    244    245     1  0.0000000  0.0000000  2
    110    264    244    246     1  0.0000000  0.0000000  2
    111    289    269    270     1  0.0000000  0.0000000  2
    111    289    269    271     1  0.0000000  0.0000000  2
    112    110    264    265     1  0.0000000  8.3680000  1
    112    110    264    265     1  180.0000771  10.4600000  2
    113    111    289    290     1  0.0000000  8.3680000  1
    113    111    289    290     1  180.0000771  10.4600000  2
    116    119    139    140     1  0.0000000  0.0000000  2
    116    122    123    124     1  0.0000000  1.2552000  3
    116    122    123    125     1  0.0000000  1.2552000  3
    116    122    126    127     1  0.0000000  1.2552000  3
    116    122    126    128     1  0.0000000  1.2552000  3
    117    116    119    139     1  0.0000000  0.6508444  3
    117    116    119    120     1  0.0000000  0.6508444  3
    117    116    119    121     1  0.0000000  0.6508444  3
    117    116    122    123     1  0.0000000  1.2552000  3
    117    116    122    126     1  0.0000000  1.2552000  3
    118    116    119    139     1  0.0000000  0.6508444  3
    118    116    119    120     1  0.0000000  0.6508444  3
    118    116    119    121     1  0.0000000  0.6508444  3
    118    116    122    123     1  0.0000000  1.2552000  3
    118    116    122    126     1  0.0000000  1.2552000  3
    120    119    116    122     1  0.0000000  0.6508444  3
    120    119    139    140     1  0.0000000  0.0000000  2
    121    119    116    122     1  0.0000000  0.6508444  3
    121    119    139    140     1  0.0000000  0.0000000  2
    122    123    132    133     1  0.0000000  0.6508444  3
    122    123    132    134     1  0.0000000  0.6508444  3
    122    126    129    130     1  0.0000000  0.6508444  3
    122    126    129    131     1  0.0000000  0.6508444  3
    123    122    126    127     1  0.0000000  1.2552000  3
    123    122    126    128     1  0.0000000  1.2552000  3
    124    123    122    126     1  0.0000000  1.2552000  3
    124    123    132    136     1  0.0000000  0.6508444  3
    124    123    132    133     1  0.0000000  0.6508444  3
    124    123    132    134     1  0.0000000  0.6508444  3
    125    123    122    126     1  0.0000000  1.2552000  3
    125    123    132    136     1  0.0000000  0.6508444  3
    125    123    132    133     1  0.0000000  0.6508444  3
    125    123    132    134     1  0.0000000  0.6508444  3
    127    126    129    135     1  0.0000000  0.6508444  3
    127    126    129    130     1  0.0000000  0.6508444  3
    127    126    129    131     1  0.0000000  0.6508444  3
    128    126    129    135     1  0.0000000  0.6508444  3
    128    126    129    130     1  0.0000000  0.6508444  3
    128    126    129    131     1  0.0000000  0.6508444  3
    129    135    314    315     1  180.0000771  10.4600000  2
    130    129    135    137     1  0.0000000  3.3472000  1
    130    129    135    137     1  0.0000000  0.0000000  2
    130    129    135    137     1  180.0000771  0.3347200  3
    130    129    135    314     1  180.0000771  0.0000000  2
    131    129    135    137     1  0.0000000  3.3472000  1
    131    129    135    137     1  0.0000000  0.0000000  2
    131    129    135    137     1  180.0000771  0.3347200  3
    131    129    135    314     1  180.0000771  0.0000000  2
    132    136    339    340     1  180.0000771  10.4600000  2
    133    132    136    138     1  0.0000000  3.3472000  1
    133    132    136    138     1  0.0000000  0.0000000  2
    133    132    136    138     1  180.0000771  0.3347200  3
    133    132    136    339     1  180.0000771  0.0000000  2
    134    132    136    138     1  0.0000000  3.3472000  1
    134    132    136    138     1  0.0000000  0.0000000  2
    134    132    136    138     1  180.0000771  0.3347200  3
    134    132    136    339     1  180.0000771  0.0000000  2
    135    314    294    295     1  0.0000000  0.0000000  2
    135    314    294    296     1  0.0000000  0.0000000  2
    136    339    319    320     1  0.0000000  0.0000000  2
    136    339    319    321     1  0.0000000  0.0000000  2
    137    135    314    315     1  0.0000000  8.3680000  1
    137    135    314    315     1  180.0000771  10.4600000  2
    138    136    339    340     1  0.0000000  8.3680000  1
    138    136    339    340     1  180.0000771  10.4600000  2
    141    144    164    165     1  0.0000000  0.0000000  2
    141    147    148    149     1  0.0000000  1.2552000  3
    141    147    148    150     1  0.0000000  1.2552000  3
    141    147    151    152     1  0.0000000  1.2552000  3
    141    147    151    153     1  0.0000000  1.2552000  3
    142    141    144    164     1  0.0000000  0.6508444  3
    142    141    144    145     1  0.0000000  0.6508444  3
    142    141    144    146     1  0.0000000  0.6508444  3
    142    141    147    148     1  0.0000000  1.2552000  3
    142    141    147    151     1  0.0000000  1.2552000  3
    143    141    144    164     1  0.0000000  0.6508444  3
    143    141    144    145     1  0.0000000  0.6508444  3
    143    141    144    146     1  0.0000000  0.6508444  3
    143    141    147    148     1  0.0000000  1.2552000  3
    143    141    147    151     1  0.0000000  1.2552000  3
    145    144    141    147     1  0.0000000  0.6508444  3
    145    144    164    165     1  0.0000000  0.0000000  2
    146    144    141    147     1  0.0000000  0.6508444  3
    146    144    164    165     1  0.0000000  0.0000000  2
    147    148    157    158     1  0.0000000  0.6508444  3
    147    148    157    159     1  0.0000000  0.6508444  3
    147    151    154    155     1  0.0000000  0.6508444  3
    147    151    154    156     1  0.0000000  0.6508444  3
    148    147    151    152     1  0.0000000  1.2552000  3
    148    147    151    153     1  0.0000000  1.2552000  3
    149    148    147    151     1  0.0000000  1.2552000  3
    149    148    157    161     1  0.0000000  0.6508444  3
    149    148    157    158     1  0.0000000  0.6508444  3
    149    148    157    159     1  0.0000000  0.6508444  3
    150    148    147    151     1  0.0000000  1.2552000  3
    150    148    157    161     1  0.0000000  0.6508444  3
    150    148    157    158     1  0.0000000  0.6508444  3
    150    148    157    159     1  0.0000000  0.6508444  3
    152    151    154    160     1  0.0000000  0.6508444  3
    152    151    154    155     1  0.0000000  0.6508444  3
    152    151    154    156     1  0.0000000  0.6508444  3
    153    151    154    160     1  0.0000000  0.6508444  3
    153    151    154    155     1  0.0000000  0.6508444  3
    153    151    154    156     1  0.0000000  0.6508444  3
    154    160    364    365     1  180.0000771  10.4600000  2
    155    154    160    162     1  0.0000000  3.3472000  1
    155    154    160    162     1  0.0000000  0.0000000  2
    155    154    160    162     1  180.0000771  0.3347200  3
    155    154    160    364     1  180.0000771  0.0000000  2
    156    154    160    162     1  0.0000000  3.3472000  1
    156    154    160    162     1  0.0000000  0.0000000  2
    156    154    160    162     1  180.0000771  0.3347200  3
    156    154    160    364     1  180.0000771  0.0000000  2
    157    161    389    390     1  180.0000771  10.4600000  2
    158    157    161    163     1  0.0000000  3.3472000  1
    158    157    161    163     1  0.0000000  0.0000000  2
    158    157    161    163     1  180.0000771  0.3347200  3
    158    157    161    389     1  180.0000771  0.0000000  2
    159    157    161    163     1  0.0000000  3.3472000  1
    159    157    161    163     1  0.0000000  0.0000000  2
    159    157    161    163     1  180.0000771  0.3347200  3
    159    157    161    389     1  180.0000771  0.0000000  2
    160    364    344    345     1  0.0000000  0.0000000  2
    160    364    344    346     1  0.0000000  0.0000000  2
    161    389    369    370     1  0.0000000  0.0000000  2
    161    389    369    371     1  0.0000000  0.0000000  2
    162    160    364    365     1  0.0000000  8.3680000  1
    162    160    364    365     1  180.0000771  10.4600000  2
    163    161    389    390     1  0.0000000  8.3680000  1
    163    161    389    390     1  180.0000771  10.4600000  2
    166    169    189    190     1  0.0000000  0.0000000  2
    166    172    173    174     1  0.0000000  1.2552000  3
    166    172    173    175     1  0.0000000  1.2552000  3
    166    172    176    177     1  0.0000000  1.2552000  3
    166    172    176    178     1  0.0000000  1.2552000  3
    167    166    169    189     1  0.0000000  0.6508444  3
    167    166    169    170     1  0.0000000  0.6508444  3
    167    166    169    171     1  0.0000000  0.6508444  3
    167    166    172    173     1  0.0000000  1.2552000  3
    167    166    172    176     1  0.0000000  1.2552000  3
    168    166    169    189     1  0.0000000  0.6508444  3
    168    166    169    170     1  0.0000000  0.6508444  3
    168    166    169    171     1  0.0000000  0.6508444  3
    168    166    172    173     1  0.0000000  1.2552000  3
    168    166    172    176     1  0.0000000  1.2552000  3
    170    169    166    172     1  0.0000000  0.6508444  3
    170    169    189    190     1  0.0000000  0.0000000  2
    171    169    166    172     1  0.0000000  0.6508444  3
    171    169    189    190     1  0.0000000  0.0000000  2
    172    173    182    183     1  0.0000000  0.6508444  3
    172    173    182    184     1  0.0000000  0.6508444  3
    172    176    179    180     1  0.0000000  0.6508444  3
    172    176    179    181     1  0.0000000  0.6508444  3
    173    172    176    177     1  0.0000000  1.2552000  3
    173    172    176    178     1  0.0000000  1.2552000  3
    174    173    172    176     1  0.0000000  1.2552000  3
    174    173    182    186     1  0.0000000  0.6508444  3
    174    173    182    183     1  0.0000000  0.6508444  3
    174    173    182    184     1  0.0000000  0.6508444  3
    175    173    172    176     1  0.0000000  1.2552000  3
    175    173    182    186     1  0.0000000  0.6508444  3
    175    173    182    183     1  0.0000000  0.6508444  3
    175    173    182    184     1  0.0000000  0.6508444  3
    177    176    179    185     1  0.0000000  0.6508444  3
    177    176    179    180     1  0.0000000  0.6508444  3
    177    176    179    181     1  0.0000000  0.6508444  3
    178    176    179    185     1  0.0000000  0.6508444  3
    178    176    179    180     1  0.0000000  0.6508444  3
    178    176    179    181     1  0.0000000  0.6508444  3
    179    185    414    415     1  180.0000771  10.4600000  2
    180    179    185    187     1  0.0000000  3.3472000  1
    180    179    185    187     1  0.0000000  0.0000000  2
    180    179    185    187     1  180.0000771  0.3347200  3
    180    179    185    414     1  180.0000771  0.0000000  2
    181    179    185    187     1  0.0000000  3.3472000  1
    181    179    185    187     1  0.0000000  0.0000000  2
    181    179    185    187     1  180.0000771  0.3347200  3
    181    179    185    414     1  180.0000771  0.0000000  2
    182    186    439    440     1  180.0000771  10.4600000  2
    183    182    186    188     1  0.0000000  3.3472000  1
    183    182    186    188     1  0.0000000  0.0000000  2
    183    182    186    188     1  180.0000771  0.3347200  3
    183    182    186    439     1  180.0000771  0.0000000  2
    184    182    186    188     1  0.0000000  3.3472000  1
    184    182    186    188     1  0.0000000  0.0000000  2
    184    182    186    188     1  180.0000771  0.3347200  3
    184    182    186    439     1  180.0000771  0.0000000  2
    185    414    394    395     1  0.0000000  0.0000000  2
    185    414    394    396     1  0.0000000  0.0000000  2
    186    439    419    420     1  0.0000000  0.0000000  2
    186    439    419    421     1  0.0000000  0.0000000  2
    187    185    414    415     1  0.0000000  8.3680000  1
    187    185    414    415     1  180.0000771  10.4600000  2
    188    186    439    440     1  0.0000000  8.3680000  1
    188    186    439    440     1  180.0000771  10.4600000  2
    191    194    214    215     1  0.0000000  0.0000000  2
    191    197    198    199     1  0.0000000  1.2552000  3
    191    197    198    200     1  0.0000000  1.2552000  3
    191    197    201    202     1  0.0000000  1.2552000  3
    191    197    201    203     1  0.0000000  1.2552000  3
    192    191    194    214     1  0.0000000  0.6508444  3
    192    191    194    195     1  0.0000000  0.6508444  3
    192    191    194    196     1  0.0000000  0.6508444  3
    192    191    197    198     1  0.0000000  1.2552000  3
    192    191    197    201     1  0.0000000  1.2552000  3
    193    191    194    214     1  0.0000000  0.6508444  3
    193    191    194    195     1  0.0000000  0.6508444  3
    193    191    194    196     1  0.0000000  0.6508444  3
    193    191    197    198     1  0.0000000  1.2552000  3
    193    191    197    201     1  0.0000000  1.2552000  3
    195    194    191    197     1  0.0000000  0.6508444  3
    195    194    214    215     1  0.0000000  0.0000000  2
    196    194    191    197     1  0.0000000  0.6508444  3
    196    194    214    215     1  0.0000000  0.0000000  2
    197    198    207    208     1  0.0000000  0.6508444  3
    197    198    207    209     1  0.0000000  0.6508444  3
    197    201    204    205     1  0.0000000  0.6508444  3
    197    201    204    206     1  0.0000000  0.6508444  3
    198    197    201    202     1  0.0000000  1.2552000  3
    198    197    201    203     1  0.0000000  1.2552000  3
    199    198    197    201     1  0.0000000  1.2552000  3
    199    198    207    211     1  0.0000000  0.6508444  3
    199    198    207    208     1  0.0000000  0.6508444  3
    199    198    207    209     1  0.0000000  0.6508444  3
    200    198    197    201     1  0.0000000  1.2552000  3
    200    198    207    211     1  0.0000000  0.6508444  3
    200    198    207    208     1  0.0000000  0.6508444  3
    200    198    207    209     1  0.0000000  0.6508444  3
    202    201    204    210     1  0.0000000  0.6508444  3
    202    201    204    205     1  0.0000000  0.6508444  3
    202    201    204    206     1  0.0000000  0.6508444  3
    203    201    204    210     1  0.0000000  0.6508444  3
    203    201    204    205     1  0.0000000  0.6508444  3
    203    201    204    206     1  0.0000000  0.6508444  3
    204    210    464    465     1  180.0000771  10.4600000  2
    205    204    210    212     1  0.0000000  3.3472000  1
    205    204    210    212     1  0.0000000  0.0000000  2
    205    204    210    212     1  180.0000771  0.3347200  3
    205    204    210    464     1  180.0000771  0.0000000  2
    206    204    210    212     1  0.0000000  3.3472000  1
    206    204    210    212     1  0.0000000  0.0000000  2
    206    204    210    212     1  180.0000771  0.3347200  3
    206    204    210    464     1  180.0000771  0.0000000  2
    207    211    489    490     1  180.0000771  10.4600000  2
    208    207    211    213     1  0.0000000  3.3472000  1
    208    207    211    213     1  0.0000000  0.0000000  2
    208    207    211    213     1  180.0000771  0.3347200  3
    208    207    211    489     1  180.0000771  0.0000000  2
    209    207    211    213     1  0.0000000  3.3472000  1
    209    207    211    213     1  0.0000000  0.0000000  2
    209    207    211    213     1  180.0000771  0.3347200  3
    209    207    211    489     1  180.0000771  0.0000000  2
    210    464    444    445     1  0.0000000  0.0000000  2
    210    464    444    446     1  0.0000000  0.0000000  2
    211    489    469    470     1  0.0000000  0.0000000  2
    211    489    469    471     1  0.0000000  0.0000000  2
    212    210    464    465     1  0.0000000  8.3680000  1
    212    210    464    465     1  180.0000771  10.4600000  2
    213    211    489    490     1  0.0000000  8.3680000  1
    213    211    489    490     1  180.0000771  10.4600000  2
    216    219    239    240     1  0.0000000  0.0000000  2
    216    222    223    224     1  0.0000000  1.2552000  3
    216    222    223    225     1  0.0000000  1.2552000  3
    216    222    226    227     1  0.0000000  1.2552000  3
    216    222    226    228     1  0.0000000  1.2552000  3
    217    216    219    239     1  0.0000000  0.6508444  3
    217    216    219    220     1  0.0000000  0.6508444  3
    217    216    219    221     1  0.0000000  0.6508444  3
    217    216    222    223     1  0.0000000  1.2552000  3
    217    216    222    226     1  0.0000000  1.2552000  3
    218    216    219    239     1  0.0000000  0.6508444  3
    218    216    219    220     1  0.0000000  0.6508444  3
    218    216    219    221     1  0.0000000  0.6508444  3
    218    216    222    223     1  0.0000000  1.2552000  3
    218    216    222    226     1  0.0000000  1.2552000  3
    220    219    216    222     1  0.0000000  0.6508444  3
    220    219    239    240     1  0.0000000  0.0000000  2
    221    219    216    222     1  0.0000000  0.6508444  3
    221    219    239    240     1  0.0000000  0.0000000  2
    222    223    232    233     1  0.0000000  0.6508444  3
    222    223    232    234     1  0.0000000  0.6508444  3
    222    226    229    230     1  0.0000000  0.6508444  3
    222    226    229    231     1  0.0000000  0.6508444  3
    223    222    226    227     1  0.0000000  1.2552000  3
    223    222    226    228     1  0.0000000  1.2552000  3
    224    223    222    226     1  0.0000000  1.2552000  3
    224    223    232    236     1  0.0000000  0.6508444  3
    224    223    232    233     1  0.0000000  0.6508444  3
    224    223    232    234     1  0.0000000  0.6508444  3
    225    223    222    226     1  0.0000000  1.2552000  3
    225    223    232    236     1  0.0000000  0.6508444  3
    225    223    232    233     1  0.0000000  0.6508444  3
    225    223    232    234     1  0.0000000  0.6508444  3
    227    226    229    235     1  0.0000000  0.6508444  3
    227    226    229    230     1  0.0000000  0.6508444  3
    227    226    229    231     1  0.0000000  0.6508444  3
    228    226    229    235     1  0.0000000  0.6508444  3
    228    226    229    230     1  0.0000000  0.6508444  3
    228    226    229    231     1  0.0000000  0.6508444  3
    229    235    514    515     1  180.0000771  10.4600000  2
    230    229    235    237     1  0.0000000  3.3472000  1
    230    229    235    237     1  0.0000000  0.0000000  2
    230    229    235    237     1  180.0000771  0.3347200  3
    230    229    235    514     1  180.0000771  0.0000000  2
    231    229    235    237     1  0.0000000  3.3472000  1
    231    229    235    237     1  0.0000000  0.0000000  2
    231    229    235    237     1  180.0000771  0.3347200  3
    231    229    235    514     1  180.0000771  0.0000000  2
    232    236    539    540     1  180.0000771  10.4600000  2
    233    232    236    238     1  0.0000000  3.3472000  1
    233    232    236    238     1  0.0000000  0.0000000  2
    233    232    236    238     1  180.0000771  0.3347200  3
    233    232    236    539     1  180.0000771  0.0000000  2
    234    232    236    238     1  0.0000000  3.3472000  1
    234    232    236    238     1  0.0000000  0.0000000  2
    234    232    236    238     1  180.0000771  0.3347200  3
    234    232    236    539     1  180.0000771  0.0000000  2
    235    514    494    495     1  0.0000000  0.0000000  2
    235    514    494    496     1  0.0000000  0.0000000  2
    236    539    519    520     1  0.0000000  0.0000000  2
    236    539    519    521     1  0.0000000  0.0000000  2
    237    235    514    515     1  0.0000000  8.3680000  1
    237    235    514    515     1  180.0000771  10.4600000  2
    238    236    539    540     1  0.0000000  8.3680000  1
    238    236    539    540     1  180.0000771  10.4600000  2
    241    244    264    265     1  0.0000000  0.0000000  2
    241    247    248    249     1  0.0000000  1.2552000  3
    241    247    248    250     1  0.0000000  1.2552000  3
    241    247    251    252     1  0.0000000  1.2552000  3
    241    247    251    253     1  0.0000000  1.2552000  3
    242    241    244    264     1  0.0000000  0.6508444  3
    242    241    244    245     1  0.0000000  0.6508444  3
    242    241    244    246     1  0.0000000  0.6508444  3
    242    241    247    248     1  0.0000000  1.2552000  3
    242    241    247    251     1  0.0000000  1.2552000  3
    243    241    244    264     1  0.0000000  0.6508444  3
    243    241    244    245     1  0.0000000  0.6508444  3
    243    241    244    246     1  0.0000000  0.6508444  3
    243    241    247    248     1  0.0000000  1.2552000  3
    243    241    247    251     1  0.0000000  1.2552000  3
    245    244    241    247     1  0.0000000  0.6508444  3
    245    244    264    265     1  0.0000000  0.0000000  2
    246    244    241    247     1  0.0000000  0.6508444  3
    246    244    264    265     1  0.0000000  0.0000000  2
    247    248    257    258     1  0.0000000  0.6508444  3
    247    248    257    259     1  0.0000000  0.6508444  3
    247    251    254    255     1  0.0000000  0.6508444  3
    247    251    254    256     1  0.0000000  0.6508444  3
    248    247    251    252     1  0.0000000  1.2552000  3
    248    247    251    253     1  0.0000000  1.2552000  3
    249    248    247    251     1  0.0000000  1.2552000  3
    249    248    257    261     1  0.0000000  0.6508444  3
    249    248    257    258     1  0.0000000  0.6508444  3
    249    248    257    259     1  0.0000000  0.6508444  3
    250    248    247    251     1  0.0000000  1.2552000  3
    250    248    257    261     1  0.0000000  0.6508444  3
    250    248    257    258     1  0.0000000  0.6508444  3
    250    248    257    259     1  0.0000000  0.6508444  3
    252    251    254    260     1  0.0000000  0.6508444  3
    252    251    254    255     1  0.0000000  0.6508444  3
    252    251    254    256     1  0.0000000  0.6508444  3
    253    251    254    260     1  0.0000000  0.6508444  3
    253    251    254    255     1  0.0000000  0.6508444  3
    253    251    254    256     1  0.0000000  0.6508444  3
    254    260    564    565     1  180.0000771  10.4600000  2
    255    254    260    262     1  0.0000000  3.3472000  1
    255    254    260    262     1  0.0000000  0.0000000  2
    255    254    260    262     1  180.0000771  0.3347200  3
    255    254    260    564     1  180.0000771  0.0000000  2
    256    254    260    262     1  0.0000000  3.3472000  1
    256    254    260    262     1  0.0000000  0.0000000  2
    256    254    260    262     1  180.0000771  0.3347200  3
    256    254    260    564     1  180.0000771  0.0000000  2
    257    261    589    590     1  180.0000771  10.4600000  2
    258    257    261    263     1  0.0000000  3.3472000  1
    258    257    261    263     1  0.0000000  0.0000000  2
    258    257    261    263     1  180.0000771  0.3347200  3
    258    257    261    589     1  180.0000771  0.0000000  2
    259    257    261    263     1  0.0000000  3.3472000  1
    259    257    261    263     1  0.0000000  0.0000000  2
    259    257    261    263     1  180.0000771  0.3347200  3
    259    257    261    589     1  180.0000771  0.0000000  2
    260    564    544    545     1  0.0000000  0.0000000  2
    260    564    544    546     1  0.0000000  0.0000000  2
    261    589    569    570     1  0.0000000  0.0000000  2
    261    589    569    571     1  0.0000000  0.0000000  2
    262    260    564    565     1  0.0000000  8.3680000  1
    262    260    564    565     1  180.0000771  10.4600000  2
    263    261    589    590     1  0.0000000  8.3680000  1
    263    261    589    590     1  180.0000771  10.4600000  2
    266    269    289    290     1  0.0000000  0.0000000  2
    266    272    273    274     1  0.0000000  1.2552000  3
    266    272    273    275     1  0.0000000  1.2552000  3
    266    272    276    277     1  0.0000000  1.2552000  3
    266    272    276    278     1  0.0000000  1.2552000  3
    267    266    269    289     1  0.0000000  0.6508444  3
    267    266    269    270     1  0.0000000  0.6508444  3
    267    266    269    271     1  0.0000000  0.6508444  3
    267    266    272    273     1  0.0000000  1.2552000  3
    267    266    272    276     1  0.0000000  1.2552000  3
    268    266    269    289     1  0.0000000  0.6508444  3
    268    266    269    270     1  0.0000000  0.6508444  3
    268    266    269    271     1  0.0000000  0.6508444  3
    268    266    272    273     1  0.0000000  1.2552000  3
    268    266    272    276     1  0.0000000  1.2552000  3
    270    269    266    272     1  0.0000000  0.6508444  3
    270    269    289    290     1  0.0000000  0.0000000  2
    271    269    266    272     1  0.0000000  0.6508444  3
    271    269    289    290     1  0.0000000  0.0000000  2
    272    273    282    283     1  0.0000000  0.6508444  3
    272    273    282    284     1  0.0000000  0.6508444  3
    272    276    279    280     1  0.0000000  0.6508444  3
    272    276    279    281     1  0.0000000  0.6508444  3
    273    272    276    277     1  0.0000000  1.2552000  3
    273    272    276    278     1  0.0000000  1.2552000  3
    274    273    272    276     1  0.0000000  1.2552000  3
    274    273    282    286     1  0.0000000  0.6508444  3
    274    273    282    283     1  0.0000000  0.6508444  3
    274    273    282    284     1  0.0000000  0.6508444  3
    275    273    272    276     1  0.0000000  1.2552000  3
    275    273    282    286     1  0.0000000  0.6508444  3
    275    273    282    283     1  0.0000000  0.6508444  3
    275    273    282    284     1  0.0000000  0.6508444  3
    277    276    279    285     1  0.0000000  0.6508444  3
    277    276    279    280     1  0.0000000  0.6508444  3
    277    276    279    281     1  0.0000000  0.6508444  3
    278    276    279    285     1  0.0000000  0.6508444  3
    278    276    279    280     1  0.0000000  0.6508444  3
    278    276    279    281     1  0.0000000  0.6508444  3
    279    285    614    615     1  180.0000771  10.4600000  2
    280    279    285    287     1  0.0000000  3.3472000  1
    280    279    285    287     1  0.0000000  0.0000000  2
    280    279    285    287     1  180.0000771  0.3347200  3
    280    279    285    614     1  180.0000771  0.0000000  2
    281    279    285    287     1  0.0000000  3.3472000  1
    281    279    285    287     1  0.0000000  0.0000000  2
    281    279    285    287     1  180.0000771  0.3347200  3
    281    279    285    614     1  180.0000771  0.0000000  2
    282    286    639    640     1  180.0000771  10.4600000  2
    283    282    286    288     1  0.0000000  3.3472000  1
    283    282    286    288     1  0.0000000  0.0000000  2
    283    282    286    288     1  180.0000771  0.3347200  3
    283    282    286    639     1  180.0000771  0.0000000  2
    284    282    286    288     1  0.0000000  3.3472000  1
    284    282    286    288     1  0.0000000  0.0000000  2
    284    282    286    288     1  180.0000771  0.3347200  3
    284    282    286    639     1  180.0000771  0.0000000  2
    285    614    594    595     1  0.0000000  0.0000000  2
    285    614    594    596     1  0.0000000  0.0000000  2
    286    639    619    620     1  0.0000000  0.0000000  2
    286    639    619    621     1  0.0000000  0.0000000  2
    287    285    614    615     1  0.0000000  8.3680000  1
    287    285    614    615     1  180.0000771  10.4600000  2
    288    286    639    640     1  0.0000000  8.3680000  1
    288    286    639    640     1  180.0000771  10.4600000  2
    291    294    314    315     1  0.0000000  0.0000000  2
    291    297    298    299     1  0.0000000  1.2552000  3
    291    297    298    300     1  0.0000000  1.2552000  3
    291    297    301    302     1  0.0000000  1.2552000  3
    291    297    301    303     1  0.0000000  1.2552000  3
    292    291    294    314     1  0.0000000  0.6508444  3
    292    291    294    295     1  0.0000000  0.6508444  3
    292    291    294    296     1  0.0000000  0.6508444  3
    292    291    297    298     1  0.0000000  1.2552000  3
    292    291    297    301     1  0.0000000  1.2552000  3
    293    291    294    314     1  0.0000000  0.6508444  3
    293    291    294    295     1  0.0000000  0.6508444  3
    293    291    294    296     1  0.0000000  0.6508444  3
    293    291    297    298     1  0.0000000  1.2552000  3
    293    291    297    301     1  0.0000000  1.2552000  3
    295    294    291    297     1  0.0000000  0.6508444  3
    295    294    314    315     1  0.0000000  0.0000000  2
    296    294    291    297     1  0.0000000  0.6508444  3
    296    294    314    315     1  0.0000000  0.0000000  2
    297    298    307    308     1  0.0000000  0.6508444  3
    297    298    307    309     1  0.0000000  0.6508444  3
    297    301    304    305     1  0.0000000  0.6508444  3
    297    301    304    306     1  0.0000000  0.6508444  3
    298    297    301    302     1  0.0000000  1.2552000  3
    298    297    301    303     1  0.0000000  1.2552000  3
    299    298    297    301     1  0.0000000  1.2552000  3
    299    298    307    311     1  0.0000000  0.6508444  3
    299    298    307    308     1  0.0000000  0.6508444  3
    299    298    307    309     1  0.0000000  0.6508444  3
    300    298    297    301     1  0.0000000  1.2552000  3
    300    298    307    311     1  0.0000000  0.6508444  3
    300    298    307    308     1  0.0000000  0.6508444  3
    300    298    307    309     1  0.0000000  0.6508444  3
    302    301    304    310     1  0.0000000  0.6508444  3
    302    301    304    305     1  0.0000000  0.6508444  3
    302    301    304    306     1  0.0000000  0.6508444  3
    303    301    304    310     1  0.0000000  0.6508444  3
    303    301    304    305     1  0.0000000  0.6508444  3
    303    301    304    306     1  0.0000000  0.6508444  3
    304    310    664    665     1  180.0000771  10.4600000  2
    305    304    310    312     1  0.0000000  3.3472000  1
    305    304    310    312     1  0.0000000  0.0000000  2
    305    304    310    312     1  180.0000771  0.3347200  3
    305    304    310    664     1  180.0000771  0.0000000  2
    306    304    310    312     1  0.0000000  3.3472000  1
    306    304    310    312     1  0.0000000  0.0000000  2
    306    304    310    312     1  180.0000771  0.3347200  3
    306    304    310    664     1  180.0000771  0.0000000  2
    307    311    689    690     1  180.0000771  10.4600000  2
    308    307    311    313     1  0.0000000  3.3472000  1
    308    307    311    313     1  0.0000000  0.0000000  2
    308    307    311    313     1  180.0000771  0.3347200  3
    308    307    311    689     1  180.0000771  0.0000000  2
    309    307    311    313     1  0.0000000  3.3472000  1
    309    307    311    313     1  0.0000000  0.0000000  2
    309    307    311    313     1  180.0000771  0.3347200  3
    309    307    311    689     1  180.0000771  0.0000000  2
    310    664    644    645     1  0.0000000  0.0000000  2
    310    664    644    646     1  0.0000000  0.0000000  2
    311    689    669    670     1  0.0000000  0.0000000  2
    311    689    669    671     1  0.0000000  0.0000000  2
    312    310    664    665     1  0.0000000  8.3680000  1
    312    310    664    665     1  180.0000771  10.4600000  2
    313    311    689    690     1  0.0000000  8.3680000  1
    313    311    689    690     1  180.0000771  10.4600000  2
    316    319    339    340     1  0.0000000  0.0000000  2
    316    322    323    324     1  0.0000000  1.2552000  3
    316    322    323    325     1  0.0000000  1.2552000  3
    316    322    326    327     1  0.0000000  1.2552000  3
    316    322    326    328     1  0.0000000  1.2552000  3
    317    316    319    339     1  0.0000000  0.6508444  3
    317    316    319    320     1  0.0000000  0.6508444  3
    317    316    319    321     1  0.0000000  0.6508444  3
    317    316    322    323     1  0.0000000  1.2552000  3
    317    316    322    326     1  0.0000000  1.2552000  3
    318    316    319    339     1  0.0000000  0.6508444  3
    318    316    319    320     1  0.0000000  0.6508444  3
    318    316    319    321     1  0.0000000  0.6508444  3
    318    316    322    323     1  0.0000000  1.2552000  3
    318    316    322    326     1  0.0000000  1.2552000  3
    320    319    316    322     1  0.0000000  0.6508444  3
    320    319    339    340     1  0.0000000  0.0000000  2
    321    319    316    322     1  0.0000000  0.6508444  3
    321    319    339    340     1  0.0000000  0.0000000  2
    322    323    332    333     1  0.0000000  0.6508444  3
    322    323    332    334     1  0.0000000  0.6508444  3
    322    326    329    330     1  0.0000000  0.6508444  3
    322    326    329    331     1  0.0000000  0.6508444  3
    323    322    326    327     1  0.0000000  1.2552000  3
    323    322    326    328     1  0.0000000  1.2552000  3
    324    323    322    326     1  0.0000000  1.2552000  3
    324    323    332    336     1  0.0000000  0.6508444  3
    324    323    332    333     1  0.0000000  0.6508444  3
    324    323    332    334     1  0.0000000  0.6508444  3
    325    323    322    326     1  0.0000000  1.2552000  3
    325    323    332    336     1  0.0000000  0.6508444  3
    325    323    332    333     1  0.0000000  0.6508444  3
    325    323    332    334     1  0.0000000  0.6508444  3
    327    326    329    335     1  0.0000000  0.6508444  3
    327    326    329    330     1  0.0000000  0.6508444  3
    327    326    329    331     1  0.0000000  0.6508444  3
    328    326    329    335     1  0.0000000  0.6508444  3
    328    326    329    330     1  0.0000000  0.6508444  3
    328    326    329    331     1  0.0000000  0.6508444  3
    329    335    714    715     1  180.0000771  10.4600000  2
    330    329    335    337     1  0.0000000  3.3472000  1
    330    329    335    337     1  0.0000000  0.0000000  2
    330    329    335    337     1  180.0000771  0.3347200  3
    330    329    335    714     1  180.0000771  0.0000000  2
    331    329    335    337     1  0.0000000  3.3472000  1
    331    329    335    337     1  0.0000000  0.0000000  2
    331    329    335    337     1  180.0000771  0.3347200  3
    331    329    335    714     1  180.0000771  0.0000000  2
    332    336    739    740     1  180.0000771  10.4600000  2
    333    332    336    338     1  0.0000000  3.3472000  1
    333    332    336    338     1  0.0000000  0.0000000  2
    333    332    336    338     1  180.0000771  0.3347200  3
    333    332    336    739     1  180.0000771  0.0000000  2
    334    332    336    338     1  0.0000000  3.3472000  1
    334    332    336    338     1  0.0000000  0.0000000  2
    334    332    336    338     1  180.0000771  0.3347200  3
    334    332    336    739     1  180.0000771  0.0000000  2
    335    714    694    695     1  0.0000000  0.0000000  2
    335    714    694    696     1  0.0000000  0.0000000  2
    336    739    719    720     1  0.0000000  0.0000000  2
    336    739    719    721     1  0.0000000  0.0000000  2
    337    335    714    715     1  0.0000000  8.3680000  1
    337    335    714    715     1  180.0000771  10.4600000  2
    338    336    739    740     1  0.0000000  8.3680000  1
    338    336    739    740     1  180.0000771  10.4600000  2
    341    344    364    365     1  0.0000000  0.0000000  2
    341    347    348    349     1  0.0000000  1.2552000  3
    341    347    348    350     1  0.0000000  1.2552000  3
    341    347    351    352     1  0.0000000  1.2552000  3
    341    347    351    353     1  0.0000000  1.2552000  3
    342    341    344    364     1  0.0000000  0.6508444  3
    342    341    344    345     1  0.0000000  0.6508444  3
    342    341    344    346     1  0.0000000  0.6508444  3
    342    341    347    348     1  0.0000000  1.2552000  3
    342    341    347    351     1  0.0000000  1.2552000  3
    343    341    344    364     1  0.0000000  0.6508444  3
    343    341    344    345     1  0.0000000  0.6508444  3
    343    341    344    346     1  0.0000000  0.6508444  3
    343    341    347    348     1  0.0000000  1.2552000  3
    343    341    347    351     1  0.0000000  1.2552000  3
    345    344    341    347     1  0.0000000  0.6508444  3
    345    344    364    365     1  0.0000000  0.0000000  2
    346    344    341    347     1  0.0000000  0.6508444  3
    346    344    364    365     1  0.0000000  0.0000000  2
    347    348    357    358     1  0.0000000  0.6508444  3
    347    348    357    359     1  0.0000000  0.6508444  3
    347    351    354    355     1  0.0000000  0.6508444  3
    347    351    354    356     1  0.0000000  0.6508444  3
    348    347    351    352     1  0.0000000  1.2552000  3
    348    347    351    353     1  0.0000000  1.2552000  3
    349    348    347    351     1  0.0000000  1.2552000  3
    349    348    357    361     1  0.0000000  0.6508444  3
    349    348    357    358     1  0.0000000  0.6508444  3
    349    348    357    359     1  0.0000000  0.6508444  3
    350    348    347    351     1  0.0000000  1.2552000  3
    350    348    357    361     1  0.0000000  0.6508444  3
    350    348    357    358     1  0.0000000  0.6508444  3
    350    348    357    359     1  0.0000000  0.6508444  3
    352    351    354    360     1  0.0000000  0.6508444  3
    352    351    354    355     1  0.0000000  0.6508444  3
    352    351    354    356     1  0.0000000  0.6508444  3
    353    351    354    360     1  0.0000000  0.6508444  3
    353    351    354    355     1  0.0000000  0.6508444  3
    353    351    354    356     1  0.0000000  0.6508444  3
    354    360    764    765     1  180.0000771  10.4600000  2
    355    354    360    362     1  0.0000000  3.3472000  1
    355    354    360    362     1  0.0000000  0.0000000  2
    355    354    360    362     1  180.0000771  0.3347200  3
    355    354    360    764     1  180.0000771  0.0000000  2
    356    354    360    362     1  0.0000000  3.3472000  1
    356    354    360    362     1  0.0000000  0.0000000  2
    356    354    360    362     1  180.0000771  0.3347200  3
    356    354    360    764     1  180.0000771  0.0000000  2
    357    361    789    790     1  180.0000771  10.4600000  2
    358    357    361    363     1  0.0000000  3.3472000  1
    358    357    361    363     1  0.0000000  0.0000000  2
    358    357    361    363     1  180.0000771  0.3347200  3
    358    357    361    789     1  180.0000771  0.0000000  2
    359    357    361    363     1  0.0000000  3.3472000  1
    359    357    361    363     1  0.0000000  0.0000000  2
    359    357    361    363     1  180.0000771  0.3347200  3
    359    357    361    789     1  180.0000771  0.0000000  2
    360    764    744    745     1  0.0000000  0.0000000  2
    360    764    744    746     1  0.0000000  0.0000000  2
    361    789    769    770     1  0.0000000  0.0000000  2
    361    789    769    771     1  0.0000000  0.0000000  2
    362    360    764    765     1  0.0000000  8.3680000  1
    362    360    764    765     1  180.0000771  10.4600000  2
    363    361    789    790     1  0.0000000  8.3680000  1
    363    361    789    790     1  180.0000771  10.4600000  2
    366    369    389    390     1  0.0000000  0.0000000  2
    366    372    373    374     1  0.0000000  1.2552000  3
    366    372    373    375     1  0.0000000  1.2552000  3
    366    372    376    377     1  0.0000000  1.2552000  3
    366    372    376    378     1  0.0000000  1.2552000  3
    367    366    369    389     1  0.0000000  0.6508444  3
    367    366    369    370     1  0.0000000  0.6508444  3
    367    366    369    371     1  0.0000000  0.6508444  3
    367    366    372    373     1  0.0000000  1.2552000  3
    367    366    372    376     1  0.0000000  1.2552000  3
    368    366    369    389     1  0.0000000  0.6508444  3
    368    366    369    370     1  0.0000000  0.6508444  3
    368    366    369    371     1  0.0000000  0.6508444  3
    368    366    372    373     1  0.0000000  1.2552000  3
    368    366    372    376     1  0.0000000  1.2552000  3
    370    369    366    372     1  0.0000000  0.6508444  3
    370    369    389    390     1  0.0000000  0.0000000  2
    371    369    366    372     1  0.0000000  0.6508444  3
    371    369    389    390     1  0.0000000  0.0000000  2
    372    373    382    383     1  0.0000000  0.6508444  3
    372    373    382    384     1  0.0000000  0.6508444  3
    372    376    379    380     1  0.0000000  0.6508444  3
    372    376    379    381     1  0.0000000  0.6508444  3
    373    372    376    377     1  0.0000000  1.2552000  3
    373    372    376    378     1  0.0000000  1.2552000  3
    374    373    372    376     1  0.0000000  1.2552000  3
    374    373    382    386     1  0.0000000  0.6508444  3
    374    373    382    383     1  0.0000000  0.6508444  3
    374    373    382    384     1  0.0000000  0.6508444  3
    375    373    372    376     1  0.0000000  1.2552000  3
    375    373    382    386     1  0.0000000  0.6508444  3
    375    373    382    383     1  0.0000000  0.6508444  3
    375    373    382    384     1  0.0000000  0.6508444  3
    377    376    379    385     1  0.0000000  0.6508444  3
    377    376    379    380     1  0.0000000  0.6508444  3
    377    376    379    381     1  0.0000000  0.6508444  3
    378    376    379    385     1  0.0000000  0.6508444  3
    378    376    379    380     1  0.0000000  0.6508444  3
    378    376    379    381     1  0.0000000  0.6508444  3
    379    385    814    815     1  180.0000771  10.4600000  2
    380    379    385    387     1  0.0000000  3.3472000  1
    380    379    385    387     1  0.0000000  0.0000000  2
    380    379    385    387     1  180.0000771  0.3347200  3
    380    379    385    814     1  180.0000771  0.0000000  2
    381    379    385    387     1  0.0000000  3.3472000  1
    381    379    385    387     1  0.0000000  0.0000000  2
    381    379    385    387     1  180.0000771  0.3347200  3
    381    379    385    814     1  180.0000771  0.0000000  2
    382    386    839    840     1  180.0000771  10.4600000  2
    383    382    386    388     1  0.0000000  3.3472000  1
    383    382    386    388     1  0.0000000  0.0000000  2
    383    382    386    388     1  180.0000771  0.3347200  3
    383    382    386    839     1  180.0000771  0.0000000  2
    384    382    386    388     1  0.0000000  3.3472000  1
    384    382    386    388     1  0.0000000  0.0000000  2
    384    382    386    388     1  180.0000771  0.3347200  3
    384    382    386    839     1  180.0000771  0.0000000  2
    385    814    794    795     1  0.0000000  0.0000000  2
    385    814    794    796     1  0.0000000  0.0000000  2
    386    839    819    820     1  0.0000000  0.0000000  2
    386    839    819    821     1  0.0000000  0.0000000  2
    387    385    814    815     1  0.0000000  8.3680000  1
    387    385    814    815     1  180.0000771  10.4600000  2
    388    386    839    840     1  0.0000000  8.3680000  1
    388    386    839    840     1  180.0000771  10.4600000  2
    391    394    414    415     1  0.0000000  0.0000000  2
    391    397    398    399     1  0.0000000  1.2552000  3
    391    397    398    400     1  0.0000000  1.2552000  3
    391    397    401    402     1  0.0000000  1.2552000  3
    391    397    401    403     1  0.0000000  1.2552000  3
    392    391    394    414     1  0.0000000  0.6508444  3
    392    391    394    395     1  0.0000000  0.6508444  3
    392    391    394    396     1  0.0000000  0.6508444  3
    392    391    397    398     1  0.0000000  1.2552000  3
    392    391    397    401     1  0.0000000  1.2552000  3
    393    391    394    414     1  0.0000000  0.6508444  3
    393    391    394    395     1  0.0000000  0.6508444  3
    393    391    394    396     1  0.0000000  0.6508444  3
    393    391    397    398     1  0.0000000  1.2552000  3
    393    391    397    401     1  0.0000000  1.2552000  3
    395    394    391    397     1  0.0000000  0.6508444  3
    395    394    414    415     1  0.0000000  0.0000000  2
    396    394    391    397     1  0.0000000  0.6508444  3
    396    394    414    415     1  0.0000000  0.0000000  2
    397    398    407    408     1  0.0000000  0.6508444  3
    397    398    407    409     1  0.0000000  0.6508444  3
    397    401    404    405     1  0.0000000  0.6508444  3
    397    401    404    406     1  0.0000000  0.6508444  3
    398    397    401    402     1  0.0000000  1.2552000  3
    398    397    401    403     1  0.0000000  1.2552000  3
    399    398    397    401     1  0.0000000  1.2552000  3
    399    398    407    411     1  0.0000000  0.6508444  3
    399    398    407    408     1  0.0000000  0.6508444  3
    399    398    407    409     1  0.0000000  0.6508444  3
    400    398    397    401     1  0.0000000  1.2552000  3
    400    398    407    411     1  0.0000000  0.6508444  3
    400    398    407    408     1  0.0000000  0.6508444  3
    400    398    407    409     1  0.0000000  0.6508444  3
    402    401    404    410     1  0.0000000  0.6508444  3
    402    401    404    405     1  0.0000000  0.6508444  3
    402    401    404    406     1  0.0000000  0.6508444  3
    403    401    404    410     1  0.0000000  0.6508444  3
    403    401    404    405     1  0.0000000  0.6508444  3
    403    401    404    406     1  0.0000000  0.6508444  3
    404    410    864    865     1  180.0000771  10.4600000  2
    405    404    410    412     1  0.0000000  3.3472000  1
    405    404    410    412     1  0.0000000  0.0000000  2
    405    404    410    412     1  180.0000771  0.3347200  3
    405    404    410    864     1  180.0000771  0.0000000  2
    406    404    410    412     1  0.0000000  3.3472000  1
    406    404    410    412     1  0.0000000  0.0000000  2
    406    404    410    412     1  180.0000771  0.3347200  3
    406    404    410    864     1  180.0000771  0.0000000  2
    407    411    889    890     1  180.0000771  10.4600000  2
    408    407    411    413     1  0.0000000  3.3472000  1
    408    407    411    413     1  0.0000000  0.0000000  2
    408    407    411    413     1  180.0000771  0.3347200  3
    408    407    411    889     1  180.0000771  0.0000000  2
    409    407    411    413     1  0.0000000  3.3472000  1
    409    407    411    413     1  0.0000000  0.0000000  2
    409    407    411    413     1  180.0000771  0.3347200  3
    409    407    411    889     1  180.0000771  0.0000000  2
    410    864    844    845     1  0.0000000  0.0000000  2
    410    864    844    846     1  0.0000000  0.0000000  2
    411    889    869    870     1  0.0000000  0.0000000  2
    411    889    869    871     1  0.0000000  0.0000000  2
    412    410    864    865     1  0.0000000  8.3680000  1
    412    410    864    865     1  180.0000771  10.4600000  2
    413    411    889    890     1  0.0000000  8.3680000  1
    413    411    889    890     1  180.0000771  10.4600000  2
    416    419    439    440     1  0.0000000  0.0000000  2
    416    422    423    424     1  0.0000000  1.2552000  3
    416    422    423    425     1  0.0000000  1.2552000  3
    416    422    426    427     1  0.0000000  1.2552000  3
    416    422    426    428     1  0.0000000  1.2552000  3
    417    416    419    439     1  0.0000000  0.6508444  3
    417    416    419    420     1  0.0000000  0.6508444  3
    417    416    419    421     1  0.0000000  0.6508444  3
    417    416    422    423     1  0.0000000  1.2552000  3
    417    416    422    426     1  0.0000000  1.2552000  3
    418    416    419    439     1  0.0000000  0.6508444  3
    418    416    419    420     1  0.0000000  0.6508444  3
    418    416    419    421     1  0.0000000  0.6508444  3
    418    416    422    423     1  0.0000000  1.2552000  3
    418    416    422    426     1  0.0000000  1.2552000  3
    420    419    416    422     1  0.0000000  0.6508444  3
    420    419    439    440     1  0.0000000  0.0000000  2
    421    419    416    422     1  0.0000000  0.6508444  3
    421    419    439    440     1  0.0000000  0.0000000  2
    422    423    432    433     1  0.0000000  0.6508444  3
    422    423    432    434     1  0.0000000  0.6508444  3
    422    426    429    430     1  0.0000000  0.6508444  3
    422    426    429    431     1  0.0000000  0.6508444  3
    423    422    426    427     1  0.0000000  1.2552000  3
    423    422    426    428     1  0.0000000  1.2552000  3
    424    423    422    426     1  0.0000000  1.2552000  3
    424    423    432    436     1  0.0000000  0.6508444  3
    424    423    432    433     1  0.0000000  0.6508444  3
    424    423    432    434     1  0.0000000  0.6508444  3
    425    423    422    426     1  0.0000000  1.2552000  3
    425    423    432    436     1  0.0000000  0.6508444  3
    425    423    432    433     1  0.0000000  0.6508444  3
    425    423    432    434     1  0.0000000  0.6508444  3
    427    426    429    435     1  0.0000000  0.6508444  3
    427    426    429    430     1  0.0000000  0.6508444  3
    427    426    429    431     1  0.0000000  0.6508444  3
    428    426    429    435     1  0.0000000  0.6508444  3
    428    426    429    430     1  0.0000000  0.6508444  3
    428    426    429    431     1  0.0000000  0.6508444  3
    429    435    914    915     1  180.0000771  10.4600000  2
    430    429    435    437     1  0.0000000  3.3472000  1
    430    429    435    437     1  0.0000000  0.0000000  2
    430    429    435    437     1  180.0000771  0.3347200  3
    430    429    435    914     1  180.0000771  0.0000000  2
    431    429    435    437     1  0.0000000  3.3472000  1
    431    429    435    437     1  0.0000000  0.0000000  2
    431    429    435    437     1  180.0000771  0.3347200  3
    431    429    435    914     1  180.0000771  0.0000000  2
    432    436    939    940     1  180.0000771  10.4600000  2
    433    432    436    438     1  0.0000000  3.3472000  1
    433    432    436    438     1  0.0000000  0.0000000  2
    433    432    436    438     1  180.0000771  0.3347200  3
    433    432    436    939     1  180.0000771  0.0000000  2
    434    432    436    438     1  0.0000000  3.3472000  1
    434    432    436    438     1  0.0000000  0.0000000  2
    434    432    436    438     1  180.0000771  0.3347200  3
    434    432    436    939     1  180.0000771  0.0000000  2
    435    914    894    895     1  0.0000000  0.0000000  2
    435    914    894    896     1  0.0000000  0.0000000  2
    436    939    919    920     1  0.0000000  0.0000000  2
    436    939    919    921     1  0.0000000  0.0000000  2
    437    435    914    915     1  0.0000000  8.3680000  1
    437    435    914    915     1  180.0000771  10.4600000  2
    438    436    939    940     1  0.0000000  8.3680000  1
    438    436    939    940     1  180.0000771  10.4600000  2
    441    444    464    465     1  0.0000000  0.0000000  2
    441    447    448    449     1  0.0000000  1.2552000  3
    441    447    448    450     1  0.0000000  1.2552000  3
    441    447    451    452     1  0.0000000  1.2552000  3
    441    447    451    453     1  0.0000000  1.2552000  3
    442    441    444    464     1  0.0000000  0.6508444  3
    442    441    444    445     1  0.0000000  0.6508444  3
    442    441    444    446     1  0.0000000  0.6508444  3
    442    441    447    448     1  0.0000000  1.2552000  3
    442    441    447    451     1  0.0000000  1.2552000  3
    443    441    444    464     1  0.0000000  0.6508444  3
    443    441    444    445     1  0.0000000  0.6508444  3
    443    441    444    446     1  0.0000000  0.6508444  3
    443    441    447    448     1  0.0000000  1.2552000  3
    443    441    447    451     1  0.0000000  1.2552000  3
    445    444    441    447     1  0.0000000  0.6508444  3
    445    444    464    465     1  0.0000000  0.0000000  2
    446    444    441    447     1  0.0000000  0.6508444  3
    446    444    464    465     1  0.0000000  0.0000000  2
    447    448    457    458     1  0.0000000  0.6508444  3
    447    448    457    459     1  0.0000000  0.6508444  3
    447    451    454    455     1  0.0000000  0.6508444  3
    447    451    454    456     1  0.0000000  0.6508444  3
    448    447    451    452     1  0.0000000  1.2552000  3
    448    447    451    453     1  0.0000000  1.2552000  3
    449    448    447    451     1  0.0000000  1.2552000  3
    449    448    457    461     1  0.0000000  0.6508444  3
    449    448    457    458     1  0.0000000  0.6508444  3
    449    448    457    459     1  0.0000000  0.6508444  3
    450    448    447    451     1  0.0000000  1.2552000  3
    450    448    457    461     1  0.0000000  0.6508444  3
    450    448    457    458     1  0.0000000  0.6508444  3
    450    448    457    459     1  0.0000000  0.6508444  3
    452    451    454    460     1  0.0000000  0.6508444  3
    452    451    454    455     1  0.0000000  0.6508444  3
    452    451    454    456     1  0.0000000  0.6508444  3
    453    451    454    460     1  0.0000000  0.6508444  3
    453    451    454    455     1  0.0000000  0.6508444  3
    453    451    454    456     1  0.0000000  0.6508444  3
    454    460    964    965     1  180.0000771  10.4600000  2
    455    454    460    462     1  0.0000000  3.3472000  1
    455    454    460    462     1  0.0000000  0.0000000  2
    455    454    460    462     1  180.0000771  0.3347200  3
    455    454    460    964     1  180.0000771  0.0000000  2
    456    454    460    462     1  0.0000000  3.3472000  1
    456    454    460    462     1  0.0000000  0.0000000  2
    456    454    460    462     1  180.0000771  0.3347200  3
    456    454    460    964     1  180.0000771  0.0000000  2
    457    461    989    990     1  180.0000771  10.4600000  2
    458    457    461    463     1  0.0000000  3.3472000  1
    458    457    461    463     1  0.0000000  0.0000000  2
    458    457    461    463     1  180.0000771  0.3347200  3
    458    457    461    989     1  180.0000771  0.0000000  2
    459    457    461    463     1  0.0000000  3.3472000  1
    459    457    461    463     1  0.0000000  0.0000000  2
    459    457    461    463     1  180.0000771  0.3347200  3
    459    457    461    989     1  180.0000771  0.0000000  2
    460    964    944    945     1  0.0000000  0.0000000  2
    460    964    944    946     1  0.0000000  0.0000000  2
    461    989    969    970     1  0.0000000  0.0000000  2
    461    989    969    971     1  0.0000000  0.0000000  2
    462    460    964    965     1  0.0000000  8.3680000  1
    462    460    964    965     1  180.0000771  10.4600000  2
    463    461    989    990     1  0.0000000  8.3680000  1
    463    461    989    990     1  180.0000771  10.4600000  2
    466    469    489    490     1  0.0000000  0.0000000  2
    466    472    473    474     1  0.0000000  1.2552000  3
    466    472    473    475     1  0.0000000  1.2552000  3
    466    472    476    477     1  0.0000000  1.2552000  3
    466    472    476    478     1  0.0000000  1.2552000  3
    467    466    469    489     1  0.0000000  0.6508444  3
    467    466    469    470     1  0.0000000  0.6508444  3
    467    466    469    471     1  0.0000000  0.6508444  3
    467    466    472    473     1  0.0000000  1.2552000  3
    467    466    472    476     1  0.0000000  1.2552000  3
    468    466    469    489     1  0.0000000  0.6508444  3
    468    466    469    470     1  0.0000000  0.6508444  3
    468    466    469    471     1  0.0000000  0.6508444  3
    468    466    472    473     1  0.0000000  1.2552000  3
    468    466    472    476     1  0.0000000  1.2552000  3
    470    469    466    472     1  0.0000000  0.6508444  3
    470    469    489    490     1  0.0000000  0.0000000  2
    471    469    466    472     1  0.0000000  0.6508444  3
    471    469    489    490     1  0.0000000  0.0000000  2
    472    473    482    483     1  0.0000000  0.6508444  3
    472    473    482    484     1  0.0000000  0.6508444  3
    472    476    479    480     1  0.0000000  0.6508444  3
    472    476    479    481     1  0.0000000  0.6508444  3
    473    472    476    477     1  0.0000000  1.2552000  3
    473    472    476    478     1  0.0000000  1.2552000  3
    474    473    472    476     1  0.0000000  1.2552000  3
    474    473    482    486     1  0.0000000  0.6508444  3
    474    473    482    483     1  0.0000000  0.6508444  3
    474    473    482    484     1  0.0000000  0.6508444  3
    475    473    472    476     1  0.0000000  1.2552000  3
    475    473    482    486     1  0.0000000  0.6508444  3
    475    473    482    483     1  0.0000000  0.6508444  3
    475    473    482    484     1  0.0000000  0.6508444  3
    477    476    479    485     1  0.0000000  0.6508444  3
    477    476    479    480     1  0.0000000  0.6508444  3
    477    476    479    481     1  0.0000000  0.6508444  3
    478    476    479    485     1  0.0000000  0.6508444  3
    478    476    479    480     1  0.0000000  0.6508444  3
    478    476    479    481     1  0.0000000  0.6508444  3
    479    485   1014   1015     1  180.0000771  10.4600000  2
    480    479    485    487     1  0.0000000  3.3472000  1
    480    479    485    487     1  0.0000000  0.0000000  2
    480    479    485    487     1  180.0000771  0.3347200  3
    480    479    485   1014     1  180.0000771  0.0000000  2
    481    479    485    487     1  0.0000000  3.3472000  1
    481    479    485    487     1  0.0000000  0.0000000  2
    481    479    485    487     1  180.0000771  0.3347200  3
    481    479    485   1014     1  180.0000771  0.0000000  2
    482    486   1039   1040     1  180.0000771  10.4600000  2
    483    482    486    488     1  0.0000000  3.3472000  1
    483    482    486    488     1  0.0000000  0.0000000  2
    483    482    486    488     1  180.0000771  0.3347200  3
    483    482    486   1039     1  180.0000771  0.0000000  2
    484    482    486    488     1  0.0000000  3.3472000  1
    484    482    486    488     1  0.0000000  0.0000000  2
    484    482    486    488     1  180.0000771  0.3347200  3
    484    482    486   1039     1  180.0000771  0.0000000  2
    485   1014    994    995     1  0.0000000  0.0000000  2
    485   1014    994    996     1  0.0000000  0.0000000  2
    486   1039   1019   1020     1  0.0000000  0.0000000  2
    486   1039   1019   1021     1  0.0000000  0.0000000  2
    487    485   1014   1015     1  0.0000000  8.3680000  1
    487    485   1014   1015     1  180.0000771  10.4600000  2
    488    486   1039   1040     1  0.0000000  8.3680000  1
    488    486   1039   1040     1  180.0000771  10.4600000  2
    491    494    514    515     1  0.0000000  0.0000000  2
    491    497    498    499     1  0.0000000  1.2552000  3
    491    497    498    500     1  0.0000000  1.2552000  3
    491    497    501    502     1  0.0000000  1.2552000  3
    491    497    501    503     1  0.0000000  1.2552000  3
    492    491    494    514     1  0.0000000  0.6508444  3
    492    491    494    495     1  0.0000000  0.6508444  3
    492    491    494    496     1  0.0000000  0.6508444  3
    492    491    497    498     1  0.0000000  1.2552000  3
    492    491    497    501     1  0.0000000  1.2552000  3
    493    491    494    514     1  0.0000000  0.6508444  3
    493    491    494    495     1  0.0000000  0.6508444  3
    493    491    494    496     1  0.0000000  0.6508444  3
    493    491    497    498     1  0.0000000  1.2552000  3
    493    491    497    501     1  0.0000000  1.2552000  3
    495    494    491    497     1  0.0000000  0.6508444  3
    495    494    514    515     1  0.0000000  0.0000000  2
    496    494    491    497     1  0.0000000  0.6508444  3
    496    494    514    515     1  0.0000000  0.0000000  2
    497    498    507    508     1  0.0000000  0.6508444  3
    497    498    507    509     1  0.0000000  0.6508444  3
    497    501    504    505     1  0.0000000  0.6508444  3
    497    501    504    506     1  0.0000000  0.6508444  3
    498    497    501    502     1  0.0000000  1.2552000  3
    498    497    501    503     1  0.0000000  1.2552000  3
    499    498    497    501     1  0.0000000  1.2552000  3
    499    498    507    511     1  0.0000000  0.6508444  3
    499    498    507    508     1  0.0000000  0.6508444  3
    499    498    507    509     1  0.0000000  0.6508444  3
    500    498    497    501     1  0.0000000  1.2552000  3
    500    498    507    511     1  0.0000000  0.6508444  3
    500    498    507    508     1  0.0000000  0.6508444  3
    500    498    507    509     1  0.0000000  0.6508444  3
    502    501    504    510     1  0.0000000  0.6508444  3
    502    501    504    505     1  0.0000000  0.6508444  3
    502    501    504    506     1  0.0000000  0.6508444  3
    503    501    504    510     1  0.0000000  0.6508444  3
    503    501    504    505     1  0.0000000  0.6508444  3
    503    501    504    506     1  0.0000000  0.6508444  3
    504    510   1064   1065     1  180.0000771  10.4600000  2
    505    504    510    512     1  0.0000000  3.3472000  1
    505    504    510    512     1  0.0000000  0.0000000  2
    505    504    510    512     1  180.0000771  0.3347200  3
    505    504    510   1064     1  180.0000771  0.0000000  2
    506    504    510    512     1  0.0000000  3.3472000  1
    506    504    510    512     1  0.0000000  0.0000000  2
    506    504    510    512     1  180.0000771  0.3347200  3
    506    504    510   1064     1  180.0000771  0.0000000  2
    507    511   1089   1090     1  180.0000771  10.4600000  2
    508    507    511    513     1  0.0000000  3.3472000  1
    508    507    511    513     1  0.0000000  0.0000000  2
    508    507    511    513     1  180.0000771  0.3347200  3
    508    507    511   1089     1  180.0000771  0.0000000  2
    509    507    511    513     1  0.0000000  3.3472000  1
    509    507    511    513     1  0.0000000  0.0000000  2
    509    507    511    513     1  180.0000771  0.3347200  3
    509    507    511   1089     1  180.0000771  0.0000000  2
    510   1064   1044   1045     1  0.0000000  0.0000000  2
    510   1064   1044   1046     1  0.0000000  0.0000000  2
    511   1089   1069   1070     1  0.0000000  0.0000000  2
    511   1089   1069   1071     1  0.0000000  0.0000000  2
    512    510   1064   1065     1  0.0000000  8.3680000  1
    512    510   1064   1065     1  180.0000771  10.4600000  2
    513    511   1089   1090     1  0.0000000  8.3680000  1
    513    511   1089   1090     1  180.0000771  10.4600000  2
    516    519    539    540     1  0.0000000  0.0000000  2
    516    522    523    524     1  0.0000000  1.2552000  3
    516    522    523    525     1  0.0000000  1.2552000  3
    516    522    526    527     1  0.0000000  1.2552000  3
    516    522    526    528     1  0.0000000  1.2552000  3
    517    516    519    539     1  0.0000000  0.6508444  3
    517    516    519    520     1  0.0000000  0.6508444  3
    517    516    519    521     1  0.0000000  0.6508444  3
    517    516    522    523     1  0.0000000  1.2552000  3
    517    516    522    526     1  0.0000000  1.2552000  3
    518    516    519    539     1  0.0000000  0.6508444  3
    518    516    519    520     1  0.0000000  0.6508444  3
    518    516    519    521     1  0.0000000  0.6508444  3
    518    516    522    523     1  0.0000000  1.2552000  3
    518    516    522    526     1  0.0000000  1.2552000  3
    520    519    516    522     1  0.0000000  0.6508444  3
    520    519    539    540     1  0.0000000  0.0000000  2
    521    519    516    522     1  0.0000000  0.6508444  3
    521    519    539    540     1  0.0000000  0.0000000  2
    522    523    532    533     1  0.0000000  0.6508444  3
    522    523    532    534     1  0.0000000  0.6508444  3
    522    526    529    530     1  0.0000000  0.6508444  3
    522    526    529    531     1  0.0000000  0.6508444  3
    523    522    526    527     1  0.0000000  1.2552000  3
    523    522    526    528     1  0.0000000  1.2552000  3
    524    523    522    526     1  0.0000000  1.2552000  3
    524    523    532    536     1  0.0000000  0.6508444  3
    524    523    532    533     1  0.0000000  0.6508444  3
    524    523    532    534     1  0.0000000  0.6508444  3
    525    523    522    526     1  0.0000000  1.2552000  3
    525    523    532    536     1  0.0000000  0.6508444  3
    525    523    532    533     1  0.0000000  0.6508444  3
    525    523    532    534     1  0.0000000  0.6508444  3
    527    526    529    535     1  0.0000000  0.6508444  3
    527    526    529    530     1  0.0000000  0.6508444  3
    527    526    529    531     1  0.0000000  0.6508444  3
    528    526    529    535     1  0.0000000  0.6508444  3
    528    526    529    530     1  0.0000000  0.6508444  3
    528    526    529    531     1  0.0000000  0.6508444  3
    529    535   1114   1115     1  180.0000771  10.4600000  2
    530    529    535    537     1  0.0000000  3.3472000  1
    530    529    535    537     1  0.0000000  0.0000000  2
    530    529    535    537     1  180.0000771  0.3347200  3
    530    529    535   1114     1  180.0000771  0.0000000  2
    531    529    535    537     1  0.0000000  3.3472000  1
    531    529    535    537     1  0.0000000  0.0000000  2
    531    529    535    537     1  180.0000771  0.3347200  3
    531    529    535   1114     1  180.0000771  0.0000000  2
    532    536   1139   1140     1  180.0000771  10.4600000  2
    533    532    536    538     1  0.0000000  3.3472000  1
    533    532    536    538     1  0.0000000  0.0000000  2
    533    532    536    538     1  180.0000771  0.3347200  3
    533    532    536   1139     1  180.0000771  0.0000000  2
    534    532    536    538     1  0.0000000  3.3472000  1
    534    532    536    538     1  0.0000000  0.0000000  2
    534    532    536    538     1  180.0000771  0.3347200  3
    534    532    536   1139     1  180.0000771  0.0000000  2
    535   1114   1094   1095     1  0.0000000  0.0000000  2
    535   1114   1094   1096     1  0.0000000  0.0000000  2
    536   1139   1119   1120     1  0.0000000  0.0000000  2
    536   1139   1119   1121     1  0.0000000  0.0000000  2
    537    535   1114   1115     1  0.0000000  8.3680000  1
    537    535   1114   1115     1  180.0000771  10.4600000  2
    538    536   1139   1140     1  0.0000000  8.3680000  1
    538    536   1139   1140     1  180.0000771  10.4600000  2
    541    544    564    565     1  0.0000000  0.0000000  2
    541    547    548    549     1  0.0000000  1.2552000  3
    541    547    548    550     1  0.0000000  1.2552000  3
    541    547    551    552     1  0.0000000  1.2552000  3
    541    547    551    553     1  0.0000000  1.2552000  3
    542    541    544    564     1  0.0000000  0.6508444  3
    542    541    544    545     1  0.0000000  0.6508444  3
    542    541    544    546     1  0.0000000  0.6508444  3
    542    541    547    548     1  0.0000000  1.2552000  3
    542    541    547    551     1  0.0000000  1.2552000  3
    543    541    544    564     1  0.0000000  0.6508444  3
    543    541    544    545     1  0.0000000  0.6508444  3
    543    541    544    546     1  0.0000000  0.6508444  3
    543    541    547    548     1  0.0000000  1.2552000  3
    543    541    547    551     1  0.0000000  1.2552000  3
    545    544    541    547     1  0.0000000  0.6508444  3
    545    544    564    565     1  0.0000000  0.0000000  2
    546    544    541    547     1  0.0000000  0.6508444  3
    546    544    564    565     1  0.0000000  0.0000000  2
    547    548    557    558     1  0.0000000  0.6508444  3
    547    548    557    559     1  0.0000000  0.6508444  3
    547    551    554    555     1  0.0000000  0.6508444  3
    547    551    554    556     1  0.0000000  0.6508444  3
    548    547    551    552     1  0.0000000  1.2552000  3
    548    547    551    553     1  0.0000000  1.2552000  3
    549    548    547    551     1  0.0000000  1.2552000  3
    549    548    557    561     1  0.0000000  0.6508444  3
    549    548    557    558     1  0.0000000  0.6508444  3
    549    548    557    559     1  0.0000000  0.6508444  3
    550    548    547    551     1  0.0000000  1.2552000  3
    550    548    557    561     1  0.0000000  0.6508444  3
    550    548    557    558     1  0.0000000  0.6508444  3
    550    548    557    559     1  0.0000000  0.6508444  3
    552    551    554    560     1  0.0000000  0.6508444  3
    552    551    554    555     1  0.0000000  0.6508444  3
    552    551    554    556     1  0.0000000  0.6508444  3
    553    551    554    560     1  0.0000000  0.6508444  3
    553    551    554    555     1  0.0000000  0.6508444  3
    553    551    554    556     1  0.0000000  0.6508444  3
    554    560   1164   1165     1  180.0000771  10.4600000  2
    555    554    560    562     1  0.0000000  3.3472000  1
    555    554    560    562     1  0.0000000  0.0000000  2
    555    554    560    562     1  180.0000771  0.3347200  3
    555    554    560   1164     1  180.0000771  0.0000000  2
    556    554    560    562     1  0.0000000  3.3472000  1
    556    554    560    562     1  0.0000000  0.0000000  2
    556    554    560    562     1  180.0000771  0.3347200  3
    556    554    560   1164     1  180.0000771  0.0000000  2
    557    561   1189   1190     1  180.0000771  10.4600000  2
    558    557    561    563     1  0.0000000  3.3472000  1
    558    557    561    563     1  0.0000000  0.0000000  2
    558    557    561    563     1  180.0000771  0.3347200  3
    558    557    561   1189     1  180.0000771  0.0000000  2
    559    557    561    563     1  0.0000000  3.3472000  1
    559    557    561    563     1  0.0000000  0.0000000  2
    559    557    561    563     1  180.0000771  0.3347200  3
    559    557    561   1189     1  180.0000771  0.0000000  2
    560   1164   1144   1145     1  0.0000000  0.0000000  2
    560   1164   1144   1146     1  0.0000000  0.0000000  2
    561   1189   1169   1170     1  0.0000000  0.0000000  2
    561   1189   1169   1171     1  0.0000000  0.0000000  2
    562    560   1164   1165     1  0.0000000  8.3680000  1
    562    560   1164   1165     1  180.0000771  10.4600000  2
    563    561   1189   1190     1  0.0000000  8.3680000  1
    563    561   1189   1190     1  180.0000771  10.4600000  2
    566    569    589    590     1  0.0000000  0.0000000  2
    566    572    573    574     1  0.0000000  1.2552000  3
    566    572    573    575     1  0.0000000  1.2552000  3
    566    572    576    577     1  0.0000000  1.2552000  3
    566    572    576    578     1  0.0000000  1.2552000  3
    567    566    569    589     1  0.0000000  0.6508444  3
    567    566    569    570     1  0.0000000  0.6508444  3
    567    566    569    571     1  0.0000000  0.6508444  3
    567    566    572    573     1  0.0000000  1.2552000  3
    567    566    572    576     1  0.0000000  1.2552000  3
    568    566    569    589     1  0.0000000  0.6508444  3
    568    566    569    570     1  0.0000000  0.6508444  3
    568    566    569    571     1  0.0000000  0.6508444  3
    568    566    572    573     1  0.0000000  1.2552000  3
    568    566    572    576     1  0.0000000  1.2552000  3
    570    569    566    572     1  0.0000000  0.6508444  3
    570    569    589    590     1  0.0000000  0.0000000  2
    571    569    566    572     1  0.0000000  0.6508444  3
    571    569    589    590     1  0.0000000  0.0000000  2
    572    573    582    583     1  0.0000000  0.6508444  3
    572    573    582    584     1  0.0000000  0.6508444  3
    572    576    579    580     1  0.0000000  0.6508444  3
    572    576    579    581     1  0.0000000  0.6508444  3
    573    572    576    577     1  0.0000000  1.2552000  3
    573    572    576    578     1  0.0000000  1.2552000  3
    574    573    572    576     1  0.0000000  1.2552000  3
    574    573    582    586     1  0.0000000  0.6508444  3
    574    573    582    583     1  0.0000000  0.6508444  3
    574    573    582    584     1  0.0000000  0.6508444  3
    575    573    572    576     1  0.0000000  1.2552000  3
    575    573    582    586     1  0.0000000  0.6508444  3
    575    573    582    583     1  0.0000000  0.6508444  3
    575    573    582    584     1  0.0000000  0.6508444  3
    577    576    579    585     1  0.0000000  0.6508444  3
    577    576    579    580     1  0.0000000  0.6508444  3
    577    576    579    581     1  0.0000000  0.6508444  3
    578    576    579    585     1  0.0000000  0.6508444  3
    578    576    579    580     1  0.0000000  0.6508444  3
    578    576    579    581     1  0.0000000  0.6508444  3
    579    585   1214   1215     1  180.0000771  10.4600000  2
    580    579    585    587     1  0.0000000  3.3472000  1
    580    579    585    587     1  0.0000000  0.0000000  2
    580    579    585    587     1  180.0000771  0.3347200  3
    580    579    585   1214     1  180.0000771  0.0000000  2
    581    579    585    587     1  0.0000000  3.3472000  1
    581    579    585    587     1  0.0000000  0.0000000  2
    581    579    585    587     1  180.0000771  0.3347200  3
    581    579    585   1214     1  180.0000771  0.0000000  2
    582    586   1239   1240     1  180.0000771  10.4600000  2
    583    582    586    588     1  0.0000000  3.3472000  1
    583    582    586    588     1  0.0000000  0.0000000  2
    583    582    586    588     1  180.0000771  0.3347200  3
    583    582    586   1239     1  180.0000771  0.0000000  2
    584    582    586    588     1  0.0000000  3.3472000  1
    584    582    586    588     1  0.0000000  0.0000000  2
    584    582    586    588     1  180.0000771  0.3347200  3
    584    582    586   1239     1  180.0000771  0.0000000  2
    585   1214   1194   1195     1  0.0000000  0.0000000  2
    585   1214   1194   1196     1  0.0000000  0.0000000  2
    586   1239   1219   1220     1  0.0000000  0.0000000  2
    586   1239   1219   1221     1  0.0000000  0.0000000  2
    587    585   1214   1215     1  0.0000000  8.3680000  1
    587    585   1214   1215     1  180.0000771  10.4600000  2
    588    586   1239   1240     1  0.0000000  8.3680000  1
    588    586   1239   1240     1  180.0000771  10.4600000  2
    591    594    614    615     1  0.0000000  0.0000000  2
    591    597    598    599     1  0.0000000  1.2552000  3
    591    597    598    600     1  0.0000000  1.2552000  3
    591    597    601    602     1  0.0000000  1.2552000  3
    591    597    601    603     1  0.0000000  1.2552000  3
    592    591    594    614     1  0.0000000  0.6508444  3
    592    591    594    595     1  0.0000000  0.6508444  3
    592    591    594    596     1  0.0000000  0.6508444  3
    592    591    597    598     1  0.0000000  1.2552000  3
    592    591    597    601     1  0.0000000  1.2552000  3
    593    591    594    614     1  0.0000000  0.6508444  3
    593    591    594    595     1  0.0000000  0.6508444  3
    593    591    594    596     1  0.0000000  0.6508444  3
    593    591    597    598     1  0.0000000  1.2552000  3
    593    591    597    601     1  0.0000000  1.2552000  3
    595    594    591    597     1  0.0000000  0.6508444  3
    595    594    614    615     1  0.0000000  0.0000000  2
    596    594    591    597     1  0.0000000  0.6508444  3
    596    594    614    615     1  0.0000000  0.0000000  2
    597    598    607    608     1  0.0000000  0.6508444  3
    597    598    607    609     1  0.0000000  0.6508444  3
    597    601    604    605     1  0.0000000  0.6508444  3
    597    601    604    606     1  0.0000000  0.6508444  3
    598    597    601    602     1  0.0000000  1.2552000  3
    598    597    601    603     1  0.0000000  1.2552000  3
    599    598    597    601     1  0.0000000  1.2552000  3
    599    598    607    611     1  0.0000000  0.6508444  3
    599    598    607    608     1  0.0000000  0.6508444  3
    599    598    607    609     1  0.0000000  0.6508444  3
    600    598    597    601     1  0.0000000  1.2552000  3
    600    598    607    611     1  0.0000000  0.6508444  3
    600    598    607    608     1  0.0000000  0.6508444  3
    600    598    607    609     1  0.0000000  0.6508444  3
    602    601    604    610     1  0.0000000  0.6508444  3
    602    601    604    605     1  0.0000000  0.6508444  3
    602    601    604    606     1  0.0000000  0.6508444  3
    603    601    604    610     1  0.0000000  0.6508444  3
    603    601    604    605     1  0.0000000  0.6508444  3
    603    601    604    606     1  0.0000000  0.6508444  3
    604    610   1264   1265     1  180.0000771  10.4600000  2
    605    604    610    612     1  0.0000000  3.3472000  1
    605    604    610    612     1  0.0000000  0.0000000  2
    605    604    610    612     1  180.0000771  0.3347200  3
    605    604    610   1264     1  180.0000771  0.0000000  2
    606    604    610    612     1  0.0000000  3.3472000  1
    606    604    610    612     1  0.0000000  0.0000000  2
    606    604    610    612     1  180.0000771  0.3347200  3
    606    604    610   1264     1  180.0000771  0.0000000  2
    607    611   1289   1290     1  180.0000771  10.4600000  2
    608    607    611    613     1  0.0000000  3.3472000  1
    608    607    611    613     1  0.0000000  0.0000000  2
    608    607    611    613     1  180.0000771  0.3347200  3
    608    607    611   1289     1  180.0000771  0.0000000  2
    609    607    611    613     1  0.0000000  3.3472000  1
    609    607    611    613     1  0.0000000  0.0000000  2
    609    607    611    613     1  180.0000771  0.3347200  3
    609    607    611   1289     1  180.0000771  0.0000000  2
    610   1264   1244   1245     1  0.0000000  0.0000000  2
    610   1264   1244   1246     1  0.0000000  0.0000000  2
    611   1289   1269   1270     1  0.0000000  0.0000000  2
    611   1289   1269   1271     1  0.0000000  0.0000000  2
    612    610   1264   1265     1  0.0000000  8.3680000  1
    612    610   1264   1265     1  180.0000771  10.4600000  2
    613    611   1289   1290     1  0.0000000  8.3680000  1
    613    611   1289   1290     1  180.0000771  10.4600000  2
    616    619    639    640     1  0.0000000  0.0000000  2
    616    622    623    624     1  0.0000000  1.2552000  3
    616    622    623    625     1  0.0000000  1.2552000  3
    616    622    626    627     1  0.0000000  1.2552000  3
    616    622    626    628     1  0.0000000  1.2552000  3
    617    616    619    639     1  0.0000000  0.6508444  3
    617    616    619    620     1  0.0000000  0.6508444  3
    617    616    619    621     1  0.0000000  0.6508444  3
    617    616    622    623     1  0.0000000  1.2552000  3
    617    616    622    626     1  0.0000000  1.2552000  3
    618    616    619    639     1  0.0000000  0.6508444  3
    618    616    619    620     1  0.0000000  0.6508444  3
    618    616    619    621     1  0.0000000  0.6508444  3
    618    616    622    623     1  0.0000000  1.2552000  3
    618    616    622    626     1  0.0000000  1.2552000  3
    620    619    616    622     1  0.0000000  0.6508444  3
    620    619    639    640     1  0.0000000  0.0000000  2
    621    619    616    622     1  0.0000000  0.6508444  3
    621    619    639    640     1  0.0000000  0.0000000  2
    622    623    632    633     1  0.0000000  0.6508444  3
    622    623    632    634     1  0.0000000  0.6508444  3
    622    626    629    630     1  0.0000000  0.6508444  3
    622    626    629    631     1  0.0000000  0.6508444  3
    623    622    626    627     1  0.0000000  1.2552000  3
    623    622    626    628     1  0.0000000  1.2552000  3
    624    623    622    626     1  0.0000000  1.2552000  3
    624    623    632    636     1  0.0000000  0.6508444  3
    624    623    632    633     1  0.0000000  0.6508444  3
    624    623    632    634     1  0.0000000  0.6508444  3
    625    623    622    626     1  0.0000000  1.2552000  3
    625    623    632    636     1  0.0000000  0.6508444  3
    625    623    632    633     1  0.0000000  0.6508444  3
    625    623    632    634     1  0.0000000  0.6508444  3
    627    626    629    635     1  0.0000000  0.6508444  3
    627    626    629    630     1  0.0000000  0.6508444  3
    627    626    629    631     1  0.0000000  0.6508444  3
    628    626    629    635     1  0.0000000  0.6508444  3
    628    626    629    630     1  0.0000000  0.6508444  3
    628    626    629    631     1  0.0000000  0.6508444  3
    629    635   1314   1315     1  180.0000771  10.4600000  2
    630    629    635    637     1  0.0000000  3.3472000  1
    630    629    635    637     1  0.0000000  0.0000000  2
    630    629    635    637     1  180.0000771  0.3347200  3
    630    629    635   1314     1  180.0000771  0.0000000  2
    631    629    635    637     1  0.0000000  3.3472000  1
    631    629    635    637     1  0.0000000  0.0000000  2
    631    629    635    637     1  180.0000771  0.3347200  3
    631    629    635   1314     1  180.0000771  0.0000000  2
    632    636   1339   1340     1  180.0000771  10.4600000  2
    633    632    636    638     1  0.0000000  3.3472000  1
    633    632    636    638     1  0.0000000  0.0000000  2
    633    632    636    638     1  180.0000771  0.3347200  3
    633    632    636   1339     1  180.0000771  0.0000000  2
    634    632    636    638     1  0.0000000  3.3472000  1
    634    632    636    638     1  0.0000000  0.0000000  2
    634    632    636    638     1  180.0000771  0.3347200  3
    634    632    636   1339     1  180.0000771  0.0000000  2
    635   1314   1294   1295     1  0.0000000  0.0000000  2
    635   1314   1294   1296     1  0.0000000  0.0000000  2
    636   1339   1319   1320     1  0.0000000  0.0000000  2
    636   1339   1319   1321     1  0.0000000  0.0000000  2
    637    635   1314   1315     1  0.0000000  8.3680000  1
    637    635   1314   1315     1  180.0000771  10.4600000  2
    638    636   1339   1340     1  0.0000000  8.3680000  1
    638    636   1339   1340     1  180.0000771  10.4600000  2
    641    644    664    665     1  0.0000000  0.0000000  2
    641    647    648    649     1  0.0000000  1.2552000  3
    641    647    648    650     1  0.0000000  1.2552000  3
    641    647    651    652     1  0.0000000  1.2552000  3
    641    647    651    653     1  0.0000000  1.2552000  3
    642    641    644    664     1  0.0000000  0.6508444  3
    642    641    644    645     1  0.0000000  0.6508444  3
    642    641    644    646     1  0.0000000  0.6508444  3
    642    641    647    648     1  0.0000000  1.2552000  3
    642    641    647    651     1  0.0000000  1.2552000  3
    643    641    644    664     1  0.0000000  0.6508444  3
    643    641    644    645     1  0.0000000  0.6508444  3
    643    641    644    646     1  0.0000000  0.6508444  3
    643    641    647    648     1  0.0000000  1.2552000  3
    643    641    647    651     1  0.0000000  1.2552000  3
    645    644    641    647     1  0.0000000  0.6508444  3
    645    644    664    665     1  0.0000000  0.0000000  2
    646    644    641    647     1  0.0000000  0.6508444  3
    646    644    664    665     1  0.0000000  0.0000000  2
    647    648    657    658     1  0.0000000  0.6508444  3
    647    648    657    659     1  0.0000000  0.6508444  3
    647    651    654    655     1  0.0000000  0.6508444  3
    647    651    654    656     1  0.0000000  0.6508444  3
    648    647    651    652     1  0.0000000  1.2552000  3
    648    647    651    653     1  0.0000000  1.2552000  3
    649    648    647    651     1  0.0000000  1.2552000  3
    649    648    657    661     1  0.0000000  0.6508444  3
    649    648    657    658     1  0.0000000  0.6508444  3
    649    648    657    659     1  0.0000000  0.6508444  3
    650    648    647    651     1  0.0000000  1.2552000  3
    650    648    657    661     1  0.0000000  0.6508444  3
    650    648    657    658     1  0.0000000  0.6508444  3
    650    648    657    659     1  0.0000000  0.6508444  3
    652    651    654    660     1  0.0000000  0.6508444  3
    652    651    654    655     1  0.0000000  0.6508444  3
    652    651    654    656     1  0.0000000  0.6508444  3
    653    651    654    660     1  0.0000000  0.6508444  3
    653    651    654    655     1  0.0000000  0.6508444  3
    653    651    654    656     1  0.0000000  0.6508444  3
    654    660   1364   1365     1  180.0000771  10.4600000  2
    655    654    660    662     1  0.0000000  3.3472000  1
    655    654    660    662     1  0.0000000  0.0000000  2
    655    654    660    662     1  180.0000771  0.3347200  3
    655    654    660   1364     1  180.0000771  0.0000000  2
    656    654    660    662     1  0.0000000  3.3472000  1
    656    654    660    662     1  0.0000000  0.0000000  2
    656    654    660    662     1  180.0000771  0.3347200  3
    656    654    660   1364     1  180.0000771  0.0000000  2
    657    661   1389   1390     1  180.0000771  10.4600000  2
    658    657    661    663     1  0.0000000  3.3472000  1
    658    657    661    663     1  0.0000000  0.0000000  2
    658    657    661    663     1  180.0000771  0.3347200  3
    658    657    661   1389     1  180.0000771  0.0000000  2
    659    657    661    663     1  0.0000000  3.3472000  1
    659    657    661    663     1  0.0000000  0.0000000  2
    659    657    661    663     1  180.0000771  0.3347200  3
    659    657    661   1389     1  180.0000771  0.0000000  2
    660   1364   1344   1345     1  0.0000000  0.0000000  2
    660   1364   1344   1346     1  0.0000000  0.0000000  2
    661   1389   1369   1370     1  0.0000000  0.0000000  2
    661   1389   1369   1371     1  0.0000000  0.0000000  2
    662    660   1364   1365     1  0.0000000  8.3680000  1
    662    660   1364   1365     1  180.0000771  10.4600000  2
    663    661   1389   1390     1  0.0000000  8.3680000  1
    663    661   1389   1390     1  180.0000771  10.4600000  2
    666    669    689    690     1  0.0000000  0.0000000  2
    666    672    673    674     1  0.0000000  1.2552000  3
    666    672    673    675     1  0.0000000  1.2552000  3
    666    672    676    677     1  0.0000000  1.2552000  3
    666    672    676    678     1  0.0000000  1.2552000  3
    667    666    669    689     1  0.0000000  0.6508444  3
    667    666    669    670     1  0.0000000  0.6508444  3
    667    666    669    671     1  0.0000000  0.6508444  3
    667    666    672    673     1  0.0000000  1.2552000  3
    667    666    672    676     1  0.0000000  1.2552000  3
    668    666    669    689     1  0.0000000  0.6508444  3
    668    666    669    670     1  0.0000000  0.6508444  3
    668    666    669    671     1  0.0000000  0.6508444  3
    668    666    672    673     1  0.0000000  1.2552000  3
    668    666    672    676     1  0.0000000  1.2552000  3
    670    669    666    672     1  0.0000000  0.6508444  3
    670    669    689    690     1  0.0000000  0.0000000  2
    671    669    666    672     1  0.0000000  0.6508444  3
    671    669    689    690     1  0.0000000  0.0000000  2
    672    673    682    683     1  0.0000000  0.6508444  3
    672    673    682    684     1  0.0000000  0.6508444  3
    672    676    679    680     1  0.0000000  0.6508444  3
    672    676    679    681     1  0.0000000  0.6508444  3
    673    672    676    677     1  0.0000000  1.2552000  3
    673    672    676    678     1  0.0000000  1.2552000  3
    674    673    672    676     1  0.0000000  1.2552000  3
    674    673    682    686     1  0.0000000  0.6508444  3
    674    673    682    683     1  0.0000000  0.6508444  3
    674    673    682    684     1  0.0000000  0.6508444  3
    675    673    672    676     1  0.0000000  1.2552000  3
    675    673    682    686     1  0.0000000  0.6508444  3
    675    673    682    683     1  0.0000000  0.6508444  3
    675    673    682    684     1  0.0000000  0.6508444  3
    677    676    679    685     1  0.0000000  0.6508444  3
    677    676    679    680     1  0.0000000  0.6508444  3
    677    676    679    681     1  0.0000000  0.6508444  3
    678    676    679    685     1  0.0000000  0.6508444  3
    678    676    679    680     1  0.0000000  0.6508444  3
    678    676    679    681     1  0.0000000  0.6508444  3
    679    685   1414   1415     1  180.0000771  10.4600000  2
    680    679    685    687     1  0.0000000  3.3472000  1
    680    679    685    687     1  0.0000000  0.0000000  2
    680    679    685    687     1  180.0000771  0.3347200  3
    680    679    685   1414     1  180.0000771  0.0000000  2
    681    679    685    687     1  0.0000000  3.3472000  1
    681    679    685    687     1  0.0000000  0.0000000  2
    681    679    685    687     1  180.0000771  0.3347200  3
    681    679    685   1414     1  180.0000771  0.0000000  2
    682    686   1439   1440     1  180.0000771  10.4600000  2
    683    682    686    688     1  0.0000000  3.3472000  1
    683    682    686    688     1  0.0000000  0.0000000  2
    683    682    686    688     1  180.0000771  0.3347200  3
    683    682    686   1439     1  180.0000771  0.0000000  2
    684    682    686    688     1  0.0000000  3.3472000  1
    684    682    686    688     1  0.0000000  0.0000000  2
    684    682    686    688     1  180.0000771  0.3347200  3
    684    682    686   1439     1  180.0000771  0.0000000  2
    685   1414   1394   1395     1  0.0000000  0.0000000  2
    685   1414   1394   1396     1  0.0000000  0.0000000  2
    686   1439   1419   1420     1  0.0000000  0.0000000  2
    686   1439   1419   1421     1  0.0000000  0.0000000  2
    687    685   1414   1415     1  0.0000000  8.3680000  1
    687    685   1414   1415     1  180.0000771  10.4600000  2
    688    686   1439   1440     1  0.0000000  8.3680000  1
    688    686   1439   1440     1  180.0000771  10.4600000  2
    691    694    714    715     1  0.0000000  0.0000000  2
    691    697    698    699     1  0.0000000  1.2552000  3
    691    697    698    700     1  0.0000000  1.2552000  3
    691    697    701    702     1  0.0000000  1.2552000  3
    691    697    701    703     1  0.0000000  1.2552000  3
    692    691    694    714     1  0.0000000  0.6508444  3
    692    691    694    695     1  0.0000000  0.6508444  3
    692    691    694    696     1  0.0000000  0.6508444  3
    692    691    697    698     1  0.0000000  1.2552000  3
    692    691    697    701     1  0.0000000  1.2552000  3
    693    691    694    714     1  0.0000000  0.6508444  3
    693    691    694    695     1  0.0000000  0.6508444  3
    693    691    694    696     1  0.0000000  0.6508444  3
    693    691    697    698     1  0.0000000  1.2552000  3
    693    691    697    701     1  0.0000000  1.2552000  3
    695    694    691    697     1  0.0000000  0.6508444  3
    695    694    714    715     1  0.0000000  0.0000000  2
    696    694    691    697     1  0.0000000  0.6508444  3
    696    694    714    715     1  0.0000000  0.0000000  2
    697    698    707    708     1  0.0000000  0.6508444  3
    697    698    707    709     1  0.0000000  0.6508444  3
    697    701    704    705     1  0.0000000  0.6508444  3
    697    701    704    706     1  0.0000000  0.6508444  3
    698    697    701    702     1  0.0000000  1.2552000  3
    698    697    701    703     1  0.0000000  1.2552000  3
    699    698    697    701     1  0.0000000  1.2552000  3
    699    698    707    711     1  0.0000000  0.6508444  3
    699    698    707    708     1  0.0000000  0.6508444  3
    699    698    707    709     1  0.0000000  0.6508444  3
    700    698    697    701     1  0.0000000  1.2552000  3
    700    698    707    711     1  0.0000000  0.6508444  3
    700    698    707    708     1  0.0000000  0.6508444  3
    700    698    707    709     1  0.0000000  0.6508444  3
    702    701    704    710     1  0.0000000  0.6508444  3
    702    701    704    705     1  0.0000000  0.6508444  3
    702    701    704    706     1  0.0000000  0.6508444  3
    703    701    704    710     1  0.0000000  0.6508444  3
    703    701    704    705     1  0.0000000  0.6508444  3
    703    701    704    706     1  0.0000000  0.6508444  3
    704    710   1464   1465     1  180.0000771  10.4600000  2
    705    704    710    712     1  0.0000000  3.3472000  1
    705    704    710    712     1  0.0000000  0.0000000  2
    705    704    710    712     1  180.0000771  0.3347200  3
    705    704    710   1464     1  180.0000771  0.0000000  2
    706    704    710    712     1  0.0000000  3.3472000  1
    706    704    710    712     1  0.0000000  0.0000000  2
    706    704    710    712     1  180.0000771  0.3347200  3
    706    704    710   1464     1  180.0000771  0.0000000  2
    707    711   1489   1490     1  180.0000771  10.4600000  2
    708    707    711    713     1  0.0000000  3.3472000  1
    708    707    711    713     1  0.0000000  0.0000000  2
    708    707    711    713     1  180.0000771  0.3347200  3
    708    707    711   1489     1  180.0000771  0.0000000  2
    709    707    711    713     1  0.0000000  3.3472000  1
    709    707    711    713     1  0.0000000  0.0000000  2
    709    707    711    713     1  180.0000771  0.3347200  3
    709    707    711   1489     1  180.0000771  0.0000000  2
    710   1464   1444   1445     1  0.0000000  0.0000000  2
    710   1464   1444   1446     1  0.0000000  0.0000000  2
    711   1489   1469   1470     1  0.0000000  0.0000000  2
    711   1489   1469   1471     1  0.0000000  0.0000000  2
    712    710   1464   1465     1  0.0000000  8.3680000  1
    712    710   1464   1465     1  180.0000771  10.4600000  2
    713    711   1489   1490     1  0.0000000  8.3680000  1
    713    711   1489   1490     1  180.0000771  10.4600000  2
    716    719    739    740     1  0.0000000  0.0000000  2
    716    722    723    724     1  0.0000000  1.2552000  3
    716    722    723    725     1  0.0000000  1.2552000  3
    716    722    726    727     1  0.0000000  1.2552000  3
    716    722    726    728     1  0.0000000  1.2552000  3
    717    716    719    739     1  0.0000000  0.6508444  3
    717    716    719    720     1  0.0000000  0.6508444  3
    717    716    719    721     1  0.0000000  0.6508444  3
    717    716    722    723     1  0.0000000  1.2552000  3
    717    716    722    726     1  0.0000000  1.2552000  3
    718    716    719    739     1  0.0000000  0.6508444  3
    718    716    719    720     1  0.0000000  0.6508444  3
    718    716    719    721     1  0.0000000  0.6508444  3
    718    716    722    723     1  0.0000000  1.2552000  3
    718    716    722    726     1  0.0000000  1.2552000  3
    720    719    716    722     1  0.0000000  0.6508444  3
    720    719    739    740     1  0.0000000  0.0000000  2
    721    719    716    722     1  0.0000000  0.6508444  3
    721    719    739    740     1  0.0000000  0.0000000  2
    722    723    732    733     1  0.0000000  0.6508444  3
    722    723    732    734     1  0.0000000  0.6508444  3
    722    726    729    730     1  0.0000000  0.6508444  3
    722    726    729    731     1  0.0000000  0.6508444  3
    723    722    726    727     1  0.0000000  1.2552000  3
    723    722    726    728     1  0.0000000  1.2552000  3
    724    723    722    726     1  0.0000000  1.2552000  3
    724    723    732    736     1  0.0000000  0.6508444  3
    724    723    732    733     1  0.0000000  0.6508444  3
    724    723    732    734     1  0.0000000  0.6508444  3
    725    723    722    726     1  0.0000000  1.2552000  3
    725    723    732    736     1  0.0000000  0.6508444  3
    725    723    732    733     1  0.0000000  0.6508444  3
    725    723    732    734     1  0.0000000  0.6508444  3
    727    726    729    735     1  0.0000000  0.6508444  3
    727    726    729    730     1  0.0000000  0.6508444  3
    727    726    729    731     1  0.0000000  0.6508444  3
    728    726    729    735     1  0.0000000  0.6508444  3
    728    726    729    730     1  0.0000000  0.6508444  3
    728    726    729    731     1  0.0000000  0.6508444  3
    729    735   1514   1515     1  180.0000771  10.4600000  2
    730    729    735    737     1  0.0000000  3.3472000  1
    730    729    735    737     1  0.0000000  0.0000000  2
    730    729    735    737     1  180.0000771  0.3347200  3
    730    729    735   1514     1  180.0000771  0.0000000  2
    731    729    735    737     1  0.0000000  3.3472000  1
    731    729    735    737     1  0.0000000  0.0000000  2
    731    729    735    737     1  180.0000771  0.3347200  3
    731    729    735   1514     1  180.0000771  0.0000000  2
    732    736   1539   1540     1  180.0000771  10.4600000  2
    733    732    736    738     1  0.0000000  3.3472000  1
    733    732    736    738     1  0.0000000  0.0000000  2
    733    732    736    738     1  180.0000771  0.3347200  3
    733    732    736   1539     1  180.0000771  0.0000000  2
    734    732    736    738     1  0.0000000  3.3472000  1
    734    732    736    738     1  0.0000000  0.0000000  2
    734    732    736    738     1  180.0000771  0.3347200  3
    734    732    736   1539     1  180.0000771  0.0000000  2
    735   1514   1494   1495     1  0.0000000  0.0000000  2
    735   1514   1494   1496     1  0.0000000  0.0000000  2
    736   1539   1519   1520     1  0.0000000  0.0000000  2
    736   1539   1519   1521     1  0.0000000  0.0000000  2
    737    735   1514   1515     1  0.0000000  8.3680000  1
    737    735   1514   1515     1  180.0000771  10.4600000  2
    738    736   1539   1540     1  0.0000000  8.3680000  1
    738    736   1539   1540     1  180.0000771  10.4600000  2
    741    744    764    765     1  0.0000000  0.0000000  2
    741    747    748    749     1  0.0000000  1.2552000  3
    741    747    748    750     1  0.0000000  1.2552000  3
    741    747    751    752     1  0.0000000  1.2552000  3
    741    747    751    753     1  0.0000000  1.2552000  3
    742    741    744    764     1  0.0000000  0.6508444  3
    742    741    744    745     1  0.0000000  0.6508444  3
    742    741    744    746     1  0.0000000  0.6508444  3
    742    741    747    748     1  0.0000000  1.2552000  3
    742    741    747    751     1  0.0000000  1.2552000  3
    743    741    744    764     1  0.0000000  0.6508444  3
    743    741    744    745     1  0.0000000  0.6508444  3
    743    741    744    746     1  0.0000000  0.6508444  3
    743    741    747    748     1  0.0000000  1.2552000  3
    743    741    747    751     1  0.0000000  1.2552000  3
    745    744    741    747     1  0.0000000  0.6508444  3
    745    744    764    765     1  0.0000000  0.0000000  2
    746    744    741    747     1  0.0000000  0.6508444  3
    746    744    764    765     1  0.0000000  0.0000000  2
    747    748    757    758     1  0.0000000  0.6508444  3
    747    748    757    759     1  0.0000000  0.6508444  3
    747    751    754    755     1  0.0000000  0.6508444  3
    747    751    754    756     1  0.0000000  0.6508444  3
    748    747    751    752     1  0.0000000  1.2552000  3
    748    747    751    753     1  0.0000000  1.2552000  3
    749    748    747    751     1  0.0000000  1.2552000  3
    749    748    757    761     1  0.0000000  0.6508444  3
    749    748    757    758     1  0.0000000  0.6508444  3
    749    748    757    759     1  0.0000000  0.6508444  3
    750    748    747    751     1  0.0000000  1.2552000  3
    750    748    757    761     1  0.0000000  0.6508444  3
    750    748    757    758     1  0.0000000  0.6508444  3
    750    748    757    759     1  0.0000000  0.6508444  3
    752    751    754    760     1  0.0000000  0.6508444  3
    752    751    754    755     1  0.0000000  0.6508444  3
    752    751    754    756     1  0.0000000  0.6508444  3
    753    751    754    760     1  0.0000000  0.6508444  3
    753    751    754    755     1  0.0000000  0.6508444  3
    753    751    754    756     1  0.0000000  0.6508444  3
    754    760   1564   1565     1  180.0000771  10.4600000  2
    755    754    760    762     1  0.0000000  3.3472000  1
    755    754    760    762     1  0.0000000  0.0000000  2
    755    754    760    762     1  180.0000771  0.3347200  3
    755    754    760   1564     1  180.0000771  0.0000000  2
    756    754    760    762     1  0.0000000  3.3472000  1
    756    754    760    762     1  0.0000000  0.0000000  2
    756    754    760    762     1  180.0000771  0.3347200  3
    756    754    760   1564     1  180.0000771  0.0000000  2
    757    761   1589   1590     1  180.0000771  10.4600000  2
    758    757    761    763     1  0.0000000  3.3472000  1
    758    757    761    763     1  0.0000000  0.0000000  2
    758    757    761    763     1  180.0000771  0.3347200  3
    758    757    761   1589     1  180.0000771  0.0000000  2
    759    757    761    763     1  0.0000000  3.3472000  1
    759    757    761    763     1  0.0000000  0.0000000  2
    759    757    761    763     1  180.0000771  0.3347200  3
    759    757    761   1589     1  180.0000771  0.0000000  2
    760   1564   1544   1545     1  0.0000000  0.0000000  2
    760   1564   1544   1546     1  0.0000000  0.0000000  2
    761   1589   1569   1570     1  0.0000000  0.0000000  2
    761   1589   1569   1571     1  0.0000000  0.0000000  2
    762    760   1564   1565     1  0.0000000  8.3680000  1
    762    760   1564   1565     1  180.0000771  10.4600000  2
    763    761   1589   1590     1  0.0000000  8.3680000  1
    763    761   1589   1590     1  180.0000771  10.4600000  2
    766    769    789    790     1  0.0000000  0.0000000  2
    766    772    773    774     1  0.0000000  1.2552000  3
    766    772    773    775     1  0.0000000  1.2552000  3
    766    772    776    777     1  0.0000000  1.2552000  3
    766    772    776    778     1  0.0000000  1.2552000  3
    767    766    769    789     1  0.0000000  0.6508444  3
    767    766    769    770     1  0.0000000  0.6508444  3
    767    766    769    771     1  0.0000000  0.6508444  3
    767    766    772    773     1  0.0000000  1.2552000  3
    767    766    772    776     1  0.0000000  1.2552000  3
    768    766    769    789     1  0.0000000  0.6508444  3
    768    766    769    770     1  0.0000000  0.6508444  3
    768    766    769    771     1  0.0000000  0.6508444  3
    768    766    772    773     1  0.0000000  1.2552000  3
    768    766    772    776     1  0.0000000  1.2552000  3
    770    769    766    772     1  0.0000000  0.6508444  3
    770    769    789    790     1  0.0000000  0.0000000  2
    771    769    766    772     1  0.0000000  0.6508444  3
    771    769    789    790     1  0.0000000  0.0000000  2
    772    773    782    783     1  0.0000000  0.6508444  3
    772    773    782    784     1  0.0000000  0.6508444  3
    772    776    779    780     1  0.0000000  0.6508444  3
    772    776    779    781     1  0.0000000  0.6508444  3
    773    772    776    777     1  0.0000000  1.2552000  3
    773    772    776    778     1  0.0000000  1.2552000  3
    774    773    772    776     1  0.0000000  1.2552000  3
    774    773    782    786     1  0.0000000  0.6508444  3
    774    773    782    783     1  0.0000000  0.6508444  3
    774    773    782    784     1  0.0000000  0.6508444  3
    775    773    772    776     1  0.0000000  1.2552000  3
    775    773    782    786     1  0.0000000  0.6508444  3
    775    773    782    783     1  0.0000000  0.6508444  3
    775    773    782    784     1  0.0000000  0.6508444  3
    777    776    779    785     1  0.0000000  0.6508444  3
    777    776    779    780     1  0.0000000  0.6508444  3
    777    776    779    781     1  0.0000000  0.6508444  3
    778    776    779    785     1  0.0000000  0.6508444  3
    778    776    779    780     1  0.0000000  0.6508444  3
    778    776    779    781     1  0.0000000  0.6508444  3
    779    785   1614   1615     1  180.0000771  10.4600000  2
    780    779    785    787     1  0.0000000  3.3472000  1
    780    779    785    787     1  0.0000000  0.0000000  2
    780    779    785    787     1  180.0000771  0.3347200  3
    780    779    785   1614     1  180.0000771  0.0000000  2
    781    779    785    787     1  0.0000000  3.3472000  1
    781    779    785    787     1  0.0000000  0.0000000  2
    781    779    785    787     1  180.0000771  0.3347200  3
    781    779    785   1614     1  180.0000771  0.0000000  2
    782    786   1639   1640     1  180.0000771  10.4600000  2
    783    782    786    788     1  0.0000000  3.3472000  1
    783    782    786    788     1  0.0000000  0.0000000  2
    783    782    786    788     1  180.0000771  0.3347200  3
    783    782    786   1639     1  180.0000771  0.0000000  2
    784    782    786    788     1  0.0000000  3.3472000  1
    784    782    786    788     1  0.0000000  0.0000000  2
    784    782    786    788     1  180.0000771  0.3347200  3
    784    782    786   1639     1  180.0000771  0.0000000  2
    785   1614   1594   1595     1  0.0000000  0.0000000  2
    785   1614   1594   1596     1  0.0000000  0.0000000  2
    786   1639   1619   1620     1  0.0000000  0.0000000  2
    786   1639   1619   1621     1  0.0000000  0.0000000  2
    787    785   1614   1615     1  0.0000000  8.3680000  1
    787    785   1614   1615     1  180.0000771  10.4600000  2
    788    786   1639   1640     1  0.0000000  8.3680000  1
    788    786   1639   1640     1  180.0000771  10.4600000  2
    791    794    814    815     1  0.0000000  0.0000000  2
    791    797    798    799     1  0.0000000  1.2552000  3
    791    797    798    800     1  0.0000000  1.2552000  3
    791    797    801    802     1  0.0000000  1.2552000  3
    791    797    801    803     1  0.0000000  1.2552000  3
    792    791    794    814     1  0.0000000  0.6508444  3
    792    791    794    795     1  0.0000000  0.6508444  3
    792    791    794    796     1  0.0000000  0.6508444  3
    792    791    797    798     1  0.0000000  1.2552000  3
    792    791    797    801     1  0.0000000  1.2552000  3
    793    791    794    814     1  0.0000000  0.6508444  3
    793    791    794    795     1  0.0000000  0.6508444  3
    793    791    794    796     1  0.0000000  0.6508444  3
    793    791    797    798     1  0.0000000  1.2552000  3
    793    791    797    801     1  0.0000000  1.2552000  3
    795    794    791    797     1  0.0000000  0.6508444  3
    795    794    814    815     1  0.0000000  0.0000000  2
    796    794    791    797     1  0.0000000  0.6508444  3
    796    794    814    815     1  0.0000000  0.0000000  2
    797    798    807    808     1  0.0000000  0.6508444  3
    797    798    807    809     1  0.0000000  0.6508444  3
    797    801    804    805     1  0.0000000  0.6508444  3
    797    801    804    806     1  0.0000000  0.6508444  3
    798    797    801    802     1  0.0000000  1.2552000  3
    798    797    801    803     1  0.0000000  1.2552000  3
    799    798    797    801     1  0.0000000  1.2552000  3
    799    798    807    811     1  0.0000000  0.6508444  3
    799    798    807    808     1  0.0000000  0.6508444  3
    799    798    807    809     1  0.0000000  0.6508444  3
    800    798    797    801     1  0.0000000  1.2552000  3
    800    798    807    811     1  0.0000000  0.6508444  3
    800    798    807    808     1  0.0000000  0.6508444  3
    800    798    807    809     1  0.0000000  0.6508444  3
    802    801    804    810     1  0.0000000  0.6508444  3
    802    801    804    805     1  0.0000000  0.6508444  3
    802    801    804    806     1  0.0000000  0.6508444  3
    803    801    804    810     1  0.0000000  0.6508444  3
    803    801    804    805     1  0.0000000  0.6508444  3
    803    801    804    806     1  0.0000000  0.6508444  3
    804    810   1664   1665     1  180.0000771  10.4600000  2
    805    804    810    812     1  0.0000000  3.3472000  1
    805    804    810    812     1  0.0000000  0.0000000  2
    805    804    810    812     1  180.0000771  0.3347200  3
    805    804    810   1664     1  180.0000771  0.0000000  2
    806    804    810    812     1  0.0000000  3.3472000  1
    806    804    810    812     1  0.0000000  0.0000000  2
    806    804    810    812     1  180.0000771  0.3347200  3
    806    804    810   1664     1  180.0000771  0.0000000  2
    807    811   1689   1690     1  180.0000771  10.4600000  2
    808    807    811    813     1  0.0000000  3.3472000  1
    808    807    811    813     1  0.0000000  0.0000000  2
    808    807    811    813     1  180.0000771  0.3347200  3
    808    807    811   1689     1  180.0000771  0.0000000  2
    809    807    811    813     1  0.0000000  3.3472000  1
    809    807    811    813     1  0.0000000  0.0000000  2
    809    807    811    813     1  180.0000771  0.3347200  3
    809    807    811   1689     1  180.0000771  0.0000000  2
    810   1664   1644   1645     1  0.0000000  0.0000000  2
    810   1664   1644   1646     1  0.0000000  0.0000000  2
    811   1689   1669   1670     1  0.0000000  0.0000000  2
    811   1689   1669   1671     1  0.0000000  0.0000000  2
    812    810   1664   1665     1  0.0000000  8.3680000  1
    812    810   1664   1665     1  180.0000771  10.4600000  2
    813    811   1689   1690     1  0.0000000  8.3680000  1
    813    811   1689   1690     1  180.0000771  10.4600000  2
    816    819    839    840     1  0.0000000  0.0000000  2
    816    822    823    824     1  0.0000000  1.2552000  3
    816    822    823    825     1  0.0000000  1.2552000  3
    816    822    826    827     1  0.0000000  1.2552000  3
    816    822    826    828     1  0.0000000  1.2552000  3
    817    816    819    839     1  0.0000000  0.6508444  3
    817    816    819    820     1  0.0000000  0.6508444  3
    817    816    819    821     1  0.0000000  0.6508444  3
    817    816    822    823     1  0.0000000  1.2552000  3
    817    816    822    826     1  0.0000000  1.2552000  3
    818    816    819    839     1  0.0000000  0.6508444  3
    818    816    819    820     1  0.0000000  0.6508444  3
    818    816    819    821     1  0.0000000  0.6508444  3
    818    816    822    823     1  0.0000000  1.2552000  3
    818    816    822    826     1  0.0000000  1.2552000  3
    820    819    816    822     1  0.0000000  0.6508444  3
    820    819    839    840     1  0.0000000  0.0000000  2
    821    819    816    822     1  0.0000000  0.6508444  3
    821    819    839    840     1  0.0000000  0.0000000  2
    822    823    832    833     1  0.0000000  0.6508444  3
    822    823    832    834     1  0.0000000  0.6508444  3
    822    826    829    830     1  0.0000000  0.6508444  3
    822    826    829    831     1  0.0000000  0.6508444  3
    823    822    826    827     1  0.0000000  1.2552000  3
    823    822    826    828     1  0.0000000  1.2552000  3
    824    823    822    826     1  0.0000000  1.2552000  3
    824    823    832    836     1  0.0000000  0.6508444  3
    824    823    832    833     1  0.0000000  0.6508444  3
    824    823    832    834     1  0.0000000  0.6508444  3
    825    823    822    826     1  0.0000000  1.2552000  3
    825    823    832    836     1  0.0000000  0.6508444  3
    825    823    832    833     1  0.0000000  0.6508444  3
    825    823    832    834     1  0.0000000  0.6508444  3
    827    826    829    835     1  0.0000000  0.6508444  3
    827    826    829    830     1  0.0000000  0.6508444  3
    827    826    829    831     1  0.0000000  0.6508444  3
    828    826    829    835     1  0.0000000  0.6508444  3
    828    826    829    830     1  0.0000000  0.6508444  3
    828    826    829    831     1  0.0000000  0.6508444  3
    829    835   1714   1715     1  180.0000771  10.4600000  2
    830    829    835    837     1  0.0000000  3.3472000  1
    830    829    835    837     1  0.0000000  0.0000000  2
    830    829    835    837     1  180.0000771  0.3347200  3
    830    829    835   1714     1  180.0000771  0.0000000  2
    831    829    835    837     1  0.0000000  3.3472000  1
    831    829    835    837     1  0.0000000  0.0000000  2
    831    829    835    837     1  180.0000771  0.3347200  3
    831    829    835   1714     1  180.0000771  0.0000000  2
    832    836   1739   1740     1  180.0000771  10.4600000  2
    833    832    836    838     1  0.0000000  3.3472000  1
    833    832    836    838     1  0.0000000  0.0000000  2
    833    832    836    838     1  180.0000771  0.3347200  3
    833    832    836   1739     1  180.0000771  0.0000000  2
    834    832    836    838     1  0.0000000  3.3472000  1
    834    832    836    838     1  0.0000000  0.0000000  2
    834    832    836    838     1  180.0000771  0.3347200  3
    834    832    836   1739     1  180.0000771  0.0000000  2
    835   1714   1694   1695     1  0.0000000  0.0000000  2
    835   1714   1694   1696     1  0.0000000  0.0000000  2
    836   1739   1719   1720     1  0.0000000  0.0000000  2
    836   1739   1719   1721     1  0.0000000  0.0000000  2
    837    835   1714   1715     1  0.0000000  8.3680000  1
    837    835   1714   1715     1  180.0000771  10.4600000  2
    838    836   1739   1740     1  0.0000000  8.3680000  1
    838    836   1739   1740     1  180.0000771  10.4600000  2
    841    844    864    865     1  0.0000000  0.0000000  2
    841    847    848    849     1  0.0000000  1.2552000  3
    841    847    848    850     1  0.0000000  1.2552000  3
    841    847    851    852     1  0.0000000  1.2552000  3
    841    847    851    853     1  0.0000000  1.2552000  3
    842    841    844    864     1  0.0000000  0.6508444  3
    842    841    844    845     1  0.0000000  0.6508444  3
    842    841    844    846     1  0.0000000  0.6508444  3
    842    841    847    848     1  0.0000000  1.2552000  3
    842    841    847    851     1  0.0000000  1.2552000  3
    843    841    844    864     1  0.0000000  0.6508444  3
    843    841    844    845     1  0.0000000  0.6508444  3
    843    841    844    846     1  0.0000000  0.6508444  3
    843    841    847    848     1  0.0000000  1.2552000  3
    843    841    847    851     1  0.0000000  1.2552000  3
    845    844    841    847     1  0.0000000  0.6508444  3
    845    844    864    865     1  0.0000000  0.0000000  2
    846    844    841    847     1  0.0000000  0.6508444  3
    846    844    864    865     1  0.0000000  0.0000000  2
    847    848    857    858     1  0.0000000  0.6508444  3
    847    848    857    859     1  0.0000000  0.6508444  3
    847    851    854    855     1  0.0000000  0.6508444  3
    847    851    854    856     1  0.0000000  0.6508444  3
    848    847    851    852     1  0.0000000  1.2552000  3
    848    847    851    853     1  0.0000000  1.2552000  3
    849    848    847    851     1  0.0000000  1.2552000  3
    849    848    857    861     1  0.0000000  0.6508444  3
    849    848    857    858     1  0.0000000  0.6508444  3
    849    848    857    859     1  0.0000000  0.6508444  3
    850    848    847    851     1  0.0000000  1.2552000  3
    850    848    857    861     1  0.0000000  0.6508444  3
    850    848    857    858     1  0.0000000  0.6508444  3
    850    848    857    859     1  0.0000000  0.6508444  3
    852    851    854    860     1  0.0000000  0.6508444  3
    852    851    854    855     1  0.0000000  0.6508444  3
    852    851    854    856     1  0.0000000  0.6508444  3
    853    851    854    860     1  0.0000000  0.6508444  3
    853    851    854    855     1  0.0000000  0.6508444  3
    853    851    854    856     1  0.0000000  0.6508444  3
    854    860   1764   1765     1  180.0000771  10.4600000  2
    855    854    860    862     1  0.0000000  3.3472000  1
    855    854    860    862     1  0.0000000  0.0000000  2
    855    854    860    862     1  180.0000771  0.3347200  3
    855    854    860   1764     1  180.0000771  0.0000000  2
    856    854    860    862     1  0.0000000  3.3472000  1
    856    854    860    862     1  0.0000000  0.0000000  2
    856    854    860    862     1  180.0000771  0.3347200  3
    856    854    860   1764     1  180.0000771  0.0000000  2
    857    861   1789   1790     1  180.0000771  10.4600000  2
    858    857    861    863     1  0.0000000  3.3472000  1
    858    857    861    863     1  0.0000000  0.0000000  2
    858    857    861    863     1  180.0000771  0.3347200  3
    858    857    861   1789     1  180.0000771  0.0000000  2
    859    857    861    863     1  0.0000000  3.3472000  1
    859    857    861    863     1  0.0000000  0.0000000  2
    859    857    861    863     1  180.0000771  0.3347200  3
    859    857    861   1789     1  180.0000771  0.0000000  2
    860   1764   1744   1745     1  0.0000000  0.0000000  2
    860   1764   1744   1746     1  0.0000000  0.0000000  2
    861   1789   1769   1770     1  0.0000000  0.0000000  2
    861   1789   1769   1771     1  0.0000000  0.0000000  2
    862    860   1764   1765     1  0.0000000  8.3680000  1
    862    860   1764   1765     1  180.0000771  10.4600000  2
    863    861   1789   1790     1  0.0000000  8.3680000  1
    863    861   1789   1790     1  180.0000771  10.4600000  2
    866    869    889    890     1  0.0000000  0.0000000  2
    866    872    873    874     1  0.0000000  1.2552000  3
    866    872    873    875     1  0.0000000  1.2552000  3
    866    872    876    877     1  0.0000000  1.2552000  3
    866    872    876    878     1  0.0000000  1.2552000  3
    867    866    869    889     1  0.0000000  0.6508444  3
    867    866    869    870     1  0.0000000  0.6508444  3
    867    866    869    871     1  0.0000000  0.6508444  3
    867    866    872    873     1  0.0000000  1.2552000  3
    867    866    872    876     1  0.0000000  1.2552000  3
    868    866    869    889     1  0.0000000  0.6508444  3
    868    866    869    870     1  0.0000000  0.6508444  3
    868    866    869    871     1  0.0000000  0.6508444  3
    868    866    872    873     1  0.0000000  1.2552000  3
    868    866    872    876     1  0.0000000  1.2552000  3
    870    869    866    872     1  0.0000000  0.6508444  3
    870    869    889    890     1  0.0000000  0.0000000  2
    871    869    866    872     1  0.0000000  0.6508444  3
    871    869    889    890     1  0.0000000  0.0000000  2
    872    873    882    883     1  0.0000000  0.6508444  3
    872    873    882    884     1  0.0000000  0.6508444  3
    872    876    879    880     1  0.0000000  0.6508444  3
    872    876    879    881     1  0.0000000  0.6508444  3
    873    872    876    877     1  0.0000000  1.2552000  3
    873    872    876    878     1  0.0000000  1.2552000  3
    874    873    872    876     1  0.0000000  1.2552000  3
    874    873    882    886     1  0.0000000  0.6508444  3
    874    873    882    883     1  0.0000000  0.6508444  3
    874    873    882    884     1  0.0000000  0.6508444  3
    875    873    872    876     1  0.0000000  1.2552000  3
    875    873    882    886     1  0.0000000  0.6508444  3
    875    873    882    883     1  0.0000000  0.6508444  3
    875    873    882    884     1  0.0000000  0.6508444  3
    877    876    879    885     1  0.0000000  0.6508444  3
    877    876    879    880     1  0.0000000  0.6508444  3
    877    876    879    881     1  0.0000000  0.6508444  3
    878    876    879    885     1  0.0000000  0.6508444  3
    878    876    879    880     1  0.0000000  0.6508444  3
    878    876    879    881     1  0.0000000  0.6508444  3
    879    885   1814   1815     1  180.0000771  10.4600000  2
    880    879    885    887     1  0.0000000  3.3472000  1
    880    879    885    887     1  0.0000000  0.0000000  2
    880    879    885    887     1  180.0000771  0.3347200  3
    880    879    885   1814     1  180.0000771  0.0000000  2
    881    879    885    887     1  0.0000000  3.3472000  1
    881    879    885    887     1  0.0000000  0.0000000  2
    881    879    885    887     1  180.0000771  0.3347200  3
    881    879    885   1814     1  180.0000771  0.0000000  2
    882    886   1839   1840     1  180.0000771  10.4600000  2
    883    882    886    888     1  0.0000000  3.3472000  1
    883    882    886    888     1  0.0000000  0.0000000  2
    883    882    886    888     1  180.0000771  0.3347200  3
    883    882    886   1839     1  180.0000771  0.0000000  2
    884    882    886    888     1  0.0000000  3.3472000  1
    884    882    886    888     1  0.0000000  0.0000000  2
    884    882    886    888     1  180.0000771  0.3347200  3
    884    882    886   1839     1  180.0000771  0.0000000  2
    885   1814   1794   1795     1  0.0000000  0.0000000  2
    885   1814   1794   1796     1  0.0000000  0.0000000  2
    886   1839   1819   1820     1  0.0000000  0.0000000  2
    886   1839   1819   1821     1  0.0000000  0.0000000  2
    887    885   1814   1815     1  0.0000000  8.3680000  1
    887    885   1814   1815     1  180.0000771  10.4600000  2
    888    886   1839   1840     1  0.0000000  8.3680000  1
    888    886   1839   1840     1  180.0000771  10.4600000  2
    891    894    914    915     1  0.0000000  0.0000000  2
    891    897    898    899     1  0.0000000  1.2552000  3
    891    897    898    900     1  0.0000000  1.2552000  3
    891    897    901    902     1  0.0000000  1.2552000  3
    891    897    901    903     1  0.0000000  1.2552000  3
    892    891    894    914     1  0.0000000  0.6508444  3
    892    891    894    895     1  0.0000000  0.6508444  3
    892    891    894    896     1  0.0000000  0.6508444  3
    892    891    897    898     1  0.0000000  1.2552000  3
    892    891    897    901     1  0.0000000  1.2552000  3
    893    891    894    914     1  0.0000000  0.6508444  3
    893    891    894    895     1  0.0000000  0.6508444  3
    893    891    894    896     1  0.0000000  0.6508444  3
    893    891    897    898     1  0.0000000  1.2552000  3
    893    891    897    901     1  0.0000000  1.2552000  3
    895    894    891    897     1  0.0000000  0.6508444  3
    895    894    914    915     1  0.0000000  0.0000000  2
    896    894    891    897     1  0.0000000  0.6508444  3
    896    894    914    915     1  0.0000000  0.0000000  2
    897    898    907    908     1  0.0000000  0.6508444  3
    897    898    907    909     1  0.0000000  0.6508444  3
    897    901    904    905     1  0.0000000  0.6508444  3
    897    901    904    906     1  0.0000000  0.6508444  3
    898    897    901    902     1  0.0000000  1.2552000  3
    898    897    901    903     1  0.0000000  1.2552000  3
    899    898    897    901     1  0.0000000  1.2552000  3
    899    898    907    911     1  0.0000000  0.6508444  3
    899    898    907    908     1  0.0000000  0.6508444  3
    899    898    907    909     1  0.0000000  0.6508444  3
    900    898    897    901     1  0.0000000  1.2552000  3
    900    898    907    911     1  0.0000000  0.6508444  3
    900    898    907    908     1  0.0000000  0.6508444  3
    900    898    907    909     1  0.0000000  0.6508444  3
    902    901    904    910     1  0.0000000  0.6508444  3
    902    901    904    905     1  0.0000000  0.6508444  3
    902    901    904    906     1  0.0000000  0.6508444  3
    903    901    904    910     1  0.0000000  0.6508444  3
    903    901    904    905     1  0.0000000  0.6508444  3
    903    901    904    906     1  0.0000000  0.6508444  3
    904    910   1864   1865     1  180.0000771  10.4600000  2
    905    904    910    912     1  0.0000000  3.3472000  1
    905    904    910    912     1  0.0000000  0.0000000  2
    905    904    910    912     1  180.0000771  0.3347200  3
    905    904    910   1864     1  180.0000771  0.0000000  2
    906    904    910    912     1  0.0000000  3.3472000  1
    906    904    910    912     1  0.0000000  0.0000000  2
    906    904    910    912     1  180.0000771  0.3347200  3
    906    904    910   1864     1  180.0000771  0.0000000  2
    907    911   1889   1890     1  180.0000771  10.4600000  2
    908    907    911    913     1  0.0000000  3.3472000  1
    908    907    911    913     1  0.0000000  0.0000000  2
    908    907    911    913     1  180.0000771  0.3347200  3
    908    907    911   1889     1  180.0000771  0.0000000  2
    909    907    911    913     1  0.0000000  3.3472000  1
    909    907    911    913     1  0.0000000  0.0000000  2
    909    907    911    913     1  180.0000771  0.3347200  3
    909    907    911   1889     1  180.0000771  0.0000000  2
    910   1864   1844   1845     1  0.0000000  0.0000000  2
    910   1864   1844   1846     1  0.0000000  0.0000000  2
    911   1889   1869   1870     1  0.0000000  0.0000000  2
    911   1889   1869   1871     1  0.0000000  0.0000000  2
    912    910   1864   1865     1  0.0000000  8.3680000  1
    912    910   1864   1865     1  180.0000771  10.4600000  2
    913    911   1889   1890     1  0.0000000  8.3680000  1
    913    911   1889   1890     1  180.0000771  10.4600000  2
    916    919    939    940     1  0.0000000  0.0000000  2
    916    922    923    924     1  0.0000000  1.2552000  3
    916    922    923    925     1  0.0000000  1.2552000  3
    916    922    926    927     1  0.0000000  1.2552000  3
    916    922    926    928     1  0.0000000  1.2552000  3
    917    916    919    939     1  0.0000000  0.6508444  3
    917    916    919    920     1  0.0000000  0.6508444  3
    917    916    919    921     1  0.0000000  0.6508444  3
    917    916    922    923     1  0.0000000  1.2552000  3
    917    916    922    926     1  0.0000000  1.2552000  3
    918    916    919    939     1  0.0000000  0.6508444  3
    918    916    919    920     1  0.0000000  0.6508444  3
    918    916    919    921     1  0.0000000  0.6508444  3
    918    916    922    923     1  0.0000000  1.2552000  3
    918    916    922    926     1  0.0000000  1.2552000  3
    920    919    916    922     1  0.0000000  0.6508444  3
    920    919    939    940     1  0.0000000  0.0000000  2
    921    919    916    922     1  0.0000000  0.6508444  3
    921    919    939    940     1  0.0000000  0.0000000  2
    922    923    932    933     1  0.0000000  0.6508444  3
    922    923    932    934     1  0.0000000  0.6508444  3
    922    926    929    930     1  0.0000000  0.6508444  3
    922    926    929    931     1  0.0000000  0.6508444  3
    923    922    926    927     1  0.0000000  1.2552000  3
    923    922    926    928     1  0.0000000  1.2552000  3
    924    923    922    926     1  0.0000000  1.2552000  3
    924    923    932    936     1  0.0000000  0.6508444  3
    924    923    932    933     1  0.0000000  0.6508444  3
    924    923    932    934     1  0.0000000  0.6508444  3
    925    923    922    926     1  0.0000000  1.2552000  3
    925    923    932    936     1  0.0000000  0.6508444  3
    925    923    932    933     1  0.0000000  0.6508444  3
    925    923    932    934     1  0.0000000  0.6508444  3
    927    926    929    935     1  0.0000000  0.6508444  3
    927    926    929    930     1  0.0000000  0.6508444  3
    927    926    929    931     1  0.0000000  0.6508444  3
    928    926    929    935     1  0.0000000  0.6508444  3
    928    926    929    930     1  0.0000000  0.6508444  3
    928    926    929    931     1  0.0000000  0.6508444  3
    929    935   1914   1915     1  180.0000771  10.4600000  2
    930    929    935    937     1  0.0000000  3.3472000  1
    930    929    935    937     1  0.0000000  0.0000000  2
    930    929    935    937     1  180.0000771  0.3347200  3
    930    929    935   1914     1  180.0000771  0.0000000  2
    931    929    935    937     1  0.0000000  3.3472000  1
    931    929    935    937     1  0.0000000  0.0000000  2
    931    929    935    937     1  180.0000771  0.3347200  3
    931    929    935   1914     1  180.0000771  0.0000000  2
    932    936   1939   1940     1  180.0000771  10.4600000  2
    933    932    936    938     1  0.0000000  3.3472000  1
    933    932    936    938     1  0.0000000  0.0000000  2
    933    932    936    938     1  180.0000771  0.3347200  3
    933    932    936   1939     1  180.0000771  0.0000000  2
    934    932    936    938     1  0.0000000  3.3472000  1
    934    932    936    938     1  0.0000000  0.0000000  2
    934    932    936    938     1  180.0000771  0.3347200  3
    934    932    936   1939     1  180.0000771  0.0000000  2
    935   1914   1894   1895     1  0.0000000  0.0000000  2
    935   1914   1894   1896     1  0.0000000  0.0000000  2
    936   1939   1919   1920     1  0.0000000  0.0000000  2
    936   1939   1919   1921     1  0.0000000  0.0000000  2
    937    935   1914   1915     1  0.0000000  8.3680000  1
    937    935   1914   1915     1  180.0000771  10.4600000  2
    938    936   1939   1940     1  0.0000000  8.3680000  1
    938    936   1939   1940     1  180.0000771  10.4600000  2
    941    944    964    965     1  0.0000000  0.0000000  2
    941    947    948    949     1  0.0000000  1.2552000  3
    941    947    948    950     1  0.0000000  1.2552000  3
    941    947    951    952     1  0.0000000  1.2552000  3
    941    947    951    953     1  0.0000000  1.2552000  3
    942    941    944    964     1  0.0000000  0.6508444  3
    942    941    944    945     1  0.0000000  0.6508444  3
    942    941    944    946     1  0.0000000  0.6508444  3
    942    941    947    948     1  0.0000000  1.2552000  3
    942    941    947    951     1  0.0000000  1.2552000  3
    943    941    944    964     1  0.0000000  0.6508444  3
    943    941    944    945     1  0.0000000  0.6508444  3
    943    941    944    946     1  0.0000000  0.6508444  3
    943    941    947    948     1  0.0000000  1.2552000  3
    943    941    947    951     1  0.0000000  1.2552000  3
    945    944    941    947     1  0.0000000  0.6508444  3
    945    944    964    965     1  0.0000000  0.0000000  2
    946    944    941    947     1  0.0000000  0.6508444  3
    946    944    964    965     1  0.0000000  0.0000000  2
    947    948    957    958     1  0.0000000  0.6508444  3
    947    948    957    959     1  0.0000000  0.6508444  3
    947    951    954    955     1  0.0000000  0.6508444  3
    947    951    954    956     1  0.0000000  0.6508444  3
    948    947    951    952     1  0.0000000  1.2552000  3
    948    947    951    953     1  0.0000000  1.2552000  3
    949    948    947    951     1  0.0000000  1.2552000  3
    949    948    957    961     1  0.0000000  0.6508444  3
    949    948    957    958     1  0.0000000  0.6508444  3
    949    948    957    959     1  0.0000000  0.6508444  3
    950    948    947    951     1  0.0000000  1.2552000  3
    950    948    957    961     1  0.0000000  0.6508444  3
    950    948    957    958     1  0.0000000  0.6508444  3
    950    948    957    959     1  0.0000000  0.6508444  3
    952    951    954    960     1  0.0000000  0.6508444  3
    952    951    954    955     1  0.0000000  0.6508444  3
    952    951    954    956     1  0.0000000  0.6508444  3
    953    951    954    960     1  0.0000000  0.6508444  3
    953    951    954    955     1  0.0000000  0.6508444  3
    953    951    954    956     1  0.0000000  0.6508444  3
    954    960   1964   1965     1  180.0000771  10.4600000  2
    955    954    960    962     1  0.0000000  3.3472000  1
    955    954    960    962     1  0.0000000  0.0000000  2
    955    954    960    962     1  180.0000771  0.3347200  3
    955    954    960   1964     1  180.0000771  0.0000000  2
    956    954    960    962     1  0.0000000  3.3472000  1
    956    954    960    962     1  0.0000000  0.0000000  2
    956    954    960    962     1  180.0000771  0.3347200  3
    956    954    960   1964     1  180.0000771  0.0000000  2
    957    961   1989   1990     1  180.0000771  10.4600000  2
    958    957    961    963     1  0.0000000  3.3472000  1
    958    957    961    963     1  0.0000000  0.0000000  2
    958    957    961    963     1  180.0000771  0.3347200  3
    958    957    961   1989     1  180.0000771  0.0000000  2
    959    957    961    963     1  0.0000000  3.3472000  1
    959    957    961    963     1  0.0000000  0.0000000  2
    959    957    961    963     1  180.0000771  0.3347200  3
    959    957    961   1989     1  180.0000771  0.0000000  2
    960   1964   1944   1945     1  0.0000000  0.0000000  2
    960   1964   1944   1946     1  0.0000000  0.0000000  2
    961   1989   1969   1970     1  0.0000000  0.0000000  2
    961   1989   1969   1971     1  0.0000000  0.0000000  2
    962    960   1964   1965     1  0.0000000  8.3680000  1
    962    960   1964   1965     1  180.0000771  10.4600000  2
    963    961   1989   1990     1  0.0000000  8.3680000  1
    963    961   1989   1990     1  180.0000771  10.4600000  2
    966    969    989    990     1  0.0000000  0.0000000  2
    966    972    973    974     1  0.0000000  1.2552000  3
    966    972    973    975     1  0.0000000  1.2552000  3
    966    972    976    977     1  0.0000000  1.2552000  3
    966    972    976    978     1  0.0000000  1.2552000  3
    967    966    969    989     1  0.0000000  0.6508444  3
    967    966    969    970     1  0.0000000  0.6508444  3
    967    966    969    971     1  0.0000000  0.6508444  3
    967    966    972    973     1  0.0000000  1.2552000  3
    967    966    972    976     1  0.0000000  1.2552000  3
    968    966    969    989     1  0.0000000  0.6508444  3
    968    966    969    970     1  0.0000000  0.6508444  3
    968    966    969    971     1  0.0000000  0.6508444  3
    968    966    972    973     1  0.0000000  1.2552000  3
    968    966    972    976     1  0.0000000  1.2552000  3
    970    969    966    972     1  0.0000000  0.6508444  3
    970    969    989    990     1  0.0000000  0.0000000  2
    971    969    966    972     1  0.0000000  0.6508444  3
    971    969    989    990     1  0.0000000  0.0000000  2
    972    973    982    983     1  0.0000000  0.6508444  3
    972    973    982    984     1  0.0000000  0.6508444  3
    972    976    979    980     1  0.0000000  0.6508444  3
    972    976    979    981     1  0.0000000  0.6508444  3
    973    972    976    977     1  0.0000000  1.2552000  3
    973    972    976    978     1  0.0000000  1.2552000  3
    974    973    972    976     1  0.0000000  1.2552000  3
    974    973    982    986     1  0.0000000  0.6508444  3
    974    973    982    983     1  0.0000000  0.6508444  3
    974    973    982    984     1  0.0000000  0.6508444  3
    975    973    972    976     1  0.0000000  1.2552000  3
    975    973    982    986     1  0.0000000  0.6508444  3
    975    973    982    983     1  0.0000000  0.6508444  3
    975    973    982    984     1  0.0000000  0.6508444  3
    977    976    979    985     1  0.0000000  0.6508444  3
    977    976    979    980     1  0.0000000  0.6508444  3
    977    976    979    981     1  0.0000000  0.6508444  3
    978    976    979    985     1  0.0000000  0.6508444  3
    978    976    979    980     1  0.0000000  0.6508444  3
    978    976    979    981     1  0.0000000  0.6508444  3
    979    985   2014   2015     1  180.0000771  10.4600000  2
    980    979    985    987     1  0.0000000  3.3472000  1
    980    979    985    987     1  0.0000000  0.0000000  2
    980    979    985    987     1  180.0000771  0.3347200  3
    980    979    985   2014     1  180.0000771  0.0000000  2
    981    979    985    987     1  0.0000000  3.3472000  1
    981    979    985    987     1  0.0000000  0.0000000  2
    981    979    985    987     1  180.0000771  0.3347200  3
    981    979    985   2014     1  180.0000771  0.0000000  2
    982    986   2039   2040     1  180.0000771  10.4600000  2
    983    982    986    988     1  0.0000000  3.3472000  1
    983    982    986    988     1  0.0000000  0.0000000  2
    983    982    986    988     1  180.0000771  0.3347200  3
    983    982    986   2039     1  180.0000771  0.0000000  2
    984    982    986    988     1  0.0000000  3.3472000  1
    984    982    986    988     1  0.0000000  0.0000000  2
    984    982    986    988     1  180.0000771  0.3347200  3
    984    982    986   2039     1  180.0000771  0.0000000  2
    985   2014   1994   1995     1  0.0000000  0.0000000  2
    985   2014   1994   1996     1  0.0000000  0.0000000  2
    986   2039   2019   2020     1  0.0000000  0.0000000  2
    986   2039   2019   2021     1  0.0000000  0.0000000  2
    987    985   2014   2015     1  0.0000000  8.3680000  1
    987    985   2014   2015     1  180.0000771  10.4600000  2
    988    986   2039   2040     1  0.0000000  8.3680000  1
    988    986   2039   2040     1  180.0000771  10.4600000  2
    991    994   1014   1015     1  0.0000000  0.0000000  2
    991    997    998    999     1  0.0000000  1.2552000  3
    991    997    998   1000     1  0.0000000  1.2552000  3
    991    997   1001   1002     1  0.0000000  1.2552000  3
    991    997   1001   1003     1  0.0000000  1.2552000  3
    992    991    994   1014     1  0.0000000  0.6508444  3
    992    991    994    995     1  0.0000000  0.6508444  3
    992    991    994    996     1  0.0000000  0.6508444  3
    992    991    997    998     1  0.0000000  1.2552000  3
    992    991    997   1001     1  0.0000000  1.2552000  3
    993    991    994   1014     1  0.0000000  0.6508444  3
    993    991    994    995     1  0.0000000  0.6508444  3
    993    991    994    996     1  0.0000000  0.6508444  3
    993    991    997    998     1  0.0000000  1.2552000  3
    993    991    997   1001     1  0.0000000  1.2552000  3
    995    994    991    997     1  0.0000000  0.6508444  3
    995    994   1014   1015     1  0.0000000  0.0000000  2
    996    994    991    997     1  0.0000000  0.6508444  3
    996    994   1014   1015     1  0.0000000  0.0000000  2
    997    998   1007   1008     1  0.0000000  0.6508444  3
    997    998   1007   1009     1  0.0000000  0.6508444  3
    997   1001   1004   1005     1  0.0000000  0.6508444  3
    997   1001   1004   1006     1  0.0000000  0.6508444  3
    998    997   1001   1002     1  0.0000000  1.2552000  3
    998    997   1001   1003     1  0.0000000  1.2552000  3
    999    998    997   1001     1  0.0000000  1.2552000  3
    999    998   1007   1011     1  0.0000000  0.6508444  3
    999    998   1007   1008     1  0.0000000  0.6508444  3
    999    998   1007   1009     1  0.0000000  0.6508444  3
   1000    998    997   1001     1  0.0000000  1.2552000  3
   1000    998   1007   1011     1  0.0000000  0.6508444  3
   1000    998   1007   1008     1  0.0000000  0.6508444  3
   1000    998   1007   1009     1  0.0000000  0.6508444  3
   1002   1001   1004   1010     1  0.0000000  0.6508444  3
   1002   1001   1004   1005     1  0.0000000  0.6508444  3
   1002   1001   1004   1006     1  0.0000000  0.6508444  3
   1003   1001   1004   1010     1  0.0000000  0.6508444  3
   1003   1001   1004   1005     1  0.0000000  0.6508444  3
   1003   1001   1004   1006     1  0.0000000  0.6508444  3
   1004   1010   2064   2065     1  180.0000771  10.4600000  2
   1005   1004   1010   1012     1  0.0000000  3.3472000  1
   1005   1004   1010   1012     1  0.0000000  0.0000000  2
   1005   1004   1010   1012     1  180.0000771  0.3347200  3
   1005   1004   1010   2064     1  180.0000771  0.0000000  2
   1006   1004   1010   1012     1  0.0000000  3.3472000  1
   1006   1004   1010   1012     1  0.0000000  0.0000000  2
   1006   1004   1010   1012     1  180.0000771  0.3347200  3
   1006   1004   1010   2064     1  180.0000771  0.0000000  2
   1007   1011   2089   2090     1  180.0000771  10.4600000  2
   1008   1007   1011   1013     1  0.0000000  3.3472000  1
   1008   1007   1011   1013     1  0.0000000  0.0000000  2
   1008   1007   1011   1013     1  180.0000771  0.3347200  3
   1008   1007   1011   2089     1  180.0000771  0.0000000  2
   1009   1007   1011   1013     1  0.0000000  3.3472000  1
   1009   1007   1011   1013     1  0.0000000  0.0000000  2
   1009   1007   1011   1013     1  180.0000771  0.3347200  3
   1009   1007   1011   2089     1  180.0000771  0.0000000  2
   1010   2064   2044   2045     1  0.0000000  0.0000000  2
   1010   2064   2044   2046     1  0.0000000  0.0000000  2
   1011   2089   2069   2070     1  0.0000000  0.0000000  2
   1011   2089   2069   2071     1  0.0000000  0.0000000  2
   1012   1010   2064   2065     1  0.0000000  8.3680000  1
   1012   1010   2064   2065     1  180.0000771  10.4600000  2
   1013   1011   2089   2090     1  0.0000000  8.3680000  1
   1013   1011   2089   2090     1  180.0000771  10.4600000  2
   1016   1019   1039   1040     1  0.0000000  0.0000000  2
   1016   1022   1023   1024     1  0.0000000  1.2552000  3
   1016   1022   1023   1025     1  0.0000000  1.2552000  3
   1016   1022   1026   1027     1  0.0000000  1.2552000  3
   1016   1022   1026   1028     1  0.0000000  1.2552000  3
   1017   1016   1019   1039     1  0.0000000  0.6508444  3
   1017   1016   1019   1020     1  0.0000000  0.6508444  3
   1017   1016   1019   1021     1  0.0000000  0.6508444  3
   1017   1016   1022   1023     1  0.0000000  1.2552000  3
   1017   1016   1022   1026     1  0.0000000  1.2552000  3
   1018   1016   1019   1039     1  0.0000000  0.6508444  3
   1018   1016   1019   1020     1  0.0000000  0.6508444  3
   1018   1016   1019   1021     1  0.0000000  0.6508444  3
   1018   1016   1022   1023     1  0.0000000  1.2552000  3
   1018   1016   1022   1026     1  0.0000000  1.2552000  3
   1020   1019   1016   1022     1  0.0000000  0.6508444  3
   1020   1019   1039   1040     1  0.0000000  0.0000000  2
   1021   1019   1016   1022     1  0.0000000  0.6508444  3
   1021   1019   1039   1040     1  0.0000000  0.0000000  2
   1022   1023   1032   1033     1  0.0000000  0.6508444  3
   1022   1023   1032   1034     1  0.0000000  0.6508444  3
   1022   1026   1029   1030     1  0.0000000  0.6508444  3
   1022   1026   1029   1031     1  0.0000000  0.6508444  3
   1023   1022   1026   1027     1  0.0000000  1.2552000  3
   1023   1022   1026   1028     1  0.0000000  1.2552000  3
   1024   1023   1022   1026     1  0.0000000  1.2552000  3
   1024   1023   1032   1036     1  0.0000000  0.6508444  3
   1024   1023   1032   1033     1  0.0000000  0.6508444  3
   1024   1023   1032   1034     1  0.0000000  0.6508444  3
   1025   1023   1022   1026     1  0.0000000  1.2552000  3
   1025   1023   1032   1036     1  0.0000000  0.6508444  3
   1025   1023   1032   1033     1  0.0000000  0.6508444  3
   1025   1023   1032   1034     1  0.0000000  0.6508444  3
   1027   1026   1029   1035     1  0.0000000  0.6508444  3
   1027   1026   1029   1030     1  0.0000000  0.6508444  3
   1027   1026   1029   1031     1  0.0000000  0.6508444  3
   1028   1026   1029   1035     1  0.0000000  0.6508444  3
   1028   1026   1029   1030     1  0.0000000  0.6508444  3
   1028   1026   1029   1031     1  0.0000000  0.6508444  3
   1029   1035   2114   2115     1  180.0000771  10.4600000  2
   1030   1029   1035   1037     1  0.0000000  3.3472000  1
   1030   1029   1035   1037     1  0.0000000  0.0000000  2
   1030   1029   1035   1037     1  180.0000771  0.3347200  3
   1030   1029   1035   2114     1  180.0000771  0.0000000  2
   1031   1029   1035   1037     1  0.0000000  3.3472000  1
   1031   1029   1035   1037     1  0.0000000  0.0000000  2
   1031   1029   1035   1037     1  180.0000771  0.3347200  3
   1031   1029   1035   2114     1  180.0000771  0.0000000  2
   1032   1036   2139   2140     1  180.0000771  10.4600000  2
   1033   1032   1036   1038     1  0.0000000  3.3472000  1
   1033   1032   1036   1038     1  0.0000000  0.0000000  2
   1033   1032   1036   1038     1  180.0000771  0.3347200  3
   1033   1032   1036   2139     1  180.0000771  0.0000000  2
   1034   1032   1036   1038     1  0.0000000  3.3472000  1
   1034   1032   1036   1038     1  0.0000000  0.0000000  2
   1034   1032   1036   1038     1  180.0000771  0.3347200  3
   1034   1032   1036   2139     1  180.0000771  0.0000000  2
   1035   2114   2094   2095     1  0.0000000  0.0000000  2
   1035   2114   2094   2096     1  0.0000000  0.0000000  2
   1036   2139   2119   2120     1  0.0000000  0.0000000  2
   1036   2139   2119   2121     1  0.0000000  0.0000000  2
   1037   1035   2114   2115     1  0.0000000  8.3680000  1
   1037   1035   2114   2115     1  180.0000771  10.4600000  2
   1038   1036   2139   2140     1  0.0000000  8.3680000  1
   1038   1036   2139   2140     1  180.0000771  10.4600000  2
   1041   1044   1064   1065     1  0.0000000  0.0000000  2
   1041   1047   1048   1049     1  0.0000000  1.2552000  3
   1041   1047   1048   1050     1  0.0000000  1.2552000  3
   1041   1047   1051   1052     1  0.0000000  1.2552000  3
   1041   1047   1051   1053     1  0.0000000  1.2552000  3
   1042   1041   1044   1064     1  0.0000000  0.6508444  3
   1042   1041   1044   1045     1  0.0000000  0.6508444  3
   1042   1041   1044   1046     1  0.0000000  0.6508444  3
   1042   1041   1047   1048     1  0.0000000  1.2552000  3
   1042   1041   1047   1051     1  0.0000000  1.2552000  3
   1043   1041   1044   1064     1  0.0000000  0.6508444  3
   1043   1041   1044   1045     1  0.0000000  0.6508444  3
   1043   1041   1044   1046     1  0.0000000  0.6508444  3
   1043   1041   1047   1048     1  0.0000000  1.2552000  3
   1043   1041   1047   1051     1  0.0000000  1.2552000  3
   1045   1044   1041   1047     1  0.0000000  0.6508444  3
   1045   1044   1064   1065     1  0.0000000  0.0000000  2
   1046   1044   1041   1047     1  0.0000000  0.6508444  3
   1046   1044   1064   1065     1  0.0000000  0.0000000  2
   1047   1048   1057   1058     1  0.0000000  0.6508444  3
   1047   1048   1057   1059     1  0.0000000  0.6508444  3
   1047   1051   1054   1055     1  0.0000000  0.6508444  3
   1047   1051   1054   1056     1  0.0000000  0.6508444  3
   1048   1047   1051   1052     1  0.0000000  1.2552000  3
   1048   1047   1051   1053     1  0.0000000  1.2552000  3
   1049   1048   1047   1051     1  0.0000000  1.2552000  3
   1049   1048   1057   1061     1  0.0000000  0.6508444  3
   1049   1048   1057   1058     1  0.0000000  0.6508444  3
   1049   1048   1057   1059     1  0.0000000  0.6508444  3
   1050   1048   1047   1051     1  0.0000000  1.2552000  3
   1050   1048   1057   1061     1  0.0000000  0.6508444  3
   1050   1048   1057   1058     1  0.0000000  0.6508444  3
   1050   1048   1057   1059     1  0.0000000  0.6508444  3
   1052   1051   1054   1060     1  0.0000000  0.6508444  3
   1052   1051   1054   1055     1  0.0000000  0.6508444  3
   1052   1051   1054   1056     1  0.0000000  0.6508444  3
   1053   1051   1054   1060     1  0.0000000  0.6508444  3
   1053   1051   1054   1055     1  0.0000000  0.6508444  3
   1053   1051   1054   1056     1  0.0000000  0.6508444  3
   1054   1060   2164   2165     1  180.0000771  10.4600000  2
   1055   1054   1060   1062     1  0.0000000  3.3472000  1
   1055   1054   1060   1062     1  0.0000000  0.0000000  2
   1055   1054   1060   1062     1  180.0000771  0.3347200  3
   1055   1054   1060   2164     1  180.0000771  0.0000000  2
   1056   1054   1060   1062     1  0.0000000  3.3472000  1
   1056   1054   1060   1062     1  0.0000000  0.0000000  2
   1056   1054   1060   1062     1  180.0000771  0.3347200  3
   1056   1054   1060   2164     1  180.0000771  0.0000000  2
   1057   1061   2189   2190     1  180.0000771  10.4600000  2
   1058   1057   1061   1063     1  0.0000000  3.3472000  1
   1058   1057   1061   1063     1  0.0000000  0.0000000  2
   1058   1057   1061   1063     1  180.0000771  0.3347200  3
   1058   1057   1061   2189     1  180.0000771  0.0000000  2
   1059   1057   1061   1063     1  0.0000000  3.3472000  1
   1059   1057   1061   1063     1  0.0000000  0.0000000  2
   1059   1057   1061   1063     1  180.0000771  0.3347200  3
   1059   1057   1061   2189     1  180.0000771  0.0000000  2
   1060   2164   2144   2145     1  0.0000000  0.0000000  2
   1060   2164   2144   2146     1  0.0000000  0.0000000  2
   1061   2189   2169   2170     1  0.0000000  0.0000000  2
   1061   2189   2169   2171     1  0.0000000  0.0000000  2
   1062   1060   2164   2165     1  0.0000000  8.3680000  1
   1062   1060   2164   2165     1  180.0000771  10.4600000  2
   1063   1061   2189   2190     1  0.0000000  8.3680000  1
   1063   1061   2189   2190     1  180.0000771  10.4600000  2
   1066   1069   1089   1090     1  0.0000000  0.0000000  2
   1066   1072   1073   1074     1  0.0000000  1.2552000  3
   1066   1072   1073   1075     1  0.0000000  1.2552000  3
   1066   1072   1076   1077     1  0.0000000  1.2552000  3
   1066   1072   1076   1078     1  0.0000000  1.2552000  3
   1067   1066   1069   1089     1  0.0000000  0.6508444  3
   1067   1066   1069   1070     1  0.0000000  0.6508444  3
   1067   1066   1069   1071     1  0.0000000  0.6508444  3
   1067   1066   1072   1073     1  0.0000000  1.2552000  3
   1067   1066   1072   1076     1  0.0000000  1.2552000  3
   1068   1066   1069   1089     1  0.0000000  0.6508444  3
   1068   1066   1069   1070     1  0.0000000  0.6508444  3
   1068   1066   1069   1071     1  0.0000000  0.6508444  3
   1068   1066   1072   1073     1  0.0000000  1.2552000  3
   1068   1066   1072   1076     1  0.0000000  1.2552000  3
   1070   1069   1066   1072     1  0.0000000  0.6508444  3
   1070   1069   1089   1090     1  0.0000000  0.0000000  2
   1071   1069   1066   1072     1  0.0000000  0.6508444  3
   1071   1069   1089   1090     1  0.0000000  0.0000000  2
   1072   1073   1082   1083     1  0.0000000  0.6508444  3
   1072   1073   1082   1084     1  0.0000000  0.6508444  3
   1072   1076   1079   1080     1  0.0000000  0.6508444  3
   1072   1076   1079   1081     1  0.0000000  0.6508444  3
   1073   1072   1076   1077     1  0.0000000  1.2552000  3
   1073   1072   1076   1078     1  0.0000000  1.2552000  3
   1074   1073   1072   1076     1  0.0000000  1.2552000  3
   1074   1073   1082   1086     1  0.0000000  0.6508444  3
   1074   1073   1082   1083     1  0.0000000  0.6508444  3
   1074   1073   1082   1084     1  0.0000000  0.6508444  3
   1075   1073   1072   1076     1  0.0000000  1.2552000  3
   1075   1073   1082   1086     1  0.0000000  0.6508444  3
   1075   1073   1082   1083     1  0.0000000  0.6508444  3
   1075   1073   1082   1084     1  0.0000000  0.6508444  3
   1077   1076   1079   1085     1  0.0000000  0.6508444  3
   1077   1076   1079   1080     1  0.0000000  0.6508444  3
   1077   1076   1079   1081     1  0.0000000  0.6508444  3
   1078   1076   1079   1085     1  0.0000000  0.6508444  3
   1078   1076   1079   1080     1  0.0000000  0.6508444  3
   1078   1076   1079   1081     1  0.0000000  0.6508444  3
   1079   1085   2214   2215     1  180.0000771  10.4600000  2
   1080   1079   1085   1087     1  0.0000000  3.3472000  1
   1080   1079   1085   1087     1  0.0000000  0.0000000  2
   1080   1079   1085   1087     1  180.0000771  0.3347200  3
   1080   1079   1085   2214     1  180.0000771  0.0000000  2
   1081   1079   1085   1087     1  0.0000000  3.3472000  1
   1081   1079   1085   1087     1  0.0000000  0.0000000  2
   1081   1079   1085   1087     1  180.0000771  0.3347200  3
   1081   1079   1085   2214     1  180.0000771  0.0000000  2
   1082   1086   2239   2240     1  180.0000771  10.4600000  2
   1083   1082   1086   1088     1  0.0000000  3.3472000  1
   1083   1082   1086   1088     1  0.0000000  0.0000000  2
   1083   1082   1086   1088     1  180.0000771  0.3347200  3
   1083   1082   1086   2239     1  180.0000771  0.0000000  2
   1084   1082   1086   1088     1  0.0000000  3.3472000  1
   1084   1082   1086   1088     1  0.0000000  0.0000000  2
   1084   1082   1086   1088     1  180.0000771  0.3347200  3
   1084   1082   1086   2239     1  180.0000771  0.0000000  2
   1085   2214   2194   2195     1  0.0000000  0.0000000  2
   1085   2214   2194   2196     1  0.0000000  0.0000000  2
   1086   2239   2219   2220     1  0.0000000  0.0000000  2
   1086   2239   2219   2221     1  0.0000000  0.0000000  2
   1087   1085   2214   2215     1  0.0000000  8.3680000  1
   1087   1085   2214   2215     1  180.0000771  10.4600000  2
   1088   1086   2239   2240     1  0.0000000  8.3680000  1
   1088   1086   2239   2240     1  180.0000771  10.4600000  2
   1091   1094   1114   1115     1  0.0000000  0.0000000  2
   1091   1097   1098   1099     1  0.0000000  1.2552000  3
   1091   1097   1098   1100     1  0.0000000  1.2552000  3
   1091   1097   1101   1102     1  0.0000000  1.2552000  3
   1091   1097   1101   1103     1  0.0000000  1.2552000  3
   1092   1091   1094   1114     1  0.0000000  0.6508444  3
   1092   1091   1094   1095     1  0.0000000  0.6508444  3
   1092   1091   1094   1096     1  0.0000000  0.6508444  3
   1092   1091   1097   1098     1  0.0000000  1.2552000  3
   1092   1091   1097   1101     1  0.0000000  1.2552000  3
   1093   1091   1094   1114     1  0.0000000  0.6508444  3
   1093   1091   1094   1095     1  0.0000000  0.6508444  3
   1093   1091   1094   1096     1  0.0000000  0.6508444  3
   1093   1091   1097   1098     1  0.0000000  1.2552000  3
   1093   1091   1097   1101     1  0.0000000  1.2552000  3
   1095   1094   1091   1097     1  0.0000000  0.6508444  3
   1095   1094   1114   1115     1  0.0000000  0.0000000  2
   1096   1094   1091   1097     1  0.0000000  0.6508444  3
   1096   1094   1114   1115     1  0.0000000  0.0000000  2
   1097   1098   1107   1108     1  0.0000000  0.6508444  3
   1097   1098   1107   1109     1  0.0000000  0.6508444  3
   1097   1101   1104   1105     1  0.0000000  0.6508444  3
   1097   1101   1104   1106     1  0.0000000  0.6508444  3
   1098   1097   1101   1102     1  0.0000000  1.2552000  3
   1098   1097   1101   1103     1  0.0000000  1.2552000  3
   1099   1098   1097   1101     1  0.0000000  1.2552000  3
   1099   1098   1107   1111     1  0.0000000  0.6508444  3
   1099   1098   1107   1108     1  0.0000000  0.6508444  3
   1099   1098   1107   1109     1  0.0000000  0.6508444  3
   1100   1098   1097   1101     1  0.0000000  1.2552000  3
   1100   1098   1107   1111     1  0.0000000  0.6508444  3
   1100   1098   1107   1108     1  0.0000000  0.6508444  3
   1100   1098   1107   1109     1  0.0000000  0.6508444  3
   1102   1101   1104   1110     1  0.0000000  0.6508444  3
   1102   1101   1104   1105     1  0.0000000  0.6508444  3
   1102   1101   1104   1106     1  0.0000000  0.6508444  3
   1103   1101   1104   1110     1  0.0000000  0.6508444  3
   1103   1101   1104   1105     1  0.0000000  0.6508444  3
   1103   1101   1104   1106     1  0.0000000  0.6508444  3
   1104   1110   2264   2265     1  180.0000771  10.4600000  2
   1105   1104   1110   1112     1  0.0000000  3.3472000  1
   1105   1104   1110   1112     1  0.0000000  0.0000000  2
   1105   1104   1110   1112     1  180.0000771  0.3347200  3
   1105   1104   1110   2264     1  180.0000771  0.0000000  2
   1106   1104   1110   1112     1  0.0000000  3.3472000  1
   1106   1104   1110   1112     1  0.0000000  0.0000000  2
   1106   1104   1110   1112     1  180.0000771  0.3347200  3
   1106   1104   1110   2264     1  180.0000771  0.0000000  2
   1107   1111   2289   2290     1  180.0000771  10.4600000  2
   1108   1107   1111   1113     1  0.0000000  3.3472000  1
   1108   1107   1111   1113     1  0.0000000  0.0000000  2
   1108   1107   1111   1113     1  180.0000771  0.3347200  3
   1108   1107   1111   2289     1  180.0000771  0.0000000  2
   1109   1107   1111   1113     1  0.0000000  3.3472000  1
   1109   1107   1111   1113     1  0.0000000  0.0000000  2
   1109   1107   1111   1113     1  180.0000771  0.3347200  3
   1109   1107   1111   2289     1  180.0000771  0.0000000  2
   1110   2264   2244   2245     1  0.0000000  0.0000000  2
   1110   2264   2244   2246     1  0.0000000  0.0000000  2
   1111   2289   2269   2270     1  0.0000000  0.0000000  2
   1111   2289   2269   2271     1  0.0000000  0.0000000  2
   1112   1110   2264   2265     1  0.0000000  8.3680000  1
   1112   1110   2264   2265     1  180.0000771  10.4600000  2
   1113   1111   2289   2290     1  0.0000000  8.3680000  1
   1113   1111   2289   2290     1  180.0000771  10.4600000  2
   1116   1119   1139   1140     1  0.0000000  0.0000000  2
   1116   1122   1123   1124     1  0.0000000  1.2552000  3
   1116   1122   1123   1125     1  0.0000000  1.2552000  3
   1116   1122   1126   1127     1  0.0000000  1.2552000  3
   1116   1122   1126   1128     1  0.0000000  1.2552000  3
   1117   1116   1119   1139     1  0.0000000  0.6508444  3
   1117   1116   1119   1120     1  0.0000000  0.6508444  3
   1117   1116   1119   1121     1  0.0000000  0.6508444  3
   1117   1116   1122   1123     1  0.0000000  1.2552000  3
   1117   1116   1122   1126     1  0.0000000  1.2552000  3
   1118   1116   1119   1139     1  0.0000000  0.6508444  3
   1118   1116   1119   1120     1  0.0000000  0.6508444  3
   1118   1116   1119   1121     1  0.0000000  0.6508444  3
   1118   1116   1122   1123     1  0.0000000  1.2552000  3
   1118   1116   1122   1126     1  0.0000000  1.2552000  3
   1120   1119   1116   1122     1  0.0000000  0.6508444  3
   1120   1119   1139   1140     1  0.0000000  0.0000000  2
   1121   1119   1116   1122     1  0.0000000  0.6508444  3
   1121   1119   1139   1140     1  0.0000000  0.0000000  2
   1122   1123   1132   1133     1  0.0000000  0.6508444  3
   1122   1123   1132   1134     1  0.0000000  0.6508444  3
   1122   1126   1129   1130     1  0.0000000  0.6508444  3
   1122   1126   1129   1131     1  0.0000000  0.6508444  3
   1123   1122   1126   1127     1  0.0000000  1.2552000  3
   1123   1122   1126   1128     1  0.0000000  1.2552000  3
   1124   1123   1122   1126     1  0.0000000  1.2552000  3
   1124   1123   1132   1136     1  0.0000000  0.6508444  3
   1124   1123   1132   1133     1  0.0000000  0.6508444  3
   1124   1123   1132   1134     1  0.0000000  0.6508444  3
   1125   1123   1122   1126     1  0.0000000  1.2552000  3
   1125   1123   1132   1136     1  0.0000000  0.6508444  3
   1125   1123   1132   1133     1  0.0000000  0.6508444  3
   1125   1123   1132   1134     1  0.0000000  0.6508444  3
   1127   1126   1129   1135     1  0.0000000  0.6508444  3
   1127   1126   1129   1130     1  0.0000000  0.6508444  3
   1127   1126   1129   1131     1  0.0000000  0.6508444  3
   1128   1126   1129   1135     1  0.0000000  0.6508444  3
   1128   1126   1129   1130     1  0.0000000  0.6508444  3
   1128   1126   1129   1131     1  0.0000000  0.6508444  3
   1129   1135   2314   2315     1  180.0000771  10.4600000  2
   1130   1129   1135   1137     1  0.0000000  3.3472000  1
   1130   1129   1135   1137     1  0.0000000  0.0000000  2
   1130   1129   1135   1137     1  180.0000771  0.3347200  3
   1130   1129   1135   2314     1  180.0000771  0.0000000  2
   1131   1129   1135   1137     1  0.0000000  3.3472000  1
   1131   1129   1135   1137     1  0.0000000  0.0000000  2
   1131   1129   1135   1137     1  180.0000771  0.3347200  3
   1131   1129   1135   2314     1  180.0000771  0.0000000  2
   1132   1136   2339   2340     1  180.0000771  10.4600000  2
   1133   1132   1136   1138     1  0.0000000  3.3472000  1
   1133   1132   1136   1138     1  0.0000000  0.0000000  2
   1133   1132   1136   1138     1  180.0000771  0.3347200  3
   1133   1132   1136   2339     1  180.0000771  0.0000000  2
   1134   1132   1136   1138     1  0.0000000  3.3472000  1
   1134   1132   1136   1138     1  0.0000000  0.0000000  2
   1134   1132   1136   1138     1  180.0000771  0.3347200  3
   1134   1132   1136   2339     1  180.0000771  0.0000000  2
   1135   2314   2294   2295     1  0.0000000  0.0000000  2
   1135   2314   2294   2296     1  0.0000000  0.0000000  2
   1136   2339   2319   2320     1  0.0000000  0.0000000  2
   1136   2339   2319   2321     1  0.0000000  0.0000000  2
   1137   1135   2314   2315     1  0.0000000  8.3680000  1
   1137   1135   2314   2315     1  180.0000771  10.4600000  2
   1138   1136   2339   2340     1  0.0000000  8.3680000  1
   1138   1136   2339   2340     1  180.0000771  10.4600000  2
   1141   1144   1164   1165     1  0.0000000  0.0000000  2
   1141   1147   1148   1149     1  0.0000000  1.2552000  3
   1141   1147   1148   1150     1  0.0000000  1.2552000  3
   1141   1147   1151   1152     1  0.0000000  1.2552000  3
   1141   1147   1151   1153     1  0.0000000  1.2552000  3
   1142   1141   1144   1164     1  0.0000000  0.6508444  3
   1142   1141   1144   1145     1  0.0000000  0.6508444  3
   1142   1141   1144   1146     1  0.0000000  0.6508444  3
   1142   1141   1147   1148     1  0.0000000  1.2552000  3
   1142   1141   1147   1151     1  0.0000000  1.2552000  3
   1143   1141   1144   1164     1  0.0000000  0.6508444  3
   1143   1141   1144   1145     1  0.0000000  0.6508444  3
   1143   1141   1144   1146     1  0.0000000  0.6508444  3
   1143   1141   1147   1148     1  0.0000000  1.2552000  3
   1143   1141   1147   1151     1  0.0000000  1.2552000  3
   1145   1144   1141   1147     1  0.0000000  0.6508444  3
   1145   1144   1164   1165     1  0.0000000  0.0000000  2
   1146   1144   1141   1147     1  0.0000000  0.6508444  3
   1146   1144   1164   1165     1  0.0000000  0.0000000  2
   1147   1148   1157   1158     1  0.0000000  0.6508444  3
   1147   1148   1157   1159     1  0.0000000  0.6508444  3
   1147   1151   1154   1155     1  0.0000000  0.6508444  3
   1147   1151   1154   1156     1  0.0000000  0.6508444  3
   1148   1147   1151   1152     1  0.0000000  1.2552000  3
   1148   1147   1151   1153     1  0.0000000  1.2552000  3
   1149   1148   1147   1151     1  0.0000000  1.2552000  3
   1149   1148   1157   1161     1  0.0000000  0.6508444  3
   1149   1148   1157   1158     1  0.0000000  0.6508444  3
   1149   1148   1157   1159     1  0.0000000  0.6508444  3
   1150   1148   1147   1151     1  0.0000000  1.2552000  3
   1150   1148   1157   1161     1  0.0000000  0.6508444  3
   1150   1148   1157   1158     1  0.0000000  0.6508444  3
   1150   1148   1157   1159     1  0.0000000  0.6508444  3
   1152   1151   1154   1160     1  0.0000000  0.6508444  3
   1152   1151   1154   1155     1  0.0000000  0.6508444  3
   1152   1151   1154   1156     1  0.0000000  0.6508444  3
   1153   1151   1154   1160     1  0.0000000  0.6508444  3
   1153   1151   1154   1155     1  0.0000000  0.6508444  3
   1153   1151   1154   1156     1  0.0000000  0.6508444  3
   1154   1160   2364   2365     1  180.0000771  10.4600000  2
   1155   1154   1160   1162     1  0.0000000  3.3472000  1
   1155   1154   1160   1162     1  0.0000000  0.0000000  2
   1155   1154   1160   1162     1  180.0000771  0.3347200  3
   1155   1154   1160   2364     1  180.0000771  0.0000000  2
   1156   1154   1160   1162     1  0.0000000  3.3472000  1
   1156   1154   1160   1162     1  0.0000000  0.0000000  2
   1156   1154   1160   1162     1  180.0000771  0.3347200  3
   1156   1154   1160   2364     1  180.0000771  0.0000000  2
   1157   1161   2389   2390     1  180.0000771  10.4600000  2
   1158   1157   1161   1163     1  0.0000000  3.3472000  1
   1158   1157   1161   1163     1  0.0000000  0.0000000  2
   1158   1157   1161   1163     1  180.0000771  0.3347200  3
   1158   1157   1161   2389     1  180.0000771  0.0000000  2
   1159   1157   1161   1163     1  0.0000000  3.3472000  1
   1159   1157   1161   1163     1  0.0000000  0.0000000  2
   1159   1157   1161   1163     1  180.0000771  0.3347200  3
   1159   1157   1161   2389     1  180.0000771  0.0000000  2
   1160   2364   2344   2345     1  0.0000000  0.0000000  2
   1160   2364   2344   2346     1  0.0000000  0.0000000  2
   1161   2389   2369   2370     1  0.0000000  0.0000000  2
   1161   2389   2369   2371     1  0.0000000  0.0000000  2
   1162   1160   2364   2365     1  0.0000000  8.3680000  1
   1162   1160   2364   2365     1  180.0000771  10.4600000  2
   1163   1161   2389   2390     1  0.0000000  8.3680000  1
   1163   1161   2389   2390     1  180.0000771  10.4600000  2
   1166   1169   1189   1190     1  0.0000000  0.0000000  2
   1166   1172   1173   1174     1  0.0000000  1.2552000  3
   1166   1172   1173   1175     1  0.0000000  1.2552000  3
   1166   1172   1176   1177     1  0.0000000  1.2552000  3
   1166   1172   1176   1178     1  0.0000000  1.2552000  3
   1167   1166   1169   1189     1  0.0000000  0.6508444  3
   1167   1166   1169   1170     1  0.0000000  0.6508444  3
   1167   1166   1169   1171     1  0.0000000  0.6508444  3
   1167   1166   1172   1173     1  0.0000000  1.2552000  3
   1167   1166   1172   1176     1  0.0000000  1.2552000  3
   1168   1166   1169   1189     1  0.0000000  0.6508444  3
   1168   1166   1169   1170     1  0.0000000  0.6508444  3
   1168   1166   1169   1171     1  0.0000000  0.6508444  3
   1168   1166   1172   1173     1  0.0000000  1.2552000  3
   1168   1166   1172   1176     1  0.0000000  1.2552000  3
   1170   1169   1166   1172     1  0.0000000  0.6508444  3
   1170   1169   1189   1190     1  0.0000000  0.0000000  2
   1171   1169   1166   1172     1  0.0000000  0.6508444  3
   1171   1169   1189   1190     1  0.0000000  0.0000000  2
   1172   1173   1182   1183     1  0.0000000  0.6508444  3
   1172   1173   1182   1184     1  0.0000000  0.6508444  3
   1172   1176   1179   1180     1  0.0000000  0.6508444  3
   1172   1176   1179   1181     1  0.0000000  0.6508444  3
   1173   1172   1176   1177     1  0.0000000  1.2552000  3
   1173   1172   1176   1178     1  0.0000000  1.2552000  3
   1174   1173   1172   1176     1  0.0000000  1.2552000  3
   1174   1173   1182   1186     1  0.0000000  0.6508444  3
   1174   1173   1182   1183     1  0.0000000  0.6508444  3
   1174   1173   1182   1184     1  0.0000000  0.6508444  3
   1175   1173   1172   1176     1  0.0000000  1.2552000  3
   1175   1173   1182   1186     1  0.0000000  0.6508444  3
   1175   1173   1182   1183     1  0.0000000  0.6508444  3
   1175   1173   1182   1184     1  0.0000000  0.6508444  3
   1177   1176   1179   1185     1  0.0000000  0.6508444  3
   1177   1176   1179   1180     1  0.0000000  0.6508444  3
   1177   1176   1179   1181     1  0.0000000  0.6508444  3
   1178   1176   1179   1185     1  0.0000000  0.6508444  3
   1178   1176   1179   1180     1  0.0000000  0.6508444  3
   1178   1176   1179   1181     1  0.0000000  0.6508444  3
   1179   1185   2414   2415     1  180.0000771  10.4600000  2
   1180   1179   1185   1187     1  0.0000000  3.3472000  1
   1180   1179   1185   1187     1  0.0000000  0.0000000  2
   1180   1179   1185   1187     1  180.0000771  0.3347200  3
   1180   1179   1185   2414     1  180.0000771  0.0000000  2
   1181   1179   1185   1187     1  0.0000000  3.3472000  1
   1181   1179   1185   1187     1  0.0000000  0.0000000  2
   1181   1179   1185   1187     1  180.0000771  0.3347200  3
   1181   1179   1185   2414     1  180.0000771  0.0000000  2
   1182   1186   2439   2440     1  180.0000771  10.4600000  2
   1183   1182   1186   1188     1  0.0000000  3.3472000  1
   1183   1182   1186   1188     1  0.0000000  0.0000000  2
   1183   1182   1186   1188     1  180.0000771  0.3347200  3
   1183   1182   1186   2439     1  180.0000771  0.0000000  2
   1184   1182   1186   1188     1  0.0000000  3.3472000  1
   1184   1182   1186   1188     1  0.0000000  0.0000000  2
   1184   1182   1186   1188     1  180.0000771  0.3347200  3
   1184   1182   1186   2439     1  180.0000771  0.0000000  2
   1185   2414   2394   2395     1  0.0000000  0.0000000  2
   1185   2414   2394   2396     1  0.0000000  0.0000000  2
   1186   2439   2419   2420     1  0.0000000  0.0000000  2
   1186   2439   2419   2421     1  0.0000000  0.0000000  2
   1187   1185   2414   2415     1  0.0000000  8.3680000  1
   1187   1185   2414   2415     1  180.0000771  10.4600000  2
   1188   1186   2439   2440     1  0.0000000  8.3680000  1
   1188   1186   2439   2440     1  180.0000771  10.4600000  2
   1191   1194   1214   1215     1  0.0000000  0.0000000  2
   1191   1197   1198   1199     1  0.0000000  1.2552000  3
   1191   1197   1198   1200     1  0.0000000  1.2552000  3
   1191   1197   1201   1202     1  0.0000000  1.2552000  3
   1191   1197   1201   1203     1  0.0000000  1.2552000  3
   1192   1191   1194   1214     1  0.0000000  0.6508444  3
   1192   1191   1194   1195     1  0.0000000  0.6508444  3
   1192   1191   1194   1196     1  0.0000000  0.6508444  3
   1192   1191   1197   1198     1  0.0000000  1.2552000  3
   1192   1191   1197   1201     1  0.0000000  1.2552000  3
   1193   1191   1194   1214     1  0.0000000  0.6508444  3
   1193   1191   1194   1195     1  0.0000000  0.6508444  3
   1193   1191   1194   1196     1  0.0000000  0.6508444  3
   1193   1191   1197   1198     1  0.0000000  1.2552000  3
   1193   1191   1197   1201     1  0.0000000  1.2552000  3
   1195   1194   1191   1197     1  0.0000000  0.6508444  3
   1195   1194   1214   1215     1  0.0000000  0.0000000  2
   1196   1194   1191   1197     1  0.0000000  0.6508444  3
   1196   1194   1214   1215     1  0.0000000  0.0000000  2
   1197   1198   1207   1208     1  0.0000000  0.6508444  3
   1197   1198   1207   1209     1  0.0000000  0.6508444  3
   1197   1201   1204   1205     1  0.0000000  0.6508444  3
   1197   1201   1204   1206     1  0.0000000  0.6508444  3
   1198   1197   1201   1202     1  0.0000000  1.2552000  3
   1198   1197   1201   1203     1  0.0000000  1.2552000  3
   1199   1198   1197   1201     1  0.0000000  1.2552000  3
   1199   1198   1207   1211     1  0.0000000  0.6508444  3
   1199   1198   1207   1208     1  0.0000000  0.6508444  3
   1199   1198   1207   1209     1  0.0000000  0.6508444  3
   1200   1198   1197   1201     1  0.0000000  1.2552000  3
   1200   1198   1207   1211     1  0.0000000  0.6508444  3
   1200   1198   1207   1208     1  0.0000000  0.6508444  3
   1200   1198   1207   1209     1  0.0000000  0.6508444  3
   1202   1201   1204   1210     1  0.0000000  0.6508444  3
   1202   1201   1204   1205     1  0.0000000  0.6508444  3
   1202   1201   1204   1206     1  0.0000000  0.6508444  3
   1203   1201   1204   1210     1  0.0000000  0.6508444  3
   1203   1201   1204   1205     1  0.0000000  0.6508444  3
   1203   1201   1204   1206     1  0.0000000  0.6508444  3
   1204   1210   2464   2465     1  180.0000771  10.4600000  2
   1205   1204   1210   1212     1  0.0000000  3.3472000  1
   1205   1204   1210   1212     1  0.0000000  0.0000000  2
   1205   1204   1210   1212     1  180.0000771  0.3347200  3
   1205   1204   1210   2464     1  180.0000771  0.0000000  2
   1206   1204   1210   1212     1  0.0000000  3.3472000  1
   1206   1204   1210   1212     1  0.0000000  0.0000000  2
   1206   1204   1210   1212     1  180.0000771  0.3347200  3
   1206   1204   1210   2464     1  180.0000771  0.0000000  2
   1207   1211   2489   2490     1  180.0000771  10.4600000  2
   1208   1207   1211   1213     1  0.0000000  3.3472000  1
   1208   1207   1211   1213     1  0.0000000  0.0000000  2
   1208   1207   1211   1213     1  180.0000771  0.3347200  3
   1208   1207   1211   2489     1  180.0000771  0.0000000  2
   1209   1207   1211   1213     1  0.0000000  3.3472000  1
   1209   1207   1211   1213     1  0.0000000  0.0000000  2
   1209   1207   1211   1213     1  180.0000771  0.3347200  3
   1209   1207   1211   2489     1  180.0000771  0.0000000  2
   1210   2464   2444   2445     1  0.0000000  0.0000000  2
   1210   2464   2444   2446     1  0.0000000  0.0000000  2
   1211   2489   2469   2470     1  0.0000000  0.0000000  2
   1211   2489   2469   2471     1  0.0000000  0.0000000  2
   1212   1210   2464   2465     1  0.0000000  8.3680000  1
   1212   1210   2464   2465     1  180.0000771  10.4600000  2
   1213   1211   2489   2490     1  0.0000000  8.3680000  1
   1213   1211   2489   2490     1  180.0000771  10.4600000  2
   1216   1219   1239   1240     1  0.0000000  0.0000000  2
   1216   1222   1223   1224     1  0.0000000  1.2552000  3
   1216   1222   1223   1225     1  0.0000000  1.2552000  3
   1216   1222   1226   1227     1  0.0000000  1.2552000  3
   1216   1222   1226   1228     1  0.0000000  1.2552000  3
   1217   1216   1219   1239     1  0.0000000  0.6508444  3
   1217   1216   1219   1220     1  0.0000000  0.6508444  3
   1217   1216   1219   1221     1  0.0000000  0.6508444  3
   1217   1216   1222   1223     1  0.0000000  1.2552000  3
   1217   1216   1222   1226     1  0.0000000  1.2552000  3
   1218   1216   1219   1239     1  0.0000000  0.6508444  3
   1218   1216   1219   1220     1  0.0000000  0.6508444  3
   1218   1216   1219   1221     1  0.0000000  0.6508444  3
   1218   1216   1222   1223     1  0.0000000  1.2552000  3
   1218   1216   1222   1226     1  0.0000000  1.2552000  3
   1220   1219   1216   1222     1  0.0000000  0.6508444  3
   1220   1219   1239   1240     1  0.0000000  0.0000000  2
   1221   1219   1216   1222     1  0.0000000  0.6508444  3
   1221   1219   1239   1240     1  0.0000000  0.0000000  2
   1222   1223   1232   1233     1  0.0000000  0.6508444  3
   1222   1223   1232   1234     1  0.0000000  0.6508444  3
   1222   1226   1229   1230     1  0.0000000  0.6508444  3
   1222   1226   1229   1231     1  0.0000000  0.6508444  3
   1223   1222   1226   1227     1  0.0000000  1.2552000  3
   1223   1222   1226   1228     1  0.0000000  1.2552000  3
   1224   1223   1222   1226     1  0.0000000  1.2552000  3
   1224   1223   1232   1236     1  0.0000000  0.6508444  3
   1224   1223   1232   1233     1  0.0000000  0.6508444  3
   1224   1223   1232   1234     1  0.0000000  0.6508444  3
   1225   1223   1222   1226     1  0.0000000  1.2552000  3
   1225   1223   1232   1236     1  0.0000000  0.6508444  3
   1225   1223   1232   1233     1  0.0000000  0.6508444  3
   1225   1223   1232   1234     1  0.0000000  0.6508444  3
   1227   1226   1229   1235     1  0.0000000  0.6508444  3
   1227   1226   1229   1230     1  0.0000000  0.6508444  3
   1227   1226   1229   1231     1  0.0000000  0.6508444  3
   1228   1226   1229   1235     1  0.0000000  0.6508444  3
   1228   1226   1229   1230     1  0.0000000  0.6508444  3
   1228   1226   1229   1231     1  0.0000000  0.6508444  3
   1229   1235   2514   2515     1  180.0000771  10.4600000  2
   1230   1229   1235   1237     1  0.0000000  3.3472000  1
   1230   1229   1235   1237     1  0.0000000  0.0000000  2
   1230   1229   1235   1237     1  180.0000771  0.3347200  3
   1230   1229   1235   2514     1  180.0000771  0.0000000  2
   1231   1229   1235   1237     1  0.0000000  3.3472000  1
   1231   1229   1235   1237     1  0.0000000  0.0000000  2
   1231   1229   1235   1237     1  180.0000771  0.3347200  3
   1231   1229   1235   2514     1  180.0000771  0.0000000  2
   1232   1236   2539   2540     1  180.0000771  10.4600000  2
   1233   1232   1236   1238     1  0.0000000  3.3472000  1
   1233   1232   1236   1238     1  0.0000000  0.0000000  2
   1233   1232   1236   1238     1  180.0000771  0.3347200  3
   1233   1232   1236   2539     1  180.0000771  0.0000000  2
   1234   1232   1236   1238     1  0.0000000  3.3472000  1
   1234   1232   1236   1238     1  0.0000000  0.0000000  2
   1234   1232   1236   1238     1  180.0000771  0.3347200  3
   1234   1232   1236   2539     1  180.0000771  0.0000000  2
   1235   2514   2494   2495     1  0.0000000  0.0000000  2
   1235   2514   2494   2496     1  0.0000000  0.0000000  2
   1236   2539   2519   2520     1  0.0000000  0.0000000  2
   1236   2539   2519   2521     1  0.0000000  0.0000000  2
   1237   1235   2514   2515     1  0.0000000  8.3680000  1
   1237   1235   2514   2515     1  180.0000771  10.4600000  2
   1238   1236   2539   2540     1  0.0000000  8.3680000  1
   1238   1236   2539   2540     1  180.0000771  10.4600000  2
   1241   1244   1264   1265     1  0.0000000  0.0000000  2
   1241   1247   1248   1249     1  0.0000000  1.2552000  3
   1241   1247   1248   1250     1  0.0000000  1.2552000  3
   1241   1247   1251   1252     1  0.0000000  1.2552000  3
   1241   1247   1251   1253     1  0.0000000  1.2552000  3
   1242   1241   1244   1264     1  0.0000000  0.6508444  3
   1242   1241   1244   1245     1  0.0000000  0.6508444  3
   1242   1241   1244   1246     1  0.0000000  0.6508444  3
   1242   1241   1247   1248     1  0.0000000  1.2552000  3
   1242   1241   1247   1251     1  0.0000000  1.2552000  3
   1243   1241   1244   1264     1  0.0000000  0.6508444  3
   1243   1241   1244   1245     1  0.0000000  0.6508444  3
   1243   1241   1244   1246     1  0.0000000  0.6508444  3
   1243   1241   1247   1248     1  0.0000000  1.2552000  3
   1243   1241   1247   1251     1  0.0000000  1.2552000  3
   1245   1244   1241   1247     1  0.0000000  0.6508444  3
   1245   1244   1264   1265     1  0.0000000  0.0000000  2
   1246   1244   1241   1247     1  0.0000000  0.6508444  3
   1246   1244   1264   1265     1  0.0000000  0.0000000  2
   1247   1248   1257   1258     1  0.0000000  0.6508444  3
   1247   1248   1257   1259     1  0.0000000  0.6508444  3
   1247   1251   1254   1255     1  0.0000000  0.6508444  3
   1247   1251   1254   1256     1  0.0000000  0.6508444  3
   1248   1247   1251   1252     1  0.0000000  1.2552000  3
   1248   1247   1251   1253     1  0.0000000  1.2552000  3
   1249   1248   1247   1251     1  0.0000000  1.2552000  3
   1249   1248   1257   1261     1  0.0000000  0.6508444  3
   1249   1248   1257   1258     1  0.0000000  0.6508444  3
   1249   1248   1257   1259     1  0.0000000  0.6508444  3
   1250   1248   1247   1251     1  0.0000000  1.2552000  3
   1250   1248   1257   1261     1  0.0000000  0.6508444  3
   1250   1248   1257   1258     1  0.0000000  0.6508444  3
   1250   1248   1257   1259     1  0.0000000  0.6508444  3
   1252   1251   1254   1260     1  0.0000000  0.6508444  3
   1252   1251   1254   1255     1  0.0000000  0.6508444  3
   1252   1251   1254   1256     1  0.0000000  0.6508444  3
   1253   1251   1254   1260     1  0.0000000  0.6508444  3
   1253   1251   1254   1255     1  0.0000000  0.6508444  3
   1253   1251   1254   1256     1  0.0000000  0.6508444  3
   1254   1260   2564   2565     1  180.0000771  10.4600000  2
   1255   1254   1260   1262     1  0.0000000  3.3472000  1
   1255   1254   1260   1262     1  0.0000000  0.0000000  2
   1255   1254   1260   1262     1  180.0000771  0.3347200  3
   1255   1254   1260   2564     1  180.0000771  0.0000000  2
   1256   1254   1260   1262     1  0.0000000  3.3472000  1
   1256   1254   1260   1262     1  0.0000000  0.0000000  2
   1256   1254   1260   1262     1  180.0000771  0.3347200  3
   1256   1254   1260   2564     1  180.0000771  0.0000000  2
   1257   1261   2589   2590     1  180.0000771  10.4600000  2
   1258   1257   1261   1263     1  0.0000000  3.3472000  1
   1258   1257   1261   1263     1  0.0000000  0.0000000  2
   1258   1257   1261   1263     1  180.0000771  0.3347200  3
   1258   1257   1261   2589     1  180.0000771  0.0000000  2
   1259   1257   1261   1263     1  0.0000000  3.3472000  1
   1259   1257   1261   1263     1  0.0000000  0.0000000  2
   1259   1257   1261   1263     1  180.0000771  0.3347200  3
   1259   1257   1261   2589     1  180.0000771  0.0000000  2
   1260   2564   2544   2545     1  0.0000000  0.0000000  2
   1260   2564   2544   2546     1  0.0000000  0.0000000  2
   1261   2589   2569   2570     1  0.0000000  0.0000000  2
   1261   2589   2569   2571     1  0.0000000  0.0000000  2
   1262   1260   2564   2565     1  0.0000000  8.3680000  1
   1262   1260   2564   2565     1  180.0000771  10.4600000  2
   1263   1261   2589   2590     1  0.0000000  8.3680000  1
   1263   1261   2589   2590     1  180.0000771  10.4600000  2
   1266   1269   1289   1290     1  0.0000000  0.0000000  2
   1266   1272   1273   1274     1  0.0000000  1.2552000  3
   1266   1272   1273   1275     1  0.0000000  1.2552000  3
   1266   1272   1276   1277     1  0.0000000  1.2552000  3
   1266   1272   1276   1278     1  0.0000000  1.2552000  3
   1267   1266   1269   1289     1  0.0000000  0.6508444  3
   1267   1266   1269   1270     1  0.0000000  0.6508444  3
   1267   1266   1269   1271     1  0.0000000  0.6508444  3
   1267   1266   1272   1273     1  0.0000000  1.2552000  3
   1267   1266   1272   1276     1  0.0000000  1.2552000  3
   1268   1266   1269   1289     1  0.0000000  0.6508444  3
   1268   1266   1269   1270     1  0.0000000  0.6508444  3
   1268   1266   1269   1271     1  0.0000000  0.6508444  3
   1268   1266   1272   1273     1  0.0000000  1.2552000  3
   1268   1266   1272   1276     1  0.0000000  1.2552000  3
   1270   1269   1266   1272     1  0.0000000  0.6508444  3
   1270   1269   1289   1290     1  0.0000000  0.0000000  2
   1271   1269   1266   1272     1  0.0000000  0.6508444  3
   1271   1269   1289   1290     1  0.0000000  0.0000000  2
   1272   1273   1282   1283     1  0.0000000  0.6508444  3
   1272   1273   1282   1284     1  0.0000000  0.6508444  3
   1272   1276   1279   1280     1  0.0000000  0.6508444  3
   1272   1276   1279   1281     1  0.0000000  0.6508444  3
   1273   1272   1276   1277     1  0.0000000  1.2552000  3
   1273   1272   1276   1278     1  0.0000000  1.2552000  3
   1274   1273   1272   1276     1  0.0000000  1.2552000  3
   1274   1273   1282   1286     1  0.0000000  0.6508444  3
   1274   1273   1282   1283     1  0.0000000  0.6508444  3
   1274   1273   1282   1284     1  0.0000000  0.6508444  3
   1275   1273   1272   1276     1  0.0000000  1.2552000  3
   1275   1273   1282   1286     1  0.0000000  0.6508444  3
   1275   1273   1282   1283     1  0.0000000  0.6508444  3
   1275   1273   1282   1284     1  0.0000000  0.6508444  3
   1277   1276   1279   1285     1  0.0000000  0.6508444  3
   1277   1276   1279   1280     1  0.0000000  0.6508444  3
   1277   1276   1279   1281     1  0.0000000  0.6508444  3
   1278   1276   1279   1285     1  0.0000000  0.6508444  3
   1278   1276   1279   1280     1  0.0000000  0.6508444  3
   1278   1276   1279   1281     1  0.0000000  0.6508444  3
   1279   1285   2614   2615     1  180.0000771  10.4600000  2
   1280   1279   1285   1287     1  0.0000000  3.3472000  1
   1280   1279   1285   1287     1  0.0000000  0.0000000  2
   1280   1279   1285   1287     1  180.0000771  0.3347200  3
   1280   1279   1285   2614     1  180.0000771  0.0000000  2
   1281   1279   1285   1287     1  0.0000000  3.3472000  1
   1281   1279   1285   1287     1  0.0000000  0.0000000  2
   1281   1279   1285   1287     1  180.0000771  0.3347200  3
   1281   1279   1285   2614     1  180.0000771  0.0000000  2
   1282   1286   2639   2640     1  180.0000771  10.4600000  2
   1283   1282   1286   1288     1  0.0000000  3.3472000  1
   1283   1282   1286   1288     1  0.0000000  0.0000000  2
   1283   1282   1286   1288     1  180.0000771  0.3347200  3
   1283   1282   1286   2639     1  180.0000771  0.0000000  2
   1284   1282   1286   1288     1  0.0000000  3.3472000  1
   1284   1282   1286   1288     1  0.0000000  0.0000000  2
   1284   1282   1286   1288     1  180.0000771  0.3347200  3
   1284   1282   1286   2639     1  180.0000771  0.0000000  2
   1285   2614   2594   2595     1  0.0000000  0.0000000  2
   1285   2614   2594   2596     1  0.0000000  0.0000000  2
   1286   2639   2619   2620     1  0.0000000  0.0000000  2
   1286   2639   2619   2621     1  0.0000000  0.0000000  2
   1287   1285   2614   2615     1  0.0000000  8.3680000  1
   1287   1285   2614   2615     1  180.0000771  10.4600000  2
   1288   1286   2639   2640     1  0.0000000  8.3680000  1
   1288   1286   2639   2640     1  180.0000771  10.4600000  2
   1291   1294   1314   1315     1  0.0000000  0.0000000  2
   1291   1297   1298   1299     1  0.0000000  1.2552000  3
   1291   1297   1298   1300     1  0.0000000  1.2552000  3
   1291   1297   1301   1302     1  0.0000000  1.2552000  3
   1291   1297   1301   1303     1  0.0000000  1.2552000  3
   1292   1291   1294   1314     1  0.0000000  0.6508444  3
   1292   1291   1294   1295     1  0.0000000  0.6508444  3
   1292   1291   1294   1296     1  0.0000000  0.6508444  3
   1292   1291   1297   1298     1  0.0000000  1.2552000  3
   1292   1291   1297   1301     1  0.0000000  1.2552000  3
   1293   1291   1294   1314     1  0.0000000  0.6508444  3
   1293   1291   1294   1295     1  0.0000000  0.6508444  3
   1293   1291   1294   1296     1  0.0000000  0.6508444  3
   1293   1291   1297   1298     1  0.0000000  1.2552000  3
   1293   1291   1297   1301     1  0.0000000  1.2552000  3
   1295   1294   1291   1297     1  0.0000000  0.6508444  3
   1295   1294   1314   1315     1  0.0000000  0.0000000  2
   1296   1294   1291   1297     1  0.0000000  0.6508444  3
   1296   1294   1314   1315     1  0.0000000  0.0000000  2
   1297   1298   1307   1308     1  0.0000000  0.6508444  3
   1297   1298   1307   1309     1  0.0000000  0.6508444  3
   1297   1301   1304   1305     1  0.0000000  0.6508444  3
   1297   1301   1304   1306     1  0.0000000  0.6508444  3
   1298   1297   1301   1302     1  0.0000000  1.2552000  3
   1298   1297   1301   1303     1  0.0000000  1.2552000  3
   1299   1298   1297   1301     1  0.0000000  1.2552000  3
   1299   1298   1307   1311     1  0.0000000  0.6508444  3
   1299   1298   1307   1308     1  0.0000000  0.6508444  3
   1299   1298   1307   1309     1  0.0000000  0.6508444  3
   1300   1298   1297   1301     1  0.0000000  1.2552000  3
   1300   1298   1307   1311     1  0.0000000  0.6508444  3
   1300   1298   1307   1308     1  0.0000000  0.6508444  3
   1300   1298   1307   1309     1  0.0000000  0.6508444  3
   1302   1301   1304   1310     1  0.0000000  0.6508444  3
   1302   1301   1304   1305     1  0.0000000  0.6508444  3
   1302   1301   1304   1306     1  0.0000000  0.6508444  3
   1303   1301   1304   1310     1  0.0000000  0.6508444  3
   1303   1301   1304   1305     1  0.0000000  0.6508444  3
   1303   1301   1304   1306     1  0.0000000  0.6508444  3
   1304   1310   2664   2665     1  180.0000771  10.4600000  2
   1305   1304   1310   1312     1  0.0000000  3.3472000  1
   1305   1304   1310   1312     1  0.0000000  0.0000000  2
   1305   1304   1310   1312     1  180.0000771  0.3347200  3
   1305   1304   1310   2664     1  180.0000771  0.0000000  2
   1306   1304   1310   1312     1  0.0000000  3.3472000  1
   1306   1304   1310   1312     1  0.0000000  0.0000000  2
   1306   1304   1310   1312     1  180.0000771  0.3347200  3
   1306   1304   1310   2664     1  180.0000771  0.0000000  2
   1307   1311   2689   2690     1  180.0000771  10.4600000  2
   1308   1307   1311   1313     1  0.0000000  3.3472000  1
   1308   1307   1311   1313     1  0.0000000  0.0000000  2
   1308   1307   1311   1313     1  180.0000771  0.3347200  3
   1308   1307   1311   2689     1  180.0000771  0.0000000  2
   1309   1307   1311   1313     1  0.0000000  3.3472000  1
   1309   1307   1311   1313     1  0.0000000  0.0000000  2
   1309   1307   1311   1313     1  180.0000771  0.3347200  3
   1309   1307   1311   2689     1  180.0000771  0.0000000  2
   1310   2664   2644   2645     1  0.0000000  0.0000000  2
   1310   2664   2644   2646     1  0.0000000  0.0000000  2
   1311   2689   2669   2670     1  0.0000000  0.0000000  2
   1311   2689   2669   2671     1  0.0000000  0.0000000  2
   1312   1310   2664   2665     1  0.0000000  8.3680000  1
   1312   1310   2664   2665     1  180.0000771  10.4600000  2
   1313   1311   2689   2690     1  0.0000000  8.3680000  1
   1313   1311   2689   2690     1  180.0000771  10.4600000  2
   1316   1319   1339   1340     1  0.0000000  0.0000000  2
   1316   1322   1323   1324     1  0.0000000  1.2552000  3
   1316   1322   1323   1325     1  0.0000000  1.2552000  3
   1316   1322   1326   1327     1  0.0000000  1.2552000  3
   1316   1322   1326   1328     1  0.0000000  1.2552000  3
   1317   1316   1319   1339     1  0.0000000  0.6508444  3
   1317   1316   1319   1320     1  0.0000000  0.6508444  3
   1317   1316   1319   1321     1  0.0000000  0.6508444  3
   1317   1316   1322   1323     1  0.0000000  1.2552000  3
   1317   1316   1322   1326     1  0.0000000  1.2552000  3
   1318   1316   1319   1339     1  0.0000000  0.6508444  3
   1318   1316   1319   1320     1  0.0000000  0.6508444  3
   1318   1316   1319   1321     1  0.0000000  0.6508444  3
   1318   1316   1322   1323     1  0.0000000  1.2552000  3
   1318   1316   1322   1326     1  0.0000000  1.2552000  3
   1320   1319   1316   1322     1  0.0000000  0.6508444  3
   1320   1319   1339   1340     1  0.0000000  0.0000000  2
   1321   1319   1316   1322     1  0.0000000  0.6508444  3
   1321   1319   1339   1340     1  0.0000000  0.0000000  2
   1322   1323   1332   1333     1  0.0000000  0.6508444  3
   1322   1323   1332   1334     1  0.0000000  0.6508444  3
   1322   1326   1329   1330     1  0.0000000  0.6508444  3
   1322   1326   1329   1331     1  0.0000000  0.6508444  3
   1323   1322   1326   1327     1  0.0000000  1.2552000  3
   1323   1322   1326   1328     1  0.0000000  1.2552000  3
   1324   1323   1322   1326     1  0.0000000  1.2552000  3
   1324   1323   1332   1336     1  0.0000000  0.6508444  3
   1324   1323   1332   1333     1  0.0000000  0.6508444  3
   1324   1323   1332   1334     1  0.0000000  0.6508444  3
   1325   1323   1322   1326     1  0.0000000  1.2552000  3
   1325   1323   1332   1336     1  0.0000000  0.6508444  3
   1325   1323   1332   1333     1  0.0000000  0.6508444  3
   1325   1323   1332   1334     1  0.0000000  0.6508444  3
   1327   1326   1329   1335     1  0.0000000  0.6508444  3
   1327   1326   1329   1330     1  0.0000000  0.6508444  3
   1327   1326   1329   1331     1  0.0000000  0.6508444  3
   1328   1326   1329   1335     1  0.0000000  0.6508444  3
   1328   1326   1329   1330     1  0.0000000  0.6508444  3
   1328   1326   1329   1331     1  0.0000000  0.6508444  3
   1329   1335   2714   2715     1  180.0000771  10.4600000  2
   1330   1329   1335   1337     1  0.0000000  3.3472000  1
   1330   1329   1335   1337     1  0.0000000  0.0000000  2
   1330   1329   1335   1337     1  180.0000771  0.3347200  3
   1330   1329   1335   2714     1  180.0000771  0.0000000  2
   1331   1329   1335   1337     1  0.0000000  3.3472000  1
   1331   1329   1335   1337     1  0.0000000  0.0000000  2
   1331   1329   1335   1337     1  180.0000771  0.3347200  3
   1331   1329   1335   2714     1  180.0000771  0.0000000  2
   1332   1336   2739   2740     1  180.0000771  10.4600000  2
   1333   1332   1336   1338     1  0.0000000  3.3472000  1
   1333   1332   1336   1338     1  0.0000000  0.0000000  2
   1333   1332   1336   1338     1  180.0000771  0.3347200  3
   1333   1332   1336   2739     1  180.0000771  0.0000000  2
   1334   1332   1336   1338     1  0.0000000  3.3472000  1
   1334   1332   1336   1338     1  0.0000000  0.0000000  2
   1334   1332   1336   1338     1  180.0000771  0.3347200  3
   1334   1332   1336   2739     1  180.0000771  0.0000000  2
   1335   2714   2694   2695     1  0.0000000  0.0000000  2
   1335   2714   2694   2696     1  0.0000000  0.0000000  2
   1336   2739   2719   2720     1  0.0000000  0.0000000  2
   1336   2739   2719   2721     1  0.0000000  0.0000000  2
   1337   1335   2714   2715     1  0.0000000  8.3680000  1
   1337   1335   2714   2715     1  180.0000771  10.4600000  2
   1338   1336   2739   2740     1  0.0000000  8.3680000  1
   1338   1336   2739   2740     1  180.0000771  10.4600000  2
   1341   1344   1364   1365     1  0.0000000  0.0000000  2
   1341   1347   1348   1349     1  0.0000000  1.2552000  3
   1341   1347   1348   1350     1  0.0000000  1.2552000  3
   1341   1347   1351   1352     1  0.0000000  1.2552000  3
   1341   1347   1351   1353     1  0.0000000  1.2552000  3
   1342   1341   1344   1364     1  0.0000000  0.6508444  3
   1342   1341   1344   1345     1  0.0000000  0.6508444  3
   1342   1341   1344   1346     1  0.0000000  0.6508444  3
   1342   1341   1347   1348     1  0.0000000  1.2552000  3
   1342   1341   1347   1351     1  0.0000000  1.2552000  3
   1343   1341   1344   1364     1  0.0000000  0.6508444  3
   1343   1341   1344   1345     1  0.0000000  0.6508444  3
   1343   1341   1344   1346     1  0.0000000  0.6508444  3
   1343   1341   1347   1348     1  0.0000000  1.2552000  3
   1343   1341   1347   1351     1  0.0000000  1.2552000  3
   1345   1344   1341   1347     1  0.0000000  0.6508444  3
   1345   1344   1364   1365     1  0.0000000  0.0000000  2
   1346   1344   1341   1347     1  0.0000000  0.6508444  3
   1346   1344   1364   1365     1  0.0000000  0.0000000  2
   1347   1348   1357   1358     1  0.0000000  0.6508444  3
   1347   1348   1357   1359     1  0.0000000  0.6508444  3
   1347   1351   1354   1355     1  0.0000000  0.6508444  3
   1347   1351   1354   1356     1  0.0000000  0.6508444  3
   1348   1347   1351   1352     1  0.0000000  1.2552000  3
   1348   1347   1351   1353     1  0.0000000  1.2552000  3
   1349   1348   1347   1351     1  0.0000000  1.2552000  3
   1349   1348   1357   1361     1  0.0000000  0.6508444  3
   1349   1348   1357   1358     1  0.0000000  0.6508444  3
   1349   1348   1357   1359     1  0.0000000  0.6508444  3
   1350   1348   1347   1351     1  0.0000000  1.2552000  3
   1350   1348   1357   1361     1  0.0000000  0.6508444  3
   1350   1348   1357   1358     1  0.0000000  0.6508444  3
   1350   1348   1357   1359     1  0.0000000  0.6508444  3
   1352   1351   1354   1360     1  0.0000000  0.6508444  3
   1352   1351   1354   1355     1  0.0000000  0.6508444  3
   1352   1351   1354   1356     1  0.0000000  0.6508444  3
   1353   1351   1354   1360     1  0.0000000  0.6508444  3
   1353   1351   1354   1355     1  0.0000000  0.6508444  3
   1353   1351   1354   1356     1  0.0000000  0.6508444  3
   1354   1360   2764   2765     1  180.0000771  10.4600000  2
   1355   1354   1360   1362     1  0.0000000  3.3472000  1
   1355   1354   1360   1362     1  0.0000000  0.0000000  2
   1355   1354   1360   1362     1  180.0000771  0.3347200  3
   1355   1354   1360   2764     1  180.0000771  0.0000000  2
   1356   1354   1360   1362     1  0.0000000  3.3472000  1
   1356   1354   1360   1362     1  0.0000000  0.0000000  2
   1356   1354   1360   1362     1  180.0000771  0.3347200  3
   1356   1354   1360   2764     1  180.0000771  0.0000000  2
   1357   1361   2789   2790     1  180.0000771  10.4600000  2
   1358   1357   1361   1363     1  0.0000000  3.3472000  1
   1358   1357   1361   1363     1  0.0000000  0.0000000  2
   1358   1357   1361   1363     1  180.0000771  0.3347200  3
   1358   1357   1361   2789     1  180.0000771  0.0000000  2
   1359   1357   1361   1363     1  0.0000000  3.3472000  1
   1359   1357   1361   1363     1  0.0000000  0.0000000  2
   1359   1357   1361   1363     1  180.0000771  0.3347200  3
   1359   1357   1361   2789     1  180.0000771  0.0000000  2
   1360   2764   2744   2745     1  0.0000000  0.0000000  2
   1360   2764   2744   2746     1  0.0000000  0.0000000  2
   1361   2789   2769   2770     1  0.0000000  0.0000000  2
   1361   2789   2769   2771     1  0.0000000  0.0000000  2
   1362   1360   2764   2765     1  0.0000000  8.3680000  1
   1362   1360   2764   2765     1  180.0000771  10.4600000  2
   1363   1361   2789   2790     1  0.0000000  8.3680000  1
   1363   1361   2789   2790     1  180.0000771  10.4600000  2
   1366   1369   1389   1390     1  0.0000000  0.0000000  2
   1366   1372   1373   1374     1  0.0000000  1.2552000  3
   1366   1372   1373   1375     1  0.0000000  1.2552000  3
   1366   1372   1376   1377     1  0.0000000  1.2552000  3
   1366   1372   1376   1378     1  0.0000000  1.2552000  3
   1367   1366   1369   1389     1  0.0000000  0.6508444  3
   1367   1366   1369   1370     1  0.0000000  0.6508444  3
   1367   1366   1369   1371     1  0.0000000  0.6508444  3
   1367   1366   1372   1373     1  0.0000000  1.2552000  3
   1367   1366   1372   1376     1  0.0000000  1.2552000  3
   1368   1366   1369   1389     1  0.0000000  0.6508444  3
   1368   1366   1369   1370     1  0.0000000  0.6508444  3
   1368   1366   1369   1371     1  0.0000000  0.6508444  3
   1368   1366   1372   1373     1  0.0000000  1.2552000  3
   1368   1366   1372   1376     1  0.0000000  1.2552000  3
   1370   1369   1366   1372     1  0.0000000  0.6508444  3
   1370   1369   1389   1390     1  0.0000000  0.0000000  2
   1371   1369   1366   1372     1  0.0000000  0.6508444  3
   1371   1369   1389   1390     1  0.0000000  0.0000000  2
   1372   1373   1382   1383     1  0.0000000  0.6508444  3
   1372   1373   1382   1384     1  0.0000000  0.6508444  3
   1372   1376   1379   1380     1  0.0000000  0.6508444  3
   1372   1376   1379   1381     1  0.0000000  0.6508444  3
   1373   1372   1376   1377     1  0.0000000  1.2552000  3
   1373   1372   1376   1378     1  0.0000000  1.2552000  3
   1374   1373   1372   1376     1  0.0000000  1.2552000  3
   1374   1373   1382   1386     1  0.0000000  0.6508444  3
   1374   1373   1382   1383     1  0.0000000  0.6508444  3
   1374   1373   1382   1384     1  0.0000000  0.6508444  3
   1375   1373   1372   1376     1  0.0000000  1.2552000  3
   1375   1373   1382   1386     1  0.0000000  0.6508444  3
   1375   1373   1382   1383     1  0.0000000  0.6508444  3
   1375   1373   1382   1384     1  0.0000000  0.6508444  3
   1377   1376   1379   1385     1  0.0000000  0.6508444  3
   1377   1376   1379   1380     1  0.0000000  0.6508444  3
   1377   1376   1379   1381     1  0.0000000  0.6508444  3
   1378   1376   1379   1385     1  0.0000000  0.6508444  3
   1378   1376   1379   1380     1  0.0000000  0.6508444  3
   1378   1376   1379   1381     1  0.0000000  0.6508444  3
   1379   1385   2814   2815     1  180.0000771  10.4600000  2
   1380   1379   1385   1387     1  0.0000000  3.3472000  1
   1380   1379   1385   1387     1  0.0000000  0.0000000  2
   1380   1379   1385   1387     1  180.0000771  0.3347200  3
   1380   1379   1385   2814     1  180.0000771  0.0000000  2
   1381   1379   1385   1387     1  0.0000000  3.3472000  1
   1381   1379   1385   1387     1  0.0000000  0.0000000  2
   1381   1379   1385   1387     1  180.0000771  0.3347200  3
   1381   1379   1385   2814     1  180.0000771  0.0000000  2
   1382   1386   2839   2840     1  180.0000771  10.4600000  2
   1383   1382   1386   1388     1  0.0000000  3.3472000  1
   1383   1382   1386   1388     1  0.0000000  0.0000000  2
   1383   1382   1386   1388     1  180.0000771  0.3347200  3
   1383   1382   1386   2839     1  180.0000771  0.0000000  2
   1384   1382   1386   1388     1  0.0000000  3.3472000  1
   1384   1382   1386   1388     1  0.0000000  0.0000000  2
   1384   1382   1386   1388     1  180.0000771  0.3347200  3
   1384   1382   1386   2839     1  180.0000771  0.0000000  2
   1385   2814   2794   2795     1  0.0000000  0.0000000  2
   1385   2814   2794   2796     1  0.0000000  0.0000000  2
   1386   2839   2819   2820     1  0.0000000  0.0000000  2
   1386   2839   2819   2821     1  0.0000000  0.0000000  2
   1387   1385   2814   2815     1  0.0000000  8.3680000  1
   1387   1385   2814   2815     1  180.0000771  10.4600000  2
   1388   1386   2839   2840     1  0.0000000  8.3680000  1
   1388   1386   2839   2840     1  180.0000771  10.4600000  2
   1391   1394   1414   1415     1  0.0000000  0.0000000  2
   1391   1397   1398   1399     1  0.0000000  1.2552000  3
   1391   1397   1398   1400     1  0.0000000  1.2552000  3
   1391   1397   1401   1402     1  0.0000000  1.2552000  3
   1391   1397   1401   1403     1  0.0000000  1.2552000  3
   1392   1391   1394   1414     1  0.0000000  0.6508444  3
   1392   1391   1394   1395     1  0.0000000  0.6508444  3
   1392   1391   1394   1396     1  0.0000000  0.6508444  3
   1392   1391   1397   1398     1  0.0000000  1.2552000  3
   1392   1391   1397   1401     1  0.0000000  1.2552000  3
   1393   1391   1394   1414     1  0.0000000  0.6508444  3
   1393   1391   1394   1395     1  0.0000000  0.6508444  3
   1393   1391   1394   1396     1  0.0000000  0.6508444  3
   1393   1391   1397   1398     1  0.0000000  1.2552000  3
   1393   1391   1397   1401     1  0.0000000  1.2552000  3
   1395   1394   1391   1397     1  0.0000000  0.6508444  3
   1395   1394   1414   1415     1  0.0000000  0.0000000  2
   1396   1394   1391   1397     1  0.0000000  0.6508444  3
   1396   1394   1414   1415     1  0.0000000  0.0000000  2
   1397   1398   1407   1408     1  0.0000000  0.6508444  3
   1397   1398   1407   1409     1  0.0000000  0.6508444  3
   1397   1401   1404   1405     1  0.0000000  0.6508444  3
   1397   1401   1404   1406     1  0.0000000  0.6508444  3
   1398   1397   1401   1402     1  0.0000000  1.2552000  3
   1398   1397   1401   1403     1  0.0000000  1.2552000  3
   1399   1398   1397   1401     1  0.0000000  1.2552000  3
   1399   1398   1407   1411     1  0.0000000  0.6508444  3
   1399   1398   1407   1408     1  0.0000000  0.6508444  3
   1399   1398   1407   1409     1  0.0000000  0.6508444  3
   1400   1398   1397   1401     1  0.0000000  1.2552000  3
   1400   1398   1407   1411     1  0.0000000  0.6508444  3
   1400   1398   1407   1408     1  0.0000000  0.6508444  3
   1400   1398   1407   1409     1  0.0000000  0.6508444  3
   1402   1401   1404   1410     1  0.0000000  0.6508444  3
   1402   1401   1404   1405     1  0.0000000  0.6508444  3
   1402   1401   1404   1406     1  0.0000000  0.6508444  3
   1403   1401   1404   1410     1  0.0000000  0.6508444  3
   1403   1401   1404   1405     1  0.0000000  0.6508444  3
   1403   1401   1404   1406     1  0.0000000  0.6508444  3
   1404   1410   2864   2865     1  180.0000771  10.4600000  2
   1405   1404   1410   1412     1  0.0000000  3.3472000  1
   1405   1404   1410   1412     1  0.0000000  0.0000000  2
   1405   1404   1410   1412     1  180.0000771  0.3347200  3
   1405   1404   1410   2864     1  180.0000771  0.0000000  2
   1406   1404   1410   1412     1  0.0000000  3.3472000  1
   1406   1404   1410   1412     1  0.0000000  0.0000000  2
   1406   1404   1410   1412     1  180.0000771  0.3347200  3
   1406   1404   1410   2864     1  180.0000771  0.0000000  2
   1407   1411   2889   2890     1  180.0000771  10.4600000  2
   1408   1407   1411   1413     1  0.0000000  3.3472000  1
   1408   1407   1411   1413     1  0.0000000  0.0000000  2
   1408   1407   1411   1413     1  180.0000771  0.3347200  3
   1408   1407   1411   2889     1  180.0000771  0.0000000  2
   1409   1407   1411   1413     1  0.0000000  3.3472000  1
   1409   1407   1411   1413     1  0.0000000  0.0000000  2
   1409   1407   1411   1413     1  180.0000771  0.3347200  3
   1409   1407   1411   2889     1  180.0000771  0.0000000  2
   1410   2864   2844   2845     1  0.0000000  0.0000000  2
   1410   2864   2844   2846     1  0.0000000  0.0000000  2
   1411   2889   2869   2870     1  0.0000000  0.0000000  2
   1411   2889   2869   2871     1  0.0000000  0.0000000  2
   1412   1410   2864   2865     1  0.0000000  8.3680000  1
   1412   1410   2864   2865     1  180.0000771  10.4600000  2
   1413   1411   2889   2890     1  0.0000000  8.3680000  1
   1413   1411   2889   2890     1  180.0000771  10.4600000  2
   1416   1419   1439   1440     1  0.0000000  0.0000000  2
   1416   1422   1423   1424     1  0.0000000  1.2552000  3
   1416   1422   1423   1425     1  0.0000000  1.2552000  3
   1416   1422   1426   1427     1  0.0000000  1.2552000  3
   1416   1422   1426   1428     1  0.0000000  1.2552000  3
   1417   1416   1419   1439     1  0.0000000  0.6508444  3
   1417   1416   1419   1420     1  0.0000000  0.6508444  3
   1417   1416   1419   1421     1  0.0000000  0.6508444  3
   1417   1416   1422   1423     1  0.0000000  1.2552000  3
   1417   1416   1422   1426     1  0.0000000  1.2552000  3
   1418   1416   1419   1439     1  0.0000000  0.6508444  3
   1418   1416   1419   1420     1  0.0000000  0.6508444  3
   1418   1416   1419   1421     1  0.0000000  0.6508444  3
   1418   1416   1422   1423     1  0.0000000  1.2552000  3
   1418   1416   1422   1426     1  0.0000000  1.2552000  3
   1420   1419   1416   1422     1  0.0000000  0.6508444  3
   1420   1419   1439   1440     1  0.0000000  0.0000000  2
   1421   1419   1416   1422     1  0.0000000  0.6508444  3
   1421   1419   1439   1440     1  0.0000000  0.0000000  2
   1422   1423   1432   1433     1  0.0000000  0.6508444  3
   1422   1423   1432   1434     1  0.0000000  0.6508444  3
   1422   1426   1429   1430     1  0.0000000  0.6508444  3
   1422   1426   1429   1431     1  0.0000000  0.6508444  3
   1423   1422   1426   1427     1  0.0000000  1.2552000  3
   1423   1422   1426   1428     1  0.0000000  1.2552000  3
   1424   1423   1422   1426     1  0.0000000  1.2552000  3
   1424   1423   1432   1436     1  0.0000000  0.6508444  3
   1424   1423   1432   1433     1  0.0000000  0.6508444  3
   1424   1423   1432   1434     1  0.0000000  0.6508444  3
   1425   1423   1422   1426     1  0.0000000  1.2552000  3
   1425   1423   1432   1436     1  0.0000000  0.6508444  3
   1425   1423   1432   1433     1  0.0000000  0.6508444  3
   1425   1423   1432   1434     1  0.0000000  0.6508444  3
   1427   1426   1429   1435     1  0.0000000  0.6508444  3
   1427   1426   1429   1430     1  0.0000000  0.6508444  3
   1427   1426   1429   1431     1  0.0000000  0.6508444  3
   1428   1426   1429   1435     1  0.0000000  0.6508444  3
   1428   1426   1429   1430     1  0.0000000  0.6508444  3
   1428   1426   1429   1431     1  0.0000000  0.6508444  3
   1429   1435   2914   2915     1  180.0000771  10.4600000  2
   1430   1429   1435   1437     1  0.0000000  3.3472000  1
   1430   1429   1435   1437     1  0.0000000  0.0000000  2
   1430   1429   1435   1437     1  180.0000771  0.3347200  3
   1430   1429   1435   2914     1  180.0000771  0.0000000  2
   1431   1429   1435   1437     1  0.0000000  3.3472000  1
   1431   1429   1435   1437     1  0.0000000  0.0000000  2
   1431   1429   1435   1437     1  180.0000771  0.3347200  3
   1431   1429   1435   2914     1  180.0000771  0.0000000  2
   1432   1436   2939   2940     1  180.0000771  10.4600000  2
   1433   1432   1436   1438     1  0.0000000  3.3472000  1
   1433   1432   1436   1438     1  0.0000000  0.0000000  2
   1433   1432   1436   1438     1  180.0000771  0.3347200  3
   1433   1432   1436   2939     1  180.0000771  0.0000000  2
   1434   1432   1436   1438     1  0.0000000  3.3472000  1
   1434   1432   1436   1438     1  0.0000000  0.0000000  2
   1434   1432   1436   1438     1  180.0000771  0.3347200  3
   1434   1432   1436   2939     1  180.0000771  0.0000000  2
   1435   2914   2894   2895     1  0.0000000  0.0000000  2
   1435   2914   2894   2896     1  0.0000000  0.0000000  2
   1436   2939   2919   2920     1  0.0000000  0.0000000  2
   1436   2939   2919   2921     1  0.0000000  0.0000000  2
   1437   1435   2914   2915     1  0.0000000  8.3680000  1
   1437   1435   2914   2915     1  180.0000771  10.4600000  2
   1438   1436   2939   2940     1  0.0000000  8.3680000  1
   1438   1436   2939   2940     1  180.0000771  10.4600000  2
   1441   1444   1464   1465     1  0.0000000  0.0000000  2
   1441   1447   1448   1449     1  0.0000000  1.2552000  3
   1441   1447   1448   1450     1  0.0000000  1.2552000  3
   1441   1447   1451   1452     1  0.0000000  1.2552000  3
   1441   1447   1451   1453     1  0.0000000  1.2552000  3
   1442   1441   1444   1464     1  0.0000000  0.6508444  3
   1442   1441   1444   1445     1  0.0000000  0.6508444  3
   1442   1441   1444   1446     1  0.0000000  0.6508444  3
   1442   1441   1447   1448     1  0.0000000  1.2552000  3
   1442   1441   1447   1451     1  0.0000000  1.2552000  3
   1443   1441   1444   1464     1  0.0000000  0.6508444  3
   1443   1441   1444   1445     1  0.0000000  0.6508444  3
   1443   1441   1444   1446     1  0.0000000  0.6508444  3
   1443   1441   1447   1448     1  0.0000000  1.2552000  3
   1443   1441   1447   1451     1  0.0000000  1.2552000  3
   1445   1444   1441   1447     1  0.0000000  0.6508444  3
   1445   1444   1464   1465     1  0.0000000  0.0000000  2
   1446   1444   1441   1447     1  0.0000000  0.6508444  3
   1446   1444   1464   1465     1  0.0000000  0.0000000  2
   1447   1448   1457   1458     1  0.0000000  0.6508444  3
   1447   1448   1457   1459     1  0.0000000  0.6508444  3
   1447   1451   1454   1455     1  0.0000000  0.6508444  3
   1447   1451   1454   1456     1  0.0000000  0.6508444  3
   1448   1447   1451   1452     1  0.0000000  1.2552000  3
   1448   1447   1451   1453     1  0.0000000  1.2552000  3
   1449   1448   1447   1451     1  0.0000000  1.2552000  3
   1449   1448   1457   1461     1  0.0000000  0.6508444  3
   1449   1448   1457   1458     1  0.0000000  0.6508444  3
   1449   1448   1457   1459     1  0.0000000  0.6508444  3
   1450   1448   1447   1451     1  0.0000000  1.2552000  3
   1450   1448   1457   1461     1  0.0000000  0.6508444  3
   1450   1448   1457   1458     1  0.0000000  0.6508444  3
   1450   1448   1457   1459     1  0.0000000  0.6508444  3
   1452   1451   1454   1460     1  0.0000000  0.6508444  3
   1452   1451   1454   1455     1  0.0000000  0.6508444  3
   1452   1451   1454   1456     1  0.0000000  0.6508444  3
   1453   1451   1454   1460     1  0.0000000  0.6508444  3
   1453   1451   1454   1455     1  0.0000000  0.6508444  3
   1453   1451   1454   1456     1  0.0000000  0.6508444  3
   1454   1460   2964   2965     1  180.0000771  10.4600000  2
   1455   1454   1460   1462     1  0.0000000  3.3472000  1
   1455   1454   1460   1462     1  0.0000000  0.0000000  2
   1455   1454   1460   1462     1  180.0000771  0.3347200  3
   1455   1454   1460   2964     1  180.0000771  0.0000000  2
   1456   1454   1460   1462     1  0.0000000  3.3472000  1
   1456   1454   1460   1462     1  0.0000000  0.0000000  2
   1456   1454   1460   1462     1  180.0000771  0.3347200  3
   1456   1454   1460   2964     1  180.0000771  0.0000000  2
   1457   1461   2989   2990     1  180.0000771  10.4600000  2
   1458   1457   1461   1463     1  0.0000000  3.3472000  1
   1458   1457   1461   1463     1  0.0000000  0.0000000  2
   1458   1457   1461   1463     1  180.0000771  0.3347200  3
   1458   1457   1461   2989     1  180.0000771  0.0000000  2
   1459   1457   1461   1463     1  0.0000000  3.3472000  1
   1459   1457   1461   1463     1  0.0000000  0.0000000  2
   1459   1457   1461   1463     1  180.0000771  0.3347200  3
   1459   1457   1461   2989     1  180.0000771  0.0000000  2
   1460   2964   2944   2945     1  0.0000000  0.0000000  2
   1460   2964   2944   2946     1  0.0000000  0.0000000  2
   1461   2989   2969   2970     1  0.0000000  0.0000000  2
   1461   2989   2969   2971     1  0.0000000  0.0000000  2
   1462   1460   2964   2965     1  0.0000000  8.3680000  1
   1462   1460   2964   2965     1  180.0000771  10.4600000  2
   1463   1461   2989   2990     1  0.0000000  8.3680000  1
   1463   1461   2989   2990     1  180.0000771  10.4600000  2
   1466   1469   1489   1490     1  0.0000000  0.0000000  2
   1466   1472   1473   1474     1  0.0000000  1.2552000  3
   1466   1472   1473   1475     1  0.0000000  1.2552000  3
   1466   1472   1476   1477     1  0.0000000  1.2552000  3
   1466   1472   1476   1478     1  0.0000000  1.2552000  3
   1467   1466   1469   1489     1  0.0000000  0.6508444  3
   1467   1466   1469   1470     1  0.0000000  0.6508444  3
   1467   1466   1469   1471     1  0.0000000  0.6508444  3
   1467   1466   1472   1473     1  0.0000000  1.2552000  3
   1467   1466   1472   1476     1  0.0000000  1.2552000  3
   1468   1466   1469   1489     1  0.0000000  0.6508444  3
   1468   1466   1469   1470     1  0.0000000  0.6508444  3
   1468   1466   1469   1471     1  0.0000000  0.6508444  3
   1468   1466   1472   1473     1  0.0000000  1.2552000  3
   1468   1466   1472   1476     1  0.0000000  1.2552000  3
   1470   1469   1466   1472     1  0.0000000  0.6508444  3
   1470   1469   1489   1490     1  0.0000000  0.0000000  2
   1471   1469   1466   1472     1  0.0000000  0.6508444  3
   1471   1469   1489   1490     1  0.0000000  0.0000000  2
   1472   1473   1482   1483     1  0.0000000  0.6508444  3
   1472   1473   1482   1484     1  0.0000000  0.6508444  3
   1472   1476   1479   1480     1  0.0000000  0.6508444  3
   1472   1476   1479   1481     1  0.0000000  0.6508444  3
   1473   1472   1476   1477     1  0.0000000  1.2552000  3
   1473   1472   1476   1478     1  0.0000000  1.2552000  3
   1474   1473   1472   1476     1  0.0000000  1.2552000  3
   1474   1473   1482   1486     1  0.0000000  0.6508444  3
   1474   1473   1482   1483     1  0.0000000  0.6508444  3
   1474   1473   1482   1484     1  0.0000000  0.6508444  3
   1475   1473   1472   1476     1  0.0000000  1.2552000  3
   1475   1473   1482   1486     1  0.0000000  0.6508444  3
   1475   1473   1482   1483     1  0.0000000  0.6508444  3
   1475   1473   1482   1484     1  0.0000000  0.6508444  3
   1477   1476   1479   1485     1  0.0000000  0.6508444  3
   1477   1476   1479   1480     1  0.0000000  0.6508444  3
   1477   1476   1479   1481     1  0.0000000  0.6508444  3
   1478   1476   1479   1485     1  0.0000000  0.6508444  3
   1478   1476   1479   1480     1  0.0000000  0.6508444  3
   1478   1476   1479   1481     1  0.0000000  0.6508444  3
   1479   1485   3014   3015     1  180.0000771  10.4600000  2
   1480   1479   1485   1487     1  0.0000000  3.3472000  1
   1480   1479   1485   1487     1  0.0000000  0.0000000  2
   1480   1479   1485   1487     1  180.0000771  0.3347200  3
   1480   1479   1485   3014     1  180.0000771  0.0000000  2
   1481   1479   1485   1487     1  0.0000000  3.3472000  1
   1481   1479   1485   1487     1  0.0000000  0.0000000  2
   1481   1479   1485   1487     1  180.0000771  0.3347200  3
   1481   1479   1485   3014     1  180.0000771  0.0000000  2
   1482   1486   3039   3040     1  180.0000771  10.4600000  2
   1483   1482   1486   1488     1  0.0000000  3.3472000  1
   1483   1482   1486   1488     1  0.0000000  0.0000000  2
   1483   1482   1486   1488     1  180.0000771  0.3347200  3
   1483   1482   1486   3039     1  180.0000771  0.0000000  2
   1484   1482   1486   1488     1  0.0000000  3.3472000  1
   1484   1482   1486   1488     1  0.0000000  0.0000000  2
   1484   1482   1486   1488     1  180.0000771  0.3347200  3
   1484   1482   1486   3039     1  180.0000771  0.0000000  2
   1485   3014   2994   2995     1  0.0000000  0.0000000  2
   1485   3014   2994   2996     1  0.0000000  0.0000000  2
   1486   3039   3019   3020     1  0.0000000  0.0000000  2
   1486   3039   3019   3021     1  0.0000000  0.0000000  2
   1487   1485   3014   3015     1  0.0000000  8.3680000  1
   1487   1485   3014   3015     1  180.0000771  10.4600000  2
   1488   1486   3039   3040     1  0.0000000  8.3680000  1
   1488   1486   3039   3040     1  180.0000771  10.4600000  2
   1491   1494   1514   1515     1  0.0000000  0.0000000  2
   1491   1497   1498   1499     1  0.0000000  1.2552000  3
   1491   1497   1498   1500     1  0.0000000  1.2552000  3
   1491   1497   1501   1502     1  0.0000000  1.2552000  3
   1491   1497   1501   1503     1  0.0000000  1.2552000  3
   1492   1491   1494   1514     1  0.0000000  0.6508444  3
   1492   1491   1494   1495     1  0.0000000  0.6508444  3
   1492   1491   1494   1496     1  0.0000000  0.6508444  3
   1492   1491   1497   1498     1  0.0000000  1.2552000  3
   1492   1491   1497   1501     1  0.0000000  1.2552000  3
   1493   1491   1494   1514     1  0.0000000  0.6508444  3
   1493   1491   1494   1495     1  0.0000000  0.6508444  3
   1493   1491   1494   1496     1  0.0000000  0.6508444  3
   1493   1491   1497   1498     1  0.0000000  1.2552000  3
   1493   1491   1497   1501     1  0.0000000  1.2552000  3
   1495   1494   1491   1497     1  0.0000000  0.6508444  3
   1495   1494   1514   1515     1  0.0000000  0.0000000  2
   1496   1494   1491   1497     1  0.0000000  0.6508444  3
   1496   1494   1514   1515     1  0.0000000  0.0000000  2
   1497   1498   1507   1508     1  0.0000000  0.6508444  3
   1497   1498   1507   1509     1  0.0000000  0.6508444  3
   1497   1501   1504   1505     1  0.0000000  0.6508444  3
   1497   1501   1504   1506     1  0.0000000  0.6508444  3
   1498   1497   1501   1502     1  0.0000000  1.2552000  3
   1498   1497   1501   1503     1  0.0000000  1.2552000  3
   1499   1498   1497   1501     1  0.0000000  1.2552000  3
   1499   1498   1507   1511     1  0.0000000  0.6508444  3
   1499   1498   1507   1508     1  0.0000000  0.6508444  3
   1499   1498   1507   1509     1  0.0000000  0.6508444  3
   1500   1498   1497   1501     1  0.0000000  1.2552000  3
   1500   1498   1507   1511     1  0.0000000  0.6508444  3
   1500   1498   1507   1508     1  0.0000000  0.6508444  3
   1500   1498   1507   1509     1  0.0000000  0.6508444  3
   1502   1501   1504   1510     1  0.0000000  0.6508444  3
   1502   1501   1504   1505     1  0.0000000  0.6508444  3
   1502   1501   1504   1506     1  0.0000000  0.6508444  3
   1503   1501   1504   1510     1  0.0000000  0.6508444  3
   1503   1501   1504   1505     1  0.0000000  0.6508444  3
   1503   1501   1504   1506     1  0.0000000  0.6508444  3
   1504   1510   3064   3065     1  180.0000771  10.4600000  2
   1505   1504   1510   1512     1  0.0000000  3.3472000  1
   1505   1504   1510   1512     1  0.0000000  0.0000000  2
   1505   1504   1510   1512     1  180.0000771  0.3347200  3
   1505   1504   1510   3064     1  180.0000771  0.0000000  2
   1506   1504   1510   1512     1  0.0000000  3.3472000  1
   1506   1504   1510   1512     1  0.0000000  0.0000000  2
   1506   1504   1510   1512     1  180.0000771  0.3347200  3
   1506   1504   1510   3064     1  180.0000771  0.0000000  2
   1507   1511   3089   3090     1  180.0000771  10.4600000  2
   1508   1507   1511   1513     1  0.0000000  3.3472000  1
   1508   1507   1511   1513     1  0.0000000  0.0000000  2
   1508   1507   1511   1513     1  180.0000771  0.3347200  3
   1508   1507   1511   3089     1  180.0000771  0.0000000  2
   1509   1507   1511   1513     1  0.0000000  3.3472000  1
   1509   1507   1511   1513     1  0.0000000  0.0000000  2
   1509   1507   1511   1513     1  180.0000771  0.3347200  3
   1509   1507   1511   3089     1  180.0000771  0.0000000  2
   1510   3064   3044   3045     1  0.0000000  0.0000000  2
   1510   3064   3044   3046     1  0.0000000  0.0000000  2
   1511   3089   3069   3070     1  0.0000000  0.0000000  2
   1511   3089   3069   3071     1  0.0000000  0.0000000  2
   1512   1510   3064   3065     1  0.0000000  8.3680000  1
   1512   1510   3064   3065     1  180.0000771  10.4600000  2
   1513   1511   3089   3090     1  0.0000000  8.3680000  1
   1513   1511   3089   3090     1  180.0000771  10.4600000  2
   1516   1519   1539   1540     1  0.0000000  0.0000000  2
   1516   1522   1523   1524     1  0.0000000  1.2552000  3
   1516   1522   1523   1525     1  0.0000000  1.2552000  3
   1516   1522   1526   1527     1  0.0000000  1.2552000  3
   1516   1522   1526   1528     1  0.0000000  1.2552000  3
   1517   1516   1519   1539     1  0.0000000  0.6508444  3
   1517   1516   1519   1520     1  0.0000000  0.6508444  3
   1517   1516   1519   1521     1  0.0000000  0.6508444  3
   1517   1516   1522   1523     1  0.0000000  1.2552000  3
   1517   1516   1522   1526     1  0.0000000  1.2552000  3
   1518   1516   1519   1539     1  0.0000000  0.6508444  3
   1518   1516   1519   1520     1  0.0000000  0.6508444  3
   1518   1516   1519   1521     1  0.0000000  0.6508444  3
   1518   1516   1522   1523     1  0.0000000  1.2552000  3
   1518   1516   1522   1526     1  0.0000000  1.2552000  3
   1520   1519   1516   1522     1  0.0000000  0.6508444  3
   1520   1519   1539   1540     1  0.0000000  0.0000000  2
   1521   1519   1516   1522     1  0.0000000  0.6508444  3
   1521   1519   1539   1540     1  0.0000000  0.0000000  2
   1522   1523   1532   1533     1  0.0000000  0.6508444  3
   1522   1523   1532   1534     1  0.0000000  0.6508444  3
   1522   1526   1529   1530     1  0.0000000  0.6508444  3
   1522   1526   1529   1531     1  0.0000000  0.6508444  3
   1523   1522   1526   1527     1  0.0000000  1.2552000  3
   1523   1522   1526   1528     1  0.0000000  1.2552000  3
   1524   1523   1522   1526     1  0.0000000  1.2552000  3
   1524   1523   1532   1536     1  0.0000000  0.6508444  3
   1524   1523   1532   1533     1  0.0000000  0.6508444  3
   1524   1523   1532   1534     1  0.0000000  0.6508444  3
   1525   1523   1522   1526     1  0.0000000  1.2552000  3
   1525   1523   1532   1536     1  0.0000000  0.6508444  3
   1525   1523   1532   1533     1  0.0000000  0.6508444  3
   1525   1523   1532   1534     1  0.0000000  0.6508444  3
   1527   1526   1529   1535     1  0.0000000  0.6508444  3
   1527   1526   1529   1530     1  0.0000000  0.6508444  3
   1527   1526   1529   1531     1  0.0000000  0.6508444  3
   1528   1526   1529   1535     1  0.0000000  0.6508444  3
   1528   1526   1529   1530     1  0.0000000  0.6508444  3
   1528   1526   1529   1531     1  0.0000000  0.6508444  3
   1529   1535   3114   3115     1  180.0000771  10.4600000  2
   1530   1529   1535   1537     1  0.0000000  3.3472000  1
   1530   1529   1535   1537     1  0.0000000  0.0000000  2
   1530   1529   1535   1537     1  180.0000771  0.3347200  3
   1530   1529   1535   3114     1  180.0000771  0.0000000  2
   1531   1529   1535   1537     1  0.0000000  3.3472000  1
   1531   1529   1535   1537     1  0.0000000  0.0000000  2
   1531   1529   1535   1537     1  180.0000771  0.3347200  3
   1531   1529   1535   3114     1  180.0000771  0.0000000  2
   1532   1536   3139   3140     1  180.0000771  10.4600000  2
   1533   1532   1536   1538     1  0.0000000  3.3472000  1
   1533   1532   1536   1538     1  0.0000000  0.0000000  2
   1533   1532   1536   1538     1  180.0000771  0.3347200  3
   1533   1532   1536   3139     1  180.0000771  0.0000000  2
   1534   1532   1536   1538     1  0.0000000  3.3472000  1
   1534   1532   1536   1538     1  0.0000000  0.0000000  2
   1534   1532   1536   1538     1  180.0000771  0.3347200  3
   1534   1532   1536   3139     1  180.0000771  0.0000000  2
   1535   3114   3094   3095     1  0.0000000  0.0000000  2
   1535   3114   3094   3096     1  0.0000000  0.0000000  2
   1536   3139   3119   3120     1  0.0000000  0.0000000  2
   1536   3139   3119   3121     1  0.0000000  0.0000000  2
   1537   1535   3114   3115     1  0.0000000  8.3680000  1
   1537   1535   3114   3115     1  180.0000771  10.4600000  2
   1538   1536   3139   3140     1  0.0000000  8.3680000  1
   1538   1536   3139   3140     1  180.0000771  10.4600000  2
   1541   1544   1564   1565     1  0.0000000  0.0000000  2
   1541   1547   1548   1549     1  0.0000000  1.2552000  3
   1541   1547   1548   1550     1  0.0000000  1.2552000  3
   1541   1547   1551   1552     1  0.0000000  1.2552000  3
   1541   1547   1551   1553     1  0.0000000  1.2552000  3
   1542   1541   1544   1564     1  0.0000000  0.6508444  3
   1542   1541   1544   1545     1  0.0000000  0.6508444  3
   1542   1541   1544   1546     1  0.0000000  0.6508444  3
   1542   1541   1547   1548     1  0.0000000  1.2552000  3
   1542   1541   1547   1551     1  0.0000000  1.2552000  3
   1543   1541   1544   1564     1  0.0000000  0.6508444  3
   1543   1541   1544   1545     1  0.0000000  0.6508444  3
   1543   1541   1544   1546     1  0.0000000  0.6508444  3
   1543   1541   1547   1548     1  0.0000000  1.2552000  3
   1543   1541   1547   1551     1  0.0000000  1.2552000  3
   1545   1544   1541   1547     1  0.0000000  0.6508444  3
   1545   1544   1564   1565     1  0.0000000  0.0000000  2
   1546   1544   1541   1547     1  0.0000000  0.6508444  3
   1546   1544   1564   1565     1  0.0000000  0.0000000  2
   1547   1548   1557   1558     1  0.0000000  0.6508444  3
   1547   1548   1557   1559     1  0.0000000  0.6508444  3
   1547   1551   1554   1555     1  0.0000000  0.6508444  3
   1547   1551   1554   1556     1  0.0000000  0.6508444  3
   1548   1547   1551   1552     1  0.0000000  1.2552000  3
   1548   1547   1551   1553     1  0.0000000  1.2552000  3
   1549   1548   1547   1551     1  0.0000000  1.2552000  3
   1549   1548   1557   1561     1  0.0000000  0.6508444  3
   1549   1548   1557   1558     1  0.0000000  0.6508444  3
   1549   1548   1557   1559     1  0.0000000  0.6508444  3
   1550   1548   1547   1551     1  0.0000000  1.2552000  3
   1550   1548   1557   1561     1  0.0000000  0.6508444  3
   1550   1548   1557   1558     1  0.0000000  0.6508444  3
   1550   1548   1557   1559     1  0.0000000  0.6508444  3
   1552   1551   1554   1560     1  0.0000000  0.6508444  3
   1552   1551   1554   1555     1  0.0000000  0.6508444  3
   1552   1551   1554   1556     1  0.0000000  0.6508444  3
   1553   1551   1554   1560     1  0.0000000  0.6508444  3
   1553   1551   1554   1555     1  0.0000000  0.6508444  3
   1553   1551   1554   1556     1  0.0000000  0.6508444  3
   1554   1560   3141   3142     1  180.0000771  10.4600000  2
   1555   1554   1560   3141     1  180.0000771  0.0000000  2
   1555   1554   1560   1562     1  0.0000000  3.3472000  1
   1555   1554   1560   1562     1  0.0000000  0.0000000  2
   1555   1554   1560   1562     1  180.0000771  0.3347200  3
   1556   1554   1560   3141     1  180.0000771  0.0000000  2
   1556   1554   1560   1562     1  0.0000000  3.3472000  1
   1556   1554   1560   1562     1  0.0000000  0.0000000  2
   1556   1554   1560   1562     1  180.0000771  0.3347200  3
   1557   1561   3170   3171     1  180.0000771  10.4600000  2
   1558   1557   1561   1563     1  0.0000000  3.3472000  1
   1558   1557   1561   1563     1  0.0000000  0.0000000  2
   1558   1557   1561   1563     1  180.0000771  0.3347200  3
   1558   1557   1561   3170     1  180.0000771  0.0000000  2
   1559   1557   1561   1563     1  0.0000000  3.3472000  1
   1559   1557   1561   1563     1  0.0000000  0.0000000  2
   1559   1557   1561   1563     1  180.0000771  0.3347200  3
   1559   1557   1561   3170     1  180.0000771  0.0000000  2
   1560   3141   3143   3144     1  0.0000000  0.0000000  2
   1560   3141   3143   3146     1  0.0000000  0.0000000  2
   1561   3170   3172   3173     1  0.0000000  0.0000000  2
   1561   3170   3172   3175     1  0.0000000  0.0000000  2
   1562   1560   3141   3142     1  0.0000000  8.3680000  1
   1562   1560   3141   3142     1  180.0000771  10.4600000  2
   1563   1561   3170   3171     1  0.0000000  8.3680000  1
   1563   1561   3170   3171     1  180.0000771  10.4600000  2
   1566   1569   1589   1590     1  0.0000000  0.0000000  2
   1566   1572   1573   1574     1  0.0000000  1.2552000  3
   1566   1572   1573   1575     1  0.0000000  1.2552000  3
   1566   1572   1576   1577     1  0.0000000  1.2552000  3
   1566   1572   1576   1578     1  0.0000000  1.2552000  3
   1567   1566   1569   1589     1  0.0000000  0.6508444  3
   1567   1566   1569   1570     1  0.0000000  0.6508444  3
   1567   1566   1569   1571     1  0.0000000  0.6508444  3
   1567   1566   1572   1573     1  0.0000000  1.2552000  3
   1567   1566   1572   1576     1  0.0000000  1.2552000  3
   1568   1566   1569   1589     1  0.0000000  0.6508444  3
   1568   1566   1569   1570     1  0.0000000  0.6508444  3
   1568   1566   1569   1571     1  0.0000000  0.6508444  3
   1568   1566   1572   1573     1  0.0000000  1.2552000  3
   1568   1566   1572   1576     1  0.0000000  1.2552000  3
   1570   1569   1566   1572     1  0.0000000  0.6508444  3
   1570   1569   1589   1590     1  0.0000000  0.0000000  2
   1571   1569   1566   1572     1  0.0000000  0.6508444  3
   1571   1569   1589   1590     1  0.0000000  0.0000000  2
   1572   1573   1582   1583     1  0.0000000  0.6508444  3
   1572   1573   1582   1584     1  0.0000000  0.6508444  3
   1572   1576   1579   1580     1  0.0000000  0.6508444  3
   1572   1576   1579   1581     1  0.0000000  0.6508444  3
   1573   1572   1576   1577     1  0.0000000  1.2552000  3
   1573   1572   1576   1578     1  0.0000000  1.2552000  3
   1574   1573   1572   1576     1  0.0000000  1.2552000  3
   1574   1573   1582   1586     1  0.0000000  0.6508444  3
   1574   1573   1582   1583     1  0.0000000  0.6508444  3
   1574   1573   1582   1584     1  0.0000000  0.6508444  3
   1575   1573   1572   1576     1  0.0000000  1.2552000  3
   1575   1573   1582   1586     1  0.0000000  0.6508444  3
   1575   1573   1582   1583     1  0.0000000  0.6508444  3
   1575   1573   1582   1584     1  0.0000000  0.6508444  3
   1577   1576   1579   1585     1  0.0000000  0.6508444  3
   1577   1576   1579   1580     1  0.0000000  0.6508444  3
   1577   1576   1579   1581     1  0.0000000  0.6508444  3
   1578   1576   1579   1585     1  0.0000000  0.6508444  3
   1578   1576   1579   1580     1  0.0000000  0.6508444  3
   1578   1576   1579   1581     1  0.0000000  0.6508444  3
   1579   1585   3199   3200     1  180.0000771  10.4600000  2
   1580   1579   1585   3199     1  180.0000771  0.0000000  2
   1580   1579   1585   1587     1  0.0000000  3.3472000  1
   1580   1579   1585   1587     1  0.0000000  0.0000000  2
   1580   1579   1585   1587     1  180.0000771  0.3347200  3
   1581   1579   1585   3199     1  180.0000771  0.0000000  2
   1581   1579   1585   1587     1  0.0000000  3.3472000  1
   1581   1579   1585   1587     1  0.0000000  0.0000000  2
   1581   1579   1585   1587     1  180.0000771  0.3347200  3
   1582   1586   3228   3229     1  180.0000771  10.4600000  2
   1583   1582   1586   1588     1  0.0000000  3.3472000  1
   1583   1582   1586   1588     1  0.0000000  0.0000000  2
   1583   1582   1586   1588     1  180.0000771  0.3347200  3
   1583   1582   1586   3228     1  180.0000771  0.0000000  2
   1584   1582   1586   1588     1  0.0000000  3.3472000  1
   1584   1582   1586   1588     1  0.0000000  0.0000000  2
   1584   1582   1586   1588     1  180.0000771  0.3347200  3
   1584   1582   1586   3228     1  180.0000771  0.0000000  2
   1585   3199   3201   3202     1  0.0000000  0.0000000  2
   1585   3199   3201   3204     1  0.0000000  0.0000000  2
   1586   3228   3230   3231     1  0.0000000  0.0000000  2
   1586   3228   3230   3233     1  0.0000000  0.0000000  2
   1587   1585   3199   3200     1  0.0000000  8.3680000  1
   1587   1585   3199   3200     1  180.0000771  10.4600000  2
   1588   1586   3228   3229     1  0.0000000  8.3680000  1
   1588   1586   3228   3229     1  180.0000771  10.4600000  2
   1591   1594   1614   1615     1  0.0000000  0.0000000  2
   1591   1597   1598   1599     1  0.0000000  1.2552000  3
   1591   1597   1598   1600     1  0.0000000  1.2552000  3
   1591   1597   1601   1602     1  0.0000000  1.2552000  3
   1591   1597   1601   1603     1  0.0000000  1.2552000  3
   1592   1591   1594   1614     1  0.0000000  0.6508444  3
   1592   1591   1594   1595     1  0.0000000  0.6508444  3
   1592   1591   1594   1596     1  0.0000000  0.6508444  3
   1592   1591   1597   1598     1  0.0000000  1.2552000  3
   1592   1591   1597   1601     1  0.0000000  1.2552000  3
   1593   1591   1594   1614     1  0.0000000  0.6508444  3
   1593   1591   1594   1595     1  0.0000000  0.6508444  3
   1593   1591   1594   1596     1  0.0000000  0.6508444  3
   1593   1591   1597   1598     1  0.0000000  1.2552000  3
   1593   1591   1597   1601     1  0.0000000  1.2552000  3
   1595   1594   1591   1597     1  0.0000000  0.6508444  3
   1595   1594   1614   1615     1  0.0000000  0.0000000  2
   1596   1594   1591   1597     1  0.0000000  0.6508444  3
   1596   1594   1614   1615     1  0.0000000  0.0000000  2
   1597   1598   1607   1608     1  0.0000000  0.6508444  3
   1597   1598   1607   1609     1  0.0000000  0.6508444  3
   1597   1601   1604   1605     1  0.0000000  0.6508444  3
   1597   1601   1604   1606     1  0.0000000  0.6508444  3
   1598   1597   1601   1602     1  0.0000000  1.2552000  3
   1598   1597   1601   1603     1  0.0000000  1.2552000  3
   1599   1598   1597   1601     1  0.0000000  1.2552000  3
   1599   1598   1607   1611     1  0.0000000  0.6508444  3
   1599   1598   1607   1608     1  0.0000000  0.6508444  3
   1599   1598   1607   1609     1  0.0000000  0.6508444  3
   1600   1598   1597   1601     1  0.0000000  1.2552000  3
   1600   1598   1607   1611     1  0.0000000  0.6508444  3
   1600   1598   1607   1608     1  0.0000000  0.6508444  3
   1600   1598   1607   1609     1  0.0000000  0.6508444  3
   1602   1601   1604   1610     1  0.0000000  0.6508444  3
   1602   1601   1604   1605     1  0.0000000  0.6508444  3
   1602   1601   1604   1606     1  0.0000000  0.6508444  3
   1603   1601   1604   1610     1  0.0000000  0.6508444  3
   1603   1601   1604   1605     1  0.0000000  0.6508444  3
   1603   1601   1604   1606     1  0.0000000  0.6508444  3
   1604   1610   3257   3258     1  180.0000771  10.4600000  2
   1605   1604   1610   3257     1  180.0000771  0.0000000  2
   1605   1604   1610   1612     1  0.0000000  3.3472000  1
   1605   1604   1610   1612     1  0.0000000  0.0000000  2
   1605   1604   1610   1612     1  180.0000771  0.3347200  3
   1606   1604   1610   3257     1  180.0000771  0.0000000  2
   1606   1604   1610   1612     1  0.0000000  3.3472000  1
   1606   1604   1610   1612     1  0.0000000  0.0000000  2
   1606   1604   1610   1612     1  180.0000771  0.3347200  3
   1607   1611   3286   3287     1  180.0000771  10.4600000  2
   1608   1607   1611   1613     1  0.0000000  3.3472000  1
   1608   1607   1611   1613     1  0.0000000  0.0000000  2
   1608   1607   1611   1613     1  180.0000771  0.3347200  3
   1608   1607   1611   3286     1  180.0000771  0.0000000  2
   1609   1607   1611   1613     1  0.0000000  3.3472000  1
   1609   1607   1611   1613     1  0.0000000  0.0000000  2
   1609   1607   1611   1613     1  180.0000771  0.3347200  3
   1609   1607   1611   3286     1  180.0000771  0.0000000  2
   1610   3257   3259   3260     1  0.0000000  0.0000000  2
   1610   3257   3259   3262     1  0.0000000  0.0000000  2
   1611   3286   3288   3289     1  0.0000000  0.0000000  2
   1611   3286   3288   3291     1  0.0000000  0.0000000  2
   1612   1610   3257   3258     1  0.0000000  8.3680000  1
   1612   1610   3257   3258     1  180.0000771  10.4600000  2
   1613   1611   3286   3287     1  0.0000000  8.3680000  1
   1613   1611   3286   3287     1  180.0000771  10.4600000  2
   1616   1619   1639   1640     1  0.0000000  0.0000000  2
   1616   1622   1623   1624     1  0.0000000  1.2552000  3
   1616   1622   1623   1625     1  0.0000000  1.2552000  3
   1616   1622   1626   1627     1  0.0000000  1.2552000  3
   1616   1622   1626   1628     1  0.0000000  1.2552000  3
   1617   1616   1619   1639     1  0.0000000  0.6508444  3
   1617   1616   1619   1620     1  0.0000000  0.6508444  3
   1617   1616   1619   1621     1  0.0000000  0.6508444  3
   1617   1616   1622   1623     1  0.0000000  1.2552000  3
   1617   1616   1622   1626     1  0.0000000  1.2552000  3
   1618   1616   1619   1639     1  0.0000000  0.6508444  3
   1618   1616   1619   1620     1  0.0000000  0.6508444  3
   1618   1616   1619   1621     1  0.0000000  0.6508444  3
   1618   1616   1622   1623     1  0.0000000  1.2552000  3
   1618   1616   1622   1626     1  0.0000000  1.2552000  3
   1620   1619   1616   1622     1  0.0000000  0.6508444  3
   1620   1619   1639   1640     1  0.0000000  0.0000000  2
   1621   1619   1616   1622     1  0.0000000  0.6508444  3
   1621   1619   1639   1640     1  0.0000000  0.0000000  2
   1622   1623   1632   1633     1  0.0000000  0.6508444  3
   1622   1623   1632   1634     1  0.0000000  0.6508444  3
   1622   1626   1629   1630     1  0.0000000  0.6508444  3
   1622   1626   1629   1631     1  0.0000000  0.6508444  3
   1623   1622   1626   1627     1  0.0000000  1.2552000  3
   1623   1622   1626   1628     1  0.0000000  1.2552000  3
   1624   1623   1622   1626     1  0.0000000  1.2552000  3
   1624   1623   1632   1636     1  0.0000000  0.6508444  3
   1624   1623   1632   1633     1  0.0000000  0.6508444  3
   1624   1623   1632   1634     1  0.0000000  0.6508444  3
   1625   1623   1622   1626     1  0.0000000  1.2552000  3
   1625   1623   1632   1636     1  0.0000000  0.6508444  3
   1625   1623   1632   1633     1  0.0000000  0.6508444  3
   1625   1623   1632   1634     1  0.0000000  0.6508444  3
   1627   1626   1629   1635     1  0.0000000  0.6508444  3
   1627   1626   1629   1630     1  0.0000000  0.6508444  3
   1627   1626   1629   1631     1  0.0000000  0.6508444  3
   1628   1626   1629   1635     1  0.0000000  0.6508444  3
   1628   1626   1629   1630     1  0.0000000  0.6508444  3
   1628   1626   1629   1631     1  0.0000000  0.6508444  3
   1629   1635   3315   3316     1  180.0000771  10.4600000  2
   1630   1629   1635   3315     1  180.0000771  0.0000000  2
   1630   1629   1635   1637     1  0.0000000  3.3472000  1
   1630   1629   1635   1637     1  0.0000000  0.0000000  2
   1630   1629   1635   1637     1  180.0000771  0.3347200  3
   1631   1629   1635   3315     1  180.0000771  0.0000000  2
   1631   1629   1635   1637     1  0.0000000  3.3472000  1
   1631   1629   1635   1637     1  0.0000000  0.0000000  2
   1631   1629   1635   1637     1  180.0000771  0.3347200  3
   1632   1636   3344   3345     1  180.0000771  10.4600000  2
   1633   1632   1636   1638     1  0.0000000  3.3472000  1
   1633   1632   1636   1638     1  0.0000000  0.0000000  2
   1633   1632   1636   1638     1  180.0000771  0.3347200  3
   1633   1632   1636   3344     1  180.0000771  0.0000000  2
   1634   1632   1636   1638     1  0.0000000  3.3472000  1
   1634   1632   1636   1638     1  0.0000000  0.0000000  2
   1634   1632   1636   1638     1  180.0000771  0.3347200  3
   1634   1632   1636   3344     1  180.0000771  0.0000000  2
   1635   3315   3317   3318     1  0.0000000  0.0000000  2
   1635   3315   3317   3320     1  0.0000000  0.0000000  2
   1636   3344   3346   3347     1  0.0000000  0.0000000  2
   1636   3344   3346   3349     1  0.0000000  0.0000000  2
   1637   1635   3315   3316     1  0.0000000  8.3680000  1
   1637   1635   3315   3316     1  180.0000771  10.4600000  2
   1638   1636   3344   3345     1  0.0000000  8.3680000  1
   1638   1636   3344   3345     1  180.0000771  10.4600000  2
   1641   1644   1664   1665     1  0.0000000  0.0000000  2
   1641   1647   1648   1649     1  0.0000000  1.2552000  3
   1641   1647   1648   1650     1  0.0000000  1.2552000  3
   1641   1647   1651   1652     1  0.0000000  1.2552000  3
   1641   1647   1651   1653     1  0.0000000  1.2552000  3
   1642   1641   1644   1664     1  0.0000000  0.6508444  3
   1642   1641   1644   1645     1  0.0000000  0.6508444  3
   1642   1641   1644   1646     1  0.0000000  0.6508444  3
   1642   1641   1647   1648     1  0.0000000  1.2552000  3
   1642   1641   1647   1651     1  0.0000000  1.2552000  3
   1643   1641   1644   1664     1  0.0000000  0.6508444  3
   1643   1641   1644   1645     1  0.0000000  0.6508444  3
   1643   1641   1644   1646     1  0.0000000  0.6508444  3
   1643   1641   1647   1648     1  0.0000000  1.2552000  3
   1643   1641   1647   1651     1  0.0000000  1.2552000  3
   1645   1644   1641   1647     1  0.0000000  0.6508444  3
   1645   1644   1664   1665     1  0.0000000  0.0000000  2
   1646   1644   1641   1647     1  0.0000000  0.6508444  3
   1646   1644   1664   1665     1  0.0000000  0.0000000  2
   1647   1648   1657   1658     1  0.0000000  0.6508444  3
   1647   1648   1657   1659     1  0.0000000  0.6508444  3
   1647   1651   1654   1655     1  0.0000000  0.6508444  3
   1647   1651   1654   1656     1  0.0000000  0.6508444  3
   1648   1647   1651   1652     1  0.0000000  1.2552000  3
   1648   1647   1651   1653     1  0.0000000  1.2552000  3
   1649   1648   1647   1651     1  0.0000000  1.2552000  3
   1649   1648   1657   1661     1  0.0000000  0.6508444  3
   1649   1648   1657   1658     1  0.0000000  0.6508444  3
   1649   1648   1657   1659     1  0.0000000  0.6508444  3
   1650   1648   1647   1651     1  0.0000000  1.2552000  3
   1650   1648   1657   1661     1  0.0000000  0.6508444  3
   1650   1648   1657   1658     1  0.0000000  0.6508444  3
   1650   1648   1657   1659     1  0.0000000  0.6508444  3
   1652   1651   1654   1660     1  0.0000000  0.6508444  3
   1652   1651   1654   1655     1  0.0000000  0.6508444  3
   1652   1651   1654   1656     1  0.0000000  0.6508444  3
   1653   1651   1654   1660     1  0.0000000  0.6508444  3
   1653   1651   1654   1655     1  0.0000000  0.6508444  3
   1653   1651   1654   1656     1  0.0000000  0.6508444  3
   1654   1660   3373   3374     1  180.0000771  10.4600000  2
   1655   1654   1660   3373     1  180.0000771  0.0000000  2
   1655   1654   1660   1662     1  0.0000000  3.3472000  1
   1655   1654   1660   1662     1  0.0000000  0.0000000  2
   1655   1654   1660   1662     1  180.0000771  0.3347200  3
   1656   1654   1660   3373     1  180.0000771  0.0000000  2
   1656   1654   1660   1662     1  0.0000000  3.3472000  1
   1656   1654   1660   1662     1  0.0000000  0.0000000  2
   1656   1654   1660   1662     1  180.0000771  0.3347200  3
   1657   1661   3402   3403     1  180.0000771  10.4600000  2
   1658   1657   1661   1663     1  0.0000000  3.3472000  1
   1658   1657   1661   1663     1  0.0000000  0.0000000  2
   1658   1657   1661   1663     1  180.0000771  0.3347200  3
   1658   1657   1661   3402     1  180.0000771  0.0000000  2
   1659   1657   1661   1663     1  0.0000000  3.3472000  1
   1659   1657   1661   1663     1  0.0000000  0.0000000  2
   1659   1657   1661   1663     1  180.0000771  0.3347200  3
   1659   1657   1661   3402     1  180.0000771  0.0000000  2
   1660   3373   3375   3376     1  0.0000000  0.0000000  2
   1660   3373   3375   3378     1  0.0000000  0.0000000  2
   1661   3402   3404   3405     1  0.0000000  0.0000000  2
   1661   3402   3404   3407     1  0.0000000  0.0000000  2
   1662   1660   3373   3374     1  0.0000000  8.3680000  1
   1662   1660   3373   3374     1  180.0000771  10.4600000  2
   1663   1661   3402   3403     1  0.0000000  8.3680000  1
   1663   1661   3402   3403     1  180.0000771  10.4600000  2
   1666   1669   1689   1690     1  0.0000000  0.0000000  2
   1666   1672   1673   1674     1  0.0000000  1.2552000  3
   1666   1672   1673   1675     1  0.0000000  1.2552000  3
   1666   1672   1676   1677     1  0.0000000  1.2552000  3
   1666   1672   1676   1678     1  0.0000000  1.2552000  3
   1667   1666   1669   1689     1  0.0000000  0.6508444  3
   1667   1666   1669   1670     1  0.0000000  0.6508444  3
   1667   1666   1669   1671     1  0.0000000  0.6508444  3
   1667   1666   1672   1673     1  0.0000000  1.2552000  3
   1667   1666   1672   1676     1  0.0000000  1.2552000  3
   1668   1666   1669   1689     1  0.0000000  0.6508444  3
   1668   1666   1669   1670     1  0.0000000  0.6508444  3
   1668   1666   1669   1671     1  0.0000000  0.6508444  3
   1668   1666   1672   1673     1  0.0000000  1.2552000  3
   1668   1666   1672   1676     1  0.0000000  1.2552000  3
   1670   1669   1666   1672     1  0.0000000  0.6508444  3
   1670   1669   1689   1690     1  0.0000000  0.0000000  2
   1671   1669   1666   1672     1  0.0000000  0.6508444  3
   1671   1669   1689   1690     1  0.0000000  0.0000000  2
   1672   1673   1682   1683     1  0.0000000  0.6508444  3
   1672   1673   1682   1684     1  0.0000000  0.6508444  3
   1672   1676   1679   1680     1  0.0000000  0.6508444  3
   1672   1676   1679   1681     1  0.0000000  0.6508444  3
   1673   1672   1676   1677     1  0.0000000  1.2552000  3
   1673   1672   1676   1678     1  0.0000000  1.2552000  3
   1674   1673   1672   1676     1  0.0000000  1.2552000  3
   1674   1673   1682   1686     1  0.0000000  0.6508444  3
   1674   1673   1682   1683     1  0.0000000  0.6508444  3
   1674   1673   1682   1684     1  0.0000000  0.6508444  3
   1675   1673   1672   1676     1  0.0000000  1.2552000  3
   1675   1673   1682   1686     1  0.0000000  0.6508444  3
   1675   1673   1682   1683     1  0.0000000  0.6508444  3
   1675   1673   1682   1684     1  0.0000000  0.6508444  3
   1677   1676   1679   1685     1  0.0000000  0.6508444  3
   1677   1676   1679   1680     1  0.0000000  0.6508444  3
   1677   1676   1679   1681     1  0.0000000  0.6508444  3
   1678   1676   1679   1685     1  0.0000000  0.6508444  3
   1678   1676   1679   1680     1  0.0000000  0.6508444  3
   1678   1676   1679   1681     1  0.0000000  0.6508444  3
   1679   1685   3431   3432     1  180.0000771  10.4600000  2
   1680   1679   1685   3431     1  180.0000771  0.0000000  2
   1680   1679   1685   1687     1  0.0000000  3.3472000  1
   1680   1679   1685   1687     1  0.0000000  0.0000000  2
   1680   1679   1685   1687     1  180.0000771  0.3347200  3
   1681   1679   1685   3431     1  180.0000771  0.0000000  2
   1681   1679   1685   1687     1  0.0000000  3.3472000  1
   1681   1679   1685   1687     1  0.0000000  0.0000000  2
   1681   1679   1685   1687     1  180.0000771  0.3347200  3
   1682   1686   3460   3461     1  180.0000771  10.4600000  2
   1683   1682   1686   1688     1  0.0000000  3.3472000  1
   1683   1682   1686   1688     1  0.0000000  0.0000000  2
   1683   1682   1686   1688     1  180.0000771  0.3347200  3
   1683   1682   1686   3460     1  180.0000771  0.0000000  2
   1684   1682   1686   1688     1  0.0000000  3.3472000  1
   1684   1682   1686   1688     1  0.0000000  0.0000000  2
   1684   1682   1686   1688     1  180.0000771  0.3347200  3
   1684   1682   1686   3460     1  180.0000771  0.0000000  2
   1685   3431   3433   3434     1  0.0000000  0.0000000  2
   1685   3431   3433   3436     1  0.0000000  0.0000000  2
   1686   3460   3462   3463     1  0.0000000  0.0000000  2
   1686   3460   3462   3465     1  0.0000000  0.0000000  2
   1687   1685   3431   3432     1  0.0000000  8.3680000  1
   1687   1685   3431   3432     1  180.0000771  10.4600000  2
   1688   1686   3460   3461     1  0.0000000  8.3680000  1
   1688   1686   3460   3461     1  180.0000771  10.4600000  2
   1691   1694   1714   1715     1  0.0000000  0.0000000  2
   1691   1697   1698   1699     1  0.0000000  1.2552000  3
   1691   1697   1698   1700     1  0.0000000  1.2552000  3
   1691   1697   1701   1702     1  0.0000000  1.2552000  3
   1691   1697   1701   1703     1  0.0000000  1.2552000  3
   1692   1691   1694   1714     1  0.0000000  0.6508444  3
   1692   1691   1694   1695     1  0.0000000  0.6508444  3
   1692   1691   1694   1696     1  0.0000000  0.6508444  3
   1692   1691   1697   1698     1  0.0000000  1.2552000  3
   1692   1691   1697   1701     1  0.0000000  1.2552000  3
   1693   1691   1694   1714     1  0.0000000  0.6508444  3
   1693   1691   1694   1695     1  0.0000000  0.6508444  3
   1693   1691   1694   1696     1  0.0000000  0.6508444  3
   1693   1691   1697   1698     1  0.0000000  1.2552000  3
   1693   1691   1697   1701     1  0.0000000  1.2552000  3
   1695   1694   1691   1697     1  0.0000000  0.6508444  3
   1695   1694   1714   1715     1  0.0000000  0.0000000  2
   1696   1694   1691   1697     1  0.0000000  0.6508444  3
   1696   1694   1714   1715     1  0.0000000  0.0000000  2
   1697   1698   1707   1708     1  0.0000000  0.6508444  3
   1697   1698   1707   1709     1  0.0000000  0.6508444  3
   1697   1701   1704   1705     1  0.0000000  0.6508444  3
   1697   1701   1704   1706     1  0.0000000  0.6508444  3
   1698   1697   1701   1702     1  0.0000000  1.2552000  3
   1698   1697   1701   1703     1  0.0000000  1.2552000  3
   1699   1698   1697   1701     1  0.0000000  1.2552000  3
   1699   1698   1707   1711     1  0.0000000  0.6508444  3
   1699   1698   1707   1708     1  0.0000000  0.6508444  3
   1699   1698   1707   1709     1  0.0000000  0.6508444  3
   1700   1698   1697   1701     1  0.0000000  1.2552000  3
   1700   1698   1707   1711     1  0.0000000  0.6508444  3
   1700   1698   1707   1708     1  0.0000000  0.6508444  3
   1700   1698   1707   1709     1  0.0000000  0.6508444  3
   1702   1701   1704   1710     1  0.0000000  0.6508444  3
   1702   1701   1704   1705     1  0.0000000  0.6508444  3
   1702   1701   1704   1706     1  0.0000000  0.6508444  3
   1703   1701   1704   1710     1  0.0000000  0.6508444  3
   1703   1701   1704   1705     1  0.0000000  0.6508444  3
   1703   1701   1704   1706     1  0.0000000  0.6508444  3
   1704   1710   3489   3490     1  180.0000771  10.4600000  2
   1705   1704   1710   3489     1  180.0000771  0.0000000  2
   1705   1704   1710   1712     1  0.0000000  3.3472000  1
   1705   1704   1710   1712     1  0.0000000  0.0000000  2
   1705   1704   1710   1712     1  180.0000771  0.3347200  3
   1706   1704   1710   3489     1  180.0000771  0.0000000  2
   1706   1704   1710   1712     1  0.0000000  3.3472000  1
   1706   1704   1710   1712     1  0.0000000  0.0000000  2
   1706   1704   1710   1712     1  180.0000771  0.3347200  3
   1707   1711   3518   3519     1  180.0000771  10.4600000  2
   1708   1707   1711   1713     1  0.0000000  3.3472000  1
   1708   1707   1711   1713     1  0.0000000  0.0000000  2
   1708   1707   1711   1713     1  180.0000771  0.3347200  3
   1708   1707   1711   3518     1  180.0000771  0.0000000  2
   1709   1707   1711   1713     1  0.0000000  3.3472000  1
   1709   1707   1711   1713     1  0.0000000  0.0000000  2
   1709   1707   1711   1713     1  180.0000771  0.3347200  3
   1709   1707   1711   3518     1  180.0000771  0.0000000  2
   1710   3489   3491   3492     1  0.0000000  0.0000000  2
   1710   3489   3491   3494     1  0.0000000  0.0000000  2
   1711   3518   3520   3521     1  0.0000000  0.0000000  2
   1711   3518   3520   3523     1  0.0000000  0.0000000  2
   1712   1710   3489   3490     1  0.0000000  8.3680000  1
   1712   1710   3489   3490     1  180.0000771  10.4600000  2
   1713   1711   3518   3519     1  0.0000000  8.3680000  1
   1713   1711   3518   3519     1  180.0000771  10.4600000  2
   1716   1719   1739   1740     1  0.0000000  0.0000000  2
   1716   1722   1723   1724     1  0.0000000  1.2552000  3
   1716   1722   1723   1725     1  0.0000000  1.2552000  3
   1716   1722   1726   1727     1  0.0000000  1.2552000  3
   1716   1722   1726   1728     1  0.0000000  1.2552000  3
   1717   1716   1719   1739     1  0.0000000  0.6508444  3
   1717   1716   1719   1720     1  0.0000000  0.6508444  3
   1717   1716   1719   1721     1  0.0000000  0.6508444  3
   1717   1716   1722   1723     1  0.0000000  1.2552000  3
   1717   1716   1722   1726     1  0.0000000  1.2552000  3
   1718   1716   1719   1739     1  0.0000000  0.6508444  3
   1718   1716   1719   1720     1  0.0000000  0.6508444  3
   1718   1716   1719   1721     1  0.0000000  0.6508444  3
   1718   1716   1722   1723     1  0.0000000  1.2552000  3
   1718   1716   1722   1726     1  0.0000000  1.2552000  3
   1720   1719   1716   1722     1  0.0000000  0.6508444  3
   1720   1719   1739   1740     1  0.0000000  0.0000000  2
   1721   1719   1716   1722     1  0.0000000  0.6508444  3
   1721   1719   1739   1740     1  0.0000000  0.0000000  2
   1722   1723   1732   1733     1  0.0000000  0.6508444  3
   1722   1723   1732   1734     1  0.0000000  0.6508444  3
   1722   1726   1729   1730     1  0.0000000  0.6508444  3
   1722   1726   1729   1731     1  0.0000000  0.6508444  3
   1723   1722   1726   1727     1  0.0000000  1.2552000  3
   1723   1722   1726   1728     1  0.0000000  1.2552000  3
   1724   1723   1722   1726     1  0.0000000  1.2552000  3
   1724   1723   1732   1736     1  0.0000000  0.6508444  3
   1724   1723   1732   1733     1  0.0000000  0.6508444  3
   1724   1723   1732   1734     1  0.0000000  0.6508444  3
   1725   1723   1722   1726     1  0.0000000  1.2552000  3
   1725   1723   1732   1736     1  0.0000000  0.6508444  3
   1725   1723   1732   1733     1  0.0000000  0.6508444  3
   1725   1723   1732   1734     1  0.0000000  0.6508444  3
   1727   1726   1729   1735     1  0.0000000  0.6508444  3
   1727   1726   1729   1730     1  0.0000000  0.6508444  3
   1727   1726   1729   1731     1  0.0000000  0.6508444  3
   1728   1726   1729   1735     1  0.0000000  0.6508444  3
   1728   1726   1729   1730     1  0.0000000  0.6508444  3
   1728   1726   1729   1731     1  0.0000000  0.6508444  3
   1729   1735   3547   3548     1  180.0000771  10.4600000  2
   1730   1729   1735   3547     1  180.0000771  0.0000000  2
   1730   1729   1735   1737     1  0.0000000  3.3472000  1
   1730   1729   1735   1737     1  0.0000000  0.0000000  2
   1730   1729   1735   1737     1  180.0000771  0.3347200  3
   1731   1729   1735   3547     1  180.0000771  0.0000000  2
   1731   1729   1735   1737     1  0.0000000  3.3472000  1
   1731   1729   1735   1737     1  0.0000000  0.0000000  2
   1731   1729   1735   1737     1  180.0000771  0.3347200  3
   1732   1736   3576   3577     1  180.0000771  10.4600000  2
   1733   1732   1736   1738     1  0.0000000  3.3472000  1
   1733   1732   1736   1738     1  0.0000000  0.0000000  2
   1733   1732   1736   1738     1  180.0000771  0.3347200  3
   1733   1732   1736   3576     1  180.0000771  0.0000000  2
   1734   1732   1736   1738     1  0.0000000  3.3472000  1
   1734   1732   1736   1738     1  0.0000000  0.0000000  2
   1734   1732   1736   1738     1  180.0000771  0.3347200  3
   1734   1732   1736   3576     1  180.0000771  0.0000000  2
   1735   3547   3549   3550     1  0.0000000  0.0000000  2
   1735   3547   3549   3552     1  0.0000000  0.0000000  2
   1736   3576   3578   3579     1  0.0000000  0.0000000  2
   1736   3576   3578   3581     1  0.0000000  0.0000000  2
   1737   1735   3547   3548     1  0.0000000  8.3680000  1
   1737   1735   3547   3548     1  180.0000771  10.4600000  2
   1738   1736   3576   3577     1  0.0000000  8.3680000  1
   1738   1736   3576   3577     1  180.0000771  10.4600000  2
   1741   1744   1764   1765     1  0.0000000  0.0000000  2
   1741   1747   1748   1749     1  0.0000000  1.2552000  3
   1741   1747   1748   1750     1  0.0000000  1.2552000  3
   1741   1747   1751   1752     1  0.0000000  1.2552000  3
   1741   1747   1751   1753     1  0.0000000  1.2552000  3
   1742   1741   1744   1764     1  0.0000000  0.6508444  3
   1742   1741   1744   1745     1  0.0000000  0.6508444  3
   1742   1741   1744   1746     1  0.0000000  0.6508444  3
   1742   1741   1747   1748     1  0.0000000  1.2552000  3
   1742   1741   1747   1751     1  0.0000000  1.2552000  3
   1743   1741   1744   1764     1  0.0000000  0.6508444  3
   1743   1741   1744   1745     1  0.0000000  0.6508444  3
   1743   1741   1744   1746     1  0.0000000  0.6508444  3
   1743   1741   1747   1748     1  0.0000000  1.2552000  3
   1743   1741   1747   1751     1  0.0000000  1.2552000  3
   1745   1744   1741   1747     1  0.0000000  0.6508444  3
   1745   1744   1764   1765     1  0.0000000  0.0000000  2
   1746   1744   1741   1747     1  0.0000000  0.6508444  3
   1746   1744   1764   1765     1  0.0000000  0.0000000  2
   1747   1748   1757   1758     1  0.0000000  0.6508444  3
   1747   1748   1757   1759     1  0.0000000  0.6508444  3
   1747   1751   1754   1755     1  0.0000000  0.6508444  3
   1747   1751   1754   1756     1  0.0000000  0.6508444  3
   1748   1747   1751   1752     1  0.0000000  1.2552000  3
   1748   1747   1751   1753     1  0.0000000  1.2552000  3
   1749   1748   1747   1751     1  0.0000000  1.2552000  3
   1749   1748   1757   1761     1  0.0000000  0.6508444  3
   1749   1748   1757   1758     1  0.0000000  0.6508444  3
   1749   1748   1757   1759     1  0.0000000  0.6508444  3
   1750   1748   1747   1751     1  0.0000000  1.2552000  3
   1750   1748   1757   1761     1  0.0000000  0.6508444  3
   1750   1748   1757   1758     1  0.0000000  0.6508444  3
   1750   1748   1757   1759     1  0.0000000  0.6508444  3
   1752   1751   1754   1760     1  0.0000000  0.6508444  3
   1752   1751   1754   1755     1  0.0000000  0.6508444  3
   1752   1751   1754   1756     1  0.0000000  0.6508444  3
   1753   1751   1754   1760     1  0.0000000  0.6508444  3
   1753   1751   1754   1755     1  0.0000000  0.6508444  3
   1753   1751   1754   1756     1  0.0000000  0.6508444  3
   1754   1760   3605   3606     1  180.0000771  10.4600000  2
   1755   1754   1760   3605     1  180.0000771  0.0000000  2
   1755   1754   1760   1762     1  0.0000000  3.3472000  1
   1755   1754   1760   1762     1  0.0000000  0.0000000  2
   1755   1754   1760   1762     1  180.0000771  0.3347200  3
   1756   1754   1760   3605     1  180.0000771  0.0000000  2
   1756   1754   1760   1762     1  0.0000000  3.3472000  1
   1756   1754   1760   1762     1  0.0000000  0.0000000  2
   1756   1754   1760   1762     1  180.0000771  0.3347200  3
   1757   1761   3634   3635     1  180.0000771  10.4600000  2
   1758   1757   1761   1763     1  0.0000000  3.3472000  1
   1758   1757   1761   1763     1  0.0000000  0.0000000  2
   1758   1757   1761   1763     1  180.0000771  0.3347200  3
   1758   1757   1761   3634     1  180.0000771  0.0000000  2
   1759   1757   1761   1763     1  0.0000000  3.3472000  1
   1759   1757   1761   1763     1  0.0000000  0.0000000  2
   1759   1757   1761   1763     1  180.0000771  0.3347200  3
   1759   1757   1761   3634     1  180.0000771  0.0000000  2
   1760   3605   3607   3608     1  0.0000000  0.0000000  2
   1760   3605   3607   3610     1  0.0000000  0.0000000  2
   1761   3634   3636   3637     1  0.0000000  0.0000000  2
   1761   3634   3636   3639     1  0.0000000  0.0000000  2
   1762   1760   3605   3606     1  0.0000000  8.3680000  1
   1762   1760   3605   3606     1  180.0000771  10.4600000  2
   1763   1761   3634   3635     1  0.0000000  8.3680000  1
   1763   1761   3634   3635     1  180.0000771  10.4600000  2
   1766   1769   1789   1790     1  0.0000000  0.0000000  2
   1766   1772   1773   1774     1  0.0000000  1.2552000  3
   1766   1772   1773   1775     1  0.0000000  1.2552000  3
   1766   1772   1776   1777     1  0.0000000  1.2552000  3
   1766   1772   1776   1778     1  0.0000000  1.2552000  3
   1767   1766   1769   1789     1  0.0000000  0.6508444  3
   1767   1766   1769   1770     1  0.0000000  0.6508444  3
   1767   1766   1769   1771     1  0.0000000  0.6508444  3
   1767   1766   1772   1773     1  0.0000000  1.2552000  3
   1767   1766   1772   1776     1  0.0000000  1.2552000  3
   1768   1766   1769   1789     1  0.0000000  0.6508444  3
   1768   1766   1769   1770     1  0.0000000  0.6508444  3
   1768   1766   1769   1771     1  0.0000000  0.6508444  3
   1768   1766   1772   1773     1  0.0000000  1.2552000  3
   1768   1766   1772   1776     1  0.0000000  1.2552000  3
   1770   1769   1766   1772     1  0.0000000  0.6508444  3
   1770   1769   1789   1790     1  0.0000000  0.0000000  2
   1771   1769   1766   1772     1  0.0000000  0.6508444  3
   1771   1769   1789   1790     1  0.0000000  0.0000000  2
   1772   1773   1782   1783     1  0.0000000  0.6508444  3
   1772   1773   1782   1784     1  0.0000000  0.6508444  3
   1772   1776   1779   1780     1  0.0000000  0.6508444  3
   1772   1776   1779   1781     1  0.0000000  0.6508444  3
   1773   1772   1776   1777     1  0.0000000  1.2552000  3
   1773   1772   1776   1778     1  0.0000000  1.2552000  3
   1774   1773   1772   1776     1  0.0000000  1.2552000  3
   1774   1773   1782   1786     1  0.0000000  0.6508444  3
   1774   1773   1782   1783     1  0.0000000  0.6508444  3
   1774   1773   1782   1784     1  0.0000000  0.6508444  3
   1775   1773   1772   1776     1  0.0000000  1.2552000  3
   1775   1773   1782   1786     1  0.0000000  0.6508444  3
   1775   1773   1782   1783     1  0.0000000  0.6508444  3
   1775   1773   1782   1784     1  0.0000000  0.6508444  3
   1777   1776   1779   1785     1  0.0000000  0.6508444  3
   1777   1776   1779   1780     1  0.0000000  0.6508444  3
   1777   1776   1779   1781     1  0.0000000  0.6508444  3
   1778   1776   1779   1785     1  0.0000000  0.6508444  3
   1778   1776   1779   1780     1  0.0000000  0.6508444  3
   1778   1776   1779   1781     1  0.0000000  0.6508444  3
   1779   1785   3663   3664     1  180.0000771  10.4600000  2
   1780   1779   1785   3663     1  180.0000771  0.0000000  2
   1780   1779   1785   1787     1  0.0000000  3.3472000  1
   1780   1779   1785   1787     1  0.0000000  0.0000000  2
   1780   1779   1785   1787     1  180.0000771  0.3347200  3
   1781   1779   1785   3663     1  180.0000771  0.0000000  2
   1781   1779   1785   1787     1  0.0000000  3.3472000  1
   1781   1779   1785   1787     1  0.0000000  0.0000000  2
   1781   1779   1785   1787     1  180.0000771  0.3347200  3
   1782   1786   3692   3693     1  180.0000771  10.4600000  2
   1783   1782   1786   1788     1  0.0000000  3.3472000  1
   1783   1782   1786   1788     1  0.0000000  0.0000000  2
   1783   1782   1786   1788     1  180.0000771  0.3347200  3
   1783   1782   1786   3692     1  180.0000771  0.0000000  2
   1784   1782   1786   1788     1  0.0000000  3.3472000  1
   1784   1782   1786   1788     1  0.0000000  0.0000000  2
   1784   1782   1786   1788     1  180.0000771  0.3347200  3
   1784   1782   1786   3692     1  180.0000771  0.0000000  2
   1785   3663   3665   3666     1  0.0000000  0.0000000  2
   1785   3663   3665   3668     1  0.0000000  0.0000000  2
   1786   3692   3694   3695     1  0.0000000  0.0000000  2
   1786   3692   3694   3697     1  0.0000000  0.0000000  2
   1787   1785   3663   3664     1  0.0000000  8.3680000  1
   1787   1785   3663   3664     1  180.0000771  10.4600000  2
   1788   1786   3692   3693     1  0.0000000  8.3680000  1
   1788   1786   3692   3693     1  180.0000771  10.4600000  2
   1791   1794   1814   1815     1  0.0000000  0.0000000  2
   1791   1797   1798   1799     1  0.0000000  1.2552000  3
   1791   1797   1798   1800     1  0.0000000  1.2552000  3
   1791   1797   1801   1802     1  0.0000000  1.2552000  3
   1791   1797   1801   1803     1  0.0000000  1.2552000  3
   1792   1791   1794   1814     1  0.0000000  0.6508444  3
   1792   1791   1794   1795     1  0.0000000  0.6508444  3
   1792   1791   1794   1796     1  0.0000000  0.6508444  3
   1792   1791   1797   1798     1  0.0000000  1.2552000  3
   1792   1791   1797   1801     1  0.0000000  1.2552000  3
   1793   1791   1794   1814     1  0.0000000  0.6508444  3
   1793   1791   1794   1795     1  0.0000000  0.6508444  3
   1793   1791   1794   1796     1  0.0000000  0.6508444  3
   1793   1791   1797   1798     1  0.0000000  1.2552000  3
   1793   1791   1797   1801     1  0.0000000  1.2552000  3
   1795   1794   1791   1797     1  0.0000000  0.6508444  3
   1795   1794   1814   1815     1  0.0000000  0.0000000  2
   1796   1794   1791   1797     1  0.0000000  0.6508444  3
   1796   1794   1814   1815     1  0.0000000  0.0000000  2
   1797   1798   1807   1808     1  0.0000000  0.6508444  3
   1797   1798   1807   1809     1  0.0000000  0.6508444  3
   1797   1801   1804   1805     1  0.0000000  0.6508444  3
   1797   1801   1804   1806     1  0.0000000  0.6508444  3
   1798   1797   1801   1802     1  0.0000000  1.2552000  3
   1798   1797   1801   1803     1  0.0000000  1.2552000  3
   1799   1798   1797   1801     1  0.0000000  1.2552000  3
   1799   1798   1807   1811     1  0.0000000  0.6508444  3
   1799   1798   1807   1808     1  0.0000000  0.6508444  3
   1799   1798   1807   1809     1  0.0000000  0.6508444  3
   1800   1798   1797   1801     1  0.0000000  1.2552000  3
   1800   1798   1807   1811     1  0.0000000  0.6508444  3
   1800   1798   1807   1808     1  0.0000000  0.6508444  3
   1800   1798   1807   1809     1  0.0000000  0.6508444  3
   1802   1801   1804   1810     1  0.0000000  0.6508444  3
   1802   1801   1804   1805     1  0.0000000  0.6508444  3
   1802   1801   1804   1806     1  0.0000000  0.6508444  3
   1803   1801   1804   1810     1  0.0000000  0.6508444  3
   1803   1801   1804   1805     1  0.0000000  0.6508444  3
   1803   1801   1804   1806     1  0.0000000  0.6508444  3
   1804   1810   3721   3722     1  180.0000771  10.4600000  2
   1805   1804   1810   3721     1  180.0000771  0.0000000  2
   1805   1804   1810   1812     1  0.0000000  3.3472000  1
   1805   1804   1810   1812     1  0.0000000  0.0000000  2
   1805   1804   1810   1812     1  180.0000771  0.3347200  3
   1806   1804   1810   3721     1  180.0000771  0.0000000  2
   1806   1804   1810   1812     1  0.0000000  3.3472000  1
   1806   1804   1810   1812     1  0.0000000  0.0000000  2
   1806   1804   1810   1812     1  180.0000771  0.3347200  3
   1807   1811   3750   3751     1  180.0000771  10.4600000  2
   1808   1807   1811   1813     1  0.0000000  3.3472000  1
   1808   1807   1811   1813     1  0.0000000  0.0000000  2
   1808   1807   1811   1813     1  180.0000771  0.3347200  3
   1808   1807   1811   3750     1  180.0000771  0.0000000  2
   1809   1807   1811   1813     1  0.0000000  3.3472000  1
   1809   1807   1811   1813     1  0.0000000  0.0000000  2
   1809   1807   1811   1813     1  180.0000771  0.3347200  3
   1809   1807   1811   3750     1  180.0000771  0.0000000  2
   1810   3721   3723   3724     1  0.0000000  0.0000000  2
   1810   3721   3723   3726     1  0.0000000  0.0000000  2
   1811   3750   3752   3753     1  0.0000000  0.0000000  2
   1811   3750   3752   3755     1  0.0000000  0.0000000  2
   1812   1810   3721   3722     1  0.0000000  8.3680000  1
   1812   1810   3721   3722     1  180.0000771  10.4600000  2
   1813   1811   3750   3751     1  0.0000000  8.3680000  1
   1813   1811   3750   3751     1  180.0000771  10.4600000  2
   1816   1819   1839   1840     1  0.0000000  0.0000000  2
   1816   1822   1823   1824     1  0.0000000  1.2552000  3
   1816   1822   1823   1825     1  0.0000000  1.2552000  3
   1816   1822   1826   1827     1  0.0000000  1.2552000  3
   1816   1822   1826   1828     1  0.0000000  1.2552000  3
   1817   1816   1819   1839     1  0.0000000  0.6508444  3
   1817   1816   1819   1820     1  0.0000000  0.6508444  3
   1817   1816   1819   1821     1  0.0000000  0.6508444  3
   1817   1816   1822   1823     1  0.0000000  1.2552000  3
   1817   1816   1822   1826     1  0.0000000  1.2552000  3
   1818   1816   1819   1839     1  0.0000000  0.6508444  3
   1818   1816   1819   1820     1  0.0000000  0.6508444  3
   1818   1816   1819   1821     1  0.0000000  0.6508444  3
   1818   1816   1822   1823     1  0.0000000  1.2552000  3
   1818   1816   1822   1826     1  0.0000000  1.2552000  3
   1820   1819   1816   1822     1  0.0000000  0.6508444  3
   1820   1819   1839   1840     1  0.0000000  0.0000000  2
   1821   1819   1816   1822     1  0.0000000  0.6508444  3
   1821   1819   1839   1840     1  0.0000000  0.0000000  2
   1822   1823   1832   1833     1  0.0000000  0.6508444  3
   1822   1823   1832   1834     1  0.0000000  0.6508444  3
   1822   1826   1829   1830     1  0.0000000  0.6508444  3
   1822   1826   1829   1831     1  0.0000000  0.6508444  3
   1823   1822   1826   1827     1  0.0000000  1.2552000  3
   1823   1822   1826   1828     1  0.0000000  1.2552000  3
   1824   1823   1822   1826     1  0.0000000  1.2552000  3
   1824   1823   1832   1836     1  0.0000000  0.6508444  3
   1824   1823   1832   1833     1  0.0000000  0.6508444  3
   1824   1823   1832   1834     1  0.0000000  0.6508444  3
   1825   1823   1822   1826     1  0.0000000  1.2552000  3
   1825   1823   1832   1836     1  0.0000000  0.6508444  3
   1825   1823   1832   1833     1  0.0000000  0.6508444  3
   1825   1823   1832   1834     1  0.0000000  0.6508444  3
   1827   1826   1829   1835     1  0.0000000  0.6508444  3
   1827   1826   1829   1830     1  0.0000000  0.6508444  3
   1827   1826   1829   1831     1  0.0000000  0.6508444  3
   1828   1826   1829   1835     1  0.0000000  0.6508444  3
   1828   1826   1829   1830     1  0.0000000  0.6508444  3
   1828   1826   1829   1831     1  0.0000000  0.6508444  3
   1829   1835   3779   3780     1  180.0000771  10.4600000  2
   1830   1829   1835   3779     1  180.0000771  0.0000000  2
   1830   1829   1835   1837     1  0.0000000  3.3472000  1
   1830   1829   1835   1837     1  0.0000000  0.0000000  2
   1830   1829   1835   1837     1  180.0000771  0.3347200  3
   1831   1829   1835   3779     1  180.0000771  0.0000000  2
   1831   1829   1835   1837     1  0.0000000  3.3472000  1
   1831   1829   1835   1837     1  0.0000000  0.0000000  2
   1831   1829   1835   1837     1  180.0000771  0.3347200  3
   1832   1836   3808   3809     1  180.0000771  10.4600000  2
   1833   1832   1836   1838     1  0.0000000  3.3472000  1
   1833   1832   1836   1838     1  0.0000000  0.0000000  2
   1833   1832   1836   1838     1  180.0000771  0.3347200  3
   1833   1832   1836   3808     1  180.0000771  0.0000000  2
   1834   1832   1836   1838     1  0.0000000  3.3472000  1
   1834   1832   1836   1838     1  0.0000000  0.0000000  2
   1834   1832   1836   1838     1  180.0000771  0.3347200  3
   1834   1832   1836   3808     1  180.0000771  0.0000000  2
   1835   3779   3781   3782     1  0.0000000  0.0000000  2
   1835   3779   3781   3784     1  0.0000000  0.0000000  2
   1836   3808   3810   3811     1  0.0000000  0.0000000  2
   1836   3808   3810   3813     1  0.0000000  0.0000000  2
   1837   1835   3779   3780     1  0.0000000  8.3680000  1
   1837   1835   3779   3780     1  180.0000771  10.4600000  2
   1838   1836   3808   3809     1  0.0000000  8.3680000  1
   1838   1836   3808   3809     1  180.0000771  10.4600000  2
   1841   1844   1864   1865     1  0.0000000  0.0000000  2
   1841   1847   1848   1849     1  0.0000000  1.2552000  3
   1841   1847   1848   1850     1  0.0000000  1.2552000  3
   1841   1847   1851   1852     1  0.0000000  1.2552000  3
   1841   1847   1851   1853     1  0.0000000  1.2552000  3
   1842   1841   1844   1864     1  0.0000000  0.6508444  3
   1842   1841   1844   1845     1  0.0000000  0.6508444  3
   1842   1841   1844   1846     1  0.0000000  0.6508444  3
   1842   1841   1847   1848     1  0.0000000  1.2552000  3
   1842   1841   1847   1851     1  0.0000000  1.2552000  3
   1843   1841   1844   1864     1  0.0000000  0.6508444  3
   1843   1841   1844   1845     1  0.0000000  0.6508444  3
   1843   1841   1844   1846     1  0.0000000  0.6508444  3
   1843   1841   1847   1848     1  0.0000000  1.2552000  3
   1843   1841   1847   1851     1  0.0000000  1.2552000  3
   1845   1844   1841   1847     1  0.0000000  0.6508444  3
   1845   1844   1864   1865     1  0.0000000  0.0000000  2
   1846   1844   1841   1847     1  0.0000000  0.6508444  3
   1846   1844   1864   1865     1  0.0000000  0.0000000  2
   1847   1848   1857   1858     1  0.0000000  0.6508444  3
   1847   1848   1857   1859     1  0.0000000  0.6508444  3
   1847   1851   1854   1855     1  0.0000000  0.6508444  3
   1847   1851   1854   1856     1  0.0000000  0.6508444  3
   1848   1847   1851   1852     1  0.0000000  1.2552000  3
   1848   1847   1851   1853     1  0.0000000  1.2552000  3
   1849   1848   1847   1851     1  0.0000000  1.2552000  3
   1849   1848   1857   1861     1  0.0000000  0.6508444  3
   1849   1848   1857   1858     1  0.0000000  0.6508444  3
   1849   1848   1857   1859     1  0.0000000  0.6508444  3
   1850   1848   1847   1851     1  0.0000000  1.2552000  3
   1850   1848   1857   1861     1  0.0000000  0.6508444  3
   1850   1848   1857   1858     1  0.0000000  0.6508444  3
   1850   1848   1857   1859     1  0.0000000  0.6508444  3
   1852   1851   1854   1860     1  0.0000000  0.6508444  3
   1852   1851   1854   1855     1  0.0000000  0.6508444  3
   1852   1851   1854   1856     1  0.0000000  0.6508444  3
   1853   1851   1854   1860     1  0.0000000  0.6508444  3
   1853   1851   1854   1855     1  0.0000000  0.6508444  3
   1853   1851   1854   1856     1  0.0000000  0.6508444  3
   1854   1860   3837   3838     1  180.0000771  10.4600000  2
   1855   1854   1860   3837     1  180.0000771  0.0000000  2
   1855   1854   1860   1862     1  0.0000000  3.3472000  1
   1855   1854   1860   1862     1  0.0000000  0.0000000  2
   1855   1854   1860   1862     1  180.0000771  0.3347200  3
   1856   1854   1860   3837     1  180.0000771  0.0000000  2
   1856   1854   1860   1862     1  0.0000000  3.3472000  1
   1856   1854   1860   1862     1  0.0000000  0.0000000  2
   1856   1854   1860   1862     1  180.0000771  0.3347200  3
   1857   1861   3866   3867     1  180.0000771  10.4600000  2
   1858   1857   1861   1863     1  0.0000000  3.3472000  1
   1858   1857   1861   1863     1  0.0000000  0.0000000  2
   1858   1857   1861   1863     1  180.0000771  0.3347200  3
   1858   1857   1861   3866     1  180.0000771  0.0000000  2
   1859   1857   1861   1863     1  0.0000000  3.3472000  1
   1859   1857   1861   1863     1  0.0000000  0.0000000  2
   1859   1857   1861   1863     1  180.0000771  0.3347200  3
   1859   1857   1861   3866     1  180.0000771  0.0000000  2
   1860   3837   3839   3840     1  0.0000000  0.0000000  2
   1860   3837   3839   3842     1  0.0000000  0.0000000  2
   1861   3866   3868   3869     1  0.0000000  0.0000000  2
   1861   3866   3868   3871     1  0.0000000  0.0000000  2
   1862   1860   3837   3838     1  0.0000000  8.3680000  1
   1862   1860   3837   3838     1  180.0000771  10.4600000  2
   1863   1861   3866   3867     1  0.0000000  8.3680000  1
   1863   1861   3866   3867     1  180.0000771  10.4600000  2
   1866   1869   1889   1890     1  0.0000000  0.0000000  2
   1866   1872   1873   1874     1  0.0000000  1.2552000  3
   1866   1872   1873   1875     1  0.0000000  1.2552000  3
   1866   1872   1876   1877     1  0.0000000  1.2552000  3
   1866   1872   1876   1878     1  0.0000000  1.2552000  3
   1867   1866   1869   1889     1  0.0000000  0.6508444  3
   1867   1866   1869   1870     1  0.0000000  0.6508444  3
   1867   1866   1869   1871     1  0.0000000  0.6508444  3
   1867   1866   1872   1873     1  0.0000000  1.2552000  3
   1867   1866   1872   1876     1  0.0000000  1.2552000  3
   1868   1866   1869   1889     1  0.0000000  0.6508444  3
   1868   1866   1869   1870     1  0.0000000  0.6508444  3
   1868   1866   1869   1871     1  0.0000000  0.6508444  3
   1868   1866   1872   1873     1  0.0000000  1.2552000  3
   1868   1866   1872   1876     1  0.0000000  1.2552000  3
   1870   1869   1866   1872     1  0.0000000  0.6508444  3
   1870   1869   1889   1890     1  0.0000000  0.0000000  2
   1871   1869   1866   1872     1  0.0000000  0.6508444  3
   1871   1869   1889   1890     1  0.0000000  0.0000000  2
   1872   1873   1882   1883     1  0.0000000  0.6508444  3
   1872   1873   1882   1884     1  0.0000000  0.6508444  3
   1872   1876   1879   1880     1  0.0000000  0.6508444  3
   1872   1876   1879   1881     1  0.0000000  0.6508444  3
   1873   1872   1876   1877     1  0.0000000  1.2552000  3
   1873   1872   1876   1878     1  0.0000000  1.2552000  3
   1874   1873   1872   1876     1  0.0000000  1.2552000  3
   1874   1873   1882   1886     1  0.0000000  0.6508444  3
   1874   1873   1882   1883     1  0.0000000  0.6508444  3
   1874   1873   1882   1884     1  0.0000000  0.6508444  3
   1875   1873   1872   1876     1  0.0000000  1.2552000  3
   1875   1873   1882   1886     1  0.0000000  0.6508444  3
   1875   1873   1882   1883     1  0.0000000  0.6508444  3
   1875   1873   1882   1884     1  0.0000000  0.6508444  3
   1877   1876   1879   1885     1  0.0000000  0.6508444  3
   1877   1876   1879   1880     1  0.0000000  0.6508444  3
   1877   1876   1879   1881     1  0.0000000  0.6508444  3
   1878   1876   1879   1885     1  0.0000000  0.6508444  3
   1878   1876   1879   1880     1  0.0000000  0.6508444  3
   1878   1876   1879   1881     1  0.0000000  0.6508444  3
   1879   1885   3895   3896     1  180.0000771  10.4600000  2
   1880   1879   1885   3895     1  180.0000771  0.0000000  2
   1880   1879   1885   1887     1  0.0000000  3.3472000  1
   1880   1879   1885   1887     1  0.0000000  0.0000000  2
   1880   1879   1885   1887     1  180.0000771  0.3347200  3
   1881   1879   1885   3895     1  180.0000771  0.0000000  2
   1881   1879   1885   1887     1  0.0000000  3.3472000  1
   1881   1879   1885   1887     1  0.0000000  0.0000000  2
   1881   1879   1885   1887     1  180.0000771  0.3347200  3
   1882   1886   3924   3925     1  180.0000771  10.4600000  2
   1883   1882   1886   1888     1  0.0000000  3.3472000  1
   1883   1882   1886   1888     1  0.0000000  0.0000000  2
   1883   1882   1886   1888     1  180.0000771  0.3347200  3
   1883   1882   1886   3924     1  180.0000771  0.0000000  2
   1884   1882   1886   1888     1  0.0000000  3.3472000  1
   1884   1882   1886   1888     1  0.0000000  0.0000000  2
   1884   1882   1886   1888     1  180.0000771  0.3347200  3
   1884   1882   1886   3924     1  180.0000771  0.0000000  2
   1885   3895   3897   3898     1  0.0000000  0.0000000  2
   1885   3895   3897   3900     1  0.0000000  0.0000000  2
   1886   3924   3926   3927     1  0.0000000  0.0000000  2
   1886   3924   3926   3929     1  0.0000000  0.0000000  2
   1887   1885   3895   3896     1  0.0000000  8.3680000  1
   1887   1885   3895   3896     1  180.0000771  10.4600000  2
   1888   1886   3924   3925     1  0.0000000  8.3680000  1
   1888   1886   3924   3925     1  180.0000771  10.4600000  2
   1891   1894   1914   1915     1  0.0000000  0.0000000  2
   1891   1897   1898   1899     1  0.0000000  1.2552000  3
   1891   1897   1898   1900     1  0.0000000  1.2552000  3
   1891   1897   1901   1902     1  0.0000000  1.2552000  3
   1891   1897   1901   1903     1  0.0000000  1.2552000  3
   1892   1891   1894   1914     1  0.0000000  0.6508444  3
   1892   1891   1894   1895     1  0.0000000  0.6508444  3
   1892   1891   1894   1896     1  0.0000000  0.6508444  3
   1892   1891   1897   1898     1  0.0000000  1.2552000  3
   1892   1891   1897   1901     1  0.0000000  1.2552000  3
   1893   1891   1894   1914     1  0.0000000  0.6508444  3
   1893   1891   1894   1895     1  0.0000000  0.6508444  3
   1893   1891   1894   1896     1  0.0000000  0.6508444  3
   1893   1891   1897   1898     1  0.0000000  1.2552000  3
   1893   1891   1897   1901     1  0.0000000  1.2552000  3
   1895   1894   1891   1897     1  0.0000000  0.6508444  3
   1895   1894   1914   1915     1  0.0000000  0.0000000  2
   1896   1894   1891   1897     1  0.0000000  0.6508444  3
   1896   1894   1914   1915     1  0.0000000  0.0000000  2
   1897   1898   1907   1908     1  0.0000000  0.6508444  3
   1897   1898   1907   1909     1  0.0000000  0.6508444  3
   1897   1901   1904   1905     1  0.0000000  0.6508444  3
   1897   1901   1904   1906     1  0.0000000  0.6508444  3
   1898   1897   1901   1902     1  0.0000000  1.2552000  3
   1898   1897   1901   1903     1  0.0000000  1.2552000  3
   1899   1898   1897   1901     1  0.0000000  1.2552000  3
   1899   1898   1907   1911     1  0.0000000  0.6508444  3
   1899   1898   1907   1908     1  0.0000000  0.6508444  3
   1899   1898   1907   1909     1  0.0000000  0.6508444  3
   1900   1898   1897   1901     1  0.0000000  1.2552000  3
   1900   1898   1907   1911     1  0.0000000  0.6508444  3
   1900   1898   1907   1908     1  0.0000000  0.6508444  3
   1900   1898   1907   1909     1  0.0000000  0.6508444  3
   1902   1901   1904   1910     1  0.0000000  0.6508444  3
   1902   1901   1904   1905     1  0.0000000  0.6508444  3
   1902   1901   1904   1906     1  0.0000000  0.6508444  3
   1903   1901   1904   1910     1  0.0000000  0.6508444  3
   1903   1901   1904   1905     1  0.0000000  0.6508444  3
   1903   1901   1904   1906     1  0.0000000  0.6508444  3
   1904   1910   3953   3954     1  180.0000771  10.4600000  2
   1905   1904   1910   3953     1  180.0000771  0.0000000  2
   1905   1904   1910   1912     1  0.0000000  3.3472000  1
   1905   1904   1910   1912     1  0.0000000  0.0000000  2
   1905   1904   1910   1912     1  180.0000771  0.3347200  3
   1906   1904   1910   3953     1  180.0000771  0.0000000  2
   1906   1904   1910   1912     1  0.0000000  3.3472000  1
   1906   1904   1910   1912     1  0.0000000  0.0000000  2
   1906   1904   1910   1912     1  180.0000771  0.3347200  3
   1907   1911   3982   3983     1  180.0000771  10.4600000  2
   1908   1907   1911   1913     1  0.0000000  3.3472000  1
   1908   1907   1911   1913     1  0.0000000  0.0000000  2
   1908   1907   1911   1913     1  180.0000771  0.3347200  3
   1908   1907   1911   3982     1  180.0000771  0.0000000  2
   1909   1907   1911   1913     1  0.0000000  3.3472000  1
   1909   1907   1911   1913     1  0.0000000  0.0000000  2
   1909   1907   1911   1913     1  180.0000771  0.3347200  3
   1909   1907   1911   3982     1  180.0000771  0.0000000  2
   1910   3953   3955   3956     1  0.0000000  0.0000000  2
   1910   3953   3955   3958     1  0.0000000  0.0000000  2
   1911   3982   3984   3985     1  0.0000000  0.0000000  2
   1911   3982   3984   3987     1  0.0000000  0.0000000  2
   1912   1910   3953   3954     1  0.0000000  8.3680000  1
   1912   1910   3953   3954     1  180.0000771  10.4600000  2
   1913   1911   3982   3983     1  0.0000000  8.3680000  1
   1913   1911   3982   3983     1  180.0000771  10.4600000  2
   1916   1919   1939   1940     1  0.0000000  0.0000000  2
   1916   1922   1923   1924     1  0.0000000  1.2552000  3
   1916   1922   1923   1925     1  0.0000000  1.2552000  3
   1916   1922   1926   1927     1  0.0000000  1.2552000  3
   1916   1922   1926   1928     1  0.0000000  1.2552000  3
   1917   1916   1919   1939     1  0.0000000  0.6508444  3
   1917   1916   1919   1920     1  0.0000000  0.6508444  3
   1917   1916   1919   1921     1  0.0000000  0.6508444  3
   1917   1916   1922   1923     1  0.0000000  1.2552000  3
   1917   1916   1922   1926     1  0.0000000  1.2552000  3
   1918   1916   1919   1939     1  0.0000000  0.6508444  3
   1918   1916   1919   1920     1  0.0000000  0.6508444  3
   1918   1916   1919   1921     1  0.0000000  0.6508444  3
   1918   1916   1922   1923     1  0.0000000  1.2552000  3
   1918   1916   1922   1926     1  0.0000000  1.2552000  3
   1920   1919   1916   1922     1  0.0000000  0.6508444  3
   1920   1919   1939   1940     1  0.0000000  0.0000000  2
   1921   1919   1916   1922     1  0.0000000  0.6508444  3
   1921   1919   1939   1940     1  0.0000000  0.0000000  2
   1922   1923   1932   1933     1  0.0000000  0.6508444  3
   1922   1923   1932   1934     1  0.0000000  0.6508444  3
   1922   1926   1929   1930     1  0.0000000  0.6508444  3
   1922   1926   1929   1931     1  0.0000000  0.6508444  3
   1923   1922   1926   1927     1  0.0000000  1.2552000  3
   1923   1922   1926   1928     1  0.0000000  1.2552000  3
   1924   1923   1922   1926     1  0.0000000  1.2552000  3
   1924   1923   1932   1936     1  0.0000000  0.6508444  3
   1924   1923   1932   1933     1  0.0000000  0.6508444  3
   1924   1923   1932   1934     1  0.0000000  0.6508444  3
   1925   1923   1922   1926     1  0.0000000  1.2552000  3
   1925   1923   1932   1936     1  0.0000000  0.6508444  3
   1925   1923   1932   1933     1  0.0000000  0.6508444  3
   1925   1923   1932   1934     1  0.0000000  0.6508444  3
   1927   1926   1929   1935     1  0.0000000  0.6508444  3
   1927   1926   1929   1930     1  0.0000000  0.6508444  3
   1927   1926   1929   1931     1  0.0000000  0.6508444  3
   1928   1926   1929   1935     1  0.0000000  0.6508444  3
   1928   1926   1929   1930     1  0.0000000  0.6508444  3
   1928   1926   1929   1931     1  0.0000000  0.6508444  3
   1929   1935   4011   4012     1  180.0000771  10.4600000  2
   1930   1929   1935   4011     1  180.0000771  0.0000000  2
   1930   1929   1935   1937     1  0.0000000  3.3472000  1
   1930   1929   1935   1937     1  0.0000000  0.0000000  2
   1930   1929   1935   1937     1  180.0000771  0.3347200  3
   1931   1929   1935   4011     1  180.0000771  0.0000000  2
   1931   1929   1935   1937     1  0.0000000  3.3472000  1
   1931   1929   1935   1937     1  0.0000000  0.0000000  2
   1931   1929   1935   1937     1  180.0000771  0.3347200  3
   1932   1936   4040   4041     1  180.0000771  10.4600000  2
   1933   1932   1936   1938     1  0.0000000  3.3472000  1
   1933   1932   1936   1938     1  0.0000000  0.0000000  2
   1933   1932   1936   1938     1  180.0000771  0.3347200  3
   1933   1932   1936   4040     1  180.0000771  0.0000000  2
   1934   1932   1936   1938     1  0.0000000  3.3472000  1
   1934   1932   1936   1938     1  0.0000000  0.0000000  2
   1934   1932   1936   1938     1  180.0000771  0.3347200  3
   1934   1932   1936   4040     1  180.0000771  0.0000000  2
   1935   4011   4013   4014     1  0.0000000  0.0000000  2
   1935   4011   4013   4016     1  0.0000000  0.0000000  2
   1936   4040   4042   4043     1  0.0000000  0.0000000  2
   1936   4040   4042   4045     1  0.0000000  0.0000000  2
   1937   1935   4011   4012     1  0.0000000  8.3680000  1
   1937   1935   4011   4012     1  180.0000771  10.4600000  2
   1938   1936   4040   4041     1  0.0000000  8.3680000  1
   1938   1936   4040   4041     1  180.0000771  10.4600000  2
   1941   1944   1964   1965     1  0.0000000  0.0000000  2
   1941   1947   1948   1949     1  0.0000000  1.2552000  3
   1941   1947   1948   1950     1  0.0000000  1.2552000  3
   1941   1947   1951   1952     1  0.0000000  1.2552000  3
   1941   1947   1951   1953     1  0.0000000  1.2552000  3
   1942   1941   1944   1964     1  0.0000000  0.6508444  3
   1942   1941   1944   1945     1  0.0000000  0.6508444  3
   1942   1941   1944   1946     1  0.0000000  0.6508444  3
   1942   1941   1947   1948     1  0.0000000  1.2552000  3
   1942   1941   1947   1951     1  0.0000000  1.2552000  3
   1943   1941   1944   1964     1  0.0000000  0.6508444  3
   1943   1941   1944   1945     1  0.0000000  0.6508444  3
   1943   1941   1944   1946     1  0.0000000  0.6508444  3
   1943   1941   1947   1948     1  0.0000000  1.2552000  3
   1943   1941   1947   1951     1  0.0000000  1.2552000  3
   1945   1944   1941   1947     1  0.0000000  0.6508444  3
   1945   1944   1964   1965     1  0.0000000  0.0000000  2
   1946   1944   1941   1947     1  0.0000000  0.6508444  3
   1946   1944   1964   1965     1  0.0000000  0.0000000  2
   1947   1948   1957   1958     1  0.0000000  0.6508444  3
   1947   1948   1957   1959     1  0.0000000  0.6508444  3
   1947   1951   1954   1955     1  0.0000000  0.6508444  3
   1947   1951   1954   1956     1  0.0000000  0.6508444  3
   1948   1947   1951   1952     1  0.0000000  1.2552000  3
   1948   1947   1951   1953     1  0.0000000  1.2552000  3
   1949   1948   1947   1951     1  0.0000000  1.2552000  3
   1949   1948   1957   1961     1  0.0000000  0.6508444  3
   1949   1948   1957   1958     1  0.0000000  0.6508444  3
   1949   1948   1957   1959     1  0.0000000  0.6508444  3
   1950   1948   1947   1951     1  0.0000000  1.2552000  3
   1950   1948   1957   1961     1  0.0000000  0.6508444  3
   1950   1948   1957   1958     1  0.0000000  0.6508444  3
   1950   1948   1957   1959     1  0.0000000  0.6508444  3
   1952   1951   1954   1960     1  0.0000000  0.6508444  3
   1952   1951   1954   1955     1  0.0000000  0.6508444  3
   1952   1951   1954   1956     1  0.0000000  0.6508444  3
   1953   1951   1954   1960     1  0.0000000  0.6508444  3
   1953   1951   1954   1955     1  0.0000000  0.6508444  3
   1953   1951   1954   1956     1  0.0000000  0.6508444  3
   1954   1960   4069   4070     1  180.0000771  10.4600000  2
   1955   1954   1960   4069     1  180.0000771  0.0000000  2
   1955   1954   1960   1962     1  0.0000000  3.3472000  1
   1955   1954   1960   1962     1  0.0000000  0.0000000  2
   1955   1954   1960   1962     1  180.0000771  0.3347200  3
   1956   1954   1960   4069     1  180.0000771  0.0000000  2
   1956   1954   1960   1962     1  0.0000000  3.3472000  1
   1956   1954   1960   1962     1  0.0000000  0.0000000  2
   1956   1954   1960   1962     1  180.0000771  0.3347200  3
   1957   1961   4098   4099     1  180.0000771  10.4600000  2
   1958   1957   1961   1963     1  0.0000000  3.3472000  1
   1958   1957   1961   1963     1  0.0000000  0.0000000  2
   1958   1957   1961   1963     1  180.0000771  0.3347200  3
   1958   1957   1961   4098     1  180.0000771  0.0000000  2
   1959   1957   1961   1963     1  0.0000000  3.3472000  1
   1959   1957   1961   1963     1  0.0000000  0.0000000  2
   1959   1957   1961   1963     1  180.0000771  0.3347200  3
   1959   1957   1961   4098     1  180.0000771  0.0000000  2
   1960   4069   4071   4072     1  0.0000000  0.0000000  2
   1960   4069   4071   4074     1  0.0000000  0.0000000  2
   1961   4098   4100   4101     1  0.0000000  0.0000000  2
   1961   4098   4100   4103     1  0.0000000  0.0000000  2
   1962   1960   4069   4070     1  0.0000000  8.3680000  1
   1962   1960   4069   4070     1  180.0000771  10.4600000  2
   1963   1961   4098   4099     1  0.0000000  8.3680000  1
   1963   1961   4098   4099     1  180.0000771  10.4600000  2
   1966   1969   1989   1990     1  0.0000000  0.0000000  2
   1966   1972   1973   1974     1  0.0000000  1.2552000  3
   1966   1972   1973   1975     1  0.0000000  1.2552000  3
   1966   1972   1976   1977     1  0.0000000  1.2552000  3
   1966   1972   1976   1978     1  0.0000000  1.2552000  3
   1967   1966   1969   1989     1  0.0000000  0.6508444  3
   1967   1966   1969   1970     1  0.0000000  0.6508444  3
   1967   1966   1969   1971     1  0.0000000  0.6508444  3
   1967   1966   1972   1973     1  0.0000000  1.2552000  3
   1967   1966   1972   1976     1  0.0000000  1.2552000  3
   1968   1966   1969   1989     1  0.0000000  0.6508444  3
   1968   1966   1969   1970     1  0.0000000  0.6508444  3
   1968   1966   1969   1971     1  0.0000000  0.6508444  3
   1968   1966   1972   1973     1  0.0000000  1.2552000  3
   1968   1966   1972   1976     1  0.0000000  1.2552000  3
   1970   1969   1966   1972     1  0.0000000  0.6508444  3
   1970   1969   1989   1990     1  0.0000000  0.0000000  2
   1971   1969   1966   1972     1  0.0000000  0.6508444  3
   1971   1969   1989   1990     1  0.0000000  0.0000000  2
   1972   1973   1982   1983     1  0.0000000  0.6508444  3
   1972   1973   1982   1984     1  0.0000000  0.6508444  3
   1972   1976   1979   1980     1  0.0000000  0.6508444  3
   1972   1976   1979   1981     1  0.0000000  0.6508444  3
   1973   1972   1976   1977     1  0.0000000  1.2552000  3
   1973   1972   1976   1978     1  0.0000000  1.2552000  3
   1974   1973   1972   1976     1  0.0000000  1.2552000  3
   1974   1973   1982   1986     1  0.0000000  0.6508444  3
   1974   1973   1982   1983     1  0.0000000  0.6508444  3
   1974   1973   1982   1984     1  0.0000000  0.6508444  3
   1975   1973   1972   1976     1  0.0000000  1.2552000  3
   1975   1973   1982   1986     1  0.0000000  0.6508444  3
   1975   1973   1982   1983     1  0.0000000  0.6508444  3
   1975   1973   1982   1984     1  0.0000000  0.6508444  3
   1977   1976   1979   1985     1  0.0000000  0.6508444  3
   1977   1976   1979   1980     1  0.0000000  0.6508444  3
   1977   1976   1979   1981     1  0.0000000  0.6508444  3
   1978   1976   1979   1985     1  0.0000000  0.6508444  3
   1978   1976   1979   1980     1  0.0000000  0.6508444  3
   1978   1976   1979   1981     1  0.0000000  0.6508444  3
   1979   1985   4127   4128     1  180.0000771  10.4600000  2
   1980   1979   1985   4127     1  180.0000771  0.0000000  2
   1980   1979   1985   1987     1  0.0000000  3.3472000  1
   1980   1979   1985   1987     1  0.0000000  0.0000000  2
   1980   1979   1985   1987     1  180.0000771  0.3347200  3
   1981   1979   1985   4127     1  180.0000771  0.0000000  2
   1981   1979   1985   1987     1  0.0000000  3.3472000  1
   1981   1979   1985   1987     1  0.0000000  0.0000000  2
   1981   1979   1985   1987     1  180.0000771  0.3347200  3
   1982   1986   4156   4157     1  180.0000771  10.4600000  2
   1983   1982   1986   1988     1  0.0000000  3.3472000  1
   1983   1982   1986   1988     1  0.0000000  0.0000000  2
   1983   1982   1986   1988     1  180.0000771  0.3347200  3
   1983   1982   1986   4156     1  180.0000771  0.0000000  2
   1984   1982   1986   1988     1  0.0000000  3.3472000  1
   1984   1982   1986   1988     1  0.0000000  0.0000000  2
   1984   1982   1986   1988     1  180.0000771  0.3347200  3
   1984   1982   1986   4156     1  180.0000771  0.0000000  2
   1985   4127   4129   4130     1  0.0000000  0.0000000  2
   1985   4127   4129   4132     1  0.0000000  0.0000000  2
   1986   4156   4158   4159     1  0.0000000  0.0000000  2
   1986   4156   4158   4161     1  0.0000000  0.0000000  2
   1987   1985   4127   4128     1  0.0000000  8.3680000  1
   1987   1985   4127   4128     1  180.0000771  10.4600000  2
   1988   1986   4156   4157     1  0.0000000  8.3680000  1
   1988   1986   4156   4157     1  180.0000771  10.4600000  2
   1991   1994   2014   2015     1  0.0000000  0.0000000  2
   1991   1997   1998   1999     1  0.0000000  1.2552000  3
   1991   1997   1998   2000     1  0.0000000  1.2552000  3
   1991   1997   2001   2002     1  0.0000000  1.2552000  3
   1991   1997   2001   2003     1  0.0000000  1.2552000  3
   1992   1991   1994   2014     1  0.0000000  0.6508444  3
   1992   1991   1994   1995     1  0.0000000  0.6508444  3
   1992   1991   1994   1996     1  0.0000000  0.6508444  3
   1992   1991   1997   1998     1  0.0000000  1.2552000  3
   1992   1991   1997   2001     1  0.0000000  1.2552000  3
   1993   1991   1994   2014     1  0.0000000  0.6508444  3
   1993   1991   1994   1995     1  0.0000000  0.6508444  3
   1993   1991   1994   1996     1  0.0000000  0.6508444  3
   1993   1991   1997   1998     1  0.0000000  1.2552000  3
   1993   1991   1997   2001     1  0.0000000  1.2552000  3
   1995   1994   1991   1997     1  0.0000000  0.6508444  3
   1995   1994   2014   2015     1  0.0000000  0.0000000  2
   1996   1994   1991   1997     1  0.0000000  0.6508444  3
   1996   1994   2014   2015     1  0.0000000  0.0000000  2
   1997   1998   2007   2008     1  0.0000000  0.6508444  3
   1997   1998   2007   2009     1  0.0000000  0.6508444  3
   1997   2001   2004   2005     1  0.0000000  0.6508444  3
   1997   2001   2004   2006     1  0.0000000  0.6508444  3
   1998   1997   2001   2002     1  0.0000000  1.2552000  3
   1998   1997   2001   2003     1  0.0000000  1.2552000  3
   1999   1998   1997   2001     1  0.0000000  1.2552000  3
   1999   1998   2007   2011     1  0.0000000  0.6508444  3
   1999   1998   2007   2008     1  0.0000000  0.6508444  3
   1999   1998   2007   2009     1  0.0000000  0.6508444  3
   2000   1998   1997   2001     1  0.0000000  1.2552000  3
   2000   1998   2007   2011     1  0.0000000  0.6508444  3
   2000   1998   2007   2008     1  0.0000000  0.6508444  3
   2000   1998   2007   2009     1  0.0000000  0.6508444  3
   2002   2001   2004   2010     1  0.0000000  0.6508444  3
   2002   2001   2004   2005     1  0.0000000  0.6508444  3
   2002   2001   2004   2006     1  0.0000000  0.6508444  3
   2003   2001   2004   2010     1  0.0000000  0.6508444  3
   2003   2001   2004   2005     1  0.0000000  0.6508444  3
   2003   2001   2004   2006     1  0.0000000  0.6508444  3
   2004   2010   4185   4186     1  180.0000771  10.4600000  2
   2005   2004   2010   4185     1  180.0000771  0.0000000  2
   2005   2004   2010   2012     1  0.0000000  3.3472000  1
   2005   2004   2010   2012     1  0.0000000  0.0000000  2
   2005   2004   2010   2012     1  180.0000771  0.3347200  3
   2006   2004   2010   4185     1  180.0000771  0.0000000  2
   2006   2004   2010   2012     1  0.0000000  3.3472000  1
   2006   2004   2010   2012     1  0.0000000  0.0000000  2
   2006   2004   2010   2012     1  180.0000771  0.3347200  3
   2007   2011   4214   4215     1  180.0000771  10.4600000  2
   2008   2007   2011   2013     1  0.0000000  3.3472000  1
   2008   2007   2011   2013     1  0.0000000  0.0000000  2
   2008   2007   2011   2013     1  180.0000771  0.3347200  3
   2008   2007   2011   4214     1  180.0000771  0.0000000  2
   2009   2007   2011   2013     1  0.0000000  3.3472000  1
   2009   2007   2011   2013     1  0.0000000  0.0000000  2
   2009   2007   2011   2013     1  180.0000771  0.3347200  3
   2009   2007   2011   4214     1  180.0000771  0.0000000  2
   2010   4185   4187   4188     1  0.0000000  0.0000000  2
   2010   4185   4187   4190     1  0.0000000  0.0000000  2
   2011   4214   4216   4217     1  0.0000000  0.0000000  2
   2011   4214   4216   4219     1  0.0000000  0.0000000  2
   2012   2010   4185   4186     1  0.0000000  8.3680000  1
   2012   2010   4185   4186     1  180.0000771  10.4600000  2
   2013   2011   4214   4215     1  0.0000000  8.3680000  1
   2013   2011   4214   4215     1  180.0000771  10.4600000  2
   2016   2019   2039   2040     1  0.0000000  0.0000000  2
   2016   2022   2023   2024     1  0.0000000  1.2552000  3
   2016   2022   2023   2025     1  0.0000000  1.2552000  3
   2016   2022   2026   2027     1  0.0000000  1.2552000  3
   2016   2022   2026   2028     1  0.0000000  1.2552000  3
   2017   2016   2019   2039     1  0.0000000  0.6508444  3
   2017   2016   2019   2020     1  0.0000000  0.6508444  3
   2017   2016   2019   2021     1  0.0000000  0.6508444  3
   2017   2016   2022   2023     1  0.0000000  1.2552000  3
   2017   2016   2022   2026     1  0.0000000  1.2552000  3
   2018   2016   2019   2039     1  0.0000000  0.6508444  3
   2018   2016   2019   2020     1  0.0000000  0.6508444  3
   2018   2016   2019   2021     1  0.0000000  0.6508444  3
   2018   2016   2022   2023     1  0.0000000  1.2552000  3
   2018   2016   2022   2026     1  0.0000000  1.2552000  3
   2020   2019   2016   2022     1  0.0000000  0.6508444  3
   2020   2019   2039   2040     1  0.0000000  0.0000000  2
   2021   2019   2016   2022     1  0.0000000  0.6508444  3
   2021   2019   2039   2040     1  0.0000000  0.0000000  2
   2022   2023   2032   2033     1  0.0000000  0.6508444  3
   2022   2023   2032   2034     1  0.0000000  0.6508444  3
   2022   2026   2029   2030     1  0.0000000  0.6508444  3
   2022   2026   2029   2031     1  0.0000000  0.6508444  3
   2023   2022   2026   2027     1  0.0000000  1.2552000  3
   2023   2022   2026   2028     1  0.0000000  1.2552000  3
   2024   2023   2022   2026     1  0.0000000  1.2552000  3
   2024   2023   2032   2036     1  0.0000000  0.6508444  3
   2024   2023   2032   2033     1  0.0000000  0.6508444  3
   2024   2023   2032   2034     1  0.0000000  0.6508444  3
   2025   2023   2022   2026     1  0.0000000  1.2552000  3
   2025   2023   2032   2036     1  0.0000000  0.6508444  3
   2025   2023   2032   2033     1  0.0000000  0.6508444  3
   2025   2023   2032   2034     1  0.0000000  0.6508444  3
   2027   2026   2029   2035     1  0.0000000  0.6508444  3
   2027   2026   2029   2030     1  0.0000000  0.6508444  3
   2027   2026   2029   2031     1  0.0000000  0.6508444  3
   2028   2026   2029   2035     1  0.0000000  0.6508444  3
   2028   2026   2029   2030     1  0.0000000  0.6508444  3
   2028   2026   2029   2031     1  0.0000000  0.6508444  3
   2029   2035   4243   4244     1  180.0000771  10.4600000  2
   2030   2029   2035   4243     1  180.0000771  0.0000000  2
   2030   2029   2035   2037     1  0.0000000  3.3472000  1
   2030   2029   2035   2037     1  0.0000000  0.0000000  2
   2030   2029   2035   2037     1  180.0000771  0.3347200  3
   2031   2029   2035   4243     1  180.0000771  0.0000000  2
   2031   2029   2035   2037     1  0.0000000  3.3472000  1
   2031   2029   2035   2037     1  0.0000000  0.0000000  2
   2031   2029   2035   2037     1  180.0000771  0.3347200  3
   2032   2036   4272   4273     1  180.0000771  10.4600000  2
   2033   2032   2036   2038     1  0.0000000  3.3472000  1
   2033   2032   2036   2038     1  0.0000000  0.0000000  2
   2033   2032   2036   2038     1  180.0000771  0.3347200  3
   2033   2032   2036   4272     1  180.0000771  0.0000000  2
   2034   2032   2036   2038     1  0.0000000  3.3472000  1
   2034   2032   2036   2038     1  0.0000000  0.0000000  2
   2034   2032   2036   2038     1  180.0000771  0.3347200  3
   2034   2032   2036   4272     1  180.0000771  0.0000000  2
   2035   4243   4245   4246     1  0.0000000  0.0000000  2
   2035   4243   4245   4248     1  0.0000000  0.0000000  2
   2036   4272   4274   4275     1  0.0000000  0.0000000  2
   2036   4272   4274   4277     1  0.0000000  0.0000000  2
   2037   2035   4243   4244     1  0.0000000  8.3680000  1
   2037   2035   4243   4244     1  180.0000771  10.4600000  2
   2038   2036   4272   4273     1  0.0000000  8.3680000  1
   2038   2036   4272   4273     1  180.0000771  10.4600000  2
   2041   2044   2064   2065     1  0.0000000  0.0000000  2
   2041   2047   2048   2049     1  0.0000000  1.2552000  3
   2041   2047   2048   2050     1  0.0000000  1.2552000  3
   2041   2047   2051   2052     1  0.0000000  1.2552000  3
   2041   2047   2051   2053     1  0.0000000  1.2552000  3
   2042   2041   2044   2064     1  0.0000000  0.6508444  3
   2042   2041   2044   2045     1  0.0000000  0.6508444  3
   2042   2041   2044   2046     1  0.0000000  0.6508444  3
   2042   2041   2047   2048     1  0.0000000  1.2552000  3
   2042   2041   2047   2051     1  0.0000000  1.2552000  3
   2043   2041   2044   2064     1  0.0000000  0.6508444  3
   2043   2041   2044   2045     1  0.0000000  0.6508444  3
   2043   2041   2044   2046     1  0.0000000  0.6508444  3
   2043   2041   2047   2048     1  0.0000000  1.2552000  3
   2043   2041   2047   2051     1  0.0000000  1.2552000  3
   2045   2044   2041   2047     1  0.0000000  0.6508444  3
   2045   2044   2064   2065     1  0.0000000  0.0000000  2
   2046   2044   2041   2047     1  0.0000000  0.6508444  3
   2046   2044   2064   2065     1  0.0000000  0.0000000  2
   2047   2048   2057   2058     1  0.0000000  0.6508444  3
   2047   2048   2057   2059     1  0.0000000  0.6508444  3
   2047   2051   2054   2055     1  0.0000000  0.6508444  3
   2047   2051   2054   2056     1  0.0000000  0.6508444  3
   2048   2047   2051   2052     1  0.0000000  1.2552000  3
   2048   2047   2051   2053     1  0.0000000  1.2552000  3
   2049   2048   2047   2051     1  0.0000000  1.2552000  3
   2049   2048   2057   2061     1  0.0000000  0.6508444  3
   2049   2048   2057   2058     1  0.0000000  0.6508444  3
   2049   2048   2057   2059     1  0.0000000  0.6508444  3
   2050   2048   2047   2051     1  0.0000000  1.2552000  3
   2050   2048   2057   2061     1  0.0000000  0.6508444  3
   2050   2048   2057   2058     1  0.0000000  0.6508444  3
   2050   2048   2057   2059     1  0.0000000  0.6508444  3
   2052   2051   2054   2060     1  0.0000000  0.6508444  3
   2052   2051   2054   2055     1  0.0000000  0.6508444  3
   2052   2051   2054   2056     1  0.0000000  0.6508444  3
   2053   2051   2054   2060     1  0.0000000  0.6508444  3
   2053   2051   2054   2055     1  0.0000000  0.6508444  3
   2053   2051   2054   2056     1  0.0000000  0.6508444  3
   2054   2060   4301   4302     1  180.0000771  10.4600000  2
   2055   2054   2060   4301     1  180.0000771  0.0000000  2
   2055   2054   2060   2062     1  0.0000000  3.3472000  1
   2055   2054   2060   2062     1  0.0000000  0.0000000  2
   2055   2054   2060   2062     1  180.0000771  0.3347200  3
   2056   2054   2060   4301     1  180.0000771  0.0000000  2
   2056   2054   2060   2062     1  0.0000000  3.3472000  1
   2056   2054   2060   2062     1  0.0000000  0.0000000  2
   2056   2054   2060   2062     1  180.0000771  0.3347200  3
   2057   2061   4330   4331     1  180.0000771  10.4600000  2
   2058   2057   2061   2063     1  0.0000000  3.3472000  1
   2058   2057   2061   2063     1  0.0000000  0.0000000  2
   2058   2057   2061   2063     1  180.0000771  0.3347200  3
   2058   2057   2061   4330     1  180.0000771  0.0000000  2
   2059   2057   2061   2063     1  0.0000000  3.3472000  1
   2059   2057   2061   2063     1  0.0000000  0.0000000  2
   2059   2057   2061   2063     1  180.0000771  0.3347200  3
   2059   2057   2061   4330     1  180.0000771  0.0000000  2
   2060   4301   4303   4304     1  0.0000000  0.0000000  2
   2060   4301   4303   4306     1  0.0000000  0.0000000  2
   2061   4330   4332   4333     1  0.0000000  0.0000000  2
   2061   4330   4332   4335     1  0.0000000  0.0000000  2
   2062   2060   4301   4302     1  0.0000000  8.3680000  1
   2062   2060   4301   4302     1  180.0000771  10.4600000  2
   2063   2061   4330   4331     1  0.0000000  8.3680000  1
   2063   2061   4330   4331     1  180.0000771  10.4600000  2
   2066   2069   2089   2090     1  0.0000000  0.0000000  2
   2066   2072   2073   2074     1  0.0000000  1.2552000  3
   2066   2072   2073   2075     1  0.0000000  1.2552000  3
   2066   2072   2076   2077     1  0.0000000  1.2552000  3
   2066   2072   2076   2078     1  0.0000000  1.2552000  3
   2067   2066   2069   2089     1  0.0000000  0.6508444  3
   2067   2066   2069   2070     1  0.0000000  0.6508444  3
   2067   2066   2069   2071     1  0.0000000  0.6508444  3
   2067   2066   2072   2073     1  0.0000000  1.2552000  3
   2067   2066   2072   2076     1  0.0000000  1.2552000  3
   2068   2066   2069   2089     1  0.0000000  0.6508444  3
   2068   2066   2069   2070     1  0.0000000  0.6508444  3
   2068   2066   2069   2071     1  0.0000000  0.6508444  3
   2068   2066   2072   2073     1  0.0000000  1.2552000  3
   2068   2066   2072   2076     1  0.0000000  1.2552000  3
   2070   2069   2066   2072     1  0.0000000  0.6508444  3
   2070   2069   2089   2090     1  0.0000000  0.0000000  2
   2071   2069   2066   2072     1  0.0000000  0.6508444  3
   2071   2069   2089   2090     1  0.0000000  0.0000000  2
   2072   2073   2082   2083     1  0.0000000  0.6508444  3
   2072   2073   2082   2084     1  0.0000000  0.6508444  3
   2072   2076   2079   2080     1  0.0000000  0.6508444  3
   2072   2076   2079   2081     1  0.0000000  0.6508444  3
   2073   2072   2076   2077     1  0.0000000  1.2552000  3
   2073   2072   2076   2078     1  0.0000000  1.2552000  3
   2074   2073   2072   2076     1  0.0000000  1.2552000  3
   2074   2073   2082   2086     1  0.0000000  0.6508444  3
   2074   2073   2082   2083     1  0.0000000  0.6508444  3
   2074   2073   2082   2084     1  0.0000000  0.6508444  3
   2075   2073   2072   2076     1  0.0000000  1.2552000  3
   2075   2073   2082   2086     1  0.0000000  0.6508444  3
   2075   2073   2082   2083     1  0.0000000  0.6508444  3
   2075   2073   2082   2084     1  0.0000000  0.6508444  3
   2077   2076   2079   2085     1  0.0000000  0.6508444  3
   2077   2076   2079   2080     1  0.0000000  0.6508444  3
   2077   2076   2079   2081     1  0.0000000  0.6508444  3
   2078   2076   2079   2085     1  0.0000000  0.6508444  3
   2078   2076   2079   2080     1  0.0000000  0.6508444  3
   2078   2076   2079   2081     1  0.0000000  0.6508444  3
   2079   2085   4359   4360     1  180.0000771  10.4600000  2
   2080   2079   2085   4359     1  180.0000771  0.0000000  2
   2080   2079   2085   2087     1  0.0000000  3.3472000  1
   2080   2079   2085   2087     1  0.0000000  0.0000000  2
   2080   2079   2085   2087     1  180.0000771  0.3347200  3
   2081   2079   2085   4359     1  180.0000771  0.0000000  2
   2081   2079   2085   2087     1  0.0000000  3.3472000  1
   2081   2079   2085   2087     1  0.0000000  0.0000000  2
   2081   2079   2085   2087     1  180.0000771  0.3347200  3
   2082   2086   4388   4389     1  180.0000771  10.4600000  2
   2083   2082   2086   2088     1  0.0000000  3.3472000  1
   2083   2082   2086   2088     1  0.0000000  0.0000000  2
   2083   2082   2086   2088     1  180.0000771  0.3347200  3
   2083   2082   2086   4388     1  180.0000771  0.0000000  2
   2084   2082   2086   2088     1  0.0000000  3.3472000  1
   2084   2082   2086   2088     1  0.0000000  0.0000000  2
   2084   2082   2086   2088     1  180.0000771  0.3347200  3
   2084   2082   2086   4388     1  180.0000771  0.0000000  2
   2085   4359   4361   4362     1  0.0000000  0.0000000  2
   2085   4359   4361   4364     1  0.0000000  0.0000000  2
   2086   4388   4390   4391     1  0.0000000  0.0000000  2
   2086   4388   4390   4393     1  0.0000000  0.0000000  2
   2087   2085   4359   4360     1  0.0000000  8.3680000  1
   2087   2085   4359   4360     1  180.0000771  10.4600000  2
   2088   2086   4388   4389     1  0.0000000  8.3680000  1
   2088   2086   4388   4389     1  180.0000771  10.4600000  2
   2091   2094   2114   2115     1  0.0000000  0.0000000  2
   2091   2097   2098   2099     1  0.0000000  1.2552000  3
   2091   2097   2098   2100     1  0.0000000  1.2552000  3
   2091   2097   2101   2102     1  0.0000000  1.2552000  3
   2091   2097   2101   2103     1  0.0000000  1.2552000  3
   2092   2091   2094   2114     1  0.0000000  0.6508444  3
   2092   2091   2094   2095     1  0.0000000  0.6508444  3
   2092   2091   2094   2096     1  0.0000000  0.6508444  3
   2092   2091   2097   2098     1  0.0000000  1.2552000  3
   2092   2091   2097   2101     1  0.0000000  1.2552000  3
   2093   2091   2094   2114     1  0.0000000  0.6508444  3
   2093   2091   2094   2095     1  0.0000000  0.6508444  3
   2093   2091   2094   2096     1  0.0000000  0.6508444  3
   2093   2091   2097   2098     1  0.0000000  1.2552000  3
   2093   2091   2097   2101     1  0.0000000  1.2552000  3
   2095   2094   2091   2097     1  0.0000000  0.6508444  3
   2095   2094   2114   2115     1  0.0000000  0.0000000  2
   2096   2094   2091   2097     1  0.0000000  0.6508444  3
   2096   2094   2114   2115     1  0.0000000  0.0000000  2
   2097   2098   2107   2108     1  0.0000000  0.6508444  3
   2097   2098   2107   2109     1  0.0000000  0.6508444  3
   2097   2101   2104   2105     1  0.0000000  0.6508444  3
   2097   2101   2104   2106     1  0.0000000  0.6508444  3
   2098   2097   2101   2102     1  0.0000000  1.2552000  3
   2098   2097   2101   2103     1  0.0000000  1.2552000  3
   2099   2098   2097   2101     1  0.0000000  1.2552000  3
   2099   2098   2107   2111     1  0.0000000  0.6508444  3
   2099   2098   2107   2108     1  0.0000000  0.6508444  3
   2099   2098   2107   2109     1  0.0000000  0.6508444  3
   2100   2098   2097   2101     1  0.0000000  1.2552000  3
   2100   2098   2107   2111     1  0.0000000  0.6508444  3
   2100   2098   2107   2108     1  0.0000000  0.6508444  3
   2100   2098   2107   2109     1  0.0000000  0.6508444  3
   2102   2101   2104   2110     1  0.0000000  0.6508444  3
   2102   2101   2104   2105     1  0.0000000  0.6508444  3
   2102   2101   2104   2106     1  0.0000000  0.6508444  3
   2103   2101   2104   2110     1  0.0000000  0.6508444  3
   2103   2101   2104   2105     1  0.0000000  0.6508444  3
   2103   2101   2104   2106     1  0.0000000  0.6508444  3
   2104   2110   4417   4418     1  180.0000771  10.4600000  2
   2105   2104   2110   4417     1  180.0000771  0.0000000  2
   2105   2104   2110   2112     1  0.0000000  3.3472000  1
   2105   2104   2110   2112     1  0.0000000  0.0000000  2
   2105   2104   2110   2112     1  180.0000771  0.3347200  3
   2106   2104   2110   4417     1  180.0000771  0.0000000  2
   2106   2104   2110   2112     1  0.0000000  3.3472000  1
   2106   2104   2110   2112     1  0.0000000  0.0000000  2
   2106   2104   2110   2112     1  180.0000771  0.3347200  3
   2107   2111   4446   4447     1  180.0000771  10.4600000  2
   2108   2107   2111   2113     1  0.0000000  3.3472000  1
   2108   2107   2111   2113     1  0.0000000  0.0000000  2
   2108   2107   2111   2113     1  180.0000771  0.3347200  3
   2108   2107   2111   4446     1  180.0000771  0.0000000  2
   2109   2107   2111   2113     1  0.0000000  3.3472000  1
   2109   2107   2111   2113     1  0.0000000  0.0000000  2
   2109   2107   2111   2113     1  180.0000771  0.3347200  3
   2109   2107   2111   4446     1  180.0000771  0.0000000  2
   2110   4417   4419   4420     1  0.0000000  0.0000000  2
   2110   4417   4419   4422     1  0.0000000  0.0000000  2
   2111   4446   4448   4449     1  0.0000000  0.0000000  2
   2111   4446   4448   4451     1  0.0000000  0.0000000  2
   2112   2110   4417   4418     1  0.0000000  8.3680000  1
   2112   2110   4417   4418     1  180.0000771  10.4600000  2
   2113   2111   4446   4447     1  0.0000000  8.3680000  1
   2113   2111   4446   4447     1  180.0000771  10.4600000  2
   2116   2119   2139   2140     1  0.0000000  0.0000000  2
   2116   2122   2123   2124     1  0.0000000  1.2552000  3
   2116   2122   2123   2125     1  0.0000000  1.2552000  3
   2116   2122   2126   2127     1  0.0000000  1.2552000  3
   2116   2122   2126   2128     1  0.0000000  1.2552000  3
   2117   2116   2119   2139     1  0.0000000  0.6508444  3
   2117   2116   2119   2120     1  0.0000000  0.6508444  3
   2117   2116   2119   2121     1  0.0000000  0.6508444  3
   2117   2116   2122   2123     1  0.0000000  1.2552000  3
   2117   2116   2122   2126     1  0.0000000  1.2552000  3
   2118   2116   2119   2139     1  0.0000000  0.6508444  3
   2118   2116   2119   2120     1  0.0000000  0.6508444  3
   2118   2116   2119   2121     1  0.0000000  0.6508444  3
   2118   2116   2122   2123     1  0.0000000  1.2552000  3
   2118   2116   2122   2126     1  0.0000000  1.2552000  3
   2120   2119   2116   2122     1  0.0000000  0.6508444  3
   2120   2119   2139   2140     1  0.0000000  0.0000000  2
   2121   2119   2116   2122     1  0.0000000  0.6508444  3
   2121   2119   2139   2140     1  0.0000000  0.0000000  2
   2122   2123   2132   2133     1  0.0000000  0.6508444  3
   2122   2123   2132   2134     1  0.0000000  0.6508444  3
   2122   2126   2129   2130     1  0.0000000  0.6508444  3
   2122   2126   2129   2131     1  0.0000000  0.6508444  3
   2123   2122   2126   2127     1  0.0000000  1.2552000  3
   2123   2122   2126   2128     1  0.0000000  1.2552000  3
   2124   2123   2122   2126     1  0.0000000  1.2552000  3
   2124   2123   2132   2136     1  0.0000000  0.6508444  3
   2124   2123   2132   2133     1  0.0000000  0.6508444  3
   2124   2123   2132   2134     1  0.0000000  0.6508444  3
   2125   2123   2122   2126     1  0.0000000  1.2552000  3
   2125   2123   2132   2136     1  0.0000000  0.6508444  3
   2125   2123   2132   2133     1  0.0000000  0.6508444  3
   2125   2123   2132   2134     1  0.0000000  0.6508444  3
   2127   2126   2129   2135     1  0.0000000  0.6508444  3
   2127   2126   2129   2130     1  0.0000000  0.6508444  3
   2127   2126   2129   2131     1  0.0000000  0.6508444  3
   2128   2126   2129   2135     1  0.0000000  0.6508444  3
   2128   2126   2129   2130     1  0.0000000  0.6508444  3
   2128   2126   2129   2131     1  0.0000000  0.6508444  3
   2129   2135   4475   4476     1  180.0000771  10.4600000  2
   2130   2129   2135   4475     1  180.0000771  0.0000000  2
   2130   2129   2135   2137     1  0.0000000  3.3472000  1
   2130   2129   2135   2137     1  0.0000000  0.0000000  2
   2130   2129   2135   2137     1  180.0000771  0.3347200  3
   2131   2129   2135   4475     1  180.0000771  0.0000000  2
   2131   2129   2135   2137     1  0.0000000  3.3472000  1
   2131   2129   2135   2137     1  0.0000000  0.0000000  2
   2131   2129   2135   2137     1  180.0000771  0.3347200  3
   2132   2136   4504   4505     1  180.0000771  10.4600000  2
   2133   2132   2136   2138     1  0.0000000  3.3472000  1
   2133   2132   2136   2138     1  0.0000000  0.0000000  2
   2133   2132   2136   2138     1  180.0000771  0.3347200  3
   2133   2132   2136   4504     1  180.0000771  0.0000000  2
   2134   2132   2136   2138     1  0.0000000  3.3472000  1
   2134   2132   2136   2138     1  0.0000000  0.0000000  2
   2134   2132   2136   2138     1  180.0000771  0.3347200  3
   2134   2132   2136   4504     1  180.0000771  0.0000000  2
   2135   4475   4477   4478     1  0.0000000  0.0000000  2
   2135   4475   4477   4480     1  0.0000000  0.0000000  2
   2136   4504   4506   4507     1  0.0000000  0.0000000  2
   2136   4504   4506   4509     1  0.0000000  0.0000000  2
   2137   2135   4475   4476     1  0.0000000  8.3680000  1
   2137   2135   4475   4476     1  180.0000771  10.4600000  2
   2138   2136   4504   4505     1  0.0000000  8.3680000  1
   2138   2136   4504   4505     1  180.0000771  10.4600000  2
   2141   2144   2164   2165     1  0.0000000  0.0000000  2
   2141   2147   2148   2149     1  0.0000000  1.2552000  3
   2141   2147   2148   2150     1  0.0000000  1.2552000  3
   2141   2147   2151   2152     1  0.0000000  1.2552000  3
   2141   2147   2151   2153     1  0.0000000  1.2552000  3
   2142   2141   2144   2164     1  0.0000000  0.6508444  3
   2142   2141   2144   2145     1  0.0000000  0.6508444  3
   2142   2141   2144   2146     1  0.0000000  0.6508444  3
   2142   2141   2147   2148     1  0.0000000  1.2552000  3
   2142   2141   2147   2151     1  0.0000000  1.2552000  3
   2143   2141   2144   2164     1  0.0000000  0.6508444  3
   2143   2141   2144   2145     1  0.0000000  0.6508444  3
   2143   2141   2144   2146     1  0.0000000  0.6508444  3
   2143   2141   2147   2148     1  0.0000000  1.2552000  3
   2143   2141   2147   2151     1  0.0000000  1.2552000  3
   2145   2144   2141   2147     1  0.0000000  0.6508444  3
   2145   2144   2164   2165     1  0.0000000  0.0000000  2
   2146   2144   2141   2147     1  0.0000000  0.6508444  3
   2146   2144   2164   2165     1  0.0000000  0.0000000  2
   2147   2148   2157   2158     1  0.0000000  0.6508444  3
   2147   2148   2157   2159     1  0.0000000  0.6508444  3
   2147   2151   2154   2155     1  0.0000000  0.6508444  3
   2147   2151   2154   2156     1  0.0000000  0.6508444  3
   2148   2147   2151   2152     1  0.0000000  1.2552000  3
   2148   2147   2151   2153     1  0.0000000  1.2552000  3
   2149   2148   2147   2151     1  0.0000000  1.2552000  3
   2149   2148   2157   2161     1  0.0000000  0.6508444  3
   2149   2148   2157   2158     1  0.0000000  0.6508444  3
   2149   2148   2157   2159     1  0.0000000  0.6508444  3
   2150   2148   2147   2151     1  0.0000000  1.2552000  3
   2150   2148   2157   2161     1  0.0000000  0.6508444  3
   2150   2148   2157   2158     1  0.0000000  0.6508444  3
   2150   2148   2157   2159     1  0.0000000  0.6508444  3
   2152   2151   2154   2160     1  0.0000000  0.6508444  3
   2152   2151   2154   2155     1  0.0000000  0.6508444  3
   2152   2151   2154   2156     1  0.0000000  0.6508444  3
   2153   2151   2154   2160     1  0.0000000  0.6508444  3
   2153   2151   2154   2155     1  0.0000000  0.6508444  3
   2153   2151   2154   2156     1  0.0000000  0.6508444  3
   2154   2160   4533   4534     1  180.0000771  10.4600000  2
   2155   2154   2160   4533     1  180.0000771  0.0000000  2
   2155   2154   2160   2162     1  0.0000000  3.3472000  1
   2155   2154   2160   2162     1  0.0000000  0.0000000  2
   2155   2154   2160   2162     1  180.0000771  0.3347200  3
   2156   2154   2160   4533     1  180.0000771  0.0000000  2
   2156   2154   2160   2162     1  0.0000000  3.3472000  1
   2156   2154   2160   2162     1  0.0000000  0.0000000  2
   2156   2154   2160   2162     1  180.0000771  0.3347200  3
   2157   2161   4562   4563     1  180.0000771  10.4600000  2
   2158   2157   2161   2163     1  0.0000000  3.3472000  1
   2158   2157   2161   2163     1  0.0000000  0.0000000  2
   2158   2157   2161   2163     1  180.0000771  0.3347200  3
   2158   2157   2161   4562     1  180.0000771  0.0000000  2
   2159   2157   2161   2163     1  0.0000000  3.3472000  1
   2159   2157   2161   2163     1  0.0000000  0.0000000  2
   2159   2157   2161   2163     1  180.0000771  0.3347200  3
   2159   2157   2161   4562     1  180.0000771  0.0000000  2
   2160   4533   4535   4536     1  0.0000000  0.0000000  2
   2160   4533   4535   4538     1  0.0000000  0.0000000  2
   2161   4562   4564   4565     1  0.0000000  0.0000000  2
   2161   4562   4564   4567     1  0.0000000  0.0000000  2
   2162   2160   4533   4534     1  0.0000000  8.3680000  1
   2162   2160   4533   4534     1  180.0000771  10.4600000  2
   2163   2161   4562   4563     1  0.0000000  8.3680000  1
   2163   2161   4562   4563     1  180.0000771  10.4600000  2
   2166   2169   2189   2190     1  0.0000000  0.0000000  2
   2166   2172   2173   2174     1  0.0000000  1.2552000  3
   2166   2172   2173   2175     1  0.0000000  1.2552000  3
   2166   2172   2176   2177     1  0.0000000  1.2552000  3
   2166   2172   2176   2178     1  0.0000000  1.2552000  3
   2167   2166   2169   2189     1  0.0000000  0.6508444  3
   2167   2166   2169   2170     1  0.0000000  0.6508444  3
   2167   2166   2169   2171     1  0.0000000  0.6508444  3
   2167   2166   2172   2173     1  0.0000000  1.2552000  3
   2167   2166   2172   2176     1  0.0000000  1.2552000  3
   2168   2166   2169   2189     1  0.0000000  0.6508444  3
   2168   2166   2169   2170     1  0.0000000  0.6508444  3
   2168   2166   2169   2171     1  0.0000000  0.6508444  3
   2168   2166   2172   2173     1  0.0000000  1.2552000  3
   2168   2166   2172   2176     1  0.0000000  1.2552000  3
   2170   2169   2166   2172     1  0.0000000  0.6508444  3
   2170   2169   2189   2190     1  0.0000000  0.0000000  2
   2171   2169   2166   2172     1  0.0000000  0.6508444  3
   2171   2169   2189   2190     1  0.0000000  0.0000000  2
   2172   2173   2182   2183     1  0.0000000  0.6508444  3
   2172   2173   2182   2184     1  0.0000000  0.6508444  3
   2172   2176   2179   2180     1  0.0000000  0.6508444  3
   2172   2176   2179   2181     1  0.0000000  0.6508444  3
   2173   2172   2176   2177     1  0.0000000  1.2552000  3
   2173   2172   2176   2178     1  0.0000000  1.2552000  3
   2174   2173   2172   2176     1  0.0000000  1.2552000  3
   2174   2173   2182   2186     1  0.0000000  0.6508444  3
   2174   2173   2182   2183     1  0.0000000  0.6508444  3
   2174   2173   2182   2184     1  0.0000000  0.6508444  3
   2175   2173   2172   2176     1  0.0000000  1.2552000  3
   2175   2173   2182   2186     1  0.0000000  0.6508444  3
   2175   2173   2182   2183     1  0.0000000  0.6508444  3
   2175   2173   2182   2184     1  0.0000000  0.6508444  3
   2177   2176   2179   2185     1  0.0000000  0.6508444  3
   2177   2176   2179   2180     1  0.0000000  0.6508444  3
   2177   2176   2179   2181     1  0.0000000  0.6508444  3
   2178   2176   2179   2185     1  0.0000000  0.6508444  3
   2178   2176   2179   2180     1  0.0000000  0.6508444  3
   2178   2176   2179   2181     1  0.0000000  0.6508444  3
   2179   2185   4591   4592     1  180.0000771  10.4600000  2
   2180   2179   2185   4591     1  180.0000771  0.0000000  2
   2180   2179   2185   2187     1  0.0000000  3.3472000  1
   2180   2179   2185   2187     1  0.0000000  0.0000000  2
   2180   2179   2185   2187     1  180.0000771  0.3347200  3
   2181   2179   2185   4591     1  180.0000771  0.0000000  2
   2181   2179   2185   2187     1  0.0000000  3.3472000  1
   2181   2179   2185   2187     1  0.0000000  0.0000000  2
   2181   2179   2185   2187     1  180.0000771  0.3347200  3
   2182   2186   4620   4621     1  180.0000771  10.4600000  2
   2183   2182   2186   2188     1  0.0000000  3.3472000  1
   2183   2182   2186   2188     1  0.0000000  0.0000000  2
   2183   2182   2186   2188     1  180.0000771  0.3347200  3
   2183   2182   2186   4620     1  180.0000771  0.0000000  2
   2184   2182   2186   2188     1  0.0000000  3.3472000  1
   2184   2182   2186   2188     1  0.0000000  0.0000000  2
   2184   2182   2186   2188     1  180.0000771  0.3347200  3
   2184   2182   2186   4620     1  180.0000771  0.0000000  2
   2185   4591   4593   4594     1  0.0000000  0.0000000  2
   2185   4591   4593   4596     1  0.0000000  0.0000000  2
   2186   4620   4622   4623     1  0.0000000  0.0000000  2
   2186   4620   4622   4625     1  0.0000000  0.0000000  2
   2187   2185   4591   4592     1  0.0000000  8.3680000  1
   2187   2185   4591   4592     1  180.0000771  10.4600000  2
   2188   2186   4620   4621     1  0.0000000  8.3680000  1
   2188   2186   4620   4621     1  180.0000771  10.4600000  2
   2191   2194   2214   2215     1  0.0000000  0.0000000  2
   2191   2197   2198   2199     1  0.0000000  1.2552000  3
   2191   2197   2198   2200     1  0.0000000  1.2552000  3
   2191   2197   2201   2202     1  0.0000000  1.2552000  3
   2191   2197   2201   2203     1  0.0000000  1.2552000  3
   2192   2191   2194   2214     1  0.0000000  0.6508444  3
   2192   2191   2194   2195     1  0.0000000  0.6508444  3
   2192   2191   2194   2196     1  0.0000000  0.6508444  3
   2192   2191   2197   2198     1  0.0000000  1.2552000  3
   2192   2191   2197   2201     1  0.0000000  1.2552000  3
   2193   2191   2194   2214     1  0.0000000  0.6508444  3
   2193   2191   2194   2195     1  0.0000000  0.6508444  3
   2193   2191   2194   2196     1  0.0000000  0.6508444  3
   2193   2191   2197   2198     1  0.0000000  1.2552000  3
   2193   2191   2197   2201     1  0.0000000  1.2552000  3
   2195   2194   2191   2197     1  0.0000000  0.6508444  3
   2195   2194   2214   2215     1  0.0000000  0.0000000  2
   2196   2194   2191   2197     1  0.0000000  0.6508444  3
   2196   2194   2214   2215     1  0.0000000  0.0000000  2
   2197   2198   2207   2208     1  0.0000000  0.6508444  3
   2197   2198   2207   2209     1  0.0000000  0.6508444  3
   2197   2201   2204   2205     1  0.0000000  0.6508444  3
   2197   2201   2204   2206     1  0.0000000  0.6508444  3
   2198   2197   2201   2202     1  0.0000000  1.2552000  3
   2198   2197   2201   2203     1  0.0000000  1.2552000  3
   2199   2198   2197   2201     1  0.0000000  1.2552000  3
   2199   2198   2207   2211     1  0.0000000  0.6508444  3
   2199   2198   2207   2208     1  0.0000000  0.6508444  3
   2199   2198   2207   2209     1  0.0000000  0.6508444  3
   2200   2198   2197   2201     1  0.0000000  1.2552000  3
   2200   2198   2207   2211     1  0.0000000  0.6508444  3
   2200   2198   2207   2208     1  0.0000000  0.6508444  3
   2200   2198   2207   2209     1  0.0000000  0.6508444  3
   2202   2201   2204   2210     1  0.0000000  0.6508444  3
   2202   2201   2204   2205     1  0.0000000  0.6508444  3
   2202   2201   2204   2206     1  0.0000000  0.6508444  3
   2203   2201   2204   2210     1  0.0000000  0.6508444  3
   2203   2201   2204   2205     1  0.0000000  0.6508444  3
   2203   2201   2204   2206     1  0.0000000  0.6508444  3
   2204   2210   4649   4650     1  180.0000771  10.4600000  2
   2205   2204   2210   4649     1  180.0000771  0.0000000  2
   2205   2204   2210   2212     1  0.0000000  3.3472000  1
   2205   2204   2210   2212     1  0.0000000  0.0000000  2
   2205   2204   2210   2212     1  180.0000771  0.3347200  3
   2206   2204   2210   4649     1  180.0000771  0.0000000  2
   2206   2204   2210   2212     1  0.0000000  3.3472000  1
   2206   2204   2210   2212     1  0.0000000  0.0000000  2
   2206   2204   2210   2212     1  180.0000771  0.3347200  3
   2207   2211   4678   4679     1  180.0000771  10.4600000  2
   2208   2207   2211   2213     1  0.0000000  3.3472000  1
   2208   2207   2211   2213     1  0.0000000  0.0000000  2
   2208   2207   2211   2213     1  180.0000771  0.3347200  3
   2208   2207   2211   4678     1  180.0000771  0.0000000  2
   2209   2207   2211   2213     1  0.0000000  3.3472000  1
   2209   2207   2211   2213     1  0.0000000  0.0000000  2
   2209   2207   2211   2213     1  180.0000771  0.3347200  3
   2209   2207   2211   4678     1  180.0000771  0.0000000  2
   2210   4649   4651   4652     1  0.0000000  0.0000000  2
   2210   4649   4651   4654     1  0.0000000  0.0000000  2
   2211   4678   4680   4681     1  0.0000000  0.0000000  2
   2211   4678   4680   4683     1  0.0000000  0.0000000  2
   2212   2210   4649   4650     1  0.0000000  8.3680000  1
   2212   2210   4649   4650     1  180.0000771  10.4600000  2
   2213   2211   4678   4679     1  0.0000000  8.3680000  1
   2213   2211   4678   4679     1  180.0000771  10.4600000  2
   2216   2219   2239   2240     1  0.0000000  0.0000000  2
   2216   2222   2223   2224     1  0.0000000  1.2552000  3
   2216   2222   2223   2225     1  0.0000000  1.2552000  3
   2216   2222   2226   2227     1  0.0000000  1.2552000  3
   2216   2222   2226   2228     1  0.0000000  1.2552000  3
   2217   2216   2219   2239     1  0.0000000  0.6508444  3
   2217   2216   2219   2220     1  0.0000000  0.6508444  3
   2217   2216   2219   2221     1  0.0000000  0.6508444  3
   2217   2216   2222   2223     1  0.0000000  1.2552000  3
   2217   2216   2222   2226     1  0.0000000  1.2552000  3
   2218   2216   2219   2239     1  0.0000000  0.6508444  3
   2218   2216   2219   2220     1  0.0000000  0.6508444  3
   2218   2216   2219   2221     1  0.0000000  0.6508444  3
   2218   2216   2222   2223     1  0.0000000  1.2552000  3
   2218   2216   2222   2226     1  0.0000000  1.2552000  3
   2220   2219   2216   2222     1  0.0000000  0.6508444  3
   2220   2219   2239   2240     1  0.0000000  0.0000000  2
   2221   2219   2216   2222     1  0.0000000  0.6508444  3
   2221   2219   2239   2240     1  0.0000000  0.0000000  2
   2222   2223   2232   2233     1  0.0000000  0.6508444  3
   2222   2223   2232   2234     1  0.0000000  0.6508444  3
   2222   2226   2229   2230     1  0.0000000  0.6508444  3
   2222   2226   2229   2231     1  0.0000000  0.6508444  3
   2223   2222   2226   2227     1  0.0000000  1.2552000  3
   2223   2222   2226   2228     1  0.0000000  1.2552000  3
   2224   2223   2222   2226     1  0.0000000  1.2552000  3
   2224   2223   2232   2236     1  0.0000000  0.6508444  3
   2224   2223   2232   2233     1  0.0000000  0.6508444  3
   2224   2223   2232   2234     1  0.0000000  0.6508444  3
   2225   2223   2222   2226     1  0.0000000  1.2552000  3
   2225   2223   2232   2236     1  0.0000000  0.6508444  3
   2225   2223   2232   2233     1  0.0000000  0.6508444  3
   2225   2223   2232   2234     1  0.0000000  0.6508444  3
   2227   2226   2229   2235     1  0.0000000  0.6508444  3
   2227   2226   2229   2230     1  0.0000000  0.6508444  3
   2227   2226   2229   2231     1  0.0000000  0.6508444  3
   2228   2226   2229   2235     1  0.0000000  0.6508444  3
   2228   2226   2229   2230     1  0.0000000  0.6508444  3
   2228   2226   2229   2231     1  0.0000000  0.6508444  3
   2229   2235   4707   4708     1  180.0000771  10.4600000  2
   2230   2229   2235   4707     1  180.0000771  0.0000000  2
   2230   2229   2235   2237     1  0.0000000  3.3472000  1
   2230   2229   2235   2237     1  0.0000000  0.0000000  2
   2230   2229   2235   2237     1  180.0000771  0.3347200  3
   2231   2229   2235   4707     1  180.0000771  0.0000000  2
   2231   2229   2235   2237     1  0.0000000  3.3472000  1
   2231   2229   2235   2237     1  0.0000000  0.0000000  2
   2231   2229   2235   2237     1  180.0000771  0.3347200  3
   2232   2236   4736   4737     1  180.0000771  10.4600000  2
   2233   2232   2236   2238     1  0.0000000  3.3472000  1
   2233   2232   2236   2238     1  0.0000000  0.0000000  2
   2233   2232   2236   2238     1  180.0000771  0.3347200  3
   2233   2232   2236   4736     1  180.0000771  0.0000000  2
   2234   2232   2236   2238     1  0.0000000  3.3472000  1
   2234   2232   2236   2238     1  0.0000000  0.0000000  2
   2234   2232   2236   2238     1  180.0000771  0.3347200  3
   2234   2232   2236   4736     1  180.0000771  0.0000000  2
   2235   4707   4709   4710     1  0.0000000  0.0000000  2
   2235   4707   4709   4712     1  0.0000000  0.0000000  2
   2236   4736   4738   4739     1  0.0000000  0.0000000  2
   2236   4736   4738   4741     1  0.0000000  0.0000000  2
   2237   2235   4707   4708     1  0.0000000  8.3680000  1
   2237   2235   4707   4708     1  180.0000771  10.4600000  2
   2238   2236   4736   4737     1  0.0000000  8.3680000  1
   2238   2236   4736   4737     1  180.0000771  10.4600000  2
   2241   2244   2264   2265     1  0.0000000  0.0000000  2
   2241   2247   2248   2249     1  0.0000000  1.2552000  3
   2241   2247   2248   2250     1  0.0000000  1.2552000  3
   2241   2247   2251   2252     1  0.0000000  1.2552000  3
   2241   2247   2251   2253     1  0.0000000  1.2552000  3
   2242   2241   2244   2264     1  0.0000000  0.6508444  3
   2242   2241   2244   2245     1  0.0000000  0.6508444  3
   2242   2241   2244   2246     1  0.0000000  0.6508444  3
   2242   2241   2247   2248     1  0.0000000  1.2552000  3
   2242   2241   2247   2251     1  0.0000000  1.2552000  3
   2243   2241   2244   2264     1  0.0000000  0.6508444  3
   2243   2241   2244   2245     1  0.0000000  0.6508444  3
   2243   2241   2244   2246     1  0.0000000  0.6508444  3
   2243   2241   2247   2248     1  0.0000000  1.2552000  3
   2243   2241   2247   2251     1  0.0000000  1.2552000  3
   2245   2244   2241   2247     1  0.0000000  0.6508444  3
   2245   2244   2264   2265     1  0.0000000  0.0000000  2
   2246   2244   2241   2247     1  0.0000000  0.6508444  3
   2246   2244   2264   2265     1  0.0000000  0.0000000  2
   2247   2248   2257   2258     1  0.0000000  0.6508444  3
   2247   2248   2257   2259     1  0.0000000  0.6508444  3
   2247   2251   2254   2255     1  0.0000000  0.6508444  3
   2247   2251   2254   2256     1  0.0000000  0.6508444  3
   2248   2247   2251   2252     1  0.0000000  1.2552000  3
   2248   2247   2251   2253     1  0.0000000  1.2552000  3
   2249   2248   2247   2251     1  0.0000000  1.2552000  3
   2249   2248   2257   2261     1  0.0000000  0.6508444  3
   2249   2248   2257   2258     1  0.0000000  0.6508444  3
   2249   2248   2257   2259     1  0.0000000  0.6508444  3
   2250   2248   2247   2251     1  0.0000000  1.2552000  3
   2250   2248   2257   2261     1  0.0000000  0.6508444  3
   2250   2248   2257   2258     1  0.0000000  0.6508444  3
   2250   2248   2257   2259     1  0.0000000  0.6508444  3
   2252   2251   2254   2260     1  0.0000000  0.6508444  3
   2252   2251   2254   2255     1  0.0000000  0.6508444  3
   2252   2251   2254   2256     1  0.0000000  0.6508444  3
   2253   2251   2254   2260     1  0.0000000  0.6508444  3
   2253   2251   2254   2255     1  0.0000000  0.6508444  3
   2253   2251   2254   2256     1  0.0000000  0.6508444  3
   2254   2260   4765   4766     1  180.0000771  10.4600000  2
   2255   2254   2260   4765     1  180.0000771  0.0000000  2
   2255   2254   2260   2262     1  0.0000000  3.3472000  1
   2255   2254   2260   2262     1  0.0000000  0.0000000  2
   2255   2254   2260   2262     1  180.0000771  0.3347200  3
   2256   2254   2260   4765     1  180.0000771  0.0000000  2
   2256   2254   2260   2262     1  0.0000000  3.3472000  1
   2256   2254   2260   2262     1  0.0000000  0.0000000  2
   2256   2254   2260   2262     1  180.0000771  0.3347200  3
   2257   2261   4794   4795     1  180.0000771  10.4600000  2
   2258   2257   2261   2263     1  0.0000000  3.3472000  1
   2258   2257   2261   2263     1  0.0000000  0.0000000  2
   2258   2257   2261   2263     1  180.0000771  0.3347200  3
   2258   2257   2261   4794     1  180.0000771  0.0000000  2
   2259   2257   2261   2263     1  0.0000000  3.3472000  1
   2259   2257   2261   2263     1  0.0000000  0.0000000  2
   2259   2257   2261   2263     1  180.0000771  0.3347200  3
   2259   2257   2261   4794     1  180.0000771  0.0000000  2
   2260   4765   4767   4768     1  0.0000000  0.0000000  2
   2260   4765   4767   4770     1  0.0000000  0.0000000  2
   2261   4794   4796   4797     1  0.0000000  0.0000000  2
   2261   4794   4796   4799     1  0.0000000  0.0000000  2
   2262   2260   4765   4766     1  0.0000000  8.3680000  1
   2262   2260   4765   4766     1  180.0000771  10.4600000  2
   2263   2261   4794   4795     1  0.0000000  8.3680000  1
   2263   2261   4794   4795     1  180.0000771  10.4600000  2
   2266   2269   2289   2290     1  0.0000000  0.0000000  2
   2266   2272   2273   2274     1  0.0000000  1.2552000  3
   2266   2272   2273   2275     1  0.0000000  1.2552000  3
   2266   2272   2276   2277     1  0.0000000  1.2552000  3
   2266   2272   2276   2278     1  0.0000000  1.2552000  3
   2267   2266   2269   2289     1  0.0000000  0.6508444  3
   2267   2266   2269   2270     1  0.0000000  0.6508444  3
   2267   2266   2269   2271     1  0.0000000  0.6508444  3
   2267   2266   2272   2273     1  0.0000000  1.2552000  3
   2267   2266   2272   2276     1  0.0000000  1.2552000  3
   2268   2266   2269   2289     1  0.0000000  0.6508444  3
   2268   2266   2269   2270     1  0.0000000  0.6508444  3
   2268   2266   2269   2271     1  0.0000000  0.6508444  3
   2268   2266   2272   2273     1  0.0000000  1.2552000  3
   2268   2266   2272   2276     1  0.0000000  1.2552000  3
   2270   2269   2266   2272     1  0.0000000  0.6508444  3
   2270   2269   2289   2290     1  0.0000000  0.0000000  2
   2271   2269   2266   2272     1  0.0000000  0.6508444  3
   2271   2269   2289   2290     1  0.0000000  0.0000000  2
   2272   2273   2282   2283     1  0.0000000  0.6508444  3
   2272   2273   2282   2284     1  0.0000000  0.6508444  3
   2272   2276   2279   2280     1  0.0000000  0.6508444  3
   2272   2276   2279   2281     1  0.0000000  0.6508444  3
   2273   2272   2276   2277     1  0.0000000  1.2552000  3
   2273   2272   2276   2278     1  0.0000000  1.2552000  3
   2274   2273   2272   2276     1  0.0000000  1.2552000  3
   2274   2273   2282   2286     1  0.0000000  0.6508444  3
   2274   2273   2282   2283     1  0.0000000  0.6508444  3
   2274   2273   2282   2284     1  0.0000000  0.6508444  3
   2275   2273   2272   2276     1  0.0000000  1.2552000  3
   2275   2273   2282   2286     1  0.0000000  0.6508444  3
   2275   2273   2282   2283     1  0.0000000  0.6508444  3
   2275   2273   2282   2284     1  0.0000000  0.6508444  3
   2277   2276   2279   2285     1  0.0000000  0.6508444  3
   2277   2276   2279   2280     1  0.0000000  0.6508444  3
   2277   2276   2279   2281     1  0.0000000  0.6508444  3
   2278   2276   2279   2285     1  0.0000000  0.6508444  3
   2278   2276   2279   2280     1  0.0000000  0.6508444  3
   2278   2276   2279   2281     1  0.0000000  0.6508444  3
   2279   2285   4823   4824     1  180.0000771  10.4600000  2
   2280   2279   2285   4823     1  180.0000771  0.0000000  2
   2280   2279   2285   2287     1  0.0000000  3.3472000  1
   2280   2279   2285   2287     1  0.0000000  0.0000000  2
   2280   2279   2285   2287     1  180.0000771  0.3347200  3
   2281   2279   2285   4823     1  180.0000771  0.0000000  2
   2281   2279   2285   2287     1  0.0000000  3.3472000  1
   2281   2279   2285   2287     1  0.0000000  0.0000000  2
   2281   2279   2285   2287     1  180.0000771  0.3347200  3
   2282   2286   4852   4853     1  180.0000771  10.4600000  2
   2283   2282   2286   2288     1  0.0000000  3.3472000  1
   2283   2282   2286   2288     1  0.0000000  0.0000000  2
   2283   2282   2286   2288     1  180.0000771  0.3347200  3
   2283   2282   2286   4852     1  180.0000771  0.0000000  2
   2284   2282   2286   2288     1  0.0000000  3.3472000  1
   2284   2282   2286   2288     1  0.0000000  0.0000000  2
   2284   2282   2286   2288     1  180.0000771  0.3347200  3
   2284   2282   2286   4852     1  180.0000771  0.0000000  2
   2285   4823   4825   4826     1  0.0000000  0.0000000  2
   2285   4823   4825   4828     1  0.0000000  0.0000000  2
   2286   4852   4854   4855     1  0.0000000  0.0000000  2
   2286   4852   4854   4857     1  0.0000000  0.0000000  2
   2287   2285   4823   4824     1  0.0000000  8.3680000  1
   2287   2285   4823   4824     1  180.0000771  10.4600000  2
   2288   2286   4852   4853     1  0.0000000  8.3680000  1
   2288   2286   4852   4853     1  180.0000771  10.4600000  2
   2291   2294   2314   2315     1  0.0000000  0.0000000  2
   2291   2297   2298   2299     1  0.0000000  1.2552000  3
   2291   2297   2298   2300     1  0.0000000  1.2552000  3
   2291   2297   2301   2302     1  0.0000000  1.2552000  3
   2291   2297   2301   2303     1  0.0000000  1.2552000  3
   2292   2291   2294   2314     1  0.0000000  0.6508444  3
   2292   2291   2294   2295     1  0.0000000  0.6508444  3
   2292   2291   2294   2296     1  0.0000000  0.6508444  3
   2292   2291   2297   2298     1  0.0000000  1.2552000  3
   2292   2291   2297   2301     1  0.0000000  1.2552000  3
   2293   2291   2294   2314     1  0.0000000  0.6508444  3
   2293   2291   2294   2295     1  0.0000000  0.6508444  3
   2293   2291   2294   2296     1  0.0000000  0.6508444  3
   2293   2291   2297   2298     1  0.0000000  1.2552000  3
   2293   2291   2297   2301     1  0.0000000  1.2552000  3
   2295   2294   2291   2297     1  0.0000000  0.6508444  3
   2295   2294   2314   2315     1  0.0000000  0.0000000  2
   2296   2294   2291   2297     1  0.0000000  0.6508444  3
   2296   2294   2314   2315     1  0.0000000  0.0000000  2
   2297   2298   2307   2308     1  0.0000000  0.6508444  3
   2297   2298   2307   2309     1  0.0000000  0.6508444  3
   2297   2301   2304   2305     1  0.0000000  0.6508444  3
   2297   2301   2304   2306     1  0.0000000  0.6508444  3
   2298   2297   2301   2302     1  0.0000000  1.2552000  3
   2298   2297   2301   2303     1  0.0000000  1.2552000  3
   2299   2298   2297   2301     1  0.0000000  1.2552000  3
   2299   2298   2307   2311     1  0.0000000  0.6508444  3
   2299   2298   2307   2308     1  0.0000000  0.6508444  3
   2299   2298   2307   2309     1  0.0000000  0.6508444  3
   2300   2298   2297   2301     1  0.0000000  1.2552000  3
   2300   2298   2307   2311     1  0.0000000  0.6508444  3
   2300   2298   2307   2308     1  0.0000000  0.6508444  3
   2300   2298   2307   2309     1  0.0000000  0.6508444  3
   2302   2301   2304   2310     1  0.0000000  0.6508444  3
   2302   2301   2304   2305     1  0.0000000  0.6508444  3
   2302   2301   2304   2306     1  0.0000000  0.6508444  3
   2303   2301   2304   2310     1  0.0000000  0.6508444  3
   2303   2301   2304   2305     1  0.0000000  0.6508444  3
   2303   2301   2304   2306     1  0.0000000  0.6508444  3
   2304   2310   4881   4882     1  180.0000771  10.4600000  2
   2305   2304   2310   4881     1  180.0000771  0.0000000  2
   2305   2304   2310   2312     1  0.0000000  3.3472000  1
   2305   2304   2310   2312     1  0.0000000  0.0000000  2
   2305   2304   2310   2312     1  180.0000771  0.3347200  3
   2306   2304   2310   4881     1  180.0000771  0.0000000  2
   2306   2304   2310   2312     1  0.0000000  3.3472000  1
   2306   2304   2310   2312     1  0.0000000  0.0000000  2
   2306   2304   2310   2312     1  180.0000771  0.3347200  3
   2307   2311   4910   4911     1  180.0000771  10.4600000  2
   2308   2307   2311   2313     1  0.0000000  3.3472000  1
   2308   2307   2311   2313     1  0.0000000  0.0000000  2
   2308   2307   2311   2313     1  180.0000771  0.3347200  3
   2308   2307   2311   4910     1  180.0000771  0.0000000  2
   2309   2307   2311   2313     1  0.0000000  3.3472000  1
   2309   2307   2311   2313     1  0.0000000  0.0000000  2
   2309   2307   2311   2313     1  180.0000771  0.3347200  3
   2309   2307   2311   4910     1  180.0000771  0.0000000  2
   2310   4881   4883   4884     1  0.0000000  0.0000000  2
   2310   4881   4883   4886     1  0.0000000  0.0000000  2
   2311   4910   4912   4913     1  0.0000000  0.0000000  2
   2311   4910   4912   4915     1  0.0000000  0.0000000  2
   2312   2310   4881   4882     1  0.0000000  8.3680000  1
   2312   2310   4881   4882     1  180.0000771  10.4600000  2
   2313   2311   4910   4911     1  0.0000000  8.3680000  1
   2313   2311   4910   4911     1  180.0000771  10.4600000  2
   2316   2319   2339   2340     1  0.0000000  0.0000000  2
   2316   2322   2323   2324     1  0.0000000  1.2552000  3
   2316   2322   2323   2325     1  0.0000000  1.2552000  3
   2316   2322   2326   2327     1  0.0000000  1.2552000  3
   2316   2322   2326   2328     1  0.0000000  1.2552000  3
   2317   2316   2319   2339     1  0.0000000  0.6508444  3
   2317   2316   2319   2320     1  0.0000000  0.6508444  3
   2317   2316   2319   2321     1  0.0000000  0.6508444  3
   2317   2316   2322   2323     1  0.0000000  1.2552000  3
   2317   2316   2322   2326     1  0.0000000  1.2552000  3
   2318   2316   2319   2339     1  0.0000000  0.6508444  3
   2318   2316   2319   2320     1  0.0000000  0.6508444  3
   2318   2316   2319   2321     1  0.0000000  0.6508444  3
   2318   2316   2322   2323     1  0.0000000  1.2552000  3
   2318   2316   2322   2326     1  0.0000000  1.2552000  3
   2320   2319   2316   2322     1  0.0000000  0.6508444  3
   2320   2319   2339   2340     1  0.0000000  0.0000000  2
   2321   2319   2316   2322     1  0.0000000  0.6508444  3
   2321   2319   2339   2340     1  0.0000000  0.0000000  2
   2322   2323   2332   2333     1  0.0000000  0.6508444  3
   2322   2323   2332   2334     1  0.0000000  0.6508444  3
   2322   2326   2329   2330     1  0.0000000  0.6508444  3
   2322   2326   2329   2331     1  0.0000000  0.6508444  3
   2323   2322   2326   2327     1  0.0000000  1.2552000  3
   2323   2322   2326   2328     1  0.0000000  1.2552000  3
   2324   2323   2322   2326     1  0.0000000  1.2552000  3
   2324   2323   2332   2336     1  0.0000000  0.6508444  3
   2324   2323   2332   2333     1  0.0000000  0.6508444  3
   2324   2323   2332   2334     1  0.0000000  0.6508444  3
   2325   2323   2322   2326     1  0.0000000  1.2552000  3
   2325   2323   2332   2336     1  0.0000000  0.6508444  3
   2325   2323   2332   2333     1  0.0000000  0.6508444  3
   2325   2323   2332   2334     1  0.0000000  0.6508444  3
   2327   2326   2329   2335     1  0.0000000  0.6508444  3
   2327   2326   2329   2330     1  0.0000000  0.6508444  3
   2327   2326   2329   2331     1  0.0000000  0.6508444  3
   2328   2326   2329   2335     1  0.0000000  0.6508444  3
   2328   2326   2329   2330     1  0.0000000  0.6508444  3
   2328   2326   2329   2331     1  0.0000000  0.6508444  3
   2329   2335   4939   4940     1  180.0000771  10.4600000  2
   2330   2329   2335   4939     1  180.0000771  0.0000000  2
   2330   2329   2335   2337     1  0.0000000  3.3472000  1
   2330   2329   2335   2337     1  0.0000000  0.0000000  2
   2330   2329   2335   2337     1  180.0000771  0.3347200  3
   2331   2329   2335   4939     1  180.0000771  0.0000000  2
   2331   2329   2335   2337     1  0.0000000  3.3472000  1
   2331   2329   2335   2337     1  0.0000000  0.0000000  2
   2331   2329   2335   2337     1  180.0000771  0.3347200  3
   2332   2336   4968   4969     1  180.0000771  10.4600000  2
   2333   2332   2336   2338     1  0.0000000  3.3472000  1
   2333   2332   2336   2338     1  0.0000000  0.0000000  2
   2333   2332   2336   2338     1  180.0000771  0.3347200  3
   2333   2332   2336   4968     1  180.0000771  0.0000000  2
   2334   2332   2336   2338     1  0.0000000  3.3472000  1
   2334   2332   2336   2338     1  0.0000000  0.0000000  2
   2334   2332   2336   2338     1  180.0000771  0.3347200  3
   2334   2332   2336   4968     1  180.0000771  0.0000000  2
   2335   4939   4941   4942     1  0.0000000  0.0000000  2
   2335   4939   4941   4944     1  0.0000000  0.0000000  2
   2336   4968   4970   4971     1  0.0000000  0.0000000  2
   2336   4968   4970   4973     1  0.0000000  0.0000000  2
   2337   2335   4939   4940     1  0.0000000  8.3680000  1
   2337   2335   4939   4940     1  180.0000771  10.4600000  2
   2338   2336   4968   4969     1  0.0000000  8.3680000  1
   2338   2336   4968   4969     1  180.0000771  10.4600000  2
   2341   2344   2364   2365     1  0.0000000  0.0000000  2
   2341   2347   2348   2349     1  0.0000000  1.2552000  3
   2341   2347   2348   2350     1  0.0000000  1.2552000  3
   2341   2347   2351   2352     1  0.0000000  1.2552000  3
   2341   2347   2351   2353     1  0.0000000  1.2552000  3
   2342   2341   2344   2364     1  0.0000000  0.6508444  3
   2342   2341   2344   2345     1  0.0000000  0.6508444  3
   2342   2341   2344   2346     1  0.0000000  0.6508444  3
   2342   2341   2347   2348     1  0.0000000  1.2552000  3
   2342   2341   2347   2351     1  0.0000000  1.2552000  3
   2343   2341   2344   2364     1  0.0000000  0.6508444  3
   2343   2341   2344   2345     1  0.0000000  0.6508444  3
   2343   2341   2344   2346     1  0.0000000  0.6508444  3
   2343   2341   2347   2348     1  0.0000000  1.2552000  3
   2343   2341   2347   2351     1  0.0000000  1.2552000  3
   2345   2344   2341   2347     1  0.0000000  0.6508444  3
   2345   2344   2364   2365     1  0.0000000  0.0000000  2
   2346   2344   2341   2347     1  0.0000000  0.6508444  3
   2346   2344   2364   2365     1  0.0000000  0.0000000  2
   2347   2348   2357   2358     1  0.0000000  0.6508444  3
   2347   2348   2357   2359     1  0.0000000  0.6508444  3
   2347   2351   2354   2355     1  0.0000000  0.6508444  3
   2347   2351   2354   2356     1  0.0000000  0.6508444  3
   2348   2347   2351   2352     1  0.0000000  1.2552000  3
   2348   2347   2351   2353     1  0.0000000  1.2552000  3
   2349   2348   2347   2351     1  0.0000000  1.2552000  3
   2349   2348   2357   2361     1  0.0000000  0.6508444  3
   2349   2348   2357   2358     1  0.0000000  0.6508444  3
   2349   2348   2357   2359     1  0.0000000  0.6508444  3
   2350   2348   2347   2351     1  0.0000000  1.2552000  3
   2350   2348   2357   2361     1  0.0000000  0.6508444  3
   2350   2348   2357   2358     1  0.0000000  0.6508444  3
   2350   2348   2357   2359     1  0.0000000  0.6508444  3
   2352   2351   2354   2360     1  0.0000000  0.6508444  3
   2352   2351   2354   2355     1  0.0000000  0.6508444  3
   2352   2351   2354   2356     1  0.0000000  0.6508444  3
   2353   2351   2354   2360     1  0.0000000  0.6508444  3
   2353   2351   2354   2355     1  0.0000000  0.6508444  3
   2353   2351   2354   2356     1  0.0000000  0.6508444  3
   2354   2360   4997   4998     1  180.0000771  10.4600000  2
   2355   2354   2360   4997     1  180.0000771  0.0000000  2
   2355   2354   2360   2362     1  0.0000000  3.3472000  1
   2355   2354   2360   2362     1  0.0000000  0.0000000  2
   2355   2354   2360   2362     1  180.0000771  0.3347200  3
   2356   2354   2360   4997     1  180.0000771  0.0000000  2
   2356   2354   2360   2362     1  0.0000000  3.3472000  1
   2356   2354   2360   2362     1  0.0000000  0.0000000  2
   2356   2354   2360   2362     1  180.0000771  0.3347200  3
   2357   2361   5026   5027     1  180.0000771  10.4600000  2
   2358   2357   2361   2363     1  0.0000000  3.3472000  1
   2358   2357   2361   2363     1  0.0000000  0.0000000  2
   2358   2357   2361   2363     1  180.0000771  0.3347200  3
   2358   2357   2361   5026     1  180.0000771  0.0000000  2
   2359   2357   2361   2363     1  0.0000000  3.3472000  1
   2359   2357   2361   2363     1  0.0000000  0.0000000  2
   2359   2357   2361   2363     1  180.0000771  0.3347200  3
   2359   2357   2361   5026     1  180.0000771  0.0000000  2
   2360   4997   4999   5000     1  0.0000000  0.0000000  2
   2360   4997   4999   5002     1  0.0000000  0.0000000  2
   2361   5026   5028   5029     1  0.0000000  0.0000000  2
   2361   5026   5028   5031     1  0.0000000  0.0000000  2
   2362   2360   4997   4998     1  0.0000000  8.3680000  1
   2362   2360   4997   4998     1  180.0000771  10.4600000  2
   2363   2361   5026   5027     1  0.0000000  8.3680000  1
   2363   2361   5026   5027     1  180.0000771  10.4600000  2
   2366   2369   2389   2390     1  0.0000000  0.0000000  2
   2366   2372   2373   2374     1  0.0000000  1.2552000  3
   2366   2372   2373   2375     1  0.0000000  1.2552000  3
   2366   2372   2376   2377     1  0.0000000  1.2552000  3
   2366   2372   2376   2378     1  0.0000000  1.2552000  3
   2367   2366   2369   2389     1  0.0000000  0.6508444  3
   2367   2366   2369   2370     1  0.0000000  0.6508444  3
   2367   2366   2369   2371     1  0.0000000  0.6508444  3
   2367   2366   2372   2373     1  0.0000000  1.2552000  3
   2367   2366   2372   2376     1  0.0000000  1.2552000  3
   2368   2366   2369   2389     1  0.0000000  0.6508444  3
   2368   2366   2369   2370     1  0.0000000  0.6508444  3
   2368   2366   2369   2371     1  0.0000000  0.6508444  3
   2368   2366   2372   2373     1  0.0000000  1.2552000  3
   2368   2366   2372   2376     1  0.0000000  1.2552000  3
   2370   2369   2366   2372     1  0.0000000  0.6508444  3
   2370   2369   2389   2390     1  0.0000000  0.0000000  2
   2371   2369   2366   2372     1  0.0000000  0.6508444  3
   2371   2369   2389   2390     1  0.0000000  0.0000000  2
   2372   2373   2382   2383     1  0.0000000  0.6508444  3
   2372   2373   2382   2384     1  0.0000000  0.6508444  3
   2372   2376   2379   2380     1  0.0000000  0.6508444  3
   2372   2376   2379   2381     1  0.0000000  0.6508444  3
   2373   2372   2376   2377     1  0.0000000  1.2552000  3
   2373   2372   2376   2378     1  0.0000000  1.2552000  3
   2374   2373   2372   2376     1  0.0000000  1.2552000  3
   2374   2373   2382   2386     1  0.0000000  0.6508444  3
   2374   2373   2382   2383     1  0.0000000  0.6508444  3
   2374   2373   2382   2384     1  0.0000000  0.6508444  3
   2375   2373   2372   2376     1  0.0000000  1.2552000  3
   2375   2373   2382   2386     1  0.0000000  0.6508444  3
   2375   2373   2382   2383     1  0.0000000  0.6508444  3
   2375   2373   2382   2384     1  0.0000000  0.6508444  3
   2377   2376   2379   2385     1  0.0000000  0.6508444  3
   2377   2376   2379   2380     1  0.0000000  0.6508444  3
   2377   2376   2379   2381     1  0.0000000  0.6508444  3
   2378   2376   2379   2385     1  0.0000000  0.6508444  3
   2378   2376   2379   2380     1  0.0000000  0.6508444  3
   2378   2376   2379   2381     1  0.0000000  0.6508444  3
   2379   2385   5055   5056     1  180.0000771  10.4600000  2
   2380   2379   2385   5055     1  180.0000771  0.0000000  2
   2380   2379   2385   2387     1  0.0000000  3.3472000  1
   2380   2379   2385   2387     1  0.0000000  0.0000000  2
   2380   2379   2385   2387     1  180.0000771  0.3347200  3
   2381   2379   2385   5055     1  180.0000771  0.0000000  2
   2381   2379   2385   2387     1  0.0000000  3.3472000  1
   2381   2379   2385   2387     1  0.0000000  0.0000000  2
   2381   2379   2385   2387     1  180.0000771  0.3347200  3
   2382   2386   5084   5085     1  180.0000771  10.4600000  2
   2383   2382   2386   2388     1  0.0000000  3.3472000  1
   2383   2382   2386   2388     1  0.0000000  0.0000000  2
   2383   2382   2386   2388     1  180.0000771  0.3347200  3
   2383   2382   2386   5084     1  180.0000771  0.0000000  2
   2384   2382   2386   2388     1  0.0000000  3.3472000  1
   2384   2382   2386   2388     1  0.0000000  0.0000000  2
   2384   2382   2386   2388     1  180.0000771  0.3347200  3
   2384   2382   2386   5084     1  180.0000771  0.0000000  2
   2385   5055   5057   5058     1  0.0000000  0.0000000  2
   2385   5055   5057   5060     1  0.0000000  0.0000000  2
   2386   5084   5086   5087     1  0.0000000  0.0000000  2
   2386   5084   5086   5089     1  0.0000000  0.0000000  2
   2387   2385   5055   5056     1  0.0000000  8.3680000  1
   2387   2385   5055   5056     1  180.0000771  10.4600000  2
   2388   2386   5084   5085     1  0.0000000  8.3680000  1
   2388   2386   5084   5085     1  180.0000771  10.4600000  2
   2391   2394   2414   2415     1  0.0000000  0.0000000  2
   2391   2397   2398   2399     1  0.0000000  1.2552000  3
   2391   2397   2398   2400     1  0.0000000  1.2552000  3
   2391   2397   2401   2402     1  0.0000000  1.2552000  3
   2391   2397   2401   2403     1  0.0000000  1.2552000  3
   2392   2391   2394   2414     1  0.0000000  0.6508444  3
   2392   2391   2394   2395     1  0.0000000  0.6508444  3
   2392   2391   2394   2396     1  0.0000000  0.6508444  3
   2392   2391   2397   2398     1  0.0000000  1.2552000  3
   2392   2391   2397   2401     1  0.0000000  1.2552000  3
   2393   2391   2394   2414     1  0.0000000  0.6508444  3
   2393   2391   2394   2395     1  0.0000000  0.6508444  3
   2393   2391   2394   2396     1  0.0000000  0.6508444  3
   2393   2391   2397   2398     1  0.0000000  1.2552000  3
   2393   2391   2397   2401     1  0.0000000  1.2552000  3
   2395   2394   2391   2397     1  0.0000000  0.6508444  3
   2395   2394   2414   2415     1  0.0000000  0.0000000  2
   2396   2394   2391   2397     1  0.0000000  0.6508444  3
   2396   2394   2414   2415     1  0.0000000  0.0000000  2
   2397   2398   2407   2408     1  0.0000000  0.6508444  3
   2397   2398   2407   2409     1  0.0000000  0.6508444  3
   2397   2401   2404   2405     1  0.0000000  0.6508444  3
   2397   2401   2404   2406     1  0.0000000  0.6508444  3
   2398   2397   2401   2402     1  0.0000000  1.2552000  3
   2398   2397   2401   2403     1  0.0000000  1.2552000  3
   2399   2398   2397   2401     1  0.0000000  1.2552000  3
   2399   2398   2407   2411     1  0.0000000  0.6508444  3
   2399   2398   2407   2408     1  0.0000000  0.6508444  3
   2399   2398   2407   2409     1  0.0000000  0.6508444  3
   2400   2398   2397   2401     1  0.0000000  1.2552000  3
   2400   2398   2407   2411     1  0.0000000  0.6508444  3
   2400   2398   2407   2408     1  0.0000000  0.6508444  3
   2400   2398   2407   2409     1  0.0000000  0.6508444  3
   2402   2401   2404   2410     1  0.0000000  0.6508444  3
   2402   2401   2404   2405     1  0.0000000  0.6508444  3
   2402   2401   2404   2406     1  0.0000000  0.6508444  3
   2403   2401   2404   2410     1  0.0000000  0.6508444  3
   2403   2401   2404   2405     1  0.0000000  0.6508444  3
   2403   2401   2404   2406     1  0.0000000  0.6508444  3
   2404   2410   5113   5114     1  180.0000771  10.4600000  2
   2405   2404   2410   5113     1  180.0000771  0.0000000  2
   2405   2404   2410   2412     1  0.0000000  3.3472000  1
   2405   2404   2410   2412     1  0.0000000  0.0000000  2
   2405   2404   2410   2412     1  180.0000771  0.3347200  3
   2406   2404   2410   5113     1  180.0000771  0.0000000  2
   2406   2404   2410   2412     1  0.0000000  3.3472000  1
   2406   2404   2410   2412     1  0.0000000  0.0000000  2
   2406   2404   2410   2412     1  180.0000771  0.3347200  3
   2407   2411   5142   5143     1  180.0000771  10.4600000  2
   2408   2407   2411   2413     1  0.0000000  3.3472000  1
   2408   2407   2411   2413     1  0.0000000  0.0000000  2
   2408   2407   2411   2413     1  180.0000771  0.3347200  3
   2408   2407   2411   5142     1  180.0000771  0.0000000  2
   2409   2407   2411   2413     1  0.0000000  3.3472000  1
   2409   2407   2411   2413     1  0.0000000  0.0000000  2
   2409   2407   2411   2413     1  180.0000771  0.3347200  3
   2409   2407   2411   5142     1  180.0000771  0.0000000  2
   2410   5113   5115   5116     1  0.0000000  0.0000000  2
   2410   5113   5115   5118     1  0.0000000  0.0000000  2
   2411   5142   5144   5145     1  0.0000000  0.0000000  2
   2411   5142   5144   5147     1  0.0000000  0.0000000  2
   2412   2410   5113   5114     1  0.0000000  8.3680000  1
   2412   2410   5113   5114     1  180.0000771  10.4600000  2
   2413   2411   5142   5143     1  0.0000000  8.3680000  1
   2413   2411   5142   5143     1  180.0000771  10.4600000  2
   2416   2419   2439   2440     1  0.0000000  0.0000000  2
   2416   2422   2423   2424     1  0.0000000  1.2552000  3
   2416   2422   2423   2425     1  0.0000000  1.2552000  3
   2416   2422   2426   2427     1  0.0000000  1.2552000  3
   2416   2422   2426   2428     1  0.0000000  1.2552000  3
   2417   2416   2419   2439     1  0.0000000  0.6508444  3
   2417   2416   2419   2420     1  0.0000000  0.6508444  3
   2417   2416   2419   2421     1  0.0000000  0.6508444  3
   2417   2416   2422   2423     1  0.0000000  1.2552000  3
   2417   2416   2422   2426     1  0.0000000  1.2552000  3
   2418   2416   2419   2439     1  0.0000000  0.6508444  3
   2418   2416   2419   2420     1  0.0000000  0.6508444  3
   2418   2416   2419   2421     1  0.0000000  0.6508444  3
   2418   2416   2422   2423     1  0.0000000  1.2552000  3
   2418   2416   2422   2426     1  0.0000000  1.2552000  3
   2420   2419   2416   2422     1  0.0000000  0.6508444  3
   2420   2419   2439   2440     1  0.0000000  0.0000000  2
   2421   2419   2416   2422     1  0.0000000  0.6508444  3
   2421   2419   2439   2440     1  0.0000000  0.0000000  2
   2422   2423   2432   2433     1  0.0000000  0.6508444  3
   2422   2423   2432   2434     1  0.0000000  0.6508444  3
   2422   2426   2429   2430     1  0.0000000  0.6508444  3
   2422   2426   2429   2431     1  0.0000000  0.6508444  3
   2423   2422   2426   2427     1  0.0000000  1.2552000  3
   2423   2422   2426   2428     1  0.0000000  1.2552000  3
   2424   2423   2422   2426     1  0.0000000  1.2552000  3
   2424   2423   2432   2436     1  0.0000000  0.6508444  3
   2424   2423   2432   2433     1  0.0000000  0.6508444  3
   2424   2423   2432   2434     1  0.0000000  0.6508444  3
   2425   2423   2422   2426     1  0.0000000  1.2552000  3
   2425   2423   2432   2436     1  0.0000000  0.6508444  3
   2425   2423   2432   2433     1  0.0000000  0.6508444  3
   2425   2423   2432   2434     1  0.0000000  0.6508444  3
   2427   2426   2429   2435     1  0.0000000  0.6508444  3
   2427   2426   2429   2430     1  0.0000000  0.6508444  3
   2427   2426   2429   2431     1  0.0000000  0.6508444  3
   2428   2426   2429   2435     1  0.0000000  0.6508444  3
   2428   2426   2429   2430     1  0.0000000  0.6508444  3
   2428   2426   2429   2431     1  0.0000000  0.6508444  3
   2429   2435   5171   5172     1  180.0000771  10.4600000  2
   2430   2429   2435   5171     1  180.0000771  0.0000000  2
   2430   2429   2435   2437     1  0.0000000  3.3472000  1
   2430   2429   2435   2437     1  0.0000000  0.0000000  2
   2430   2429   2435   2437     1  180.0000771  0.3347200  3
   2431   2429   2435   5171     1  180.0000771  0.0000000  2
   2431   2429   2435   2437     1  0.0000000  3.3472000  1
   2431   2429   2435   2437     1  0.0000000  0.0000000  2
   2431   2429   2435   2437     1  180.0000771  0.3347200  3
   2432   2436   5200   5201     1  180.0000771  10.4600000  2
   2433   2432   2436   2438     1  0.0000000  3.3472000  1
   2433   2432   2436   2438     1  0.0000000  0.0000000  2
   2433   2432   2436   2438     1  180.0000771  0.3347200  3
   2433   2432   2436   5200     1  180.0000771  0.0000000  2
   2434   2432   2436   2438     1  0.0000000  3.3472000  1
   2434   2432   2436   2438     1  0.0000000  0.0000000  2
   2434   2432   2436   2438     1  180.0000771  0.3347200  3
   2434   2432   2436   5200     1  180.0000771  0.0000000  2
   2435   5171   5173   5174     1  0.0000000  0.0000000  2
   2435   5171   5173   5176     1  0.0000000  0.0000000  2
   2436   5200   5202   5203     1  0.0000000  0.0000000  2
   2436   5200   5202   5205     1  0.0000000  0.0000000  2
   2437   2435   5171   5172     1  0.0000000  8.3680000  1
   2437   2435   5171   5172     1  180.0000771  10.4600000  2
   2438   2436   5200   5201     1  0.0000000  8.3680000  1
   2438   2436   5200   5201     1  180.0000771  10.4600000  2
   2441   2444   2464   2465     1  0.0000000  0.0000000  2
   2441   2447   2448   2449     1  0.0000000  1.2552000  3
   2441   2447   2448   2450     1  0.0000000  1.2552000  3
   2441   2447   2451   2452     1  0.0000000  1.2552000  3
   2441   2447   2451   2453     1  0.0000000  1.2552000  3
   2442   2441   2444   2464     1  0.0000000  0.6508444  3
   2442   2441   2444   2445     1  0.0000000  0.6508444  3
   2442   2441   2444   2446     1  0.0000000  0.6508444  3
   2442   2441   2447   2448     1  0.0000000  1.2552000  3
   2442   2441   2447   2451     1  0.0000000  1.2552000  3
   2443   2441   2444   2464     1  0.0000000  0.6508444  3
   2443   2441   2444   2445     1  0.0000000  0.6508444  3
   2443   2441   2444   2446     1  0.0000000  0.6508444  3
   2443   2441   2447   2448     1  0.0000000  1.2552000  3
   2443   2441   2447   2451     1  0.0000000  1.2552000  3
   2445   2444   2441   2447     1  0.0000000  0.6508444  3
   2445   2444   2464   2465     1  0.0000000  0.0000000  2
   2446   2444   2441   2447     1  0.0000000  0.6508444  3
   2446   2444   2464   2465     1  0.0000000  0.0000000  2
   2447   2448   2457   2458     1  0.0000000  0.6508444  3
   2447   2448   2457   2459     1  0.0000000  0.6508444  3
   2447   2451   2454   2455     1  0.0000000  0.6508444  3
   2447   2451   2454   2456     1  0.0000000  0.6508444  3
   2448   2447   2451   2452     1  0.0000000  1.2552000  3
   2448   2447   2451   2453     1  0.0000000  1.2552000  3
   2449   2448   2447   2451     1  0.0000000  1.2552000  3
   2449   2448   2457   2461     1  0.0000000  0.6508444  3
   2449   2448   2457   2458     1  0.0000000  0.6508444  3
   2449   2448   2457   2459     1  0.0000000  0.6508444  3
   2450   2448   2447   2451     1  0.0000000  1.2552000  3
   2450   2448   2457   2461     1  0.0000000  0.6508444  3
   2450   2448   2457   2458     1  0.0000000  0.6508444  3
   2450   2448   2457   2459     1  0.0000000  0.6508444  3
   2452   2451   2454   2460     1  0.0000000  0.6508444  3
   2452   2451   2454   2455     1  0.0000000  0.6508444  3
   2452   2451   2454   2456     1  0.0000000  0.6508444  3
   2453   2451   2454   2460     1  0.0000000  0.6508444  3
   2453   2451   2454   2455     1  0.0000000  0.6508444  3
   2453   2451   2454   2456     1  0.0000000  0.6508444  3
   2454   2460   5229   5230     1  180.0000771  10.4600000  2
   2455   2454   2460   5229     1  180.0000771  0.0000000  2
   2455   2454   2460   2462     1  0.0000000  3.3472000  1
   2455   2454   2460   2462     1  0.0000000  0.0000000  2
   2455   2454   2460   2462     1  180.0000771  0.3347200  3
   2456   2454   2460   5229     1  180.0000771  0.0000000  2
   2456   2454   2460   2462     1  0.0000000  3.3472000  1
   2456   2454   2460   2462     1  0.0000000  0.0000000  2
   2456   2454   2460   2462     1  180.0000771  0.3347200  3
   2457   2461   5258   5259     1  180.0000771  10.4600000  2
   2458   2457   2461   2463     1  0.0000000  3.3472000  1
   2458   2457   2461   2463     1  0.0000000  0.0000000  2
   2458   2457   2461   2463     1  180.0000771  0.3347200  3
   2458   2457   2461   5258     1  180.0000771  0.0000000  2
   2459   2457   2461   2463     1  0.0000000  3.3472000  1
   2459   2457   2461   2463     1  0.0000000  0.0000000  2
   2459   2457   2461   2463     1  180.0000771  0.3347200  3
   2459   2457   2461   5258     1  180.0000771  0.0000000  2
   2460   5229   5231   5232     1  0.0000000  0.0000000  2
   2460   5229   5231   5234     1  0.0000000  0.0000000  2
   2461   5258   5260   5261     1  0.0000000  0.0000000  2
   2461   5258   5260   5263     1  0.0000000  0.0000000  2
   2462   2460   5229   5230     1  0.0000000  8.3680000  1
   2462   2460   5229   5230     1  180.0000771  10.4600000  2
   2463   2461   5258   5259     1  0.0000000  8.3680000  1
   2463   2461   5258   5259     1  180.0000771  10.4600000  2
   2466   2469   2489   2490     1  0.0000000  0.0000000  2
   2466   2472   2473   2474     1  0.0000000  1.2552000  3
   2466   2472   2473   2475     1  0.0000000  1.2552000  3
   2466   2472   2476   2477     1  0.0000000  1.2552000  3
   2466   2472   2476   2478     1  0.0000000  1.2552000  3
   2467   2466   2469   2489     1  0.0000000  0.6508444  3
   2467   2466   2469   2470     1  0.0000000  0.6508444  3
   2467   2466   2469   2471     1  0.0000000  0.6508444  3
   2467   2466   2472   2473     1  0.0000000  1.2552000  3
   2467   2466   2472   2476     1  0.0000000  1.2552000  3
   2468   2466   2469   2489     1  0.0000000  0.6508444  3
   2468   2466   2469   2470     1  0.0000000  0.6508444  3
   2468   2466   2469   2471     1  0.0000000  0.6508444  3
   2468   2466   2472   2473     1  0.0000000  1.2552000  3
   2468   2466   2472   2476     1  0.0000000  1.2552000  3
   2470   2469   2466   2472     1  0.0000000  0.6508444  3
   2470   2469   2489   2490     1  0.0000000  0.0000000  2
   2471   2469   2466   2472     1  0.0000000  0.6508444  3
   2471   2469   2489   2490     1  0.0000000  0.0000000  2
   2472   2473   2482   2483     1  0.0000000  0.6508444  3
   2472   2473   2482   2484     1  0.0000000  0.6508444  3
   2472   2476   2479   2480     1  0.0000000  0.6508444  3
   2472   2476   2479   2481     1  0.0000000  0.6508444  3
   2473   2472   2476   2477     1  0.0000000  1.2552000  3
   2473   2472   2476   2478     1  0.0000000  1.2552000  3
   2474   2473   2472   2476     1  0.0000000  1.2552000  3
   2474   2473   2482   2486     1  0.0000000  0.6508444  3
   2474   2473   2482   2483     1  0.0000000  0.6508444  3
   2474   2473   2482   2484     1  0.0000000  0.6508444  3
   2475   2473   2472   2476     1  0.0000000  1.2552000  3
   2475   2473   2482   2486     1  0.0000000  0.6508444  3
   2475   2473   2482   2483     1  0.0000000  0.6508444  3
   2475   2473   2482   2484     1  0.0000000  0.6508444  3
   2477   2476   2479   2485     1  0.0000000  0.6508444  3
   2477   2476   2479   2480     1  0.0000000  0.6508444  3
   2477   2476   2479   2481     1  0.0000000  0.6508444  3
   2478   2476   2479   2485     1  0.0000000  0.6508444  3
   2478   2476   2479   2480     1  0.0000000  0.6508444  3
   2478   2476   2479   2481     1  0.0000000  0.6508444  3
   2479   2485   5287   5288     1  180.0000771  10.4600000  2
   2480   2479   2485   5287     1  180.0000771  0.0000000  2
   2480   2479   2485   2487     1  0.0000000  3.3472000  1
   2480   2479   2485   2487     1  0.0000000  0.0000000  2
   2480   2479   2485   2487     1  180.0000771  0.3347200  3
   2481   2479   2485   5287     1  180.0000771  0.0000000  2
   2481   2479   2485   2487     1  0.0000000  3.3472000  1
   2481   2479   2485   2487     1  0.0000000  0.0000000  2
   2481   2479   2485   2487     1  180.0000771  0.3347200  3
   2482   2486   5316   5317     1  180.0000771  10.4600000  2
   2483   2482   2486   2488     1  0.0000000  3.3472000  1
   2483   2482   2486   2488     1  0.0000000  0.0000000  2
   2483   2482   2486   2488     1  180.0000771  0.3347200  3
   2483   2482   2486   5316     1  180.0000771  0.0000000  2
   2484   2482   2486   2488     1  0.0000000  3.3472000  1
   2484   2482   2486   2488     1  0.0000000  0.0000000  2
   2484   2482   2486   2488     1  180.0000771  0.3347200  3
   2484   2482   2486   5316     1  180.0000771  0.0000000  2
   2485   5287   5289   5290     1  0.0000000  0.0000000  2
   2485   5287   5289   5292     1  0.0000000  0.0000000  2
   2486   5316   5318   5319     1  0.0000000  0.0000000  2
   2486   5316   5318   5321     1  0.0000000  0.0000000  2
   2487   2485   5287   5288     1  0.0000000  8.3680000  1
   2487   2485   5287   5288     1  180.0000771  10.4600000  2
   2488   2486   5316   5317     1  0.0000000  8.3680000  1
   2488   2486   5316   5317     1  180.0000771  10.4600000  2
   2491   2494   2514   2515     1  0.0000000  0.0000000  2
   2491   2497   2498   2499     1  0.0000000  1.2552000  3
   2491   2497   2498   2500     1  0.0000000  1.2552000  3
   2491   2497   2501   2502     1  0.0000000  1.2552000  3
   2491   2497   2501   2503     1  0.0000000  1.2552000  3
   2492   2491   2494   2514     1  0.0000000  0.6508444  3
   2492   2491   2494   2495     1  0.0000000  0.6508444  3
   2492   2491   2494   2496     1  0.0000000  0.6508444  3
   2492   2491   2497   2498     1  0.0000000  1.2552000  3
   2492   2491   2497   2501     1  0.0000000  1.2552000  3
   2493   2491   2494   2514     1  0.0000000  0.6508444  3
   2493   2491   2494   2495     1  0.0000000  0.6508444  3
   2493   2491   2494   2496     1  0.0000000  0.6508444  3
   2493   2491   2497   2498     1  0.0000000  1.2552000  3
   2493   2491   2497   2501     1  0.0000000  1.2552000  3
   2495   2494   2491   2497     1  0.0000000  0.6508444  3
   2495   2494   2514   2515     1  0.0000000  0.0000000  2
   2496   2494   2491   2497     1  0.0000000  0.6508444  3
   2496   2494   2514   2515     1  0.0000000  0.0000000  2
   2497   2498   2507   2508     1  0.0000000  0.6508444  3
   2497   2498   2507   2509     1  0.0000000  0.6508444  3
   2497   2501   2504   2505     1  0.0000000  0.6508444  3
   2497   2501   2504   2506     1  0.0000000  0.6508444  3
   2498   2497   2501   2502     1  0.0000000  1.2552000  3
   2498   2497   2501   2503     1  0.0000000  1.2552000  3
   2499   2498   2497   2501     1  0.0000000  1.2552000  3
   2499   2498   2507   2511     1  0.0000000  0.6508444  3
   2499   2498   2507   2508     1  0.0000000  0.6508444  3
   2499   2498   2507   2509     1  0.0000000  0.6508444  3
   2500   2498   2497   2501     1  0.0000000  1.2552000  3
   2500   2498   2507   2511     1  0.0000000  0.6508444  3
   2500   2498   2507   2508     1  0.0000000  0.6508444  3
   2500   2498   2507   2509     1  0.0000000  0.6508444  3
   2502   2501   2504   2510     1  0.0000000  0.6508444  3
   2502   2501   2504   2505     1  0.0000000  0.6508444  3
   2502   2501   2504   2506     1  0.0000000  0.6508444  3
   2503   2501   2504   2510     1  0.0000000  0.6508444  3
   2503   2501   2504   2505     1  0.0000000  0.6508444  3
   2503   2501   2504   2506     1  0.0000000  0.6508444  3
   2504   2510   5345   5346     1  180.0000771  10.4600000  2
   2505   2504   2510   5345     1  180.0000771  0.0000000  2
   2505   2504   2510   2512     1  0.0000000  3.3472000  1
   2505   2504   2510   2512     1  0.0000000  0.0000000  2
   2505   2504   2510   2512     1  180.0000771  0.3347200  3
   2506   2504   2510   5345     1  180.0000771  0.0000000  2
   2506   2504   2510   2512     1  0.0000000  3.3472000  1
   2506   2504   2510   2512     1  0.0000000  0.0000000  2
   2506   2504   2510   2512     1  180.0000771  0.3347200  3
   2507   2511   5374   5375     1  180.0000771  10.4600000  2
   2508   2507   2511   2513     1  0.0000000  3.3472000  1
   2508   2507   2511   2513     1  0.0000000  0.0000000  2
   2508   2507   2511   2513     1  180.0000771  0.3347200  3
   2508   2507   2511   5374     1  180.0000771  0.0000000  2
   2509   2507   2511   2513     1  0.0000000  3.3472000  1
   2509   2507   2511   2513     1  0.0000000  0.0000000  2
   2509   2507   2511   2513     1  180.0000771  0.3347200  3
   2509   2507   2511   5374     1  180.0000771  0.0000000  2
   2510   5345   5347   5348     1  0.0000000  0.0000000  2
   2510   5345   5347   5350     1  0.0000000  0.0000000  2
   2511   5374   5376   5377     1  0.0000000  0.0000000  2
   2511   5374   5376   5379     1  0.0000000  0.0000000  2
   2512   2510   5345   5346     1  0.0000000  8.3680000  1
   2512   2510   5345   5346     1  180.0000771  10.4600000  2
   2513   2511   5374   5375     1  0.0000000  8.3680000  1
   2513   2511   5374   5375     1  180.0000771  10.4600000  2
   2516   2519   2539   2540     1  0.0000000  0.0000000  2
   2516   2522   2523   2524     1  0.0000000  1.2552000  3
   2516   2522   2523   2525     1  0.0000000  1.2552000  3
   2516   2522   2526   2527     1  0.0000000  1.2552000  3
   2516   2522   2526   2528     1  0.0000000  1.2552000  3
   2517   2516   2519   2539     1  0.0000000  0.6508444  3
   2517   2516   2519   2520     1  0.0000000  0.6508444  3
   2517   2516   2519   2521     1  0.0000000  0.6508444  3
   2517   2516   2522   2523     1  0.0000000  1.2552000  3
   2517   2516   2522   2526     1  0.0000000  1.2552000  3
   2518   2516   2519   2539     1  0.0000000  0.6508444  3
   2518   2516   2519   2520     1  0.0000000  0.6508444  3
   2518   2516   2519   2521     1  0.0000000  0.6508444  3
   2518   2516   2522   2523     1  0.0000000  1.2552000  3
   2518   2516   2522   2526     1  0.0000000  1.2552000  3
   2520   2519   2516   2522     1  0.0000000  0.6508444  3
   2520   2519   2539   2540     1  0.0000000  0.0000000  2
   2521   2519   2516   2522     1  0.0000000  0.6508444  3
   2521   2519   2539   2540     1  0.0000000  0.0000000  2
   2522   2523   2532   2533     1  0.0000000  0.6508444  3
   2522   2523   2532   2534     1  0.0000000  0.6508444  3
   2522   2526   2529   2530     1  0.0000000  0.6508444  3
   2522   2526   2529   2531     1  0.0000000  0.6508444  3
   2523   2522   2526   2527     1  0.0000000  1.2552000  3
   2523   2522   2526   2528     1  0.0000000  1.2552000  3
   2524   2523   2522   2526     1  0.0000000  1.2552000  3
   2524   2523   2532   2536     1  0.0000000  0.6508444  3
   2524   2523   2532   2533     1  0.0000000  0.6508444  3
   2524   2523   2532   2534     1  0.0000000  0.6508444  3
   2525   2523   2522   2526     1  0.0000000  1.2552000  3
   2525   2523   2532   2536     1  0.0000000  0.6508444  3
   2525   2523   2532   2533     1  0.0000000  0.6508444  3
   2525   2523   2532   2534     1  0.0000000  0.6508444  3
   2527   2526   2529   2535     1  0.0000000  0.6508444  3
   2527   2526   2529   2530     1  0.0000000  0.6508444  3
   2527   2526   2529   2531     1  0.0000000  0.6508444  3
   2528   2526   2529   2535     1  0.0000000  0.6508444  3
   2528   2526   2529   2530     1  0.0000000  0.6508444  3
   2528   2526   2529   2531     1  0.0000000  0.6508444  3
   2529   2535   5403   5404     1  180.0000771  10.4600000  2
   2530   2529   2535   5403     1  180.0000771  0.0000000  2
   2530   2529   2535   2537     1  0.0000000  3.3472000  1
   2530   2529   2535   2537     1  0.0000000  0.0000000  2
   2530   2529   2535   2537     1  180.0000771  0.3347200  3
   2531   2529   2535   5403     1  180.0000771  0.0000000  2
   2531   2529   2535   2537     1  0.0000000  3.3472000  1
   2531   2529   2535   2537     1  0.0000000  0.0000000  2
   2531   2529   2535   2537     1  180.0000771  0.3347200  3
   2532   2536   5432   5433     1  180.0000771  10.4600000  2
   2533   2532   2536   2538     1  0.0000000  3.3472000  1
   2533   2532   2536   2538     1  0.0000000  0.0000000  2
   2533   2532   2536   2538     1  180.0000771  0.3347200  3
   2533   2532   2536   5432     1  180.0000771  0.0000000  2
   2534   2532   2536   2538     1  0.0000000  3.3472000  1
   2534   2532   2536   2538     1  0.0000000  0.0000000  2
   2534   2532   2536   2538     1  180.0000771  0.3347200  3
   2534   2532   2536   5432     1  180.0000771  0.0000000  2
   2535   5403   5405   5406     1  0.0000000  0.0000000  2
   2535   5403   5405   5408     1  0.0000000  0.0000000  2
   2536   5432   5434   5435     1  0.0000000  0.0000000  2
   2536   5432   5434   5437     1  0.0000000  0.0000000  2
   2537   2535   5403   5404     1  0.0000000  8.3680000  1
   2537   2535   5403   5404     1  180.0000771  10.4600000  2
   2538   2536   5432   5433     1  0.0000000  8.3680000  1
   2538   2536   5432   5433     1  180.0000771  10.4600000  2
   2541   2544   2564   2565     1  0.0000000  0.0000000  2
   2541   2547   2548   2549     1  0.0000000  1.2552000  3
   2541   2547   2548   2550     1  0.0000000  1.2552000  3
   2541   2547   2551   2552     1  0.0000000  1.2552000  3
   2541   2547   2551   2553     1  0.0000000  1.2552000  3
   2542   2541   2544   2564     1  0.0000000  0.6508444  3
   2542   2541   2544   2545     1  0.0000000  0.6508444  3
   2542   2541   2544   2546     1  0.0000000  0.6508444  3
   2542   2541   2547   2548     1  0.0000000  1.2552000  3
   2542   2541   2547   2551     1  0.0000000  1.2552000  3
   2543   2541   2544   2564     1  0.0000000  0.6508444  3
   2543   2541   2544   2545     1  0.0000000  0.6508444  3
   2543   2541   2544   2546     1  0.0000000  0.6508444  3
   2543   2541   2547   2548     1  0.0000000  1.2552000  3
   2543   2541   2547   2551     1  0.0000000  1.2552000  3
   2545   2544   2541   2547     1  0.0000000  0.6508444  3
   2545   2544   2564   2565     1  0.0000000  0.0000000  2
   2546   2544   2541   2547     1  0.0000000  0.6508444  3
   2546   2544   2564   2565     1  0.0000000  0.0000000  2
   2547   2548   2557   2558     1  0.0000000  0.6508444  3
   2547   2548   2557   2559     1  0.0000000  0.6508444  3
   2547   2551   2554   2555     1  0.0000000  0.6508444  3
   2547   2551   2554   2556     1  0.0000000  0.6508444  3
   2548   2547   2551   2552     1  0.0000000  1.2552000  3
   2548   2547   2551   2553     1  0.0000000  1.2552000  3
   2549   2548   2547   2551     1  0.0000000  1.2552000  3
   2549   2548   2557   2561     1  0.0000000  0.6508444  3
   2549   2548   2557   2558     1  0.0000000  0.6508444  3
   2549   2548   2557   2559     1  0.0000000  0.6508444  3
   2550   2548   2547   2551     1  0.0000000  1.2552000  3
   2550   2548   2557   2561     1  0.0000000  0.6508444  3
   2550   2548   2557   2558     1  0.0000000  0.6508444  3
   2550   2548   2557   2559     1  0.0000000  0.6508444  3
   2552   2551   2554   2560     1  0.0000000  0.6508444  3
   2552   2551   2554   2555     1  0.0000000  0.6508444  3
   2552   2551   2554   2556     1  0.0000000  0.6508444  3
   2553   2551   2554   2560     1  0.0000000  0.6508444  3
   2553   2551   2554   2555     1  0.0000000  0.6508444  3
   2553   2551   2554   2556     1  0.0000000  0.6508444  3
   2554   2560   5461   5462     1  180.0000771  10.4600000  2
   2555   2554   2560   5461     1  180.0000771  0.0000000  2
   2555   2554   2560   2562     1  0.0000000  3.3472000  1
   2555   2554   2560   2562     1  0.0000000  0.0000000  2
   2555   2554   2560   2562     1  180.0000771  0.3347200  3
   2556   2554   2560   5461     1  180.0000771  0.0000000  2
   2556   2554   2560   2562     1  0.0000000  3.3472000  1
   2556   2554   2560   2562     1  0.0000000  0.0000000  2
   2556   2554   2560   2562     1  180.0000771  0.3347200  3
   2557   2561   5490   5491     1  180.0000771  10.4600000  2
   2558   2557   2561   2563     1  0.0000000  3.3472000  1
   2558   2557   2561   2563     1  0.0000000  0.0000000  2
   2558   2557   2561   2563     1  180.0000771  0.3347200  3
   2558   2557   2561   5490     1  180.0000771  0.0000000  2
   2559   2557   2561   2563     1  0.0000000  3.3472000  1
   2559   2557   2561   2563     1  0.0000000  0.0000000  2
   2559   2557   2561   2563     1  180.0000771  0.3347200  3
   2559   2557   2561   5490     1  180.0000771  0.0000000  2
   2560   5461   5463   5464     1  0.0000000  0.0000000  2
   2560   5461   5463   5466     1  0.0000000  0.0000000  2
   2561   5490   5492   5493     1  0.0000000  0.0000000  2
   2561   5490   5492   5495     1  0.0000000  0.0000000  2
   2562   2560   5461   5462     1  0.0000000  8.3680000  1
   2562   2560   5461   5462     1  180.0000771  10.4600000  2
   2563   2561   5490   5491     1  0.0000000  8.3680000  1
   2563   2561   5490   5491     1  180.0000771  10.4600000  2
   2566   2569   2589   2590     1  0.0000000  0.0000000  2
   2566   2572   2573   2574     1  0.0000000  1.2552000  3
   2566   2572   2573   2575     1  0.0000000  1.2552000  3
   2566   2572   2576   2577     1  0.0000000  1.2552000  3
   2566   2572   2576   2578     1  0.0000000  1.2552000  3
   2567   2566   2569   2589     1  0.0000000  0.6508444  3
   2567   2566   2569   2570     1  0.0000000  0.6508444  3
   2567   2566   2569   2571     1  0.0000000  0.6508444  3
   2567   2566   2572   2573     1  0.0000000  1.2552000  3
   2567   2566   2572   2576     1  0.0000000  1.2552000  3
   2568   2566   2569   2589     1  0.0000000  0.6508444  3
   2568   2566   2569   2570     1  0.0000000  0.6508444  3
   2568   2566   2569   2571     1  0.0000000  0.6508444  3
   2568   2566   2572   2573     1  0.0000000  1.2552000  3
   2568   2566   2572   2576     1  0.0000000  1.2552000  3
   2570   2569   2566   2572     1  0.0000000  0.6508444  3
   2570   2569   2589   2590     1  0.0000000  0.0000000  2
   2571   2569   2566   2572     1  0.0000000  0.6508444  3
   2571   2569   2589   2590     1  0.0000000  0.0000000  2
   2572   2573   2582   2583     1  0.0000000  0.6508444  3
   2572   2573   2582   2584     1  0.0000000  0.6508444  3
   2572   2576   2579   2580     1  0.0000000  0.6508444  3
   2572   2576   2579   2581     1  0.0000000  0.6508444  3
   2573   2572   2576   2577     1  0.0000000  1.2552000  3
   2573   2572   2576   2578     1  0.0000000  1.2552000  3
   2574   2573   2572   2576     1  0.0000000  1.2552000  3
   2574   2573   2582   2586     1  0.0000000  0.6508444  3
   2574   2573   2582   2583     1  0.0000000  0.6508444  3
   2574   2573   2582   2584     1  0.0000000  0.6508444  3
   2575   2573   2572   2576     1  0.0000000  1.2552000  3
   2575   2573   2582   2586     1  0.0000000  0.6508444  3
   2575   2573   2582   2583     1  0.0000000  0.6508444  3
   2575   2573   2582   2584     1  0.0000000  0.6508444  3
   2577   2576   2579   2585     1  0.0000000  0.6508444  3
   2577   2576   2579   2580     1  0.0000000  0.6508444  3
   2577   2576   2579   2581     1  0.0000000  0.6508444  3
   2578   2576   2579   2585     1  0.0000000  0.6508444  3
   2578   2576   2579   2580     1  0.0000000  0.6508444  3
   2578   2576   2579   2581     1  0.0000000  0.6508444  3
   2579   2585   5519   5520     1  180.0000771  10.4600000  2
   2580   2579   2585   5519     1  180.0000771  0.0000000  2
   2580   2579   2585   2587     1  0.0000000  3.3472000  1
   2580   2579   2585   2587     1  0.0000000  0.0000000  2
   2580   2579   2585   2587     1  180.0000771  0.3347200  3
   2581   2579   2585   5519     1  180.0000771  0.0000000  2
   2581   2579   2585   2587     1  0.0000000  3.3472000  1
   2581   2579   2585   2587     1  0.0000000  0.0000000  2
   2581   2579   2585   2587     1  180.0000771  0.3347200  3
   2582   2586   5548   5549     1  180.0000771  10.4600000  2
   2583   2582   2586   2588     1  0.0000000  3.3472000  1
   2583   2582   2586   2588     1  0.0000000  0.0000000  2
   2583   2582   2586   2588     1  180.0000771  0.3347200  3
   2583   2582   2586   5548     1  180.0000771  0.0000000  2
   2584   2582   2586   2588     1  0.0000000  3.3472000  1
   2584   2582   2586   2588     1  0.0000000  0.0000000  2
   2584   2582   2586   2588     1  180.0000771  0.3347200  3
   2584   2582   2586   5548     1  180.0000771  0.0000000  2
   2585   5519   5521   5522     1  0.0000000  0.0000000  2
   2585   5519   5521   5524     1  0.0000000  0.0000000  2
   2586   5548   5550   5551     1  0.0000000  0.0000000  2
   2586   5548   5550   5553     1  0.0000000  0.0000000  2
   2587   2585   5519   5520     1  0.0000000  8.3680000  1
   2587   2585   5519   5520     1  180.0000771  10.4600000  2
   2588   2586   5548   5549     1  0.0000000  8.3680000  1
   2588   2586   5548   5549     1  180.0000771  10.4600000  2
   2591   2594   2614   2615     1  0.0000000  0.0000000  2
   2591   2597   2598   2599     1  0.0000000  1.2552000  3
   2591   2597   2598   2600     1  0.0000000  1.2552000  3
   2591   2597   2601   2602     1  0.0000000  1.2552000  3
   2591   2597   2601   2603     1  0.0000000  1.2552000  3
   2592   2591   2594   2614     1  0.0000000  0.6508444  3
   2592   2591   2594   2595     1  0.0000000  0.6508444  3
   2592   2591   2594   2596     1  0.0000000  0.6508444  3
   2592   2591   2597   2598     1  0.0000000  1.2552000  3
   2592   2591   2597   2601     1  0.0000000  1.2552000  3
   2593   2591   2594   2614     1  0.0000000  0.6508444  3
   2593   2591   2594   2595     1  0.0000000  0.6508444  3
   2593   2591   2594   2596     1  0.0000000  0.6508444  3
   2593   2591   2597   2598     1  0.0000000  1.2552000  3
   2593   2591   2597   2601     1  0.0000000  1.2552000  3
   2595   2594   2591   2597     1  0.0000000  0.6508444  3
   2595   2594   2614   2615     1  0.0000000  0.0000000  2
   2596   2594   2591   2597     1  0.0000000  0.6508444  3
   2596   2594   2614   2615     1  0.0000000  0.0000000  2
   2597   2598   2607   2608     1  0.0000000  0.6508444  3
   2597   2598   2607   2609     1  0.0000000  0.6508444  3
   2597   2601   2604   2605     1  0.0000000  0.6508444  3
   2597   2601   2604   2606     1  0.0000000  0.6508444  3
   2598   2597   2601   2602     1  0.0000000  1.2552000  3
   2598   2597   2601   2603     1  0.0000000  1.2552000  3
   2599   2598   2597   2601     1  0.0000000  1.2552000  3
   2599   2598   2607   2611     1  0.0000000  0.6508444  3
   2599   2598   2607   2608     1  0.0000000  0.6508444  3
   2599   2598   2607   2609     1  0.0000000  0.6508444  3
   2600   2598   2597   2601     1  0.0000000  1.2552000  3
   2600   2598   2607   2611     1  0.0000000  0.6508444  3
   2600   2598   2607   2608     1  0.0000000  0.6508444  3
   2600   2598   2607   2609     1  0.0000000  0.6508444  3
   2602   2601   2604   2610     1  0.0000000  0.6508444  3
   2602   2601   2604   2605     1  0.0000000  0.6508444  3
   2602   2601   2604   2606     1  0.0000000  0.6508444  3
   2603   2601   2604   2610     1  0.0000000  0.6508444  3
   2603   2601   2604   2605     1  0.0000000  0.6508444  3
   2603   2601   2604   2606     1  0.0000000  0.6508444  3
   2604   2610   5577   5578     1  180.0000771  10.4600000  2
   2605   2604   2610   5577     1  180.0000771  0.0000000  2
   2605   2604   2610   2612     1  0.0000000  3.3472000  1
   2605   2604   2610   2612     1  0.0000000  0.0000000  2
   2605   2604   2610   2612     1  180.0000771  0.3347200  3
   2606   2604   2610   5577     1  180.0000771  0.0000000  2
   2606   2604   2610   2612     1  0.0000000  3.3472000  1
   2606   2604   2610   2612     1  0.0000000  0.0000000  2
   2606   2604   2610   2612     1  180.0000771  0.3347200  3
   2607   2611   5606   5607     1  180.0000771  10.4600000  2
   2608   2607   2611   2613     1  0.0000000  3.3472000  1
   2608   2607   2611   2613     1  0.0000000  0.0000000  2
   2608   2607   2611   2613     1  180.0000771  0.3347200  3
   2608   2607   2611   5606     1  180.0000771  0.0000000  2
   2609   2607   2611   2613     1  0.0000000  3.3472000  1
   2609   2607   2611   2613     1  0.0000000  0.0000000  2
   2609   2607   2611   2613     1  180.0000771  0.3347200  3
   2609   2607   2611   5606     1  180.0000771  0.0000000  2
   2610   5577   5579   5580     1  0.0000000  0.0000000  2
   2610   5577   5579   5582     1  0.0000000  0.0000000  2
   2611   5606   5608   5609     1  0.0000000  0.0000000  2
   2611   5606   5608   5611     1  0.0000000  0.0000000  2
   2612   2610   5577   5578     1  0.0000000  8.3680000  1
   2612   2610   5577   5578     1  180.0000771  10.4600000  2
   2613   2611   5606   5607     1  0.0000000  8.3680000  1
   2613   2611   5606   5607     1  180.0000771  10.4600000  2
   2616   2619   2639   2640     1  0.0000000  0.0000000  2
   2616   2622   2623   2624     1  0.0000000  1.2552000  3
   2616   2622   2623   2625     1  0.0000000  1.2552000  3
   2616   2622   2626   2627     1  0.0000000  1.2552000  3
   2616   2622   2626   2628     1  0.0000000  1.2552000  3
   2617   2616   2619   2639     1  0.0000000  0.6508444  3
   2617   2616   2619   2620     1  0.0000000  0.6508444  3
   2617   2616   2619   2621     1  0.0000000  0.6508444  3
   2617   2616   2622   2623     1  0.0000000  1.2552000  3
   2617   2616   2622   2626     1  0.0000000  1.2552000  3
   2618   2616   2619   2639     1  0.0000000  0.6508444  3
   2618   2616   2619   2620     1  0.0000000  0.6508444  3
   2618   2616   2619   2621     1  0.0000000  0.6508444  3
   2618   2616   2622   2623     1  0.0000000  1.2552000  3
   2618   2616   2622   2626     1  0.0000000  1.2552000  3
   2620   2619   2616   2622     1  0.0000000  0.6508444  3
   2620   2619   2639   2640     1  0.0000000  0.0000000  2
   2621   2619   2616   2622     1  0.0000000  0.6508444  3
   2621   2619   2639   2640     1  0.0000000  0.0000000  2
   2622   2623   2632   2633     1  0.0000000  0.6508444  3
   2622   2623   2632   2634     1  0.0000000  0.6508444  3
   2622   2626   2629   2630     1  0.0000000  0.6508444  3
   2622   2626   2629   2631     1  0.0000000  0.6508444  3
   2623   2622   2626   2627     1  0.0000000  1.2552000  3
   2623   2622   2626   2628     1  0.0000000  1.2552000  3
   2624   2623   2622   2626     1  0.0000000  1.2552000  3
   2624   2623   2632   2636     1  0.0000000  0.6508444  3
   2624   2623   2632   2633     1  0.0000000  0.6508444  3
   2624   2623   2632   2634     1  0.0000000  0.6508444  3
   2625   2623   2622   2626     1  0.0000000  1.2552000  3
   2625   2623   2632   2636     1  0.0000000  0.6508444  3
   2625   2623   2632   2633     1  0.0000000  0.6508444  3
   2625   2623   2632   2634     1  0.0000000  0.6508444  3
   2627   2626   2629   2635     1  0.0000000  0.6508444  3
   2627   2626   2629   2630     1  0.0000000  0.6508444  3
   2627   2626   2629   2631     1  0.0000000  0.6508444  3
   2628   2626   2629   2635     1  0.0000000  0.6508444  3
   2628   2626   2629   2630     1  0.0000000  0.6508444  3
   2628   2626   2629   2631     1  0.0000000  0.6508444  3
   2629   2635   5635   5636     1  180.0000771  10.4600000  2
   2630   2629   2635   5635     1  180.0000771  0.0000000  2
   2630   2629   2635   2637     1  0.0000000  3.3472000  1
   2630   2629   2635   2637     1  0.0000000  0.0000000  2
   2630   2629   2635   2637     1  180.0000771  0.3347200  3
   2631   2629   2635   5635     1  180.0000771  0.0000000  2
   2631   2629   2635   2637     1  0.0000000  3.3472000  1
   2631   2629   2635   2637     1  0.0000000  0.0000000  2
   2631   2629   2635   2637     1  180.0000771  0.3347200  3
   2632   2636   5664   5665     1  180.0000771  10.4600000  2
   2633   2632   2636   2638     1  0.0000000  3.3472000  1
   2633   2632   2636   2638     1  0.0000000  0.0000000  2
   2633   2632   2636   2638     1  180.0000771  0.3347200  3
   2633   2632   2636   5664     1  180.0000771  0.0000000  2
   2634   2632   2636   2638     1  0.0000000  3.3472000  1
   2634   2632   2636   2638     1  0.0000000  0.0000000  2
   2634   2632   2636   2638     1  180.0000771  0.3347200  3
   2634   2632   2636   5664     1  180.0000771  0.0000000  2
   2635   5635   5637   5638     1  0.0000000  0.0000000  2
   2635   5635   5637   5640     1  0.0000000  0.0000000  2
   2636   5664   5666   5667     1  0.0000000  0.0000000  2
   2636   5664   5666   5669     1  0.0000000  0.0000000  2
   2637   2635   5635   5636     1  0.0000000  8.3680000  1
   2637   2635   5635   5636     1  180.0000771  10.4600000  2
   2638   2636   5664   5665     1  0.0000000  8.3680000  1
   2638   2636   5664   5665     1  180.0000771  10.4600000  2
   2641   2644   2664   2665     1  0.0000000  0.0000000  2
   2641   2647   2648   2649     1  0.0000000  1.2552000  3
   2641   2647   2648   2650     1  0.0000000  1.2552000  3
   2641   2647   2651   2652     1  0.0000000  1.2552000  3
   2641   2647   2651   2653     1  0.0000000  1.2552000  3
   2642   2641   2644   2664     1  0.0000000  0.6508444  3
   2642   2641   2644   2645     1  0.0000000  0.6508444  3
   2642   2641   2644   2646     1  0.0000000  0.6508444  3
   2642   2641   2647   2648     1  0.0000000  1.2552000  3
   2642   2641   2647   2651     1  0.0000000  1.2552000  3
   2643   2641   2644   2664     1  0.0000000  0.6508444  3
   2643   2641   2644   2645     1  0.0000000  0.6508444  3
   2643   2641   2644   2646     1  0.0000000  0.6508444  3
   2643   2641   2647   2648     1  0.0000000  1.2552000  3
   2643   2641   2647   2651     1  0.0000000  1.2552000  3
   2645   2644   2641   2647     1  0.0000000  0.6508444  3
   2645   2644   2664   2665     1  0.0000000  0.0000000  2
   2646   2644   2641   2647     1  0.0000000  0.6508444  3
   2646   2644   2664   2665     1  0.0000000  0.0000000  2
   2647   2648   2657   2658     1  0.0000000  0.6508444  3
   2647   2648   2657   2659     1  0.0000000  0.6508444  3
   2647   2651   2654   2655     1  0.0000000  0.6508444  3
   2647   2651   2654   2656     1  0.0000000  0.6508444  3
   2648   2647   2651   2652     1  0.0000000  1.2552000  3
   2648   2647   2651   2653     1  0.0000000  1.2552000  3
   2649   2648   2647   2651     1  0.0000000  1.2552000  3
   2649   2648   2657   2661     1  0.0000000  0.6508444  3
   2649   2648   2657   2658     1  0.0000000  0.6508444  3
   2649   2648   2657   2659     1  0.0000000  0.6508444  3
   2650   2648   2647   2651     1  0.0000000  1.2552000  3
   2650   2648   2657   2661     1  0.0000000  0.6508444  3
   2650   2648   2657   2658     1  0.0000000  0.6508444  3
   2650   2648   2657   2659     1  0.0000000  0.6508444  3
   2652   2651   2654   2660     1  0.0000000  0.6508444  3
   2652   2651   2654   2655     1  0.0000000  0.6508444  3
   2652   2651   2654   2656     1  0.0000000  0.6508444  3
   2653   2651   2654   2660     1  0.0000000  0.6508444  3
   2653   2651   2654   2655     1  0.0000000  0.6508444  3
   2653   2651   2654   2656     1  0.0000000  0.6508444  3
   2654   2660   5693   5694     1  180.0000771  10.4600000  2
   2655   2654   2660   5693     1  180.0000771  0.0000000  2
   2655   2654   2660   2662     1  0.0000000  3.3472000  1
   2655   2654   2660   2662     1  0.0000000  0.0000000  2
   2655   2654   2660   2662     1  180.0000771  0.3347200  3
   2656   2654   2660   5693     1  180.0000771  0.0000000  2
   2656   2654   2660   2662     1  0.0000000  3.3472000  1
   2656   2654   2660   2662     1  0.0000000  0.0000000  2
   2656   2654   2660   2662     1  180.0000771  0.3347200  3
   2657   2661   5722   5723     1  180.0000771  10.4600000  2
   2658   2657   2661   2663     1  0.0000000  3.3472000  1
   2658   2657   2661   2663     1  0.0000000  0.0000000  2
   2658   2657   2661   2663     1  180.0000771  0.3347200  3
   2658   2657   2661   5722     1  180.0000771  0.0000000  2
   2659   2657   2661   2663     1  0.0000000  3.3472000  1
   2659   2657   2661   2663     1  0.0000000  0.0000000  2
   2659   2657   2661   2663     1  180.0000771  0.3347200  3
   2659   2657   2661   5722     1  180.0000771  0.0000000  2
   2660   5693   5695   5696     1  0.0000000  0.0000000  2
   2660   5693   5695   5698     1  0.0000000  0.0000000  2
   2661   5722   5724   5725     1  0.0000000  0.0000000  2
   2661   5722   5724   5727     1  0.0000000  0.0000000  2
   2662   2660   5693   5694     1  0.0000000  8.3680000  1
   2662   2660   5693   5694     1  180.0000771  10.4600000  2
   2663   2661   5722   5723     1  0.0000000  8.3680000  1
   2663   2661   5722   5723     1  180.0000771  10.4600000  2
   2666   2669   2689   2690     1  0.0000000  0.0000000  2
   2666   2672   2673   2674     1  0.0000000  1.2552000  3
   2666   2672   2673   2675     1  0.0000000  1.2552000  3
   2666   2672   2676   2677     1  0.0000000  1.2552000  3
   2666   2672   2676   2678     1  0.0000000  1.2552000  3
   2667   2666   2669   2689     1  0.0000000  0.6508444  3
   2667   2666   2669   2670     1  0.0000000  0.6508444  3
   2667   2666   2669   2671     1  0.0000000  0.6508444  3
   2667   2666   2672   2673     1  0.0000000  1.2552000  3
   2667   2666   2672   2676     1  0.0000000  1.2552000  3
   2668   2666   2669   2689     1  0.0000000  0.6508444  3
   2668   2666   2669   2670     1  0.0000000  0.6508444  3
   2668   2666   2669   2671     1  0.0000000  0.6508444  3
   2668   2666   2672   2673     1  0.0000000  1.2552000  3
   2668   2666   2672   2676     1  0.0000000  1.2552000  3
   2670   2669   2666   2672     1  0.0000000  0.6508444  3
   2670   2669   2689   2690     1  0.0000000  0.0000000  2
   2671   2669   2666   2672     1  0.0000000  0.6508444  3
   2671   2669   2689   2690     1  0.0000000  0.0000000  2
   2672   2673   2682   2683     1  0.0000000  0.6508444  3
   2672   2673   2682   2684     1  0.0000000  0.6508444  3
   2672   2676   2679   2680     1  0.0000000  0.6508444  3
   2672   2676   2679   2681     1  0.0000000  0.6508444  3
   2673   2672   2676   2677     1  0.0000000  1.2552000  3
   2673   2672   2676   2678     1  0.0000000  1.2552000  3
   2674   2673   2672   2676     1  0.0000000  1.2552000  3
   2674   2673   2682   2686     1  0.0000000  0.6508444  3
   2674   2673   2682   2683     1  0.0000000  0.6508444  3
   2674   2673   2682   2684     1  0.0000000  0.6508444  3
   2675   2673   2672   2676     1  0.0000000  1.2552000  3
   2675   2673   2682   2686     1  0.0000000  0.6508444  3
   2675   2673   2682   2683     1  0.0000000  0.6508444  3
   2675   2673   2682   2684     1  0.0000000  0.6508444  3
   2677   2676   2679   2685     1  0.0000000  0.6508444  3
   2677   2676   2679   2680     1  0.0000000  0.6508444  3
   2677   2676   2679   2681     1  0.0000000  0.6508444  3
   2678   2676   2679   2685     1  0.0000000  0.6508444  3
   2678   2676   2679   2680     1  0.0000000  0.6508444  3
   2678   2676   2679   2681     1  0.0000000  0.6508444  3
   2679   2685   5751   5752     1  180.0000771  10.4600000  2
   2680   2679   2685   5751     1  180.0000771  0.0000000  2
   2680   2679   2685   2687     1  0.0000000  3.3472000  1
   2680   2679   2685   2687     1  0.0000000  0.0000000  2
   2680   2679   2685   2687     1  180.0000771  0.3347200  3
   2681   2679   2685   5751     1  180.0000771  0.0000000  2
   2681   2679   2685   2687     1  0.0000000  3.3472000  1
   2681   2679   2685   2687     1  0.0000000  0.0000000  2
   2681   2679   2685   2687     1  180.0000771  0.3347200  3
   2682   2686   5780   5781     1  180.0000771  10.4600000  2
   2683   2682   2686   2688     1  0.0000000  3.3472000  1
   2683   2682   2686   2688     1  0.0000000  0.0000000  2
   2683   2682   2686   2688     1  180.0000771  0.3347200  3
   2683   2682   2686   5780     1  180.0000771  0.0000000  2
   2684   2682   2686   2688     1  0.0000000  3.3472000  1
   2684   2682   2686   2688     1  0.0000000  0.0000000  2
   2684   2682   2686   2688     1  180.0000771  0.3347200  3
   2684   2682   2686   5780     1  180.0000771  0.0000000  2
   2685   5751   5753   5754     1  0.0000000  0.0000000  2
   2685   5751   5753   5756     1  0.0000000  0.0000000  2
   2686   5780   5782   5783     1  0.0000000  0.0000000  2
   2686   5780   5782   5785     1  0.0000000  0.0000000  2
   2687   2685   5751   5752     1  0.0000000  8.3680000  1
   2687   2685   5751   5752     1  180.0000771  10.4600000  2
   2688   2686   5780   5781     1  0.0000000  8.3680000  1
   2688   2686   5780   5781     1  180.0000771  10.4600000  2
   2691   2694   2714   2715     1  0.0000000  0.0000000  2
   2691   2697   2698   2699     1  0.0000000  1.2552000  3
   2691   2697   2698   2700     1  0.0000000  1.2552000  3
   2691   2697   2701   2702     1  0.0000000  1.2552000  3
   2691   2697   2701   2703     1  0.0000000  1.2552000  3
   2692   2691   2694   2714     1  0.0000000  0.6508444  3
   2692   2691   2694   2695     1  0.0000000  0.6508444  3
   2692   2691   2694   2696     1  0.0000000  0.6508444  3
   2692   2691   2697   2698     1  0.0000000  1.2552000  3
   2692   2691   2697   2701     1  0.0000000  1.2552000  3
   2693   2691   2694   2714     1  0.0000000  0.6508444  3
   2693   2691   2694   2695     1  0.0000000  0.6508444  3
   2693   2691   2694   2696     1  0.0000000  0.6508444  3
   2693   2691   2697   2698     1  0.0000000  1.2552000  3
   2693   2691   2697   2701     1  0.0000000  1.2552000  3
   2695   2694   2691   2697     1  0.0000000  0.6508444  3
   2695   2694   2714   2715     1  0.0000000  0.0000000  2
   2696   2694   2691   2697     1  0.0000000  0.6508444  3
   2696   2694   2714   2715     1  0.0000000  0.0000000  2
   2697   2698   2707   2708     1  0.0000000  0.6508444  3
   2697   2698   2707   2709     1  0.0000000  0.6508444  3
   2697   2701   2704   2705     1  0.0000000  0.6508444  3
   2697   2701   2704   2706     1  0.0000000  0.6508444  3
   2698   2697   2701   2702     1  0.0000000  1.2552000  3
   2698   2697   2701   2703     1  0.0000000  1.2552000  3
   2699   2698   2697   2701     1  0.0000000  1.2552000  3
   2699   2698   2707   2711     1  0.0000000  0.6508444  3
   2699   2698   2707   2708     1  0.0000000  0.6508444  3
   2699   2698   2707   2709     1  0.0000000  0.6508444  3
   2700   2698   2697   2701     1  0.0000000  1.2552000  3
   2700   2698   2707   2711     1  0.0000000  0.6508444  3
   2700   2698   2707   2708     1  0.0000000  0.6508444  3
   2700   2698   2707   2709     1  0.0000000  0.6508444  3
   2702   2701   2704   2710     1  0.0000000  0.6508444  3
   2702   2701   2704   2705     1  0.0000000  0.6508444  3
   2702   2701   2704   2706     1  0.0000000  0.6508444  3
   2703   2701   2704   2710     1  0.0000000  0.6508444  3
   2703   2701   2704   2705     1  0.0000000  0.6508444  3
   2703   2701   2704   2706     1  0.0000000  0.6508444  3
   2704   2710   5809   5810     1  180.0000771  10.4600000  2
   2705   2704   2710   5809     1  180.0000771  0.0000000  2
   2705   2704   2710   2712     1  0.0000000  3.3472000  1
   2705   2704   2710   2712     1  0.0000000  0.0000000  2
   2705   2704   2710   2712     1  180.0000771  0.3347200  3
   2706   2704   2710   5809     1  180.0000771  0.0000000  2
   2706   2704   2710   2712     1  0.0000000  3.3472000  1
   2706   2704   2710   2712     1  0.0000000  0.0000000  2
   2706   2704   2710   2712     1  180.0000771  0.3347200  3
   2707   2711   5838   5839     1  180.0000771  10.4600000  2
   2708   2707   2711   2713     1  0.0000000  3.3472000  1
   2708   2707   2711   2713     1  0.0000000  0.0000000  2
   2708   2707   2711   2713     1  180.0000771  0.3347200  3
   2708   2707   2711   5838     1  180.0000771  0.0000000  2
   2709   2707   2711   2713     1  0.0000000  3.3472000  1
   2709   2707   2711   2713     1  0.0000000  0.0000000  2
   2709   2707   2711   2713     1  180.0000771  0.3347200  3
   2709   2707   2711   5838     1  180.0000771  0.0000000  2
   2710   5809   5811   5812     1  0.0000000  0.0000000  2
   2710   5809   5811   5814     1  0.0000000  0.0000000  2
   2711   5838   5840   5841     1  0.0000000  0.0000000  2
   2711   5838   5840   5843     1  0.0000000  0.0000000  2
   2712   2710   5809   5810     1  0.0000000  8.3680000  1
   2712   2710   5809   5810     1  180.0000771  10.4600000  2
   2713   2711   5838   5839     1  0.0000000  8.3680000  1
   2713   2711   5838   5839     1  180.0000771  10.4600000  2
   2716   2719   2739   2740     1  0.0000000  0.0000000  2
   2716   2722   2723   2724     1  0.0000000  1.2552000  3
   2716   2722   2723   2725     1  0.0000000  1.2552000  3
   2716   2722   2726   2727     1  0.0000000  1.2552000  3
   2716   2722   2726   2728     1  0.0000000  1.2552000  3
   2717   2716   2719   2739     1  0.0000000  0.6508444  3
   2717   2716   2719   2720     1  0.0000000  0.6508444  3
   2717   2716   2719   2721     1  0.0000000  0.6508444  3
   2717   2716   2722   2723     1  0.0000000  1.2552000  3
   2717   2716   2722   2726     1  0.0000000  1.2552000  3
   2718   2716   2719   2739     1  0.0000000  0.6508444  3
   2718   2716   2719   2720     1  0.0000000  0.6508444  3
   2718   2716   2719   2721     1  0.0000000  0.6508444  3
   2718   2716   2722   2723     1  0.0000000  1.2552000  3
   2718   2716   2722   2726     1  0.0000000  1.2552000  3
   2720   2719   2716   2722     1  0.0000000  0.6508444  3
   2720   2719   2739   2740     1  0.0000000  0.0000000  2
   2721   2719   2716   2722     1  0.0000000  0.6508444  3
   2721   2719   2739   2740     1  0.0000000  0.0000000  2
   2722   2723   2732   2733     1  0.0000000  0.6508444  3
   2722   2723   2732   2734     1  0.0000000  0.6508444  3
   2722   2726   2729   2730     1  0.0000000  0.6508444  3
   2722   2726   2729   2731     1  0.0000000  0.6508444  3
   2723   2722   2726   2727     1  0.0000000  1.2552000  3
   2723   2722   2726   2728     1  0.0000000  1.2552000  3
   2724   2723   2722   2726     1  0.0000000  1.2552000  3
   2724   2723   2732   2736     1  0.0000000  0.6508444  3
   2724   2723   2732   2733     1  0.0000000  0.6508444  3
   2724   2723   2732   2734     1  0.0000000  0.6508444  3
   2725   2723   2722   2726     1  0.0000000  1.2552000  3
   2725   2723   2732   2736     1  0.0000000  0.6508444  3
   2725   2723   2732   2733     1  0.0000000  0.6508444  3
   2725   2723   2732   2734     1  0.0000000  0.6508444  3
   2727   2726   2729   2735     1  0.0000000  0.6508444  3
   2727   2726   2729   2730     1  0.0000000  0.6508444  3
   2727   2726   2729   2731     1  0.0000000  0.6508444  3
   2728   2726   2729   2735     1  0.0000000  0.6508444  3
   2728   2726   2729   2730     1  0.0000000  0.6508444  3
   2728   2726   2729   2731     1  0.0000000  0.6508444  3
   2729   2735   5867   5868     1  180.0000771  10.4600000  2
   2730   2729   2735   5867     1  180.0000771  0.0000000  2
   2730   2729   2735   2737     1  0.0000000  3.3472000  1
   2730   2729   2735   2737     1  0.0000000  0.0000000  2
   2730   2729   2735   2737     1  180.0000771  0.3347200  3
   2731   2729   2735   5867     1  180.0000771  0.0000000  2
   2731   2729   2735   2737     1  0.0000000  3.3472000  1
   2731   2729   2735   2737     1  0.0000000  0.0000000  2
   2731   2729   2735   2737     1  180.0000771  0.3347200  3
   2732   2736   5896   5897     1  180.0000771  10.4600000  2
   2733   2732   2736   2738     1  0.0000000  3.3472000  1
   2733   2732   2736   2738     1  0.0000000  0.0000000  2
   2733   2732   2736   2738     1  180.0000771  0.3347200  3
   2733   2732   2736   5896     1  180.0000771  0.0000000  2
   2734   2732   2736   2738     1  0.0000000  3.3472000  1
   2734   2732   2736   2738     1  0.0000000  0.0000000  2
   2734   2732   2736   2738     1  180.0000771  0.3347200  3
   2734   2732   2736   5896     1  180.0000771  0.0000000  2
   2735   5867   5869   5870     1  0.0000000  0.0000000  2
   2735   5867   5869   5872     1  0.0000000  0.0000000  2
   2736   5896   5898   5899     1  0.0000000  0.0000000  2
   2736   5896   5898   5901     1  0.0000000  0.0000000  2
   2737   2735   5867   5868     1  0.0000000  8.3680000  1
   2737   2735   5867   5868     1  180.0000771  10.4600000  2
   2738   2736   5896   5897     1  0.0000000  8.3680000  1
   2738   2736   5896   5897     1  180.0000771  10.4600000  2
   2741   2744   2764   2765     1  0.0000000  0.0000000  2
   2741   2747   2748   2749     1  0.0000000  1.2552000  3
   2741   2747   2748   2750     1  0.0000000  1.2552000  3
   2741   2747   2751   2752     1  0.0000000  1.2552000  3
   2741   2747   2751   2753     1  0.0000000  1.2552000  3
   2742   2741   2744   2764     1  0.0000000  0.6508444  3
   2742   2741   2744   2745     1  0.0000000  0.6508444  3
   2742   2741   2744   2746     1  0.0000000  0.6508444  3
   2742   2741   2747   2748     1  0.0000000  1.2552000  3
   2742   2741   2747   2751     1  0.0000000  1.2552000  3
   2743   2741   2744   2764     1  0.0000000  0.6508444  3
   2743   2741   2744   2745     1  0.0000000  0.6508444  3
   2743   2741   2744   2746     1  0.0000000  0.6508444  3
   2743   2741   2747   2748     1  0.0000000  1.2552000  3
   2743   2741   2747   2751     1  0.0000000  1.2552000  3
   2745   2744   2741   2747     1  0.0000000  0.6508444  3
   2745   2744   2764   2765     1  0.0000000  0.0000000  2
   2746   2744   2741   2747     1  0.0000000  0.6508444  3
   2746   2744   2764   2765     1  0.0000000  0.0000000  2
   2747   2748   2757   2758     1  0.0000000  0.6508444  3
   2747   2748   2757   2759     1  0.0000000  0.6508444  3
   2747   2751   2754   2755     1  0.0000000  0.6508444  3
   2747   2751   2754   2756     1  0.0000000  0.6508444  3
   2748   2747   2751   2752     1  0.0000000  1.2552000  3
   2748   2747   2751   2753     1  0.0000000  1.2552000  3
   2749   2748   2747   2751     1  0.0000000  1.2552000  3
   2749   2748   2757   2761     1  0.0000000  0.6508444  3
   2749   2748   2757   2758     1  0.0000000  0.6508444  3
   2749   2748   2757   2759     1  0.0000000  0.6508444  3
   2750   2748   2747   2751     1  0.0000000  1.2552000  3
   2750   2748   2757   2761     1  0.0000000  0.6508444  3
   2750   2748   2757   2758     1  0.0000000  0.6508444  3
   2750   2748   2757   2759     1  0.0000000  0.6508444  3
   2752   2751   2754   2760     1  0.0000000  0.6508444  3
   2752   2751   2754   2755     1  0.0000000  0.6508444  3
   2752   2751   2754   2756     1  0.0000000  0.6508444  3
   2753   2751   2754   2760     1  0.0000000  0.6508444  3
   2753   2751   2754   2755     1  0.0000000  0.6508444  3
   2753   2751   2754   2756     1  0.0000000  0.6508444  3
   2754   2760   5925   5926     1  180.0000771  10.4600000  2
   2755   2754   2760   5925     1  180.0000771  0.0000000  2
   2755   2754   2760   2762     1  0.0000000  3.3472000  1
   2755   2754   2760   2762     1  0.0000000  0.0000000  2
   2755   2754   2760   2762     1  180.0000771  0.3347200  3
   2756   2754   2760   5925     1  180.0000771  0.0000000  2
   2756   2754   2760   2762     1  0.0000000  3.3472000  1
   2756   2754   2760   2762     1  0.0000000  0.0000000  2
   2756   2754   2760   2762     1  180.0000771  0.3347200  3
   2757   2761   5954   5955     1  180.0000771  10.4600000  2
   2758   2757   2761   2763     1  0.0000000  3.3472000  1
   2758   2757   2761   2763     1  0.0000000  0.0000000  2
   2758   2757   2761   2763     1  180.0000771  0.3347200  3
   2758   2757   2761   5954     1  180.0000771  0.0000000  2
   2759   2757   2761   2763     1  0.0000000  3.3472000  1
   2759   2757   2761   2763     1  0.0000000  0.0000000  2
   2759   2757   2761   2763     1  180.0000771  0.3347200  3
   2759   2757   2761   5954     1  180.0000771  0.0000000  2
   2760   5925   5927   5928     1  0.0000000  0.0000000  2
   2760   5925   5927   5930     1  0.0000000  0.0000000  2
   2761   5954   5956   5957     1  0.0000000  0.0000000  2
   2761   5954   5956   5959     1  0.0000000  0.0000000  2
   2762   2760   5925   5926     1  0.0000000  8.3680000  1
   2762   2760   5925   5926     1  180.0000771  10.4600000  2
   2763   2761   5954   5955     1  0.0000000  8.3680000  1
   2763   2761   5954   5955     1  180.0000771  10.4600000  2
   2766   2769   2789   2790     1  0.0000000  0.0000000  2
   2766   2772   2773   2774     1  0.0000000  1.2552000  3
   2766   2772   2773   2775     1  0.0000000  1.2552000  3
   2766   2772   2776   2777     1  0.0000000  1.2552000  3
   2766   2772   2776   2778     1  0.0000000  1.2552000  3
   2767   2766   2769   2789     1  0.0000000  0.6508444  3
   2767   2766   2769   2770     1  0.0000000  0.6508444  3
   2767   2766   2769   2771     1  0.0000000  0.6508444  3
   2767   2766   2772   2773     1  0.0000000  1.2552000  3
   2767   2766   2772   2776     1  0.0000000  1.2552000  3
   2768   2766   2769   2789     1  0.0000000  0.6508444  3
   2768   2766   2769   2770     1  0.0000000  0.6508444  3
   2768   2766   2769   2771     1  0.0000000  0.6508444  3
   2768   2766   2772   2773     1  0.0000000  1.2552000  3
   2768   2766   2772   2776     1  0.0000000  1.2552000  3
   2770   2769   2766   2772     1  0.0000000  0.6508444  3
   2770   2769   2789   2790     1  0.0000000  0.0000000  2
   2771   2769   2766   2772     1  0.0000000  0.6508444  3
   2771   2769   2789   2790     1  0.0000000  0.0000000  2
   2772   2773   2782   2783     1  0.0000000  0.6508444  3
   2772   2773   2782   2784     1  0.0000000  0.6508444  3
   2772   2776   2779   2780     1  0.0000000  0.6508444  3
   2772   2776   2779   2781     1  0.0000000  0.6508444  3
   2773   2772   2776   2777     1  0.0000000  1.2552000  3
   2773   2772   2776   2778     1  0.0000000  1.2552000  3
   2774   2773   2772   2776     1  0.0000000  1.2552000  3
   2774   2773   2782   2786     1  0.0000000  0.6508444  3
   2774   2773   2782   2783     1  0.0000000  0.6508444  3
   2774   2773   2782   2784     1  0.0000000  0.6508444  3
   2775   2773   2772   2776     1  0.0000000  1.2552000  3
   2775   2773   2782   2786     1  0.0000000  0.6508444  3
   2775   2773   2782   2783     1  0.0000000  0.6508444  3
   2775   2773   2782   2784     1  0.0000000  0.6508444  3
   2777   2776   2779   2785     1  0.0000000  0.6508444  3
   2777   2776   2779   2780     1  0.0000000  0.6508444  3
   2777   2776   2779   2781     1  0.0000000  0.6508444  3
   2778   2776   2779   2785     1  0.0000000  0.6508444  3
   2778   2776   2779   2780     1  0.0000000  0.6508444  3
   2778   2776   2779   2781     1  0.0000000  0.6508444  3
   2779   2785   5983   5984     1  180.0000771  10.4600000  2
   2780   2779   2785   5983     1  180.0000771  0.0000000  2
   2780   2779   2785   2787     1  0.0000000  3.3472000  1
   2780   2779   2785   2787     1  0.0000000  0.0000000  2
   2780   2779   2785   2787     1  180.0000771  0.3347200  3
   2781   2779   2785   5983     1  180.0000771  0.0000000  2
   2781   2779   2785   2787     1  0.0000000  3.3472000  1
   2781   2779   2785   2787     1  0.0000000  0.0000000  2
   2781   2779   2785   2787     1  180.0000771  0.3347200  3
   2782   2786   6012   6013     1  180.0000771  10.4600000  2
   2783   2782   2786   2788     1  0.0000000  3.3472000  1
   2783   2782   2786   2788     1  0.0000000  0.0000000  2
   2783   2782   2786   2788     1  180.0000771  0.3347200  3
   2783   2782   2786   6012     1  180.0000771  0.0000000  2
   2784   2782   2786   2788     1  0.0000000  3.3472000  1
   2784   2782   2786   2788     1  0.0000000  0.0000000  2
   2784   2782   2786   2788     1  180.0000771  0.3347200  3
   2784   2782   2786   6012     1  180.0000771  0.0000000  2
   2785   5983   5985   5986     1  0.0000000  0.0000000  2
   2785   5983   5985   5988     1  0.0000000  0.0000000  2
   2786   6012   6014   6015     1  0.0000000  0.0000000  2
   2786   6012   6014   6017     1  0.0000000  0.0000000  2
   2787   2785   5983   5984     1  0.0000000  8.3680000  1
   2787   2785   5983   5984     1  180.0000771  10.4600000  2
   2788   2786   6012   6013     1  0.0000000  8.3680000  1
   2788   2786   6012   6013     1  180.0000771  10.4600000  2
   2791   2794   2814   2815     1  0.0000000  0.0000000  2
   2791   2797   2798   2799     1  0.0000000  1.2552000  3
   2791   2797   2798   2800     1  0.0000000  1.2552000  3
   2791   2797   2801   2802     1  0.0000000  1.2552000  3
   2791   2797   2801   2803     1  0.0000000  1.2552000  3
   2792   2791   2794   2814     1  0.0000000  0.6508444  3
   2792   2791   2794   2795     1  0.0000000  0.6508444  3
   2792   2791   2794   2796     1  0.0000000  0.6508444  3
   2792   2791   2797   2798     1  0.0000000  1.2552000  3
   2792   2791   2797   2801     1  0.0000000  1.2552000  3
   2793   2791   2794   2814     1  0.0000000  0.6508444  3
   2793   2791   2794   2795     1  0.0000000  0.6508444  3
   2793   2791   2794   2796     1  0.0000000  0.6508444  3
   2793   2791   2797   2798     1  0.0000000  1.2552000  3
   2793   2791   2797   2801     1  0.0000000  1.2552000  3
   2795   2794   2791   2797     1  0.0000000  0.6508444  3
   2795   2794   2814   2815     1  0.0000000  0.0000000  2
   2796   2794   2791   2797     1  0.0000000  0.6508444  3
   2796   2794   2814   2815     1  0.0000000  0.0000000  2
   2797   2798   2807   2808     1  0.0000000  0.6508444  3
   2797   2798   2807   2809     1  0.0000000  0.6508444  3
   2797   2801   2804   2805     1  0.0000000  0.6508444  3
   2797   2801   2804   2806     1  0.0000000  0.6508444  3
   2798   2797   2801   2802     1  0.0000000  1.2552000  3
   2798   2797   2801   2803     1  0.0000000  1.2552000  3
   2799   2798   2797   2801     1  0.0000000  1.2552000  3
   2799   2798   2807   2811     1  0.0000000  0.6508444  3
   2799   2798   2807   2808     1  0.0000000  0.6508444  3
   2799   2798   2807   2809     1  0.0000000  0.6508444  3
   2800   2798   2797   2801     1  0.0000000  1.2552000  3
   2800   2798   2807   2811     1  0.0000000  0.6508444  3
   2800   2798   2807   2808     1  0.0000000  0.6508444  3
   2800   2798   2807   2809     1  0.0000000  0.6508444  3
   2802   2801   2804   2810     1  0.0000000  0.6508444  3
   2802   2801   2804   2805     1  0.0000000  0.6508444  3
   2802   2801   2804   2806     1  0.0000000  0.6508444  3
   2803   2801   2804   2810     1  0.0000000  0.6508444  3
   2803   2801   2804   2805     1  0.0000000  0.6508444  3
   2803   2801   2804   2806     1  0.0000000  0.6508444  3
   2804   2810   6041   6042     1  180.0000771  10.4600000  2
   2805   2804   2810   6041     1  180.0000771  0.0000000  2
   2805   2804   2810   2812     1  0.0000000  3.3472000  1
   2805   2804   2810   2812     1  0.0000000  0.0000000  2
   2805   2804   2810   2812     1  180.0000771  0.3347200  3
   2806   2804   2810   6041     1  180.0000771  0.0000000  2
   2806   2804   2810   2812     1  0.0000000  3.3472000  1
   2806   2804   2810   2812     1  0.0000000  0.0000000  2
   2806   2804   2810   2812     1  180.0000771  0.3347200  3
   2807   2811   6070   6071     1  180.0000771  10.4600000  2
   2808   2807   2811   2813     1  0.0000000  3.3472000  1
   2808   2807   2811   2813     1  0.0000000  0.0000000  2
   2808   2807   2811   2813     1  180.0000771  0.3347200  3
   2808   2807   2811   6070     1  180.0000771  0.0000000  2
   2809   2807   2811   2813     1  0.0000000  3.3472000  1
   2809   2807   2811   2813     1  0.0000000  0.0000000  2
   2809   2807   2811   2813     1  180.0000771  0.3347200  3
   2809   2807   2811   6070     1  180.0000771  0.0000000  2
   2810   6041   6043   6044     1  0.0000000  0.0000000  2
   2810   6041   6043   6046     1  0.0000000  0.0000000  2
   2811   6070   6072   6073     1  0.0000000  0.0000000  2
   2811   6070   6072   6075     1  0.0000000  0.0000000  2
   2812   2810   6041   6042     1  0.0000000  8.3680000  1
   2812   2810   6041   6042     1  180.0000771  10.4600000  2
   2813   2811   6070   6071     1  0.0000000  8.3680000  1
   2813   2811   6070   6071     1  180.0000771  10.4600000  2
   2816   2819   2839   2840     1  0.0000000  0.0000000  2
   2816   2822   2823   2824     1  0.0000000  1.2552000  3
   2816   2822   2823   2825     1  0.0000000  1.2552000  3
   2816   2822   2826   2827     1  0.0000000  1.2552000  3
   2816   2822   2826   2828     1  0.0000000  1.2552000  3
   2817   2816   2819   2839     1  0.0000000  0.6508444  3
   2817   2816   2819   2820     1  0.0000000  0.6508444  3
   2817   2816   2819   2821     1  0.0000000  0.6508444  3
   2817   2816   2822   2823     1  0.0000000  1.2552000  3
   2817   2816   2822   2826     1  0.0000000  1.2552000  3
   2818   2816   2819   2839     1  0.0000000  0.6508444  3
   2818   2816   2819   2820     1  0.0000000  0.6508444  3
   2818   2816   2819   2821     1  0.0000000  0.6508444  3
   2818   2816   2822   2823     1  0.0000000  1.2552000  3
   2818   2816   2822   2826     1  0.0000000  1.2552000  3
   2820   2819   2816   2822     1  0.0000000  0.6508444  3
   2820   2819   2839   2840     1  0.0000000  0.0000000  2
   2821   2819   2816   2822     1  0.0000000  0.6508444  3
   2821   2819   2839   2840     1  0.0000000  0.0000000  2
   2822   2823   2832   2833     1  0.0000000  0.6508444  3
   2822   2823   2832   2834     1  0.0000000  0.6508444  3
   2822   2826   2829   2830     1  0.0000000  0.6508444  3
   2822   2826   2829   2831     1  0.0000000  0.6508444  3
   2823   2822   2826   2827     1  0.0000000  1.2552000  3
   2823   2822   2826   2828     1  0.0000000  1.2552000  3
   2824   2823   2822   2826     1  0.0000000  1.2552000  3
   2824   2823   2832   2836     1  0.0000000  0.6508444  3
   2824   2823   2832   2833     1  0.0000000  0.6508444  3
   2824   2823   2832   2834     1  0.0000000  0.6508444  3
   2825   2823   2822   2826     1  0.0000000  1.2552000  3
   2825   2823   2832   2836     1  0.0000000  0.6508444  3
   2825   2823   2832   2833     1  0.0000000  0.6508444  3
   2825   2823   2832   2834     1  0.0000000  0.6508444  3
   2827   2826   2829   2835     1  0.0000000  0.6508444  3
   2827   2826   2829   2830     1  0.0000000  0.6508444  3
   2827   2826   2829   2831     1  0.0000000  0.6508444  3
   2828   2826   2829   2835     1  0.0000000  0.6508444  3
   2828   2826   2829   2830     1  0.0000000  0.6508444  3
   2828   2826   2829   2831     1  0.0000000  0.6508444  3
   2829   2835   6099   6100     1  180.0000771  10.4600000  2
   2830   2829   2835   6099     1  180.0000771  0.0000000  2
   2830   2829   2835   2837     1  0.0000000  3.3472000  1
   2830   2829   2835   2837     1  0.0000000  0.0000000  2
   2830   2829   2835   2837     1  180.0000771  0.3347200  3
   2831   2829   2835   6099     1  180.0000771  0.0000000  2
   2831   2829   2835   2837     1  0.0000000  3.3472000  1
   2831   2829   2835   2837     1  0.0000000  0.0000000  2
   2831   2829   2835   2837     1  180.0000771  0.3347200  3
   2832   2836   6128   6129     1  180.0000771  10.4600000  2
   2833   2832   2836   2838     1  0.0000000  3.3472000  1
   2833   2832   2836   2838     1  0.0000000  0.0000000  2
   2833   2832   2836   2838     1  180.0000771  0.3347200  3
   2833   2832   2836   6128     1  180.0000771  0.0000000  2
   2834   2832   2836   2838     1  0.0000000  3.3472000  1
   2834   2832   2836   2838     1  0.0000000  0.0000000  2
   2834   2832   2836   2838     1  180.0000771  0.3347200  3
   2834   2832   2836   6128     1  180.0000771  0.0000000  2
   2835   6099   6101   6102     1  0.0000000  0.0000000  2
   2835   6099   6101   6104     1  0.0000000  0.0000000  2
   2836   6128   6130   6131     1  0.0000000  0.0000000  2
   2836   6128   6130   6133     1  0.0000000  0.0000000  2
   2837   2835   6099   6100     1  0.0000000  8.3680000  1
   2837   2835   6099   6100     1  180.0000771  10.4600000  2
   2838   2836   6128   6129     1  0.0000000  8.3680000  1
   2838   2836   6128   6129     1  180.0000771  10.4600000  2
   2841   2844   2864   2865     1  0.0000000  0.0000000  2
   2841   2847   2848   2849     1  0.0000000  1.2552000  3
   2841   2847   2848   2850     1  0.0000000  1.2552000  3
   2841   2847   2851   2852     1  0.0000000  1.2552000  3
   2841   2847   2851   2853     1  0.0000000  1.2552000  3
   2842   2841   2844   2864     1  0.0000000  0.6508444  3
   2842   2841   2844   2845     1  0.0000000  0.6508444  3
   2842   2841   2844   2846     1  0.0000000  0.6508444  3
   2842   2841   2847   2848     1  0.0000000  1.2552000  3
   2842   2841   2847   2851     1  0.0000000  1.2552000  3
   2843   2841   2844   2864     1  0.0000000  0.6508444  3
   2843   2841   2844   2845     1  0.0000000  0.6508444  3
   2843   2841   2844   2846     1  0.0000000  0.6508444  3
   2843   2841   2847   2848     1  0.0000000  1.2552000  3
   2843   2841   2847   2851     1  0.0000000  1.2552000  3
   2845   2844   2841   2847     1  0.0000000  0.6508444  3
   2845   2844   2864   2865     1  0.0000000  0.0000000  2
   2846   2844   2841   2847     1  0.0000000  0.6508444  3
   2846   2844   2864   2865     1  0.0000000  0.0000000  2
   2847   2848   2857   2858     1  0.0000000  0.6508444  3
   2847   2848   2857   2859     1  0.0000000  0.6508444  3
   2847   2851   2854   2855     1  0.0000000  0.6508444  3
   2847   2851   2854   2856     1  0.0000000  0.6508444  3
   2848   2847   2851   2852     1  0.0000000  1.2552000  3
   2848   2847   2851   2853     1  0.0000000  1.2552000  3
   2849   2848   2847   2851     1  0.0000000  1.2552000  3
   2849   2848   2857   2861     1  0.0000000  0.6508444  3
   2849   2848   2857   2858     1  0.0000000  0.6508444  3
   2849   2848   2857   2859     1  0.0000000  0.6508444  3
   2850   2848   2847   2851     1  0.0000000  1.2552000  3
   2850   2848   2857   2861     1  0.0000000  0.6508444  3
   2850   2848   2857   2858     1  0.0000000  0.6508444  3
   2850   2848   2857   2859     1  0.0000000  0.6508444  3
   2852   2851   2854   2860     1  0.0000000  0.6508444  3
   2852   2851   2854   2855     1  0.0000000  0.6508444  3
   2852   2851   2854   2856     1  0.0000000  0.6508444  3
   2853   2851   2854   2860     1  0.0000000  0.6508444  3
   2853   2851   2854   2855     1  0.0000000  0.6508444  3
   2853   2851   2854   2856     1  0.0000000  0.6508444  3
   2854   2860   6157   6158     1  180.0000771  10.4600000  2
   2855   2854   2860   6157     1  180.0000771  0.0000000  2
   2855   2854   2860   2862     1  0.0000000  3.3472000  1
   2855   2854   2860   2862     1  0.0000000  0.0000000  2
   2855   2854   2860   2862     1  180.0000771  0.3347200  3
   2856   2854   2860   6157     1  180.0000771  0.0000000  2
   2856   2854   2860   2862     1  0.0000000  3.3472000  1
   2856   2854   2860   2862     1  0.0000000  0.0000000  2
   2856   2854   2860   2862     1  180.0000771  0.3347200  3
   2857   2861   6186   6187     1  180.0000771  10.4600000  2
   2858   2857   2861   2863     1  0.0000000  3.3472000  1
   2858   2857   2861   2863     1  0.0000000  0.0000000  2
   2858   2857   2861   2863     1  180.0000771  0.3347200  3
   2858   2857   2861   6186     1  180.0000771  0.0000000  2
   2859   2857   2861   2863     1  0.0000000  3.3472000  1
   2859   2857   2861   2863     1  0.0000000  0.0000000  2
   2859   2857   2861   2863     1  180.0000771  0.3347200  3
   2859   2857   2861   6186     1  180.0000771  0.0000000  2
   2860   6157   6159   6160     1  0.0000000  0.0000000  2
   2860   6157   6159   6162     1  0.0000000  0.0000000  2
   2861   6186   6188   6189     1  0.0000000  0.0000000  2
   2861   6186   6188   6191     1  0.0000000  0.0000000  2
   2862   2860   6157   6158     1  0.0000000  8.3680000  1
   2862   2860   6157   6158     1  180.0000771  10.4600000  2
   2863   2861   6186   6187     1  0.0000000  8.3680000  1
   2863   2861   6186   6187     1  180.0000771  10.4600000  2
   2866   2869   2889   2890     1  0.0000000  0.0000000  2
   2866   2872   2873   2874     1  0.0000000  1.2552000  3
   2866   2872   2873   2875     1  0.0000000  1.2552000  3
   2866   2872   2876   2877     1  0.0000000  1.2552000  3
   2866   2872   2876   2878     1  0.0000000  1.2552000  3
   2867   2866   2869   2889     1  0.0000000  0.6508444  3
   2867   2866   2869   2870     1  0.0000000  0.6508444  3
   2867   2866   2869   2871     1  0.0000000  0.6508444  3
   2867   2866   2872   2873     1  0.0000000  1.2552000  3
   2867   2866   2872   2876     1  0.0000000  1.2552000  3
   2868   2866   2869   2889     1  0.0000000  0.6508444  3
   2868   2866   2869   2870     1  0.0000000  0.6508444  3
   2868   2866   2869   2871     1  0.0000000  0.6508444  3
   2868   2866   2872   2873     1  0.0000000  1.2552000  3
   2868   2866   2872   2876     1  0.0000000  1.2552000  3
   2870   2869   2866   2872     1  0.0000000  0.6508444  3
   2870   2869   2889   2890     1  0.0000000  0.0000000  2
   2871   2869   2866   2872     1  0.0000000  0.6508444  3
   2871   2869   2889   2890     1  0.0000000  0.0000000  2
   2872   2873   2882   2883     1  0.0000000  0.6508444  3
   2872   2873   2882   2884     1  0.0000000  0.6508444  3
   2872   2876   2879   2880     1  0.0000000  0.6508444  3
   2872   2876   2879   2881     1  0.0000000  0.6508444  3
   2873   2872   2876   2877     1  0.0000000  1.2552000  3
   2873   2872   2876   2878     1  0.0000000  1.2552000  3
   2874   2873   2872   2876     1  0.0000000  1.2552000  3
   2874   2873   2882   2886     1  0.0000000  0.6508444  3
   2874   2873   2882   2883     1  0.0000000  0.6508444  3
   2874   2873   2882   2884     1  0.0000000  0.6508444  3
   2875   2873   2872   2876     1  0.0000000  1.2552000  3
   2875   2873   2882   2886     1  0.0000000  0.6508444  3
   2875   2873   2882   2883     1  0.0000000  0.6508444  3
   2875   2873   2882   2884     1  0.0000000  0.6508444  3
   2877   2876   2879   2885     1  0.0000000  0.6508444  3
   2877   2876   2879   2880     1  0.0000000  0.6508444  3
   2877   2876   2879   2881     1  0.0000000  0.6508444  3
   2878   2876   2879   2885     1  0.0000000  0.6508444  3
   2878   2876   2879   2880     1  0.0000000  0.6508444  3
   2878   2876   2879   2881     1  0.0000000  0.6508444  3
   2879   2885   6215   6216     1  180.0000771  10.4600000  2
   2880   2879   2885   6215     1  180.0000771  0.0000000  2
   2880   2879   2885   2887     1  0.0000000  3.3472000  1
   2880   2879   2885   2887     1  0.0000000  0.0000000  2
   2880   2879   2885   2887     1  180.0000771  0.3347200  3
   2881   2879   2885   6215     1  180.0000771  0.0000000  2
   2881   2879   2885   2887     1  0.0000000  3.3472000  1
   2881   2879   2885   2887     1  0.0000000  0.0000000  2
   2881   2879   2885   2887     1  180.0000771  0.3347200  3
   2882   2886   6244   6245     1  180.0000771  10.4600000  2
   2883   2882   2886   2888     1  0.0000000  3.3472000  1
   2883   2882   2886   2888     1  0.0000000  0.0000000  2
   2883   2882   2886   2888     1  180.0000771  0.3347200  3
   2883   2882   2886   6244     1  180.0000771  0.0000000  2
   2884   2882   2886   2888     1  0.0000000  3.3472000  1
   2884   2882   2886   2888     1  0.0000000  0.0000000  2
   2884   2882   2886   2888     1  180.0000771  0.3347200  3
   2884   2882   2886   6244     1  180.0000771  0.0000000  2
   2885   6215   6217   6218     1  0.0000000  0.0000000  2
   2885   6215   6217   6220     1  0.0000000  0.0000000  2
   2886   6244   6246   6247     1  0.0000000  0.0000000  2
   2886   6244   6246   6249     1  0.0000000  0.0000000  2
   2887   2885   6215   6216     1  0.0000000  8.3680000  1
   2887   2885   6215   6216     1  180.0000771  10.4600000  2
   2888   2886   6244   6245     1  0.0000000  8.3680000  1
   2888   2886   6244   6245     1  180.0000771  10.4600000  2
   2891   2894   2914   2915     1  0.0000000  0.0000000  2
   2891   2897   2898   2899     1  0.0000000  1.2552000  3
   2891   2897   2898   2900     1  0.0000000  1.2552000  3
   2891   2897   2901   2902     1  0.0000000  1.2552000  3
   2891   2897   2901   2903     1  0.0000000  1.2552000  3
   2892   2891   2894   2914     1  0.0000000  0.6508444  3
   2892   2891   2894   2895     1  0.0000000  0.6508444  3
   2892   2891   2894   2896     1  0.0000000  0.6508444  3
   2892   2891   2897   2898     1  0.0000000  1.2552000  3
   2892   2891   2897   2901     1  0.0000000  1.2552000  3
   2893   2891   2894   2914     1  0.0000000  0.6508444  3
   2893   2891   2894   2895     1  0.0000000  0.6508444  3
   2893   2891   2894   2896     1  0.0000000  0.6508444  3
   2893   2891   2897   2898     1  0.0000000  1.2552000  3
   2893   2891   2897   2901     1  0.0000000  1.2552000  3
   2895   2894   2891   2897     1  0.0000000  0.6508444  3
   2895   2894   2914   2915     1  0.0000000  0.0000000  2
   2896   2894   2891   2897     1  0.0000000  0.6508444  3
   2896   2894   2914   2915     1  0.0000000  0.0000000  2
   2897   2898   2907   2908     1  0.0000000  0.6508444  3
   2897   2898   2907   2909     1  0.0000000  0.6508444  3
   2897   2901   2904   2905     1  0.0000000  0.6508444  3
   2897   2901   2904   2906     1  0.0000000  0.6508444  3
   2898   2897   2901   2902     1  0.0000000  1.2552000  3
   2898   2897   2901   2903     1  0.0000000  1.2552000  3
   2899   2898   2897   2901     1  0.0000000  1.2552000  3
   2899   2898   2907   2911     1  0.0000000  0.6508444  3
   2899   2898   2907   2908     1  0.0000000  0.6508444  3
   2899   2898   2907   2909     1  0.0000000  0.6508444  3
   2900   2898   2897   2901     1  0.0000000  1.2552000  3
   2900   2898   2907   2911     1  0.0000000  0.6508444  3
   2900   2898   2907   2908     1  0.0000000  0.6508444  3
   2900   2898   2907   2909     1  0.0000000  0.6508444  3
   2902   2901   2904   2910     1  0.0000000  0.6508444  3
   2902   2901   2904   2905     1  0.0000000  0.6508444  3
   2902   2901   2904   2906     1  0.0000000  0.6508444  3
   2903   2901   2904   2910     1  0.0000000  0.6508444  3
   2903   2901   2904   2905     1  0.0000000  0.6508444  3
   2903   2901   2904   2906     1  0.0000000  0.6508444  3
   2904   2910   6273   6274     1  180.0000771  10.4600000  2
   2905   2904   2910   6273     1  180.0000771  0.0000000  2
   2905   2904   2910   2912     1  0.0000000  3.3472000  1
   2905   2904   2910   2912     1  0.0000000  0.0000000  2
   2905   2904   2910   2912     1  180.0000771  0.3347200  3
   2906   2904   2910   6273     1  180.0000771  0.0000000  2
   2906   2904   2910   2912     1  0.0000000  3.3472000  1
   2906   2904   2910   2912     1  0.0000000  0.0000000  2
   2906   2904   2910   2912     1  180.0000771  0.3347200  3
   2907   2911   6302   6303     1  180.0000771  10.4600000  2
   2908   2907   2911   2913     1  0.0000000  3.3472000  1
   2908   2907   2911   2913     1  0.0000000  0.0000000  2
   2908   2907   2911   2913     1  180.0000771  0.3347200  3
   2908   2907   2911   6302     1  180.0000771  0.0000000  2
   2909   2907   2911   2913     1  0.0000000  3.3472000  1
   2909   2907   2911   2913     1  0.0000000  0.0000000  2
   2909   2907   2911   2913     1  180.0000771  0.3347200  3
   2909   2907   2911   6302     1  180.0000771  0.0000000  2
   2910   6273   6275   6276     1  0.0000000  0.0000000  2
   2910   6273   6275   6278     1  0.0000000  0.0000000  2
   2911   6302   6304   6305     1  0.0000000  0.0000000  2
   2911   6302   6304   6307     1  0.0000000  0.0000000  2
   2912   2910   6273   6274     1  0.0000000  8.3680000  1
   2912   2910   6273   6274     1  180.0000771  10.4600000  2
   2913   2911   6302   6303     1  0.0000000  8.3680000  1
   2913   2911   6302   6303     1  180.0000771  10.4600000  2
   2916   2919   2939   2940     1  0.0000000  0.0000000  2
   2916   2922   2923   2924     1  0.0000000  1.2552000  3
   2916   2922   2923   2925     1  0.0000000  1.2552000  3
   2916   2922   2926   2927     1  0.0000000  1.2552000  3
   2916   2922   2926   2928     1  0.0000000  1.2552000  3
   2917   2916   2919   2939     1  0.0000000  0.6508444  3
   2917   2916   2919   2920     1  0.0000000  0.6508444  3
   2917   2916   2919   2921     1  0.0000000  0.6508444  3
   2917   2916   2922   2923     1  0.0000000  1.2552000  3
   2917   2916   2922   2926     1  0.0000000  1.2552000  3
   2918   2916   2919   2939     1  0.0000000  0.6508444  3
   2918   2916   2919   2920     1  0.0000000  0.6508444  3
   2918   2916   2919   2921     1  0.0000000  0.6508444  3
   2918   2916   2922   2923     1  0.0000000  1.2552000  3
   2918   2916   2922   2926     1  0.0000000  1.2552000  3
   2920   2919   2916   2922     1  0.0000000  0.6508444  3
   2920   2919   2939   2940     1  0.0000000  0.0000000  2
   2921   2919   2916   2922     1  0.0000000  0.6508444  3
   2921   2919   2939   2940     1  0.0000000  0.0000000  2
   2922   2923   2932   2933     1  0.0000000  0.6508444  3
   2922   2923   2932   2934     1  0.0000000  0.6508444  3
   2922   2926   2929   2930     1  0.0000000  0.6508444  3
   2922   2926   2929   2931     1  0.0000000  0.6508444  3
   2923   2922   2926   2927     1  0.0000000  1.2552000  3
   2923   2922   2926   2928     1  0.0000000  1.2552000  3
   2924   2923   2922   2926     1  0.0000000  1.2552000  3
   2924   2923   2932   2936     1  0.0000000  0.6508444  3
   2924   2923   2932   2933     1  0.0000000  0.6508444  3
   2924   2923   2932   2934     1  0.0000000  0.6508444  3
   2925   2923   2922   2926     1  0.0000000  1.2552000  3
   2925   2923   2932   2936     1  0.0000000  0.6508444  3
   2925   2923   2932   2933     1  0.0000000  0.6508444  3
   2925   2923   2932   2934     1  0.0000000  0.6508444  3
   2927   2926   2929   2935     1  0.0000000  0.6508444  3
   2927   2926   2929   2930     1  0.0000000  0.6508444  3
   2927   2926   2929   2931     1  0.0000000  0.6508444  3
   2928   2926   2929   2935     1  0.0000000  0.6508444  3
   2928   2926   2929   2930     1  0.0000000  0.6508444  3
   2928   2926   2929   2931     1  0.0000000  0.6508444  3
   2929   2935   6331   6332     1  180.0000771  10.4600000  2
   2930   2929   2935   6331     1  180.0000771  0.0000000  2
   2930   2929   2935   2937     1  0.0000000  3.3472000  1
   2930   2929   2935   2937     1  0.0000000  0.0000000  2
   2930   2929   2935   2937     1  180.0000771  0.3347200  3
   2931   2929   2935   6331     1  180.0000771  0.0000000  2
   2931   2929   2935   2937     1  0.0000000  3.3472000  1
   2931   2929   2935   2937     1  0.0000000  0.0000000  2
   2931   2929   2935   2937     1  180.0000771  0.3347200  3
   2932   2936   6360   6361     1  180.0000771  10.4600000  2
   2933   2932   2936   2938     1  0.0000000  3.3472000  1
   2933   2932   2936   2938     1  0.0000000  0.0000000  2
   2933   2932   2936   2938     1  180.0000771  0.3347200  3
   2933   2932   2936   6360     1  180.0000771  0.0000000  2
   2934   2932   2936   2938     1  0.0000000  3.3472000  1
   2934   2932   2936   2938     1  0.0000000  0.0000000  2
   2934   2932   2936   2938     1  180.0000771  0.3347200  3
   2934   2932   2936   6360     1  180.0000771  0.0000000  2
   2935   6331   6333   6334     1  0.0000000  0.0000000  2
   2935   6331   6333   6336     1  0.0000000  0.0000000  2
   2936   6360   6362   6363     1  0.0000000  0.0000000  2
   2936   6360   6362   6365     1  0.0000000  0.0000000  2
   2937   2935   6331   6332     1  0.0000000  8.3680000  1
   2937   2935   6331   6332     1  180.0000771  10.4600000  2
   2938   2936   6360   6361     1  0.0000000  8.3680000  1
   2938   2936   6360   6361     1  180.0000771  10.4600000  2
   2941   2944   2964   2965     1  0.0000000  0.0000000  2
   2941   2947   2948   2949     1  0.0000000  1.2552000  3
   2941   2947   2948   2950     1  0.0000000  1.2552000  3
   2941   2947   2951   2952     1  0.0000000  1.2552000  3
   2941   2947   2951   2953     1  0.0000000  1.2552000  3
   2942   2941   2944   2964     1  0.0000000  0.6508444  3
   2942   2941   2944   2945     1  0.0000000  0.6508444  3
   2942   2941   2944   2946     1  0.0000000  0.6508444  3
   2942   2941   2947   2948     1  0.0000000  1.2552000  3
   2942   2941   2947   2951     1  0.0000000  1.2552000  3
   2943   2941   2944   2964     1  0.0000000  0.6508444  3
   2943   2941   2944   2945     1  0.0000000  0.6508444  3
   2943   2941   2944   2946     1  0.0000000  0.6508444  3
   2943   2941   2947   2948     1  0.0000000  1.2552000  3
   2943   2941   2947   2951     1  0.0000000  1.2552000  3
   2945   2944   2941   2947     1  0.0000000  0.6508444  3
   2945   2944   2964   2965     1  0.0000000  0.0000000  2
   2946   2944   2941   2947     1  0.0000000  0.6508444  3
   2946   2944   2964   2965     1  0.0000000  0.0000000  2
   2947   2948   2957   2958     1  0.0000000  0.6508444  3
   2947   2948   2957   2959     1  0.0000000  0.6508444  3
   2947   2951   2954   2955     1  0.0000000  0.6508444  3
   2947   2951   2954   2956     1  0.0000000  0.6508444  3
   2948   2947   2951   2952     1  0.0000000  1.2552000  3
   2948   2947   2951   2953     1  0.0000000  1.2552000  3
   2949   2948   2947   2951     1  0.0000000  1.2552000  3
   2949   2948   2957   2961     1  0.0000000  0.6508444  3
   2949   2948   2957   2958     1  0.0000000  0.6508444  3
   2949   2948   2957   2959     1  0.0000000  0.6508444  3
   2950   2948   2947   2951     1  0.0000000  1.2552000  3
   2950   2948   2957   2961     1  0.0000000  0.6508444  3
   2950   2948   2957   2958     1  0.0000000  0.6508444  3
   2950   2948   2957   2959     1  0.0000000  0.6508444  3
   2952   2951   2954   2960     1  0.0000000  0.6508444  3
   2952   2951   2954   2955     1  0.0000000  0.6508444  3
   2952   2951   2954   2956     1  0.0000000  0.6508444  3
   2953   2951   2954   2960     1  0.0000000  0.6508444  3
   2953   2951   2954   2955     1  0.0000000  0.6508444  3
   2953   2951   2954   2956     1  0.0000000  0.6508444  3
   2954   2960   6389   6390     1  180.0000771  10.4600000  2
   2955   2954   2960   6389     1  180.0000771  0.0000000  2
   2955   2954   2960   2962     1  0.0000000  3.3472000  1
   2955   2954   2960   2962     1  0.0000000  0.0000000  2
   2955   2954   2960   2962     1  180.0000771  0.3347200  3
   2956   2954   2960   6389     1  180.0000771  0.0000000  2
   2956   2954   2960   2962     1  0.0000000  3.3472000  1
   2956   2954   2960   2962     1  0.0000000  0.0000000  2
   2956   2954   2960   2962     1  180.0000771  0.3347200  3
   2957   2961   6418   6419     1  180.0000771  10.4600000  2
   2958   2957   2961   2963     1  0.0000000  3.3472000  1
   2958   2957   2961   2963     1  0.0000000  0.0000000  2
   2958   2957   2961   2963     1  180.0000771  0.3347200  3
   2958   2957   2961   6418     1  180.0000771  0.0000000  2
   2959   2957   2961   2963     1  0.0000000  3.3472000  1
   2959   2957   2961   2963     1  0.0000000  0.0000000  2
   2959   2957   2961   2963     1  180.0000771  0.3347200  3
   2959   2957   2961   6418     1  180.0000771  0.0000000  2
   2960   6389   6391   6392     1  0.0000000  0.0000000  2
   2960   6389   6391   6394     1  0.0000000  0.0000000  2
   2961   6418   6420   6421     1  0.0000000  0.0000000  2
   2961   6418   6420   6423     1  0.0000000  0.0000000  2
   2962   2960   6389   6390     1  0.0000000  8.3680000  1
   2962   2960   6389   6390     1  180.0000771  10.4600000  2
   2963   2961   6418   6419     1  0.0000000  8.3680000  1
   2963   2961   6418   6419     1  180.0000771  10.4600000  2
   2966   2969   2989   2990     1  0.0000000  0.0000000  2
   2966   2972   2973   2974     1  0.0000000  1.2552000  3
   2966   2972   2973   2975     1  0.0000000  1.2552000  3
   2966   2972   2976   2977     1  0.0000000  1.2552000  3
   2966   2972   2976   2978     1  0.0000000  1.2552000  3
   2967   2966   2969   2989     1  0.0000000  0.6508444  3
   2967   2966   2969   2970     1  0.0000000  0.6508444  3
   2967   2966   2969   2971     1  0.0000000  0.6508444  3
   2967   2966   2972   2973     1  0.0000000  1.2552000  3
   2967   2966   2972   2976     1  0.0000000  1.2552000  3
   2968   2966   2969   2989     1  0.0000000  0.6508444  3
   2968   2966   2969   2970     1  0.0000000  0.6508444  3
   2968   2966   2969   2971     1  0.0000000  0.6508444  3
   2968   2966   2972   2973     1  0.0000000  1.2552000  3
   2968   2966   2972   2976     1  0.0000000  1.2552000  3
   2970   2969   2966   2972     1  0.0000000  0.6508444  3
   2970   2969   2989   2990     1  0.0000000  0.0000000  2
   2971   2969   2966   2972     1  0.0000000  0.6508444  3
   2971   2969   2989   2990     1  0.0000000  0.0000000  2
   2972   2973   2982   2983     1  0.0000000  0.6508444  3
   2972   2973   2982   2984     1  0.0000000  0.6508444  3
   2972   2976   2979   2980     1  0.0000000  0.6508444  3
   2972   2976   2979   2981     1  0.0000000  0.6508444  3
   2973   2972   2976   2977     1  0.0000000  1.2552000  3
   2973   2972   2976   2978     1  0.0000000  1.2552000  3
   2974   2973   2972   2976     1  0.0000000  1.2552000  3
   2974   2973   2982   2986     1  0.0000000  0.6508444  3
   2974   2973   2982   2983     1  0.0000000  0.6508444  3
   2974   2973   2982   2984     1  0.0000000  0.6508444  3
   2975   2973   2972   2976     1  0.0000000  1.2552000  3
   2975   2973   2982   2986     1  0.0000000  0.6508444  3
   2975   2973   2982   2983     1  0.0000000  0.6508444  3
   2975   2973   2982   2984     1  0.0000000  0.6508444  3
   2977   2976   2979   2985     1  0.0000000  0.6508444  3
   2977   2976   2979   2980     1  0.0000000  0.6508444  3
   2977   2976   2979   2981     1  0.0000000  0.6508444  3
   2978   2976   2979   2985     1  0.0000000  0.6508444  3
   2978   2976   2979   2980     1  0.0000000  0.6508444  3
   2978   2976   2979   2981     1  0.0000000  0.6508444  3
   2979   2985   6447   6448     1  180.0000771  10.4600000  2
   2980   2979   2985   6447     1  180.0000771  0.0000000  2
   2980   2979   2985   2987     1  0.0000000  3.3472000  1
   2980   2979   2985   2987     1  0.0000000  0.0000000  2
   2980   2979   2985   2987     1  180.0000771  0.3347200  3
   2981   2979   2985   6447     1  180.0000771  0.0000000  2
   2981   2979   2985   2987     1  0.0000000  3.3472000  1
   2981   2979   2985   2987     1  0.0000000  0.0000000  2
   2981   2979   2985   2987     1  180.0000771  0.3347200  3
   2982   2986   6476   6477     1  180.0000771  10.4600000  2
   2983   2982   2986   2988     1  0.0000000  3.3472000  1
   2983   2982   2986   2988     1  0.0000000  0.0000000  2
   2983   2982   2986   2988     1  180.0000771  0.3347200  3
   2983   2982   2986   6476     1  180.0000771  0.0000000  2
   2984   2982   2986   2988     1  0.0000000  3.3472000  1
   2984   2982   2986   2988     1  0.0000000  0.0000000  2
   2984   2982   2986   2988     1  180.0000771  0.3347200  3
   2984   2982   2986   6476     1  180.0000771  0.0000000  2
   2985   6447   6449   6450     1  0.0000000  0.0000000  2
   2985   6447   6449   6452     1  0.0000000  0.0000000  2
   2986   6476   6478   6479     1  0.0000000  0.0000000  2
   2986   6476   6478   6481     1  0.0000000  0.0000000  2
   2987   2985   6447   6448     1  0.0000000  8.3680000  1
   2987   2985   6447   6448     1  180.0000771  10.4600000  2
   2988   2986   6476   6477     1  0.0000000  8.3680000  1
   2988   2986   6476   6477     1  180.0000771  10.4600000  2
   2991   2994   3014   3015     1  0.0000000  0.0000000  2
   2991   2997   2998   2999     1  0.0000000  1.2552000  3
   2991   2997   2998   3000     1  0.0000000  1.2552000  3
   2991   2997   3001   3002     1  0.0000000  1.2552000  3
   2991   2997   3001   3003     1  0.0000000  1.2552000  3
   2992   2991   2994   3014     1  0.0000000  0.6508444  3
   2992   2991   2994   2995     1  0.0000000  0.6508444  3
   2992   2991   2994   2996     1  0.0000000  0.6508444  3
   2992   2991   2997   2998     1  0.0000000  1.2552000  3
   2992   2991   2997   3001     1  0.0000000  1.2552000  3
   2993   2991   2994   3014     1  0.0000000  0.6508444  3
   2993   2991   2994   2995     1  0.0000000  0.6508444  3
   2993   2991   2994   2996     1  0.0000000  0.6508444  3
   2993   2991   2997   2998     1  0.0000000  1.2552000  3
   2993   2991   2997   3001     1  0.0000000  1.2552000  3
   2995   2994   2991   2997     1  0.0000000  0.6508444  3
   2995   2994   3014   3015     1  0.0000000  0.0000000  2
   2996   2994   2991   2997     1  0.0000000  0.6508444  3
   2996   2994   3014   3015     1  0.0000000  0.0000000  2
   2997   2998   3007   3008     1  0.0000000  0.6508444  3
   2997   2998   3007   3009     1  0.0000000  0.6508444  3
   2997   3001   3004   3005     1  0.0000000  0.6508444  3
   2997   3001   3004   3006     1  0.0000000  0.6508444  3
   2998   2997   3001   3002     1  0.0000000  1.2552000  3
   2998   2997   3001   3003     1  0.0000000  1.2552000  3
   2999   2998   2997   3001     1  0.0000000  1.2552000  3
   2999   2998   3007   3011     1  0.0000000  0.6508444  3
   2999   2998   3007   3008     1  0.0000000  0.6508444  3
   2999   2998   3007   3009     1  0.0000000  0.6508444  3
   3000   2998   2997   3001     1  0.0000000  1.2552000  3
   3000   2998   3007   3011     1  0.0000000  0.6508444  3
   3000   2998   3007   3008     1  0.0000000  0.6508444  3
   3000   2998   3007   3009     1  0.0000000  0.6508444  3
   3002   3001   3004   3010     1  0.0000000  0.6508444  3
   3002   3001   3004   3005     1  0.0000000  0.6508444  3
   3002   3001   3004   3006     1  0.0000000  0.6508444  3
   3003   3001   3004   3010     1  0.0000000  0.6508444  3
   3003   3001   3004   3005     1  0.0000000  0.6508444  3
   3003   3001   3004   3006     1  0.0000000  0.6508444  3
   3004   3010   6505   6506     1  180.0000771  10.4600000  2
   3005   3004   3010   6505     1  180.0000771  0.0000000  2
   3005   3004   3010   3012     1  0.0000000  3.3472000  1
   3005   3004   3010   3012     1  0.0000000  0.0000000  2
   3005   3004   3010   3012     1  180.0000771  0.3347200  3
   3006   3004   3010   6505     1  180.0000771  0.0000000  2
   3006   3004   3010   3012     1  0.0000000  3.3472000  1
   3006   3004   3010   3012     1  0.0000000  0.0000000  2
   3006   3004   3010   3012     1  180.0000771  0.3347200  3
   3007   3011   6534   6535     1  180.0000771  10.4600000  2
   3008   3007   3011   3013     1  0.0000000  3.3472000  1
   3008   3007   3011   3013     1  0.0000000  0.0000000  2
   3008   3007   3011   3013     1  180.0000771  0.3347200  3
   3008   3007   3011   6534     1  180.0000771  0.0000000  2
   3009   3007   3011   3013     1  0.0000000  3.3472000  1
   3009   3007   3011   3013     1  0.0000000  0.0000000  2
   3009   3007   3011   3013     1  180.0000771  0.3347200  3
   3009   3007   3011   6534     1  180.0000771  0.0000000  2
   3010   6505   6507   6508     1  0.0000000  0.0000000  2
   3010   6505   6507   6510     1  0.0000000  0.0000000  2
   3011   6534   6536   6537     1  0.0000000  0.0000000  2
   3011   6534   6536   6539     1  0.0000000  0.0000000  2
   3012   3010   6505   6506     1  0.0000000  8.3680000  1
   3012   3010   6505   6506     1  180.0000771  10.4600000  2
   3013   3011   6534   6535     1  0.0000000  8.3680000  1
   3013   3011   6534   6535     1  180.0000771  10.4600000  2
   3016   3019   3039   3040     1  0.0000000  0.0000000  2
   3016   3022   3023   3024     1  0.0000000  1.2552000  3
   3016   3022   3023   3025     1  0.0000000  1.2552000  3
   3016   3022   3026   3027     1  0.0000000  1.2552000  3
   3016   3022   3026   3028     1  0.0000000  1.2552000  3
   3017   3016   3019   3039     1  0.0000000  0.6508444  3
   3017   3016   3019   3020     1  0.0000000  0.6508444  3
   3017   3016   3019   3021     1  0.0000000  0.6508444  3
   3017   3016   3022   3023     1  0.0000000  1.2552000  3
   3017   3016   3022   3026     1  0.0000000  1.2552000  3
   3018   3016   3019   3039     1  0.0000000  0.6508444  3
   3018   3016   3019   3020     1  0.0000000  0.6508444  3
   3018   3016   3019   3021     1  0.0000000  0.6508444  3
   3018   3016   3022   3023     1  0.0000000  1.2552000  3
   3018   3016   3022   3026     1  0.0000000  1.2552000  3
   3020   3019   3016   3022     1  0.0000000  0.6508444  3
   3020   3019   3039   3040     1  0.0000000  0.0000000  2
   3021   3019   3016   3022     1  0.0000000  0.6508444  3
   3021   3019   3039   3040     1  0.0000000  0.0000000  2
   3022   3023   3032   3033     1  0.0000000  0.6508444  3
   3022   3023   3032   3034     1  0.0000000  0.6508444  3
   3022   3026   3029   3030     1  0.0000000  0.6508444  3
   3022   3026   3029   3031     1  0.0000000  0.6508444  3
   3023   3022   3026   3027     1  0.0000000  1.2552000  3
   3023   3022   3026   3028     1  0.0000000  1.2552000  3
   3024   3023   3022   3026     1  0.0000000  1.2552000  3
   3024   3023   3032   3036     1  0.0000000  0.6508444  3
   3024   3023   3032   3033     1  0.0000000  0.6508444  3
   3024   3023   3032   3034     1  0.0000000  0.6508444  3
   3025   3023   3022   3026     1  0.0000000  1.2552000  3
   3025   3023   3032   3036     1  0.0000000  0.6508444  3
   3025   3023   3032   3033     1  0.0000000  0.6508444  3
   3025   3023   3032   3034     1  0.0000000  0.6508444  3
   3027   3026   3029   3035     1  0.0000000  0.6508444  3
   3027   3026   3029   3030     1  0.0000000  0.6508444  3
   3027   3026   3029   3031     1  0.0000000  0.6508444  3
   3028   3026   3029   3035     1  0.0000000  0.6508444  3
   3028   3026   3029   3030     1  0.0000000  0.6508444  3
   3028   3026   3029   3031     1  0.0000000  0.6508444  3
   3029   3035   6563   6564     1  180.0000771  10.4600000  2
   3030   3029   3035   6563     1  180.0000771  0.0000000  2
   3030   3029   3035   3037     1  0.0000000  3.3472000  1
   3030   3029   3035   3037     1  0.0000000  0.0000000  2
   3030   3029   3035   3037     1  180.0000771  0.3347200  3
   3031   3029   3035   6563     1  180.0000771  0.0000000  2
   3031   3029   3035   3037     1  0.0000000  3.3472000  1
   3031   3029   3035   3037     1  0.0000000  0.0000000  2
   3031   3029   3035   3037     1  180.0000771  0.3347200  3
   3032   3036   6592   6593     1  180.0000771  10.4600000  2
   3033   3032   3036   3038     1  0.0000000  3.3472000  1
   3033   3032   3036   3038     1  0.0000000  0.0000000  2
   3033   3032   3036   3038     1  180.0000771  0.3347200  3
   3033   3032   3036   6592     1  180.0000771  0.0000000  2
   3034   3032   3036   3038     1  0.0000000  3.3472000  1
   3034   3032   3036   3038     1  0.0000000  0.0000000  2
   3034   3032   3036   3038     1  180.0000771  0.3347200  3
   3034   3032   3036   6592     1  180.0000771  0.0000000  2
   3035   6563   6565   6566     1  0.0000000  0.0000000  2
   3035   6563   6565   6568     1  0.0000000  0.0000000  2
   3036   6592   6594   6595     1  0.0000000  0.0000000  2
   3036   6592   6594   6597     1  0.0000000  0.0000000  2
   3037   3035   6563   6564     1  0.0000000  8.3680000  1
   3037   3035   6563   6564     1  180.0000771  10.4600000  2
   3038   3036   6592   6593     1  0.0000000  8.3680000  1
   3038   3036   6592   6593     1  180.0000771  10.4600000  2
   3041   3044   3064   3065     1  0.0000000  0.0000000  2
   3041   3047   3048   3049     1  0.0000000  1.2552000  3
   3041   3047   3048   3050     1  0.0000000  1.2552000  3
   3041   3047   3051   3052     1  0.0000000  1.2552000  3
   3041   3047   3051   3053     1  0.0000000  1.2552000  3
   3042   3041   3044   3064     1  0.0000000  0.6508444  3
   3042   3041   3044   3045     1  0.0000000  0.6508444  3
   3042   3041   3044   3046     1  0.0000000  0.6508444  3
   3042   3041   3047   3048     1  0.0000000  1.2552000  3
   3042   3041   3047   3051     1  0.0000000  1.2552000  3
   3043   3041   3044   3064     1  0.0000000  0.6508444  3
   3043   3041   3044   3045     1  0.0000000  0.6508444  3
   3043   3041   3044   3046     1  0.0000000  0.6508444  3
   3043   3041   3047   3048     1  0.0000000  1.2552000  3
   3043   3041   3047   3051     1  0.0000000  1.2552000  3
   3045   3044   3041   3047     1  0.0000000  0.6508444  3
   3045   3044   3064   3065     1  0.0000000  0.0000000  2
   3046   3044   3041   3047     1  0.0000000  0.6508444  3
   3046   3044   3064   3065     1  0.0000000  0.0000000  2
   3047   3048   3057   3058     1  0.0000000  0.6508444  3
   3047   3048   3057   3059     1  0.0000000  0.6508444  3
   3047   3051   3054   3055     1  0.0000000  0.6508444  3
   3047   3051   3054   3056     1  0.0000000  0.6508444  3
   3048   3047   3051   3052     1  0.0000000  1.2552000  3
   3048   3047   3051   3053     1  0.0000000  1.2552000  3
   3049   3048   3047   3051     1  0.0000000  1.2552000  3
   3049   3048   3057   3061     1  0.0000000  0.6508444  3
   3049   3048   3057   3058     1  0.0000000  0.6508444  3
   3049   3048   3057   3059     1  0.0000000  0.6508444  3
   3050   3048   3047   3051     1  0.0000000  1.2552000  3
   3050   3048   3057   3061     1  0.0000000  0.6508444  3
   3050   3048   3057   3058     1  0.0000000  0.6508444  3
   3050   3048   3057   3059     1  0.0000000  0.6508444  3
   3052   3051   3054   3060     1  0.0000000  0.6508444  3
   3052   3051   3054   3055     1  0.0000000  0.6508444  3
   3052   3051   3054   3056     1  0.0000000  0.6508444  3
   3053   3051   3054   3060     1  0.0000000  0.6508444  3
   3053   3051   3054   3055     1  0.0000000  0.6508444  3
   3053   3051   3054   3056     1  0.0000000  0.6508444  3
   3054   3060   6621   6622     1  180.0000771  10.4600000  2
   3055   3054   3060   6621     1  180.0000771  0.0000000  2
   3055   3054   3060   3062     1  0.0000000  3.3472000  1
   3055   3054   3060   3062     1  0.0000000  0.0000000  2
   3055   3054   3060   3062     1  180.0000771  0.3347200  3
   3056   3054   3060   6621     1  180.0000771  0.0000000  2
   3056   3054   3060   3062     1  0.0000000  3.3472000  1
   3056   3054   3060   3062     1  0.0000000  0.0000000  2
   3056   3054   3060   3062     1  180.0000771  0.3347200  3
   3057   3061   6650   6651     1  180.0000771  10.4600000  2
   3058   3057   3061   3063     1  0.0000000  3.3472000  1
   3058   3057   3061   3063     1  0.0000000  0.0000000  2
   3058   3057   3061   3063     1  180.0000771  0.3347200  3
   3058   3057   3061   6650     1  180.0000771  0.0000000  2
   3059   3057   3061   3063     1  0.0000000  3.3472000  1
   3059   3057   3061   3063     1  0.0000000  0.0000000  2
   3059   3057   3061   3063     1  180.0000771  0.3347200  3
   3059   3057   3061   6650     1  180.0000771  0.0000000  2
   3060   6621   6623   6624     1  0.0000000  0.0000000  2
   3060   6621   6623   6626     1  0.0000000  0.0000000  2
   3061   6650   6652   6653     1  0.0000000  0.0000000  2
   3061   6650   6652   6655     1  0.0000000  0.0000000  2
   3062   3060   6621   6622     1  0.0000000  8.3680000  1
   3062   3060   6621   6622     1  180.0000771  10.4600000  2
   3063   3061   6650   6651     1  0.0000000  8.3680000  1
   3063   3061   6650   6651     1  180.0000771  10.4600000  2
   3066   3069   3089   3090     1  0.0000000  0.0000000  2
   3066   3072   3073   3074     1  0.0000000  1.2552000  3
   3066   3072   3073   3075     1  0.0000000  1.2552000  3
   3066   3072   3076   3077     1  0.0000000  1.2552000  3
   3066   3072   3076   3078     1  0.0000000  1.2552000  3
   3067   3066   3069   3089     1  0.0000000  0.6508444  3
   3067   3066   3069   3070     1  0.0000000  0.6508444  3
   3067   3066   3069   3071     1  0.0000000  0.6508444  3
   3067   3066   3072   3073     1  0.0000000  1.2552000  3
   3067   3066   3072   3076     1  0.0000000  1.2552000  3
   3068   3066   3069   3089     1  0.0000000  0.6508444  3
   3068   3066   3069   3070     1  0.0000000  0.6508444  3
   3068   3066   3069   3071     1  0.0000000  0.6508444  3
   3068   3066   3072   3073     1  0.0000000  1.2552000  3
   3068   3066   3072   3076     1  0.0000000  1.2552000  3
   3070   3069   3066   3072     1  0.0000000  0.6508444  3
   3070   3069   3089   3090     1  0.0000000  0.0000000  2
   3071   3069   3066   3072     1  0.0000000  0.6508444  3
   3071   3069   3089   3090     1  0.0000000  0.0000000  2
   3072   3073   3082   3083     1  0.0000000  0.6508444  3
   3072   3073   3082   3084     1  0.0000000  0.6508444  3
   3072   3076   3079   3080     1  0.0000000  0.6508444  3
   3072   3076   3079   3081     1  0.0000000  0.6508444  3
   3073   3072   3076   3077     1  0.0000000  1.2552000  3
   3073   3072   3076   3078     1  0.0000000  1.2552000  3
   3074   3073   3072   3076     1  0.0000000  1.2552000  3
   3074   3073   3082   3086     1  0.0000000  0.6508444  3
   3074   3073   3082   3083     1  0.0000000  0.6508444  3
   3074   3073   3082   3084     1  0.0000000  0.6508444  3
   3075   3073   3072   3076     1  0.0000000  1.2552000  3
   3075   3073   3082   3086     1  0.0000000  0.6508444  3
   3075   3073   3082   3083     1  0.0000000  0.6508444  3
   3075   3073   3082   3084     1  0.0000000  0.6508444  3
   3077   3076   3079   3085     1  0.0000000  0.6508444  3
   3077   3076   3079   3080     1  0.0000000  0.6508444  3
   3077   3076   3079   3081     1  0.0000000  0.6508444  3
   3078   3076   3079   3085     1  0.0000000  0.6508444  3
   3078   3076   3079   3080     1  0.0000000  0.6508444  3
   3078   3076   3079   3081     1  0.0000000  0.6508444  3
   3079   3085   6679   6680     1  180.0000771  10.4600000  2
   3080   3079   3085   6679     1  180.0000771  0.0000000  2
   3080   3079   3085   3087     1  0.0000000  3.3472000  1
   3080   3079   3085   3087     1  0.0000000  0.0000000  2
   3080   3079   3085   3087     1  180.0000771  0.3347200  3
   3081   3079   3085   6679     1  180.0000771  0.0000000  2
   3081   3079   3085   3087     1  0.0000000  3.3472000  1
   3081   3079   3085   3087     1  0.0000000  0.0000000  2
   3081   3079   3085   3087     1  180.0000771  0.3347200  3
   3082   3086   6708   6709     1  180.0000771  10.4600000  2
   3083   3082   3086   3088     1  0.0000000  3.3472000  1
   3083   3082   3086   3088     1  0.0000000  0.0000000  2
   3083   3082   3086   3088     1  180.0000771  0.3347200  3
   3083   3082   3086   6708     1  180.0000771  0.0000000  2
   3084   3082   3086   3088     1  0.0000000  3.3472000  1
   3084   3082   3086   3088     1  0.0000000  0.0000000  2
   3084   3082   3086   3088     1  180.0000771  0.3347200  3
   3084   3082   3086   6708     1  180.0000771  0.0000000  2
   3085   6679   6681   6682     1  0.0000000  0.0000000  2
   3085   6679   6681   6684     1  0.0000000  0.0000000  2
   3086   6708   6710   6711     1  0.0000000  0.0000000  2
   3086   6708   6710   6713     1  0.0000000  0.0000000  2
   3087   3085   6679   6680     1  0.0000000  8.3680000  1
   3087   3085   6679   6680     1  180.0000771  10.4600000  2
   3088   3086   6708   6709     1  0.0000000  8.3680000  1
   3088   3086   6708   6709     1  180.0000771  10.4600000  2
   3091   3094   3114   3115     1  0.0000000  0.0000000  2
   3091   3097   3098   3099     1  0.0000000  1.2552000  3
   3091   3097   3098   3100     1  0.0000000  1.2552000  3
   3091   3097   3101   3102     1  0.0000000  1.2552000  3
   3091   3097   3101   3103     1  0.0000000  1.2552000  3
   3092   3091   3094   3114     1  0.0000000  0.6508444  3
   3092   3091   3094   3095     1  0.0000000  0.6508444  3
   3092   3091   3094   3096     1  0.0000000  0.6508444  3
   3092   3091   3097   3098     1  0.0000000  1.2552000  3
   3092   3091   3097   3101     1  0.0000000  1.2552000  3
   3093   3091   3094   3114     1  0.0000000  0.6508444  3
   3093   3091   3094   3095     1  0.0000000  0.6508444  3
   3093   3091   3094   3096     1  0.0000000  0.6508444  3
   3093   3091   3097   3098     1  0.0000000  1.2552000  3
   3093   3091   3097   3101     1  0.0000000  1.2552000  3
   3095   3094   3091   3097     1  0.0000000  0.6508444  3
   3095   3094   3114   3115     1  0.0000000  0.0000000  2
   3096   3094   3091   3097     1  0.0000000  0.6508444  3
   3096   3094   3114   3115     1  0.0000000  0.0000000  2
   3097   3098   3107   3108     1  0.0000000  0.6508444  3
   3097   3098   3107   3109     1  0.0000000  0.6508444  3
   3097   3101   3104   3105     1  0.0000000  0.6508444  3
   3097   3101   3104   3106     1  0.0000000  0.6508444  3
   3098   3097   3101   3102     1  0.0000000  1.2552000  3
   3098   3097   3101   3103     1  0.0000000  1.2552000  3
   3099   3098   3097   3101     1  0.0000000  1.2552000  3
   3099   3098   3107   3111     1  0.0000000  0.6508444  3
   3099   3098   3107   3108     1  0.0000000  0.6508444  3
   3099   3098   3107   3109     1  0.0000000  0.6508444  3
   3100   3098   3097   3101     1  0.0000000  1.2552000  3
   3100   3098   3107   3111     1  0.0000000  0.6508444  3
   3100   3098   3107   3108     1  0.0000000  0.6508444  3
   3100   3098   3107   3109     1  0.0000000  0.6508444  3
   3102   3101   3104   3110     1  0.0000000  0.6508444  3
   3102   3101   3104   3105     1  0.0000000  0.6508444  3
   3102   3101   3104   3106     1  0.0000000  0.6508444  3
   3103   3101   3104   3110     1  0.0000000  0.6508444  3
   3103   3101   3104   3105     1  0.0000000  0.6508444  3
   3103   3101   3104   3106     1  0.0000000  0.6508444  3
   3104   3110   6737   6738     1  180.0000771  10.4600000  2
   3105   3104   3110   6737     1  180.0000771  0.0000000  2
   3105   3104   3110   3112     1  0.0000000  3.3472000  1
   3105   3104   3110   3112     1  0.0000000  0.0000000  2
   3105   3104   3110   3112     1  180.0000771  0.3347200  3
   3106   3104   3110   6737     1  180.0000771  0.0000000  2
   3106   3104   3110   3112     1  0.0000000  3.3472000  1
   3106   3104   3110   3112     1  0.0000000  0.0000000  2
   3106   3104   3110   3112     1  180.0000771  0.3347200  3
   3107   3111   6766   6767     1  180.0000771  10.4600000  2
   3108   3107   3111   3113     1  0.0000000  3.3472000  1
   3108   3107   3111   3113     1  0.0000000  0.0000000  2
   3108   3107   3111   3113     1  180.0000771  0.3347200  3
   3108   3107   3111   6766     1  180.0000771  0.0000000  2
   3109   3107   3111   3113     1  0.0000000  3.3472000  1
   3109   3107   3111   3113     1  0.0000000  0.0000000  2
   3109   3107   3111   3113     1  180.0000771  0.3347200  3
   3109   3107   3111   6766     1  180.0000771  0.0000000  2
   3110   6737   6739   6740     1  0.0000000  0.0000000  2
   3110   6737   6739   6742     1  0.0000000  0.0000000  2
   3111   6766   6768   6769     1  0.0000000  0.0000000  2
   3111   6766   6768   6771     1  0.0000000  0.0000000  2
   3112   3110   6737   6738     1  0.0000000  8.3680000  1
   3112   3110   6737   6738     1  180.0000771  10.4600000  2
   3113   3111   6766   6767     1  0.0000000  8.3680000  1
   3113   3111   6766   6767     1  180.0000771  10.4600000  2
   3116   3119   3139   3140     1  0.0000000  0.0000000  2
   3116   3122   3123   3124     1  0.0000000  1.2552000  3
   3116   3122   3123   3125     1  0.0000000  1.2552000  3
   3116   3122   3126   3127     1  0.0000000  1.2552000  3
   3116   3122   3126   3128     1  0.0000000  1.2552000  3
   3117   3116   3119   3139     1  0.0000000  0.6508444  3
   3117   3116   3119   3120     1  0.0000000  0.6508444  3
   3117   3116   3119   3121     1  0.0000000  0.6508444  3
   3117   3116   3122   3123     1  0.0000000  1.2552000  3
   3117   3116   3122   3126     1  0.0000000  1.2552000  3
   3118   3116   3119   3139     1  0.0000000  0.6508444  3
   3118   3116   3119   3120     1  0.0000000  0.6508444  3
   3118   3116   3119   3121     1  0.0000000  0.6508444  3
   3118   3116   3122   3123     1  0.0000000  1.2552000  3
   3118   3116   3122   3126     1  0.0000000  1.2552000  3
   3120   3119   3116   3122     1  0.0000000  0.6508444  3
   3120   3119   3139   3140     1  0.0000000  0.0000000  2
   3121   3119   3116   3122     1  0.0000000  0.6508444  3
   3121   3119   3139   3140     1  0.0000000  0.0000000  2
   3122   3123   3132   3133     1  0.0000000  0.6508444  3
   3122   3123   3132   3134     1  0.0000000  0.6508444  3
   3122   3126   3129   3130     1  0.0000000  0.6508444  3
   3122   3126   3129   3131     1  0.0000000  0.6508444  3
   3123   3122   3126   3127     1  0.0000000  1.2552000  3
   3123   3122   3126   3128     1  0.0000000  1.2552000  3
   3124   3123   3122   3126     1  0.0000000  1.2552000  3
   3124   3123   3132   3136     1  0.0000000  0.6508444  3
   3124   3123   3132   3133     1  0.0000000  0.6508444  3
   3124   3123   3132   3134     1  0.0000000  0.6508444  3
   3125   3123   3122   3126     1  0.0000000  1.2552000  3
   3125   3123   3132   3136     1  0.0000000  0.6508444  3
   3125   3123   3132   3133     1  0.0000000  0.6508444  3
   3125   3123   3132   3134     1  0.0000000  0.6508444  3
   3127   3126   3129   3135     1  0.0000000  0.6508444  3
   3127   3126   3129   3130     1  0.0000000  0.6508444  3
   3127   3126   3129   3131     1  0.0000000  0.6508444  3
   3128   3126   3129   3135     1  0.0000000  0.6508444  3
   3128   3126   3129   3130     1  0.0000000  0.6508444  3
   3128   3126   3129   3131     1  0.0000000  0.6508444  3
   3129   3135   6795   6796     1  180.0000771  10.4600000  2
   3130   3129   3135   6795     1  180.0000771  0.0000000  2
   3130   3129   3135   3137     1  0.0000000  3.3472000  1
   3130   3129   3135   3137     1  0.0000000  0.0000000  2
   3130   3129   3135   3137     1  180.0000771  0.3347200  3
   3131   3129   3135   6795     1  180.0000771  0.0000000  2
   3131   3129   3135   3137     1  0.0000000  3.3472000  1
   3131   3129   3135   3137     1  0.0000000  0.0000000  2
   3131   3129   3135   3137     1  180.0000771  0.3347200  3
   3132   3136   6824   6825     1  180.0000771  10.4600000  2
   3133   3132   3136   6824     1  180.0000771  0.0000000  2
   3133   3132   3136   3138     1  0.0000000  3.3472000  1
   3133   3132   3136   3138     1  0.0000000  0.0000000  2
   3133   3132   3136   3138     1  180.0000771  0.3347200  3
   3134   3132   3136   6824     1  180.0000771  0.0000000  2
   3134   3132   3136   3138     1  0.0000000  3.3472000  1
   3134   3132   3136   3138     1  0.0000000  0.0000000  2
   3134   3132   3136   3138     1  180.0000771  0.3347200  3
   3135   6795   6797   6798     1  0.0000000  0.0000000  2
   3135   6795   6797   6800     1  0.0000000  0.0000000  2
   3136   6824   6826   6827     1  0.0000000  0.0000000  2
   3136   6824   6826   6829     1  0.0000000  0.0000000  2
   3137   3135   6795   6796     1  0.0000000  8.3680000  1
   3137   3135   6795   6796     1  180.0000771  10.4600000  2
   3138   3136   6824   6825     1  0.0000000  8.3680000  1
   3138   3136   6824   6825     1  180.0000771  10.4600000  2
   3141   3143   3145   3147     1  0.0000000  0.6508444  3
   3141   3143   3145   3148     1  0.0000000  0.6508444  3
   3142   3141   3143   3145     1  0.0000000  0.0000000  2
   3142   3141   3143   3144     1  0.0000000  0.0000000  2
   3142   3141   3143   3146     1  0.0000000  0.0000000  2
   3144   3143   3145   3149     1  0.0000000  0.6508444  3
   3144   3143   3145   3147     1  0.0000000  0.6508444  3
   3144   3143   3145   3148     1  0.0000000  0.6508444  3
   3145   3149   3150   3160     1  0.0000000  1.2552000  3
   3145   3149   3150   3161     1  0.0000000  1.2552000  3
   3145   3149   3151   3152     1  0.0000000  1.2552000  3
   3145   3149   3151   3154     1  0.0000000  1.2552000  3
   3146   3143   3145   3149     1  0.0000000  0.6508444  3
   3146   3143   3145   3147     1  0.0000000  0.6508444  3
   3146   3143   3145   3148     1  0.0000000  0.6508444  3
   3147   3145   3149   3150     1  0.0000000  1.2552000  3
   3147   3145   3149   3151     1  0.0000000  1.2552000  3
   3148   3145   3149   3150     1  0.0000000  1.2552000  3
   3148   3145   3149   3151     1  0.0000000  1.2552000  3
   3149   3150   3162   3163     1  0.0000000  0.6508444  3
   3149   3150   3162   3164     1  0.0000000  0.6508444  3
   3149   3151   3153   3155     1  0.0000000  0.6508444  3
   3149   3151   3153   3156     1  0.0000000  0.6508444  3
   3150   3149   3151   3152     1  0.0000000  1.2552000  3
   3150   3149   3151   3154     1  0.0000000  1.2552000  3
   3151   3149   3150   3160     1  0.0000000  1.2552000  3
   3151   3149   3150   3161     1  0.0000000  1.2552000  3
   3152   3151   3153   3157     1  0.0000000  0.6508444  3
   3152   3151   3153   3155     1  0.0000000  0.6508444  3
   3152   3151   3153   3156     1  0.0000000  0.6508444  3
   3153   3157   3158   3168     1  180.0000771  9.6232000  2
   3154   3151   3153   3157     1  0.0000000  0.6508444  3
   3154   3151   3153   3155     1  0.0000000  0.6508444  3
   3154   3151   3153   3156     1  0.0000000  0.6508444  3
   3155   3153   3157   3158     1  180.0000771  0.0000000  2
   3155   3153   3157   3159     1  0.0000000  3.3472000  1
   3155   3153   3157   3159     1  0.0000000  0.0000000  2
   3155   3153   3157   3159     1  180.0000771  0.3347200  3
   3156   3153   3157   3158     1  180.0000771  0.0000000  2
   3156   3153   3157   3159     1  0.0000000  3.3472000  1
   3156   3153   3157   3159     1  0.0000000  0.0000000  2
   3156   3153   3157   3159     1  180.0000771  0.3347200  3
   3159   3157   3158   3168     1  0.0000000  7.9496000  1
   3159   3157   3158   3168     1  180.0000771  9.6232000  2
   3160   3150   3162   3165     1  0.0000000  0.6508444  3
   3160   3150   3162   3163     1  0.0000000  0.6508444  3
   3160   3150   3162   3164     1  0.0000000  0.6508444  3
   3161   3150   3162   3165     1  0.0000000  0.6508444  3
   3161   3150   3162   3163     1  0.0000000  0.6508444  3
   3161   3150   3162   3164     1  0.0000000  0.6508444  3
   3162   3165   3167   3169     1  180.0000771  9.6232000  2
   3163   3162   3165   3166     1  0.0000000  3.3472000  1
   3163   3162   3165   3166     1  0.0000000  0.0000000  2
   3163   3162   3165   3166     1  180.0000771  0.3347200  3
   3163   3162   3165   3167     1  180.0000771  0.0000000  2
   3164   3162   3165   3166     1  0.0000000  3.3472000  1
   3164   3162   3165   3166     1  0.0000000  0.0000000  2
   3164   3162   3165   3166     1  180.0000771  0.3347200  3
   3164   3162   3165   3167     1  180.0000771  0.0000000  2
   3166   3165   3167   3169     1  0.0000000  7.9496000  1
   3166   3165   3167   3169     1  180.0000771  9.6232000  2
   3170   3172   3174   3176     1  0.0000000  0.6508444  3
   3170   3172   3174   3177     1  0.0000000  0.6508444  3
   3171   3170   3172   3174     1  0.0000000  0.0000000  2
   3171   3170   3172   3173     1  0.0000000  0.0000000  2
   3171   3170   3172   3175     1  0.0000000  0.0000000  2
   3173   3172   3174   3178     1  0.0000000  0.6508444  3
   3173   3172   3174   3176     1  0.0000000  0.6508444  3
   3173   3172   3174   3177     1  0.0000000  0.6508444  3
   3174   3178   3179   3189     1  0.0000000  1.2552000  3
   3174   3178   3179   3190     1  0.0000000  1.2552000  3
   3174   3178   3180   3181     1  0.0000000  1.2552000  3
   3174   3178   3180   3183     1  0.0000000  1.2552000  3
   3175   3172   3174   3178     1  0.0000000  0.6508444  3
   3175   3172   3174   3176     1  0.0000000  0.6508444  3
   3175   3172   3174   3177     1  0.0000000  0.6508444  3
   3176   3174   3178   3179     1  0.0000000  1.2552000  3
   3176   3174   3178   3180     1  0.0000000  1.2552000  3
   3177   3174   3178   3179     1  0.0000000  1.2552000  3
   3177   3174   3178   3180     1  0.0000000  1.2552000  3
   3178   3179   3191   3192     1  0.0000000  0.6508444  3
   3178   3179   3191   3193     1  0.0000000  0.6508444  3
   3178   3180   3182   3184     1  0.0000000  0.6508444  3
   3178   3180   3182   3185     1  0.0000000  0.6508444  3
   3179   3178   3180   3181     1  0.0000000  1.2552000  3
   3179   3178   3180   3183     1  0.0000000  1.2552000  3
   3180   3178   3179   3189     1  0.0000000  1.2552000  3
   3180   3178   3179   3190     1  0.0000000  1.2552000  3
   3181   3180   3182   3186     1  0.0000000  0.6508444  3
   3181   3180   3182   3184     1  0.0000000  0.6508444  3
   3181   3180   3182   3185     1  0.0000000  0.6508444  3
   3182   3186   3187   3197     1  180.0000771  9.6232000  2
   3183   3180   3182   3186     1  0.0000000  0.6508444  3
   3183   3180   3182   3184     1  0.0000000  0.6508444  3
   3183   3180   3182   3185     1  0.0000000  0.6508444  3
   3184   3182   3186   3187     1  180.0000771  0.0000000  2
   3184   3182   3186   3188     1  0.0000000  3.3472000  1
   3184   3182   3186   3188     1  0.0000000  0.0000000  2
   3184   3182   3186   3188     1  180.0000771  0.3347200  3
   3185   3182   3186   3187     1  180.0000771  0.0000000  2
   3185   3182   3186   3188     1  0.0000000  3.3472000  1
   3185   3182   3186   3188     1  0.0000000  0.0000000  2
   3185   3182   3186   3188     1  180.0000771  0.3347200  3
   3188   3186   3187   3197     1  0.0000000  7.9496000  1
   3188   3186   3187   3197     1  180.0000771  9.6232000  2
   3189   3179   3191   3194     1  0.0000000  0.6508444  3
   3189   3179   3191   3192     1  0.0000000  0.6508444  3
   3189   3179   3191   3193     1  0.0000000  0.6508444  3
   3190   3179   3191   3194     1  0.0000000  0.6508444  3
   3190   3179   3191   3192     1  0.0000000  0.6508444  3
   3190   3179   3191   3193     1  0.0000000  0.6508444  3
   3191   3194   3196   3198     1  180.0000771  9.6232000  2
   3192   3191   3194   3195     1  0.0000000  3.3472000  1
   3192   3191   3194   3195     1  0.0000000  0.0000000  2
   3192   3191   3194   3195     1  180.0000771  0.3347200  3
   3192   3191   3194   3196     1  180.0000771  0.0000000  2
   3193   3191   3194   3195     1  0.0000000  3.3472000  1
   3193   3191   3194   3195     1  0.0000000  0.0000000  2
   3193   3191   3194   3195     1  180.0000771  0.3347200  3
   3193   3191   3194   3196     1  180.0000771  0.0000000  2
   3195   3194   3196   3198     1  0.0000000  7.9496000  1
   3195   3194   3196   3198     1  180.0000771  9.6232000  2
   3199   3201   3203   3205     1  0.0000000  0.6508444  3
   3199   3201   3203   3206     1  0.0000000  0.6508444  3
   3200   3199   3201   3203     1  0.0000000  0.0000000  2
   3200   3199   3201   3202     1  0.0000000  0.0000000  2
   3200   3199   3201   3204     1  0.0000000  0.0000000  2
   3202   3201   3203   3207     1  0.0000000  0.6508444  3
   3202   3201   3203   3205     1  0.0000000  0.6508444  3
   3202   3201   3203   3206     1  0.0000000  0.6508444  3
   3203   3207   3208   3218     1  0.0000000  1.2552000  3
   3203   3207   3208   3219     1  0.0000000  1.2552000  3
   3203   3207   3209   3210     1  0.0000000  1.2552000  3
   3203   3207   3209   3212     1  0.0000000  1.2552000  3
   3204   3201   3203   3207     1  0.0000000  0.6508444  3
   3204   3201   3203   3205     1  0.0000000  0.6508444  3
   3204   3201   3203   3206     1  0.0000000  0.6508444  3
   3205   3203   3207   3208     1  0.0000000  1.2552000  3
   3205   3203   3207   3209     1  0.0000000  1.2552000  3
   3206   3203   3207   3208     1  0.0000000  1.2552000  3
   3206   3203   3207   3209     1  0.0000000  1.2552000  3
   3207   3208   3220   3221     1  0.0000000  0.6508444  3
   3207   3208   3220   3222     1  0.0000000  0.6508444  3
   3207   3209   3211   3213     1  0.0000000  0.6508444  3
   3207   3209   3211   3214     1  0.0000000  0.6508444  3
   3208   3207   3209   3210     1  0.0000000  1.2552000  3
   3208   3207   3209   3212     1  0.0000000  1.2552000  3
   3209   3207   3208   3218     1  0.0000000  1.2552000  3
   3209   3207   3208   3219     1  0.0000000  1.2552000  3
   3210   3209   3211   3215     1  0.0000000  0.6508444  3
   3210   3209   3211   3213     1  0.0000000  0.6508444  3
   3210   3209   3211   3214     1  0.0000000  0.6508444  3
   3211   3215   3216   3226     1  180.0000771  9.6232000  2
   3212   3209   3211   3215     1  0.0000000  0.6508444  3
   3212   3209   3211   3213     1  0.0000000  0.6508444  3
   3212   3209   3211   3214     1  0.0000000  0.6508444  3
   3213   3211   3215   3216     1  180.0000771  0.0000000  2
   3213   3211   3215   3217     1  0.0000000  3.3472000  1
   3213   3211   3215   3217     1  0.0000000  0.0000000  2
   3213   3211   3215   3217     1  180.0000771  0.3347200  3
   3214   3211   3215   3216     1  180.0000771  0.0000000  2
   3214   3211   3215   3217     1  0.0000000  3.3472000  1
   3214   3211   3215   3217     1  0.0000000  0.0000000  2
   3214   3211   3215   3217     1  180.0000771  0.3347200  3
   3217   3215   3216   3226     1  0.0000000  7.9496000  1
   3217   3215   3216   3226     1  180.0000771  9.6232000  2
   3218   3208   3220   3223     1  0.0000000  0.6508444  3
   3218   3208   3220   3221     1  0.0000000  0.6508444  3
   3218   3208   3220   3222     1  0.0000000  0.6508444  3
   3219   3208   3220   3223     1  0.0000000  0.6508444  3
   3219   3208   3220   3221     1  0.0000000  0.6508444  3
   3219   3208   3220   3222     1  0.0000000  0.6508444  3
   3220   3223   3225   3227     1  180.0000771  9.6232000  2
   3221   3220   3223   3224     1  0.0000000  3.3472000  1
   3221   3220   3223   3224     1  0.0000000  0.0000000  2
   3221   3220   3223   3224     1  180.0000771  0.3347200  3
   3221   3220   3223   3225     1  180.0000771  0.0000000  2
   3222   3220   3223   3224     1  0.0000000  3.3472000  1
   3222   3220   3223   3224     1  0.0000000  0.0000000  2
   3222   3220   3223   3224     1  180.0000771  0.3347200  3
   3222   3220   3223   3225     1  180.0000771  0.0000000  2
   3224   3223   3225   3227     1  0.0000000  7.9496000  1
   3224   3223   3225   3227     1  180.0000771  9.6232000  2
   3228   3230   3232   3234     1  0.0000000  0.6508444  3
   3228   3230   3232   3235     1  0.0000000  0.6508444  3
   3229   3228   3230   3232     1  0.0000000  0.0000000  2
   3229   3228   3230   3231     1  0.0000000  0.0000000  2
   3229   3228   3230   3233     1  0.0000000  0.0000000  2
   3231   3230   3232   3236     1  0.0000000  0.6508444  3
   3231   3230   3232   3234     1  0.0000000  0.6508444  3
   3231   3230   3232   3235     1  0.0000000  0.6508444  3
   3232   3236   3237   3247     1  0.0000000  1.2552000  3
   3232   3236   3237   3248     1  0.0000000  1.2552000  3
   3232   3236   3238   3239     1  0.0000000  1.2552000  3
   3232   3236   3238   3241     1  0.0000000  1.2552000  3
   3233   3230   3232   3236     1  0.0000000  0.6508444  3
   3233   3230   3232   3234     1  0.0000000  0.6508444  3
   3233   3230   3232   3235     1  0.0000000  0.6508444  3
   3234   3232   3236   3237     1  0.0000000  1.2552000  3
   3234   3232   3236   3238     1  0.0000000  1.2552000  3
   3235   3232   3236   3237     1  0.0000000  1.2552000  3
   3235   3232   3236   3238     1  0.0000000  1.2552000  3
   3236   3237   3249   3250     1  0.0000000  0.6508444  3
   3236   3237   3249   3251     1  0.0000000  0.6508444  3
   3236   3238   3240   3242     1  0.0000000  0.6508444  3
   3236   3238   3240   3243     1  0.0000000  0.6508444  3
   3237   3236   3238   3239     1  0.0000000  1.2552000  3
   3237   3236   3238   3241     1  0.0000000  1.2552000  3
   3238   3236   3237   3247     1  0.0000000  1.2552000  3
   3238   3236   3237   3248     1  0.0000000  1.2552000  3
   3239   3238   3240   3244     1  0.0000000  0.6508444  3
   3239   3238   3240   3242     1  0.0000000  0.6508444  3
   3239   3238   3240   3243     1  0.0000000  0.6508444  3
   3240   3244   3245   3255     1  180.0000771  9.6232000  2
   3241   3238   3240   3244     1  0.0000000  0.6508444  3
   3241   3238   3240   3242     1  0.0000000  0.6508444  3
   3241   3238   3240   3243     1  0.0000000  0.6508444  3
   3242   3240   3244   3245     1  180.0000771  0.0000000  2
   3242   3240   3244   3246     1  0.0000000  3.3472000  1
   3242   3240   3244   3246     1  0.0000000  0.0000000  2
   3242   3240   3244   3246     1  180.0000771  0.3347200  3
   3243   3240   3244   3245     1  180.0000771  0.0000000  2
   3243   3240   3244   3246     1  0.0000000  3.3472000  1
   3243   3240   3244   3246     1  0.0000000  0.0000000  2
   3243   3240   3244   3246     1  180.0000771  0.3347200  3
   3246   3244   3245   3255     1  0.0000000  7.9496000  1
   3246   3244   3245   3255     1  180.0000771  9.6232000  2
   3247   3237   3249   3252     1  0.0000000  0.6508444  3
   3247   3237   3249   3250     1  0.0000000  0.6508444  3
   3247   3237   3249   3251     1  0.0000000  0.6508444  3
   3248   3237   3249   3252     1  0.0000000  0.6508444  3
   3248   3237   3249   3250     1  0.0000000  0.6508444  3
   3248   3237   3249   3251     1  0.0000000  0.6508444  3
   3249   3252   3254   3256     1  180.0000771  9.6232000  2
   3250   3249   3252   3253     1  0.0000000  3.3472000  1
   3250   3249   3252   3253     1  0.0000000  0.0000000  2
   3250   3249   3252   3253     1  180.0000771  0.3347200  3
   3250   3249   3252   3254     1  180.0000771  0.0000000  2
   3251   3249   3252   3253     1  0.0000000  3.3472000  1
   3251   3249   3252   3253     1  0.0000000  0.0000000  2
   3251   3249   3252   3253     1  180.0000771  0.3347200  3
   3251   3249   3252   3254     1  180.0000771  0.0000000  2
   3253   3252   3254   3256     1  0.0000000  7.9496000  1
   3253   3252   3254   3256     1  180.0000771  9.6232000  2
   3257   3259   3261   3263     1  0.0000000  0.6508444  3
   3257   3259   3261   3264     1  0.0000000  0.6508444  3
   3258   3257   3259   3261     1  0.0000000  0.0000000  2
   3258   3257   3259   3260     1  0.0000000  0.0000000  2
   3258   3257   3259   3262     1  0.0000000  0.0000000  2
   3260   3259   3261   3265     1  0.0000000  0.6508444  3
   3260   3259   3261   3263     1  0.0000000  0.6508444  3
   3260   3259   3261   3264     1  0.0000000  0.6508444  3
   3261   3265   3266   3276     1  0.0000000  1.2552000  3
   3261   3265   3266   3277     1  0.0000000  1.2552000  3
   3261   3265   3267   3268     1  0.0000000  1.2552000  3
   3261   3265   3267   3270     1  0.0000000  1.2552000  3
   3262   3259   3261   3265     1  0.0000000  0.6508444  3
   3262   3259   3261   3263     1  0.0000000  0.6508444  3
   3262   3259   3261   3264     1  0.0000000  0.6508444  3
   3263   3261   3265   3266     1  0.0000000  1.2552000  3
   3263   3261   3265   3267     1  0.0000000  1.2552000  3
   3264   3261   3265   3266     1  0.0000000  1.2552000  3
   3264   3261   3265   3267     1  0.0000000  1.2552000  3
   3265   3266   3278   3279     1  0.0000000  0.6508444  3
   3265   3266   3278   3280     1  0.0000000  0.6508444  3
   3265   3267   3269   3271     1  0.0000000  0.6508444  3
   3265   3267   3269   3272     1  0.0000000  0.6508444  3
   3266   3265   3267   3268     1  0.0000000  1.2552000  3
   3266   3265   3267   3270     1  0.0000000  1.2552000  3
   3267   3265   3266   3276     1  0.0000000  1.2552000  3
   3267   3265   3266   3277     1  0.0000000  1.2552000  3
   3268   3267   3269   3273     1  0.0000000  0.6508444  3
   3268   3267   3269   3271     1  0.0000000  0.6508444  3
   3268   3267   3269   3272     1  0.0000000  0.6508444  3
   3269   3273   3274   3284     1  180.0000771  9.6232000  2
   3270   3267   3269   3273     1  0.0000000  0.6508444  3
   3270   3267   3269   3271     1  0.0000000  0.6508444  3
   3270   3267   3269   3272     1  0.0000000  0.6508444  3
   3271   3269   3273   3274     1  180.0000771  0.0000000  2
   3271   3269   3273   3275     1  0.0000000  3.3472000  1
   3271   3269   3273   3275     1  0.0000000  0.0000000  2
   3271   3269   3273   3275     1  180.0000771  0.3347200  3
   3272   3269   3273   3274     1  180.0000771  0.0000000  2
   3272   3269   3273   3275     1  0.0000000  3.3472000  1
   3272   3269   3273   3275     1  0.0000000  0.0000000  2
   3272   3269   3273   3275     1  180.0000771  0.3347200  3
   3275   3273   3274   3284     1  0.0000000  7.9496000  1
   3275   3273   3274   3284     1  180.0000771  9.6232000  2
   3276   3266   3278   3281     1  0.0000000  0.6508444  3
   3276   3266   3278   3279     1  0.0000000  0.6508444  3
   3276   3266   3278   3280     1  0.0000000  0.6508444  3
   3277   3266   3278   3281     1  0.0000000  0.6508444  3
   3277   3266   3278   3279     1  0.0000000  0.6508444  3
   3277   3266   3278   3280     1  0.0000000  0.6508444  3
   3278   3281   3283   3285     1  180.0000771  9.6232000  2
   3279   3278   3281   3282     1  0.0000000  3.3472000  1
   3279   3278   3281   3282     1  0.0000000  0.0000000  2
   3279   3278   3281   3282     1  180.0000771  0.3347200  3
   3279   3278   3281   3283     1  180.0000771  0.0000000  2
   3280   3278   3281   3282     1  0.0000000  3.3472000  1
   3280   3278   3281   3282     1  0.0000000  0.0000000  2
   3280   3278   3281   3282     1  180.0000771  0.3347200  3
   3280   3278   3281   3283     1  180.0000771  0.0000000  2
   3282   3281   3283   3285     1  0.0000000  7.9496000  1
   3282   3281   3283   3285     1  180.0000771  9.6232000  2
   3286   3288   3290   3292     1  0.0000000  0.6508444  3
   3286   3288   3290   3293     1  0.0000000  0.6508444  3
   3287   3286   3288   3290     1  0.0000000  0.0000000  2
   3287   3286   3288   3289     1  0.0000000  0.0000000  2
   3287   3286   3288   3291     1  0.0000000  0.0000000  2
   3289   3288   3290   3294     1  0.0000000  0.6508444  3
   3289   3288   3290   3292     1  0.0000000  0.6508444  3
   3289   3288   3290   3293     1  0.0000000  0.6508444  3
   3290   3294   3295   3305     1  0.0000000  1.2552000  3
   3290   3294   3295   3306     1  0.0000000  1.2552000  3
   3290   3294   3296   3297     1  0.0000000  1.2552000  3
   3290   3294   3296   3299     1  0.0000000  1.2552000  3
   3291   3288   3290   3294     1  0.0000000  0.6508444  3
   3291   3288   3290   3292     1  0.0000000  0.6508444  3
   3291   3288   3290   3293     1  0.0000000  0.6508444  3
   3292   3290   3294   3295     1  0.0000000  1.2552000  3
   3292   3290   3294   3296     1  0.0000000  1.2552000  3
   3293   3290   3294   3295     1  0.0000000  1.2552000  3
   3293   3290   3294   3296     1  0.0000000  1.2552000  3
   3294   3295   3307   3308     1  0.0000000  0.6508444  3
   3294   3295   3307   3309     1  0.0000000  0.6508444  3
   3294   3296   3298   3300     1  0.0000000  0.6508444  3
   3294   3296   3298   3301     1  0.0000000  0.6508444  3
   3295   3294   3296   3297     1  0.0000000  1.2552000  3
   3295   3294   3296   3299     1  0.0000000  1.2552000  3
   3296   3294   3295   3305     1  0.0000000  1.2552000  3
   3296   3294   3295   3306     1  0.0000000  1.2552000  3
   3297   3296   3298   3302     1  0.0000000  0.6508444  3
   3297   3296   3298   3300     1  0.0000000  0.6508444  3
   3297   3296   3298   3301     1  0.0000000  0.6508444  3
   3298   3302   3303   3313     1  180.0000771  9.6232000  2
   3299   3296   3298   3302     1  0.0000000  0.6508444  3
   3299   3296   3298   3300     1  0.0000000  0.6508444  3
   3299   3296   3298   3301     1  0.0000000  0.6508444  3
   3300   3298   3302   3303     1  180.0000771  0.0000000  2
   3300   3298   3302   3304     1  0.0000000  3.3472000  1
   3300   3298   3302   3304     1  0.0000000  0.0000000  2
   3300   3298   3302   3304     1  180.0000771  0.3347200  3
   3301   3298   3302   3303     1  180.0000771  0.0000000  2
   3301   3298   3302   3304     1  0.0000000  3.3472000  1
   3301   3298   3302   3304     1  0.0000000  0.0000000  2
   3301   3298   3302   3304     1  180.0000771  0.3347200  3
   3304   3302   3303   3313     1  0.0000000  7.9496000  1
   3304   3302   3303   3313     1  180.0000771  9.6232000  2
   3305   3295   3307   3310     1  0.0000000  0.6508444  3
   3305   3295   3307   3308     1  0.0000000  0.6508444  3
   3305   3295   3307   3309     1  0.0000000  0.6508444  3
   3306   3295   3307   3310     1  0.0000000  0.6508444  3
   3306   3295   3307   3308     1  0.0000000  0.6508444  3
   3306   3295   3307   3309     1  0.0000000  0.6508444  3
   3307   3310   3312   3314     1  180.0000771  9.6232000  2
   3308   3307   3310   3311     1  0.0000000  3.3472000  1
   3308   3307   3310   3311     1  0.0000000  0.0000000  2
   3308   3307   3310   3311     1  180.0000771  0.3347200  3
   3308   3307   3310   3312     1  180.0000771  0.0000000  2
   3309   3307   3310   3311     1  0.0000000  3.3472000  1
   3309   3307   3310   3311     1  0.0000000  0.0000000  2
   3309   3307   3310   3311     1  180.0000771  0.3347200  3
   3309   3307   3310   3312     1  180.0000771  0.0000000  2
   3311   3310   3312   3314     1  0.0000000  7.9496000  1
   3311   3310   3312   3314     1  180.0000771  9.6232000  2
   3315   3317   3319   3321     1  0.0000000  0.6508444  3
   3315   3317   3319   3322     1  0.0000000  0.6508444  3
   3316   3315   3317   3319     1  0.0000000  0.0000000  2
   3316   3315   3317   3318     1  0.0000000  0.0000000  2
   3316   3315   3317   3320     1  0.0000000  0.0000000  2
   3318   3317   3319   3323     1  0.0000000  0.6508444  3
   3318   3317   3319   3321     1  0.0000000  0.6508444  3
   3318   3317   3319   3322     1  0.0000000  0.6508444  3
   3319   3323   3324   3334     1  0.0000000  1.2552000  3
   3319   3323   3324   3335     1  0.0000000  1.2552000  3
   3319   3323   3325   3326     1  0.0000000  1.2552000  3
   3319   3323   3325   3328     1  0.0000000  1.2552000  3
   3320   3317   3319   3323     1  0.0000000  0.6508444  3
   3320   3317   3319   3321     1  0.0000000  0.6508444  3
   3320   3317   3319   3322     1  0.0000000  0.6508444  3
   3321   3319   3323   3324     1  0.0000000  1.2552000  3
   3321   3319   3323   3325     1  0.0000000  1.2552000  3
   3322   3319   3323   3324     1  0.0000000  1.2552000  3
   3322   3319   3323   3325     1  0.0000000  1.2552000  3
   3323   3324   3336   3337     1  0.0000000  0.6508444  3
   3323   3324   3336   3338     1  0.0000000  0.6508444  3
   3323   3325   3327   3329     1  0.0000000  0.6508444  3
   3323   3325   3327   3330     1  0.0000000  0.6508444  3
   3324   3323   3325   3326     1  0.0000000  1.2552000  3
   3324   3323   3325   3328     1  0.0000000  1.2552000  3
   3325   3323   3324   3334     1  0.0000000  1.2552000  3
   3325   3323   3324   3335     1  0.0000000  1.2552000  3
   3326   3325   3327   3331     1  0.0000000  0.6508444  3
   3326   3325   3327   3329     1  0.0000000  0.6508444  3
   3326   3325   3327   3330     1  0.0000000  0.6508444  3
   3327   3331   3332   3342     1  180.0000771  9.6232000  2
   3328   3325   3327   3331     1  0.0000000  0.6508444  3
   3328   3325   3327   3329     1  0.0000000  0.6508444  3
   3328   3325   3327   3330     1  0.0000000  0.6508444  3
   3329   3327   3331   3332     1  180.0000771  0.0000000  2
   3329   3327   3331   3333     1  0.0000000  3.3472000  1
   3329   3327   3331   3333     1  0.0000000  0.0000000  2
   3329   3327   3331   3333     1  180.0000771  0.3347200  3
   3330   3327   3331   3332     1  180.0000771  0.0000000  2
   3330   3327   3331   3333     1  0.0000000  3.3472000  1
   3330   3327   3331   3333     1  0.0000000  0.0000000  2
   3330   3327   3331   3333     1  180.0000771  0.3347200  3
   3333   3331   3332   3342     1  0.0000000  7.9496000  1
   3333   3331   3332   3342     1  180.0000771  9.6232000  2
   3334   3324   3336   3339     1  0.0000000  0.6508444  3
   3334   3324   3336   3337     1  0.0000000  0.6508444  3
   3334   3324   3336   3338     1  0.0000000  0.6508444  3
   3335   3324   3336   3339     1  0.0000000  0.6508444  3
   3335   3324   3336   3337     1  0.0000000  0.6508444  3
   3335   3324   3336   3338     1  0.0000000  0.6508444  3
   3336   3339   3341   3343     1  180.0000771  9.6232000  2
   3337   3336   3339   3340     1  0.0000000  3.3472000  1
   3337   3336   3339   3340     1  0.0000000  0.0000000  2
   3337   3336   3339   3340     1  180.0000771  0.3347200  3
   3337   3336   3339   3341     1  180.0000771  0.0000000  2
   3338   3336   3339   3340     1  0.0000000  3.3472000  1
   3338   3336   3339   3340     1  0.0000000  0.0000000  2
   3338   3336   3339   3340     1  180.0000771  0.3347200  3
   3338   3336   3339   3341     1  180.0000771  0.0000000  2
   3340   3339   3341   3343     1  0.0000000  7.9496000  1
   3340   3339   3341   3343     1  180.0000771  9.6232000  2
   3344   3346   3348   3350     1  0.0000000  0.6508444  3
   3344   3346   3348   3351     1  0.0000000  0.6508444  3
   3345   3344   3346   3348     1  0.0000000  0.0000000  2
   3345   3344   3346   3347     1  0.0000000  0.0000000  2
   3345   3344   3346   3349     1  0.0000000  0.0000000  2
   3347   3346   3348   3352     1  0.0000000  0.6508444  3
   3347   3346   3348   3350     1  0.0000000  0.6508444  3
   3347   3346   3348   3351     1  0.0000000  0.6508444  3
   3348   3352   3353   3363     1  0.0000000  1.2552000  3
   3348   3352   3353   3364     1  0.0000000  1.2552000  3
   3348   3352   3354   3355     1  0.0000000  1.2552000  3
   3348   3352   3354   3357     1  0.0000000  1.2552000  3
   3349   3346   3348   3352     1  0.0000000  0.6508444  3
   3349   3346   3348   3350     1  0.0000000  0.6508444  3
   3349   3346   3348   3351     1  0.0000000  0.6508444  3
   3350   3348   3352   3353     1  0.0000000  1.2552000  3
   3350   3348   3352   3354     1  0.0000000  1.2552000  3
   3351   3348   3352   3353     1  0.0000000  1.2552000  3
   3351   3348   3352   3354     1  0.0000000  1.2552000  3
   3352   3353   3365   3366     1  0.0000000  0.6508444  3
   3352   3353   3365   3367     1  0.0000000  0.6508444  3
   3352   3354   3356   3358     1  0.0000000  0.6508444  3
   3352   3354   3356   3359     1  0.0000000  0.6508444  3
   3353   3352   3354   3355     1  0.0000000  1.2552000  3
   3353   3352   3354   3357     1  0.0000000  1.2552000  3
   3354   3352   3353   3363     1  0.0000000  1.2552000  3
   3354   3352   3353   3364     1  0.0000000  1.2552000  3
   3355   3354   3356   3360     1  0.0000000  0.6508444  3
   3355   3354   3356   3358     1  0.0000000  0.6508444  3
   3355   3354   3356   3359     1  0.0000000  0.6508444  3
   3356   3360   3361   3371     1  180.0000771  9.6232000  2
   3357   3354   3356   3360     1  0.0000000  0.6508444  3
   3357   3354   3356   3358     1  0.0000000  0.6508444  3
   3357   3354   3356   3359     1  0.0000000  0.6508444  3
   3358   3356   3360   3361     1  180.0000771  0.0000000  2
   3358   3356   3360   3362     1  0.0000000  3.3472000  1
   3358   3356   3360   3362     1  0.0000000  0.0000000  2
   3358   3356   3360   3362     1  180.0000771  0.3347200  3
   3359   3356   3360   3361     1  180.0000771  0.0000000  2
   3359   3356   3360   3362     1  0.0000000  3.3472000  1
   3359   3356   3360   3362     1  0.0000000  0.0000000  2
   3359   3356   3360   3362     1  180.0000771  0.3347200  3
   3362   3360   3361   3371     1  0.0000000  7.9496000  1
   3362   3360   3361   3371     1  180.0000771  9.6232000  2
   3363   3353   3365   3368     1  0.0000000  0.6508444  3
   3363   3353   3365   3366     1  0.0000000  0.6508444  3
   3363   3353   3365   3367     1  0.0000000  0.6508444  3
   3364   3353   3365   3368     1  0.0000000  0.6508444  3
   3364   3353   3365   3366     1  0.0000000  0.6508444  3
   3364   3353   3365   3367     1  0.0000000  0.6508444  3
   3365   3368   3370   3372     1  180.0000771  9.6232000  2
   3366   3365   3368   3369     1  0.0000000  3.3472000  1
   3366   3365   3368   3369     1  0.0000000  0.0000000  2
   3366   3365   3368   3369     1  180.0000771  0.3347200  3
   3366   3365   3368   3370     1  180.0000771  0.0000000  2
   3367   3365   3368   3369     1  0.0000000  3.3472000  1
   3367   3365   3368   3369     1  0.0000000  0.0000000  2
   3367   3365   3368   3369     1  180.0000771  0.3347200  3
   3367   3365   3368   3370     1  180.0000771  0.0000000  2
   3369   3368   3370   3372     1  0.0000000  7.9496000  1
   3369   3368   3370   3372     1  180.0000771  9.6232000  2
   3373   3375   3377   3379     1  0.0000000  0.6508444  3
   3373   3375   3377   3380     1  0.0000000  0.6508444  3
   3374   3373   3375   3377     1  0.0000000  0.0000000  2
   3374   3373   3375   3376     1  0.0000000  0.0000000  2
   3374   3373   3375   3378     1  0.0000000  0.0000000  2
   3376   3375   3377   3381     1  0.0000000  0.6508444  3
   3376   3375   3377   3379     1  0.0000000  0.6508444  3
   3376   3375   3377   3380     1  0.0000000  0.6508444  3
   3377   3381   3382   3392     1  0.0000000  1.2552000  3
   3377   3381   3382   3393     1  0.0000000  1.2552000  3
   3377   3381   3383   3384     1  0.0000000  1.2552000  3
   3377   3381   3383   3386     1  0.0000000  1.2552000  3
   3378   3375   3377   3381     1  0.0000000  0.6508444  3
   3378   3375   3377   3379     1  0.0000000  0.6508444  3
   3378   3375   3377   3380     1  0.0000000  0.6508444  3
   3379   3377   3381   3382     1  0.0000000  1.2552000  3
   3379   3377   3381   3383     1  0.0000000  1.2552000  3
   3380   3377   3381   3382     1  0.0000000  1.2552000  3
   3380   3377   3381   3383     1  0.0000000  1.2552000  3
   3381   3382   3394   3395     1  0.0000000  0.6508444  3
   3381   3382   3394   3396     1  0.0000000  0.6508444  3
   3381   3383   3385   3387     1  0.0000000  0.6508444  3
   3381   3383   3385   3388     1  0.0000000  0.6508444  3
   3382   3381   3383   3384     1  0.0000000  1.2552000  3
   3382   3381   3383   3386     1  0.0000000  1.2552000  3
   3383   3381   3382   3392     1  0.0000000  1.2552000  3
   3383   3381   3382   3393     1  0.0000000  1.2552000  3
   3384   3383   3385   3389     1  0.0000000  0.6508444  3
   3384   3383   3385   3387     1  0.0000000  0.6508444  3
   3384   3383   3385   3388     1  0.0000000  0.6508444  3
   3385   3389   3390   3400     1  180.0000771  9.6232000  2
   3386   3383   3385   3389     1  0.0000000  0.6508444  3
   3386   3383   3385   3387     1  0.0000000  0.6508444  3
   3386   3383   3385   3388     1  0.0000000  0.6508444  3
   3387   3385   3389   3390     1  180.0000771  0.0000000  2
   3387   3385   3389   3391     1  0.0000000  3.3472000  1
   3387   3385   3389   3391     1  0.0000000  0.0000000  2
   3387   3385   3389   3391     1  180.0000771  0.3347200  3
   3388   3385   3389   3390     1  180.0000771  0.0000000  2
   3388   3385   3389   3391     1  0.0000000  3.3472000  1
   3388   3385   3389   3391     1  0.0000000  0.0000000  2
   3388   3385   3389   3391     1  180.0000771  0.3347200  3
   3391   3389   3390   3400     1  0.0000000  7.9496000  1
   3391   3389   3390   3400     1  180.0000771  9.6232000  2
   3392   3382   3394   3397     1  0.0000000  0.6508444  3
   3392   3382   3394   3395     1  0.0000000  0.6508444  3
   3392   3382   3394   3396     1  0.0000000  0.6508444  3
   3393   3382   3394   3397     1  0.0000000  0.6508444  3
   3393   3382   3394   3395     1  0.0000000  0.6508444  3
   3393   3382   3394   3396     1  0.0000000  0.6508444  3
   3394   3397   3399   3401     1  180.0000771  9.6232000  2
   3395   3394   3397   3398     1  0.0000000  3.3472000  1
   3395   3394   3397   3398     1  0.0000000  0.0000000  2
   3395   3394   3397   3398     1  180.0000771  0.3347200  3
   3395   3394   3397   3399     1  180.0000771  0.0000000  2
   3396   3394   3397   3398     1  0.0000000  3.3472000  1
   3396   3394   3397   3398     1  0.0000000  0.0000000  2
   3396   3394   3397   3398     1  180.0000771  0.3347200  3
   3396   3394   3397   3399     1  180.0000771  0.0000000  2
   3398   3397   3399   3401     1  0.0000000  7.9496000  1
   3398   3397   3399   3401     1  180.0000771  9.6232000  2
   3402   3404   3406   3408     1  0.0000000  0.6508444  3
   3402   3404   3406   3409     1  0.0000000  0.6508444  3
   3403   3402   3404   3406     1  0.0000000  0.0000000  2
   3403   3402   3404   3405     1  0.0000000  0.0000000  2
   3403   3402   3404   3407     1  0.0000000  0.0000000  2
   3405   3404   3406   3410     1  0.0000000  0.6508444  3
   3405   3404   3406   3408     1  0.0000000  0.6508444  3
   3405   3404   3406   3409     1  0.0000000  0.6508444  3
   3406   3410   3411   3421     1  0.0000000  1.2552000  3
   3406   3410   3411   3422     1  0.0000000  1.2552000  3
   3406   3410   3412   3413     1  0.0000000  1.2552000  3
   3406   3410   3412   3415     1  0.0000000  1.2552000  3
   3407   3404   3406   3410     1  0.0000000  0.6508444  3
   3407   3404   3406   3408     1  0.0000000  0.6508444  3
   3407   3404   3406   3409     1  0.0000000  0.6508444  3
   3408   3406   3410   3411     1  0.0000000  1.2552000  3
   3408   3406   3410   3412     1  0.0000000  1.2552000  3
   3409   3406   3410   3411     1  0.0000000  1.2552000  3
   3409   3406   3410   3412     1  0.0000000  1.2552000  3
   3410   3411   3423   3424     1  0.0000000  0.6508444  3
   3410   3411   3423   3425     1  0.0000000  0.6508444  3
   3410   3412   3414   3416     1  0.0000000  0.6508444  3
   3410   3412   3414   3417     1  0.0000000  0.6508444  3
   3411   3410   3412   3413     1  0.0000000  1.2552000  3
   3411   3410   3412   3415     1  0.0000000  1.2552000  3
   3412   3410   3411   3421     1  0.0000000  1.2552000  3
   3412   3410   3411   3422     1  0.0000000  1.2552000  3
   3413   3412   3414   3418     1  0.0000000  0.6508444  3
   3413   3412   3414   3416     1  0.0000000  0.6508444  3
   3413   3412   3414   3417     1  0.0000000  0.6508444  3
   3414   3418   3419   3429     1  180.0000771  9.6232000  2
   3415   3412   3414   3418     1  0.0000000  0.6508444  3
   3415   3412   3414   3416     1  0.0000000  0.6508444  3
   3415   3412   3414   3417     1  0.0000000  0.6508444  3
   3416   3414   3418   3419     1  180.0000771  0.0000000  2
   3416   3414   3418   3420     1  0.0000000  3.3472000  1
   3416   3414   3418   3420     1  0.0000000  0.0000000  2
   3416   3414   3418   3420     1  180.0000771  0.3347200  3
   3417   3414   3418   3419     1  180.0000771  0.0000000  2
   3417   3414   3418   3420     1  0.0000000  3.3472000  1
   3417   3414   3418   3420     1  0.0000000  0.0000000  2
   3417   3414   3418   3420     1  180.0000771  0.3347200  3
   3420   3418   3419   3429     1  0.0000000  7.9496000  1
   3420   3418   3419   3429     1  180.0000771  9.6232000  2
   3421   3411   3423   3426     1  0.0000000  0.6508444  3
   3421   3411   3423   3424     1  0.0000000  0.6508444  3
   3421   3411   3423   3425     1  0.0000000  0.6508444  3
   3422   3411   3423   3426     1  0.0000000  0.6508444  3
   3422   3411   3423   3424     1  0.0000000  0.6508444  3
   3422   3411   3423   3425     1  0.0000000  0.6508444  3
   3423   3426   3428   3430     1  180.0000771  9.6232000  2
   3424   3423   3426   3427     1  0.0000000  3.3472000  1
   3424   3423   3426   3427     1  0.0000000  0.0000000  2
   3424   3423   3426   3427     1  180.0000771  0.3347200  3
   3424   3423   3426   3428     1  180.0000771  0.0000000  2
   3425   3423   3426   3427     1  0.0000000  3.3472000  1
   3425   3423   3426   3427     1  0.0000000  0.0000000  2
   3425   3423   3426   3427     1  180.0000771  0.3347200  3
   3425   3423   3426   3428     1  180.0000771  0.0000000  2
   3427   3426   3428   3430     1  0.0000000  7.9496000  1
   3427   3426   3428   3430     1  180.0000771  9.6232000  2
   3431   3433   3435   3437     1  0.0000000  0.6508444  3
   3431   3433   3435   3438     1  0.0000000  0.6508444  3
   3432   3431   3433   3435     1  0.0000000  0.0000000  2
   3432   3431   3433   3434     1  0.0000000  0.0000000  2
   3432   3431   3433   3436     1  0.0000000  0.0000000  2
   3434   3433   3435   3439     1  0.0000000  0.6508444  3
   3434   3433   3435   3437     1  0.0000000  0.6508444  3
   3434   3433   3435   3438     1  0.0000000  0.6508444  3
   3435   3439   3440   3450     1  0.0000000  1.2552000  3
   3435   3439   3440   3451     1  0.0000000  1.2552000  3
   3435   3439   3441   3442     1  0.0000000  1.2552000  3
   3435   3439   3441   3444     1  0.0000000  1.2552000  3
   3436   3433   3435   3439     1  0.0000000  0.6508444  3
   3436   3433   3435   3437     1  0.0000000  0.6508444  3
   3436   3433   3435   3438     1  0.0000000  0.6508444  3
   3437   3435   3439   3440     1  0.0000000  1.2552000  3
   3437   3435   3439   3441     1  0.0000000  1.2552000  3
   3438   3435   3439   3440     1  0.0000000  1.2552000  3
   3438   3435   3439   3441     1  0.0000000  1.2552000  3
   3439   3440   3452   3453     1  0.0000000  0.6508444  3
   3439   3440   3452   3454     1  0.0000000  0.6508444  3
   3439   3441   3443   3445     1  0.0000000  0.6508444  3
   3439   3441   3443   3446     1  0.0000000  0.6508444  3
   3440   3439   3441   3442     1  0.0000000  1.2552000  3
   3440   3439   3441   3444     1  0.0000000  1.2552000  3
   3441   3439   3440   3450     1  0.0000000  1.2552000  3
   3441   3439   3440   3451     1  0.0000000  1.2552000  3
   3442   3441   3443   3447     1  0.0000000  0.6508444  3
   3442   3441   3443   3445     1  0.0000000  0.6508444  3
   3442   3441   3443   3446     1  0.0000000  0.6508444  3
   3443   3447   3448   3458     1  180.0000771  9.6232000  2
   3444   3441   3443   3447     1  0.0000000  0.6508444  3
   3444   3441   3443   3445     1  0.0000000  0.6508444  3
   3444   3441   3443   3446     1  0.0000000  0.6508444  3
   3445   3443   3447   3448     1  180.0000771  0.0000000  2
   3445   3443   3447   3449     1  0.0000000  3.3472000  1
   3445   3443   3447   3449     1  0.0000000  0.0000000  2
   3445   3443   3447   3449     1  180.0000771  0.3347200  3
   3446   3443   3447   3448     1  180.0000771  0.0000000  2
   3446   3443   3447   3449     1  0.0000000  3.3472000  1
   3446   3443   3447   3449     1  0.0000000  0.0000000  2
   3446   3443   3447   3449     1  180.0000771  0.3347200  3
   3449   3447   3448   3458     1  0.0000000  7.9496000  1
   3449   3447   3448   3458     1  180.0000771  9.6232000  2
   3450   3440   3452   3455     1  0.0000000  0.6508444  3
   3450   3440   3452   3453     1  0.0000000  0.6508444  3
   3450   3440   3452   3454     1  0.0000000  0.6508444  3
   3451   3440   3452   3455     1  0.0000000  0.6508444  3
   3451   3440   3452   3453     1  0.0000000  0.6508444  3
   3451   3440   3452   3454     1  0.0000000  0.6508444  3
   3452   3455   3457   3459     1  180.0000771  9.6232000  2
   3453   3452   3455   3456     1  0.0000000  3.3472000  1
   3453   3452   3455   3456     1  0.0000000  0.0000000  2
   3453   3452   3455   3456     1  180.0000771  0.3347200  3
   3453   3452   3455   3457     1  180.0000771  0.0000000  2
   3454   3452   3455   3456     1  0.0000000  3.3472000  1
   3454   3452   3455   3456     1  0.0000000  0.0000000  2
   3454   3452   3455   3456     1  180.0000771  0.3347200  3
   3454   3452   3455   3457     1  180.0000771  0.0000000  2
   3456   3455   3457   3459     1  0.0000000  7.9496000  1
   3456   3455   3457   3459     1  180.0000771  9.6232000  2
   3460   3462   3464   3466     1  0.0000000  0.6508444  3
   3460   3462   3464   3467     1  0.0000000  0.6508444  3
   3461   3460   3462   3464     1  0.0000000  0.0000000  2
   3461   3460   3462   3463     1  0.0000000  0.0000000  2
   3461   3460   3462   3465     1  0.0000000  0.0000000  2
   3463   3462   3464   3468     1  0.0000000  0.6508444  3
   3463   3462   3464   3466     1  0.0000000  0.6508444  3
   3463   3462   3464   3467     1  0.0000000  0.6508444  3
   3464   3468   3469   3479     1  0.0000000  1.2552000  3
   3464   3468   3469   3480     1  0.0000000  1.2552000  3
   3464   3468   3470   3471     1  0.0000000  1.2552000  3
   3464   3468   3470   3473     1  0.0000000  1.2552000  3
   3465   3462   3464   3468     1  0.0000000  0.6508444  3
   3465   3462   3464   3466     1  0.0000000  0.6508444  3
   3465   3462   3464   3467     1  0.0000000  0.6508444  3
   3466   3464   3468   3469     1  0.0000000  1.2552000  3
   3466   3464   3468   3470     1  0.0000000  1.2552000  3
   3467   3464   3468   3469     1  0.0000000  1.2552000  3
   3467   3464   3468   3470     1  0.0000000  1.2552000  3
   3468   3469   3481   3482     1  0.0000000  0.6508444  3
   3468   3469   3481   3483     1  0.0000000  0.6508444  3
   3468   3470   3472   3474     1  0.0000000  0.6508444  3
   3468   3470   3472   3475     1  0.0000000  0.6508444  3
   3469   3468   3470   3471     1  0.0000000  1.2552000  3
   3469   3468   3470   3473     1  0.0000000  1.2552000  3
   3470   3468   3469   3479     1  0.0000000  1.2552000  3
   3470   3468   3469   3480     1  0.0000000  1.2552000  3
   3471   3470   3472   3476     1  0.0000000  0.6508444  3
   3471   3470   3472   3474     1  0.0000000  0.6508444  3
   3471   3470   3472   3475     1  0.0000000  0.6508444  3
   3472   3476   3477   3487     1  180.0000771  9.6232000  2
   3473   3470   3472   3476     1  0.0000000  0.6508444  3
   3473   3470   3472   3474     1  0.0000000  0.6508444  3
   3473   3470   3472   3475     1  0.0000000  0.6508444  3
   3474   3472   3476   3477     1  180.0000771  0.0000000  2
   3474   3472   3476   3478     1  0.0000000  3.3472000  1
   3474   3472   3476   3478     1  0.0000000  0.0000000  2
   3474   3472   3476   3478     1  180.0000771  0.3347200  3
   3475   3472   3476   3477     1  180.0000771  0.0000000  2
   3475   3472   3476   3478     1  0.0000000  3.3472000  1
   3475   3472   3476   3478     1  0.0000000  0.0000000  2
   3475   3472   3476   3478     1  180.0000771  0.3347200  3
   3478   3476   3477   3487     1  0.0000000  7.9496000  1
   3478   3476   3477   3487     1  180.0000771  9.6232000  2
   3479   3469   3481   3484     1  0.0000000  0.6508444  3
   3479   3469   3481   3482     1  0.0000000  0.6508444  3
   3479   3469   3481   3483     1  0.0000000  0.6508444  3
   3480   3469   3481   3484     1  0.0000000  0.6508444  3
   3480   3469   3481   3482     1  0.0000000  0.6508444  3
   3480   3469   3481   3483     1  0.0000000  0.6508444  3
   3481   3484   3486   3488     1  180.0000771  9.6232000  2
   3482   3481   3484   3485     1  0.0000000  3.3472000  1
   3482   3481   3484   3485     1  0.0000000  0.0000000  2
   3482   3481   3484   3485     1  180.0000771  0.3347200  3
   3482   3481   3484   3486     1  180.0000771  0.0000000  2
   3483   3481   3484   3485     1  0.0000000  3.3472000  1
   3483   3481   3484   3485     1  0.0000000  0.0000000  2
   3483   3481   3484   3485     1  180.0000771  0.3347200  3
   3483   3481   3484   3486     1  180.0000771  0.0000000  2
   3485   3484   3486   3488     1  0.0000000  7.9496000  1
   3485   3484   3486   3488     1  180.0000771  9.6232000  2
   3489   3491   3493   3495     1  0.0000000  0.6508444  3
   3489   3491   3493   3496     1  0.0000000  0.6508444  3
   3490   3489   3491   3493     1  0.0000000  0.0000000  2
   3490   3489   3491   3492     1  0.0000000  0.0000000  2
   3490   3489   3491   3494     1  0.0000000  0.0000000  2
   3492   3491   3493   3497     1  0.0000000  0.6508444  3
   3492   3491   3493   3495     1  0.0000000  0.6508444  3
   3492   3491   3493   3496     1  0.0000000  0.6508444  3
   3493   3497   3498   3508     1  0.0000000  1.2552000  3
   3493   3497   3498   3509     1  0.0000000  1.2552000  3
   3493   3497   3499   3500     1  0.0000000  1.2552000  3
   3493   3497   3499   3502     1  0.0000000  1.2552000  3
   3494   3491   3493   3497     1  0.0000000  0.6508444  3
   3494   3491   3493   3495     1  0.0000000  0.6508444  3
   3494   3491   3493   3496     1  0.0000000  0.6508444  3
   3495   3493   3497   3498     1  0.0000000  1.2552000  3
   3495   3493   3497   3499     1  0.0000000  1.2552000  3
   3496   3493   3497   3498     1  0.0000000  1.2552000  3
   3496   3493   3497   3499     1  0.0000000  1.2552000  3
   3497   3498   3510   3511     1  0.0000000  0.6508444  3
   3497   3498   3510   3512     1  0.0000000  0.6508444  3
   3497   3499   3501   3503     1  0.0000000  0.6508444  3
   3497   3499   3501   3504     1  0.0000000  0.6508444  3
   3498   3497   3499   3500     1  0.0000000  1.2552000  3
   3498   3497   3499   3502     1  0.0000000  1.2552000  3
   3499   3497   3498   3508     1  0.0000000  1.2552000  3
   3499   3497   3498   3509     1  0.0000000  1.2552000  3
   3500   3499   3501   3505     1  0.0000000  0.6508444  3
   3500   3499   3501   3503     1  0.0000000  0.6508444  3
   3500   3499   3501   3504     1  0.0000000  0.6508444  3
   3501   3505   3506   3516     1  180.0000771  9.6232000  2
   3502   3499   3501   3505     1  0.0000000  0.6508444  3
   3502   3499   3501   3503     1  0.0000000  0.6508444  3
   3502   3499   3501   3504     1  0.0000000  0.6508444  3
   3503   3501   3505   3506     1  180.0000771  0.0000000  2
   3503   3501   3505   3507     1  0.0000000  3.3472000  1
   3503   3501   3505   3507     1  0.0000000  0.0000000  2
   3503   3501   3505   3507     1  180.0000771  0.3347200  3
   3504   3501   3505   3506     1  180.0000771  0.0000000  2
   3504   3501   3505   3507     1  0.0000000  3.3472000  1
   3504   3501   3505   3507     1  0.0000000  0.0000000  2
   3504   3501   3505   3507     1  180.0000771  0.3347200  3
   3507   3505   3506   3516     1  0.0000000  7.9496000  1
   3507   3505   3506   3516     1  180.0000771  9.6232000  2
   3508   3498   3510   3513     1  0.0000000  0.6508444  3
   3508   3498   3510   3511     1  0.0000000  0.6508444  3
   3508   3498   3510   3512     1  0.0000000  0.6508444  3
   3509   3498   3510   3513     1  0.0000000  0.6508444  3
   3509   3498   3510   3511     1  0.0000000  0.6508444  3
   3509   3498   3510   3512     1  0.0000000  0.6508444  3
   3510   3513   3515   3517     1  180.0000771  9.6232000  2
   3511   3510   3513   3514     1  0.0000000  3.3472000  1
   3511   3510   3513   3514     1  0.0000000  0.0000000  2
   3511   3510   3513   3514     1  180.0000771  0.3347200  3
   3511   3510   3513   3515     1  180.0000771  0.0000000  2
   3512   3510   3513   3514     1  0.0000000  3.3472000  1
   3512   3510   3513   3514     1  0.0000000  0.0000000  2
   3512   3510   3513   3514     1  180.0000771  0.3347200  3
   3512   3510   3513   3515     1  180.0000771  0.0000000  2
   3514   3513   3515   3517     1  0.0000000  7.9496000  1
   3514   3513   3515   3517     1  180.0000771  9.6232000  2
   3518   3520   3522   3524     1  0.0000000  0.6508444  3
   3518   3520   3522   3525     1  0.0000000  0.6508444  3
   3519   3518   3520   3522     1  0.0000000  0.0000000  2
   3519   3518   3520   3521     1  0.0000000  0.0000000  2
   3519   3518   3520   3523     1  0.0000000  0.0000000  2
   3521   3520   3522   3526     1  0.0000000  0.6508444  3
   3521   3520   3522   3524     1  0.0000000  0.6508444  3
   3521   3520   3522   3525     1  0.0000000  0.6508444  3
   3522   3526   3527   3537     1  0.0000000  1.2552000  3
   3522   3526   3527   3538     1  0.0000000  1.2552000  3
   3522   3526   3528   3529     1  0.0000000  1.2552000  3
   3522   3526   3528   3531     1  0.0000000  1.2552000  3
   3523   3520   3522   3526     1  0.0000000  0.6508444  3
   3523   3520   3522   3524     1  0.0000000  0.6508444  3
   3523   3520   3522   3525     1  0.0000000  0.6508444  3
   3524   3522   3526   3527     1  0.0000000  1.2552000  3
   3524   3522   3526   3528     1  0.0000000  1.2552000  3
   3525   3522   3526   3527     1  0.0000000  1.2552000  3
   3525   3522   3526   3528     1  0.0000000  1.2552000  3
   3526   3527   3539   3540     1  0.0000000  0.6508444  3
   3526   3527   3539   3541     1  0.0000000  0.6508444  3
   3526   3528   3530   3532     1  0.0000000  0.6508444  3
   3526   3528   3530   3533     1  0.0000000  0.6508444  3
   3527   3526   3528   3529     1  0.0000000  1.2552000  3
   3527   3526   3528   3531     1  0.0000000  1.2552000  3
   3528   3526   3527   3537     1  0.0000000  1.2552000  3
   3528   3526   3527   3538     1  0.0000000  1.2552000  3
   3529   3528   3530   3534     1  0.0000000  0.6508444  3
   3529   3528   3530   3532     1  0.0000000  0.6508444  3
   3529   3528   3530   3533     1  0.0000000  0.6508444  3
   3530   3534   3535   3545     1  180.0000771  9.6232000  2
   3531   3528   3530   3534     1  0.0000000  0.6508444  3
   3531   3528   3530   3532     1  0.0000000  0.6508444  3
   3531   3528   3530   3533     1  0.0000000  0.6508444  3
   3532   3530   3534   3535     1  180.0000771  0.0000000  2
   3532   3530   3534   3536     1  0.0000000  3.3472000  1
   3532   3530   3534   3536     1  0.0000000  0.0000000  2
   3532   3530   3534   3536     1  180.0000771  0.3347200  3
   3533   3530   3534   3535     1  180.0000771  0.0000000  2
   3533   3530   3534   3536     1  0.0000000  3.3472000  1
   3533   3530   3534   3536     1  0.0000000  0.0000000  2
   3533   3530   3534   3536     1  180.0000771  0.3347200  3
   3536   3534   3535   3545     1  0.0000000  7.9496000  1
   3536   3534   3535   3545     1  180.0000771  9.6232000  2
   3537   3527   3539   3542     1  0.0000000  0.6508444  3
   3537   3527   3539   3540     1  0.0000000  0.6508444  3
   3537   3527   3539   3541     1  0.0000000  0.6508444  3
   3538   3527   3539   3542     1  0.0000000  0.6508444  3
   3538   3527   3539   3540     1  0.0000000  0.6508444  3
   3538   3527   3539   3541     1  0.0000000  0.6508444  3
   3539   3542   3544   3546     1  180.0000771  9.6232000  2
   3540   3539   3542   3543     1  0.0000000  3.3472000  1
   3540   3539   3542   3543     1  0.0000000  0.0000000  2
   3540   3539   3542   3543     1  180.0000771  0.3347200  3
   3540   3539   3542   3544     1  180.0000771  0.0000000  2
   3541   3539   3542   3543     1  0.0000000  3.3472000  1
   3541   3539   3542   3543     1  0.0000000  0.0000000  2
   3541   3539   3542   3543     1  180.0000771  0.3347200  3
   3541   3539   3542   3544     1  180.0000771  0.0000000  2
   3543   3542   3544   3546     1  0.0000000  7.9496000  1
   3543   3542   3544   3546     1  180.0000771  9.6232000  2
   3547   3549   3551   3553     1  0.0000000  0.6508444  3
   3547   3549   3551   3554     1  0.0000000  0.6508444  3
   3548   3547   3549   3551     1  0.0000000  0.0000000  2
   3548   3547   3549   3550     1  0.0000000  0.0000000  2
   3548   3547   3549   3552     1  0.0000000  0.0000000  2
   3550   3549   3551   3555     1  0.0000000  0.6508444  3
   3550   3549   3551   3553     1  0.0000000  0.6508444  3
   3550   3549   3551   3554     1  0.0000000  0.6508444  3
   3551   3555   3556   3566     1  0.0000000  1.2552000  3
   3551   3555   3556   3567     1  0.0000000  1.2552000  3
   3551   3555   3557   3558     1  0.0000000  1.2552000  3
   3551   3555   3557   3560     1  0.0000000  1.2552000  3
   3552   3549   3551   3555     1  0.0000000  0.6508444  3
   3552   3549   3551   3553     1  0.0000000  0.6508444  3
   3552   3549   3551   3554     1  0.0000000  0.6508444  3
   3553   3551   3555   3556     1  0.0000000  1.2552000  3
   3553   3551   3555   3557     1  0.0000000  1.2552000  3
   3554   3551   3555   3556     1  0.0000000  1.2552000  3
   3554   3551   3555   3557     1  0.0000000  1.2552000  3
   3555   3556   3568   3569     1  0.0000000  0.6508444  3
   3555   3556   3568   3570     1  0.0000000  0.6508444  3
   3555   3557   3559   3561     1  0.0000000  0.6508444  3
   3555   3557   3559   3562     1  0.0000000  0.6508444  3
   3556   3555   3557   3558     1  0.0000000  1.2552000  3
   3556   3555   3557   3560     1  0.0000000  1.2552000  3
   3557   3555   3556   3566     1  0.0000000  1.2552000  3
   3557   3555   3556   3567     1  0.0000000  1.2552000  3
   3558   3557   3559   3563     1  0.0000000  0.6508444  3
   3558   3557   3559   3561     1  0.0000000  0.6508444  3
   3558   3557   3559   3562     1  0.0000000  0.6508444  3
   3559   3563   3564   3574     1  180.0000771  9.6232000  2
   3560   3557   3559   3563     1  0.0000000  0.6508444  3
   3560   3557   3559   3561     1  0.0000000  0.6508444  3
   3560   3557   3559   3562     1  0.0000000  0.6508444  3
   3561   3559   3563   3564     1  180.0000771  0.0000000  2
   3561   3559   3563   3565     1  0.0000000  3.3472000  1
   3561   3559   3563   3565     1  0.0000000  0.0000000  2
   3561   3559   3563   3565     1  180.0000771  0.3347200  3
   3562   3559   3563   3564     1  180.0000771  0.0000000  2
   3562   3559   3563   3565     1  0.0000000  3.3472000  1
   3562   3559   3563   3565     1  0.0000000  0.0000000  2
   3562   3559   3563   3565     1  180.0000771  0.3347200  3
   3565   3563   3564   3574     1  0.0000000  7.9496000  1
   3565   3563   3564   3574     1  180.0000771  9.6232000  2
   3566   3556   3568   3571     1  0.0000000  0.6508444  3
   3566   3556   3568   3569     1  0.0000000  0.6508444  3
   3566   3556   3568   3570     1  0.0000000  0.6508444  3
   3567   3556   3568   3571     1  0.0000000  0.6508444  3
   3567   3556   3568   3569     1  0.0000000  0.6508444  3
   3567   3556   3568   3570     1  0.0000000  0.6508444  3
   3568   3571   3573   3575     1  180.0000771  9.6232000  2
   3569   3568   3571   3572     1  0.0000000  3.3472000  1
   3569   3568   3571   3572     1  0.0000000  0.0000000  2
   3569   3568   3571   3572     1  180.0000771  0.3347200  3
   3569   3568   3571   3573     1  180.0000771  0.0000000  2
   3570   3568   3571   3572     1  0.0000000  3.3472000  1
   3570   3568   3571   3572     1  0.0000000  0.0000000  2
   3570   3568   3571   3572     1  180.0000771  0.3347200  3
   3570   3568   3571   3573     1  180.0000771  0.0000000  2
   3572   3571   3573   3575     1  0.0000000  7.9496000  1
   3572   3571   3573   3575     1  180.0000771  9.6232000  2
   3576   3578   3580   3582     1  0.0000000  0.6508444  3
   3576   3578   3580   3583     1  0.0000000  0.6508444  3
   3577   3576   3578   3580     1  0.0000000  0.0000000  2
   3577   3576   3578   3579     1  0.0000000  0.0000000  2
   3577   3576   3578   3581     1  0.0000000  0.0000000  2
   3579   3578   3580   3584     1  0.0000000  0.6508444  3
   3579   3578   3580   3582     1  0.0000000  0.6508444  3
   3579   3578   3580   3583     1  0.0000000  0.6508444  3
   3580   3584   3585   3595     1  0.0000000  1.2552000  3
   3580   3584   3585   3596     1  0.0000000  1.2552000  3
   3580   3584   3586   3587     1  0.0000000  1.2552000  3
   3580   3584   3586   3589     1  0.0000000  1.2552000  3
   3581   3578   3580   3584     1  0.0000000  0.6508444  3
   3581   3578   3580   3582     1  0.0000000  0.6508444  3
   3581   3578   3580   3583     1  0.0000000  0.6508444  3
   3582   3580   3584   3585     1  0.0000000  1.2552000  3
   3582   3580   3584   3586     1  0.0000000  1.2552000  3
   3583   3580   3584   3585     1  0.0000000  1.2552000  3
   3583   3580   3584   3586     1  0.0000000  1.2552000  3
   3584   3585   3597   3598     1  0.0000000  0.6508444  3
   3584   3585   3597   3599     1  0.0000000  0.6508444  3
   3584   3586   3588   3590     1  0.0000000  0.6508444  3
   3584   3586   3588   3591     1  0.0000000  0.6508444  3
   3585   3584   3586   3587     1  0.0000000  1.2552000  3
   3585   3584   3586   3589     1  0.0000000  1.2552000  3
   3586   3584   3585   3595     1  0.0000000  1.2552000  3
   3586   3584   3585   3596     1  0.0000000  1.2552000  3
   3587   3586   3588   3592     1  0.0000000  0.6508444  3
   3587   3586   3588   3590     1  0.0000000  0.6508444  3
   3587   3586   3588   3591     1  0.0000000  0.6508444  3
   3588   3592   3593   3603     1  180.0000771  9.6232000  2
   3589   3586   3588   3592     1  0.0000000  0.6508444  3
   3589   3586   3588   3590     1  0.0000000  0.6508444  3
   3589   3586   3588   3591     1  0.0000000  0.6508444  3
   3590   3588   3592   3593     1  180.0000771  0.0000000  2
   3590   3588   3592   3594     1  0.0000000  3.3472000  1
   3590   3588   3592   3594     1  0.0000000  0.0000000  2
   3590   3588   3592   3594     1  180.0000771  0.3347200  3
   3591   3588   3592   3593     1  180.0000771  0.0000000  2
   3591   3588   3592   3594     1  0.0000000  3.3472000  1
   3591   3588   3592   3594     1  0.0000000  0.0000000  2
   3591   3588   3592   3594     1  180.0000771  0.3347200  3
   3594   3592   3593   3603     1  0.0000000  7.9496000  1
   3594   3592   3593   3603     1  180.0000771  9.6232000  2
   3595   3585   3597   3600     1  0.0000000  0.6508444  3
   3595   3585   3597   3598     1  0.0000000  0.6508444  3
   3595   3585   3597   3599     1  0.0000000  0.6508444  3
   3596   3585   3597   3600     1  0.0000000  0.6508444  3
   3596   3585   3597   3598     1  0.0000000  0.6508444  3
   3596   3585   3597   3599     1  0.0000000  0.6508444  3
   3597   3600   3602   3604     1  180.0000771  9.6232000  2
   3598   3597   3600   3601     1  0.0000000  3.3472000  1
   3598   3597   3600   3601     1  0.0000000  0.0000000  2
   3598   3597   3600   3601     1  180.0000771  0.3347200  3
   3598   3597   3600   3602     1  180.0000771  0.0000000  2
   3599   3597   3600   3601     1  0.0000000  3.3472000  1
   3599   3597   3600   3601     1  0.0000000  0.0000000  2
   3599   3597   3600   3601     1  180.0000771  0.3347200  3
   3599   3597   3600   3602     1  180.0000771  0.0000000  2
   3601   3600   3602   3604     1  0.0000000  7.9496000  1
   3601   3600   3602   3604     1  180.0000771  9.6232000  2
   3605   3607   3609   3611     1  0.0000000  0.6508444  3
   3605   3607   3609   3612     1  0.0000000  0.6508444  3
   3606   3605   3607   3609     1  0.0000000  0.0000000  2
   3606   3605   3607   3608     1  0.0000000  0.0000000  2
   3606   3605   3607   3610     1  0.0000000  0.0000000  2
   3608   3607   3609   3613     1  0.0000000  0.6508444  3
   3608   3607   3609   3611     1  0.0000000  0.6508444  3
   3608   3607   3609   3612     1  0.0000000  0.6508444  3
   3609   3613   3614   3624     1  0.0000000  1.2552000  3
   3609   3613   3614   3625     1  0.0000000  1.2552000  3
   3609   3613   3615   3616     1  0.0000000  1.2552000  3
   3609   3613   3615   3618     1  0.0000000  1.2552000  3
   3610   3607   3609   3613     1  0.0000000  0.6508444  3
   3610   3607   3609   3611     1  0.0000000  0.6508444  3
   3610   3607   3609   3612     1  0.0000000  0.6508444  3
   3611   3609   3613   3614     1  0.0000000  1.2552000  3
   3611   3609   3613   3615     1  0.0000000  1.2552000  3
   3612   3609   3613   3614     1  0.0000000  1.2552000  3
   3612   3609   3613   3615     1  0.0000000  1.2552000  3
   3613   3614   3626   3627     1  0.0000000  0.6508444  3
   3613   3614   3626   3628     1  0.0000000  0.6508444  3
   3613   3615   3617   3619     1  0.0000000  0.6508444  3
   3613   3615   3617   3620     1  0.0000000  0.6508444  3
   3614   3613   3615   3616     1  0.0000000  1.2552000  3
   3614   3613   3615   3618     1  0.0000000  1.2552000  3
   3615   3613   3614   3624     1  0.0000000  1.2552000  3
   3615   3613   3614   3625     1  0.0000000  1.2552000  3
   3616   3615   3617   3621     1  0.0000000  0.6508444  3
   3616   3615   3617   3619     1  0.0000000  0.6508444  3
   3616   3615   3617   3620     1  0.0000000  0.6508444  3
   3617   3621   3622   3632     1  180.0000771  9.6232000  2
   3618   3615   3617   3621     1  0.0000000  0.6508444  3
   3618   3615   3617   3619     1  0.0000000  0.6508444  3
   3618   3615   3617   3620     1  0.0000000  0.6508444  3
   3619   3617   3621   3622     1  180.0000771  0.0000000  2
   3619   3617   3621   3623     1  0.0000000  3.3472000  1
   3619   3617   3621   3623     1  0.0000000  0.0000000  2
   3619   3617   3621   3623     1  180.0000771  0.3347200  3
   3620   3617   3621   3622     1  180.0000771  0.0000000  2
   3620   3617   3621   3623     1  0.0000000  3.3472000  1
   3620   3617   3621   3623     1  0.0000000  0.0000000  2
   3620   3617   3621   3623     1  180.0000771  0.3347200  3
   3623   3621   3622   3632     1  0.0000000  7.9496000  1
   3623   3621   3622   3632     1  180.0000771  9.6232000  2
   3624   3614   3626   3629     1  0.0000000  0.6508444  3
   3624   3614   3626   3627     1  0.0000000  0.6508444  3
   3624   3614   3626   3628     1  0.0000000  0.6508444  3
   3625   3614   3626   3629     1  0.0000000  0.6508444  3
   3625   3614   3626   3627     1  0.0000000  0.6508444  3
   3625   3614   3626   3628     1  0.0000000  0.6508444  3
   3626   3629   3631   3633     1  180.0000771  9.6232000  2
   3627   3626   3629   3630     1  0.0000000  3.3472000  1
   3627   3626   3629   3630     1  0.0000000  0.0000000  2
   3627   3626   3629   3630     1  180.0000771  0.3347200  3
   3627   3626   3629   3631     1  180.0000771  0.0000000  2
   3628   3626   3629   3630     1  0.0000000  3.3472000  1
   3628   3626   3629   3630     1  0.0000000  0.0000000  2
   3628   3626   3629   3630     1  180.0000771  0.3347200  3
   3628   3626   3629   3631     1  180.0000771  0.0000000  2
   3630   3629   3631   3633     1  0.0000000  7.9496000  1
   3630   3629   3631   3633     1  180.0000771  9.6232000  2
   3634   3636   3638   3640     1  0.0000000  0.6508444  3
   3634   3636   3638   3641     1  0.0000000  0.6508444  3
   3635   3634   3636   3638     1  0.0000000  0.0000000  2
   3635   3634   3636   3637     1  0.0000000  0.0000000  2
   3635   3634   3636   3639     1  0.0000000  0.0000000  2
   3637   3636   3638   3642     1  0.0000000  0.6508444  3
   3637   3636   3638   3640     1  0.0000000  0.6508444  3
   3637   3636   3638   3641     1  0.0000000  0.6508444  3
   3638   3642   3643   3653     1  0.0000000  1.2552000  3
   3638   3642   3643   3654     1  0.0000000  1.2552000  3
   3638   3642   3644   3645     1  0.0000000  1.2552000  3
   3638   3642   3644   3647     1  0.0000000  1.2552000  3
   3639   3636   3638   3642     1  0.0000000  0.6508444  3
   3639   3636   3638   3640     1  0.0000000  0.6508444  3
   3639   3636   3638   3641     1  0.0000000  0.6508444  3
   3640   3638   3642   3643     1  0.0000000  1.2552000  3
   3640   3638   3642   3644     1  0.0000000  1.2552000  3
   3641   3638   3642   3643     1  0.0000000  1.2552000  3
   3641   3638   3642   3644     1  0.0000000  1.2552000  3
   3642   3643   3655   3656     1  0.0000000  0.6508444  3
   3642   3643   3655   3657     1  0.0000000  0.6508444  3
   3642   3644   3646   3648     1  0.0000000  0.6508444  3
   3642   3644   3646   3649     1  0.0000000  0.6508444  3
   3643   3642   3644   3645     1  0.0000000  1.2552000  3
   3643   3642   3644   3647     1  0.0000000  1.2552000  3
   3644   3642   3643   3653     1  0.0000000  1.2552000  3
   3644   3642   3643   3654     1  0.0000000  1.2552000  3
   3645   3644   3646   3650     1  0.0000000  0.6508444  3
   3645   3644   3646   3648     1  0.0000000  0.6508444  3
   3645   3644   3646   3649     1  0.0000000  0.6508444  3
   3646   3650   3651   3661     1  180.0000771  9.6232000  2
   3647   3644   3646   3650     1  0.0000000  0.6508444  3
   3647   3644   3646   3648     1  0.0000000  0.6508444  3
   3647   3644   3646   3649     1  0.0000000  0.6508444  3
   3648   3646   3650   3651     1  180.0000771  0.0000000  2
   3648   3646   3650   3652     1  0.0000000  3.3472000  1
   3648   3646   3650   3652     1  0.0000000  0.0000000  2
   3648   3646   3650   3652     1  180.0000771  0.3347200  3
   3649   3646   3650   3651     1  180.0000771  0.0000000  2
   3649   3646   3650   3652     1  0.0000000  3.3472000  1
   3649   3646   3650   3652     1  0.0000000  0.0000000  2
   3649   3646   3650   3652     1  180.0000771  0.3347200  3
   3652   3650   3651   3661     1  0.0000000  7.9496000  1
   3652   3650   3651   3661     1  180.0000771  9.6232000  2
   3653   3643   3655   3658     1  0.0000000  0.6508444  3
   3653   3643   3655   3656     1  0.0000000  0.6508444  3
   3653   3643   3655   3657     1  0.0000000  0.6508444  3
   3654   3643   3655   3658     1  0.0000000  0.6508444  3
   3654   3643   3655   3656     1  0.0000000  0.6508444  3
   3654   3643   3655   3657     1  0.0000000  0.6508444  3
   3655   3658   3660   3662     1  180.0000771  9.6232000  2
   3656   3655   3658   3659     1  0.0000000  3.3472000  1
   3656   3655   3658   3659     1  0.0000000  0.0000000  2
   3656   3655   3658   3659     1  180.0000771  0.3347200  3
   3656   3655   3658   3660     1  180.0000771  0.0000000  2
   3657   3655   3658   3659     1  0.0000000  3.3472000  1
   3657   3655   3658   3659     1  0.0000000  0.0000000  2
   3657   3655   3658   3659     1  180.0000771  0.3347200  3
   3657   3655   3658   3660     1  180.0000771  0.0000000  2
   3659   3658   3660   3662     1  0.0000000  7.9496000  1
   3659   3658   3660   3662     1  180.0000771  9.6232000  2
   3663   3665   3667   3669     1  0.0000000  0.6508444  3
   3663   3665   3667   3670     1  0.0000000  0.6508444  3
   3664   3663   3665   3667     1  0.0000000  0.0000000  2
   3664   3663   3665   3666     1  0.0000000  0.0000000  2
   3664   3663   3665   3668     1  0.0000000  0.0000000  2
   3666   3665   3667   3671     1  0.0000000  0.6508444  3
   3666   3665   3667   3669     1  0.0000000  0.6508444  3
   3666   3665   3667   3670     1  0.0000000  0.6508444  3
   3667   3671   3672   3682     1  0.0000000  1.2552000  3
   3667   3671   3672   3683     1  0.0000000  1.2552000  3
   3667   3671   3673   3674     1  0.0000000  1.2552000  3
   3667   3671   3673   3676     1  0.0000000  1.2552000  3
   3668   3665   3667   3671     1  0.0000000  0.6508444  3
   3668   3665   3667   3669     1  0.0000000  0.6508444  3
   3668   3665   3667   3670     1  0.0000000  0.6508444  3
   3669   3667   3671   3672     1  0.0000000  1.2552000  3
   3669   3667   3671   3673     1  0.0000000  1.2552000  3
   3670   3667   3671   3672     1  0.0000000  1.2552000  3
   3670   3667   3671   3673     1  0.0000000  1.2552000  3
   3671   3672   3684   3685     1  0.0000000  0.6508444  3
   3671   3672   3684   3686     1  0.0000000  0.6508444  3
   3671   3673   3675   3677     1  0.0000000  0.6508444  3
   3671   3673   3675   3678     1  0.0000000  0.6508444  3
   3672   3671   3673   3674     1  0.0000000  1.2552000  3
   3672   3671   3673   3676     1  0.0000000  1.2552000  3
   3673   3671   3672   3682     1  0.0000000  1.2552000  3
   3673   3671   3672   3683     1  0.0000000  1.2552000  3
   3674   3673   3675   3679     1  0.0000000  0.6508444  3
   3674   3673   3675   3677     1  0.0000000  0.6508444  3
   3674   3673   3675   3678     1  0.0000000  0.6508444  3
   3675   3679   3680   3690     1  180.0000771  9.6232000  2
   3676   3673   3675   3679     1  0.0000000  0.6508444  3
   3676   3673   3675   3677     1  0.0000000  0.6508444  3
   3676   3673   3675   3678     1  0.0000000  0.6508444  3
   3677   3675   3679   3680     1  180.0000771  0.0000000  2
   3677   3675   3679   3681     1  0.0000000  3.3472000  1
   3677   3675   3679   3681     1  0.0000000  0.0000000  2
   3677   3675   3679   3681     1  180.0000771  0.3347200  3
   3678   3675   3679   3680     1  180.0000771  0.0000000  2
   3678   3675   3679   3681     1  0.0000000  3.3472000  1
   3678   3675   3679   3681     1  0.0000000  0.0000000  2
   3678   3675   3679   3681     1  180.0000771  0.3347200  3
   3681   3679   3680   3690     1  0.0000000  7.9496000  1
   3681   3679   3680   3690     1  180.0000771  9.6232000  2
   3682   3672   3684   3687     1  0.0000000  0.6508444  3
   3682   3672   3684   3685     1  0.0000000  0.6508444  3
   3682   3672   3684   3686     1  0.0000000  0.6508444  3
   3683   3672   3684   3687     1  0.0000000  0.6508444  3
   3683   3672   3684   3685     1  0.0000000  0.6508444  3
   3683   3672   3684   3686     1  0.0000000  0.6508444  3
   3684   3687   3689   3691     1  180.0000771  9.6232000  2
   3685   3684   3687   3688     1  0.0000000  3.3472000  1
   3685   3684   3687   3688     1  0.0000000  0.0000000  2
   3685   3684   3687   3688     1  180.0000771  0.3347200  3
   3685   3684   3687   3689     1  180.0000771  0.0000000  2
   3686   3684   3687   3688     1  0.0000000  3.3472000  1
   3686   3684   3687   3688     1  0.0000000  0.0000000  2
   3686   3684   3687   3688     1  180.0000771  0.3347200  3
   3686   3684   3687   3689     1  180.0000771  0.0000000  2
   3688   3687   3689   3691     1  0.0000000  7.9496000  1
   3688   3687   3689   3691     1  180.0000771  9.6232000  2
   3692   3694   3696   3698     1  0.0000000  0.6508444  3
   3692   3694   3696   3699     1  0.0000000  0.6508444  3
   3693   3692   3694   3696     1  0.0000000  0.0000000  2
   3693   3692   3694   3695     1  0.0000000  0.0000000  2
   3693   3692   3694   3697     1  0.0000000  0.0000000  2
   3695   3694   3696   3700     1  0.0000000  0.6508444  3
   3695   3694   3696   3698     1  0.0000000  0.6508444  3
   3695   3694   3696   3699     1  0.0000000  0.6508444  3
   3696   3700   3701   3711     1  0.0000000  1.2552000  3
   3696   3700   3701   3712     1  0.0000000  1.2552000  3
   3696   3700   3702   3703     1  0.0000000  1.2552000  3
   3696   3700   3702   3705     1  0.0000000  1.2552000  3
   3697   3694   3696   3700     1  0.0000000  0.6508444  3
   3697   3694   3696   3698     1  0.0000000  0.6508444  3
   3697   3694   3696   3699     1  0.0000000  0.6508444  3
   3698   3696   3700   3701     1  0.0000000  1.2552000  3
   3698   3696   3700   3702     1  0.0000000  1.2552000  3
   3699   3696   3700   3701     1  0.0000000  1.2552000  3
   3699   3696   3700   3702     1  0.0000000  1.2552000  3
   3700   3701   3713   3714     1  0.0000000  0.6508444  3
   3700   3701   3713   3715     1  0.0000000  0.6508444  3
   3700   3702   3704   3706     1  0.0000000  0.6508444  3
   3700   3702   3704   3707     1  0.0000000  0.6508444  3
   3701   3700   3702   3703     1  0.0000000  1.2552000  3
   3701   3700   3702   3705     1  0.0000000  1.2552000  3
   3702   3700   3701   3711     1  0.0000000  1.2552000  3
   3702   3700   3701   3712     1  0.0000000  1.2552000  3
   3703   3702   3704   3708     1  0.0000000  0.6508444  3
   3703   3702   3704   3706     1  0.0000000  0.6508444  3
   3703   3702   3704   3707     1  0.0000000  0.6508444  3
   3704   3708   3709   3719     1  180.0000771  9.6232000  2
   3705   3702   3704   3708     1  0.0000000  0.6508444  3
   3705   3702   3704   3706     1  0.0000000  0.6508444  3
   3705   3702   3704   3707     1  0.0000000  0.6508444  3
   3706   3704   3708   3709     1  180.0000771  0.0000000  2
   3706   3704   3708   3710     1  0.0000000  3.3472000  1
   3706   3704   3708   3710     1  0.0000000  0.0000000  2
   3706   3704   3708   3710     1  180.0000771  0.3347200  3
   3707   3704   3708   3709     1  180.0000771  0.0000000  2
   3707   3704   3708   3710     1  0.0000000  3.3472000  1
   3707   3704   3708   3710     1  0.0000000  0.0000000  2
   3707   3704   3708   3710     1  180.0000771  0.3347200  3
   3710   3708   3709   3719     1  0.0000000  7.9496000  1
   3710   3708   3709   3719     1  180.0000771  9.6232000  2
   3711   3701   3713   3716     1  0.0000000  0.6508444  3
   3711   3701   3713   3714     1  0.0000000  0.6508444  3
   3711   3701   3713   3715     1  0.0000000  0.6508444  3
   3712   3701   3713   3716     1  0.0000000  0.6508444  3
   3712   3701   3713   3714     1  0.0000000  0.6508444  3
   3712   3701   3713   3715     1  0.0000000  0.6508444  3
   3713   3716   3718   3720     1  180.0000771  9.6232000  2
   3714   3713   3716   3717     1  0.0000000  3.3472000  1
   3714   3713   3716   3717     1  0.0000000  0.0000000  2
   3714   3713   3716   3717     1  180.0000771  0.3347200  3
   3714   3713   3716   3718     1  180.0000771  0.0000000  2
   3715   3713   3716   3717     1  0.0000000  3.3472000  1
   3715   3713   3716   3717     1  0.0000000  0.0000000  2
   3715   3713   3716   3717     1  180.0000771  0.3347200  3
   3715   3713   3716   3718     1  180.0000771  0.0000000  2
   3717   3716   3718   3720     1  0.0000000  7.9496000  1
   3717   3716   3718   3720     1  180.0000771  9.6232000  2
   3721   3723   3725   3727     1  0.0000000  0.6508444  3
   3721   3723   3725   3728     1  0.0000000  0.6508444  3
   3722   3721   3723   3725     1  0.0000000  0.0000000  2
   3722   3721   3723   3724     1  0.0000000  0.0000000  2
   3722   3721   3723   3726     1  0.0000000  0.0000000  2
   3724   3723   3725   3729     1  0.0000000  0.6508444  3
   3724   3723   3725   3727     1  0.0000000  0.6508444  3
   3724   3723   3725   3728     1  0.0000000  0.6508444  3
   3725   3729   3730   3740     1  0.0000000  1.2552000  3
   3725   3729   3730   3741     1  0.0000000  1.2552000  3
   3725   3729   3731   3732     1  0.0000000  1.2552000  3
   3725   3729   3731   3734     1  0.0000000  1.2552000  3
   3726   3723   3725   3729     1  0.0000000  0.6508444  3
   3726   3723   3725   3727     1  0.0000000  0.6508444  3
   3726   3723   3725   3728     1  0.0000000  0.6508444  3
   3727   3725   3729   3730     1  0.0000000  1.2552000  3
   3727   3725   3729   3731     1  0.0000000  1.2552000  3
   3728   3725   3729   3730     1  0.0000000  1.2552000  3
   3728   3725   3729   3731     1  0.0000000  1.2552000  3
   3729   3730   3742   3743     1  0.0000000  0.6508444  3
   3729   3730   3742   3744     1  0.0000000  0.6508444  3
   3729   3731   3733   3735     1  0.0000000  0.6508444  3
   3729   3731   3733   3736     1  0.0000000  0.6508444  3
   3730   3729   3731   3732     1  0.0000000  1.2552000  3
   3730   3729   3731   3734     1  0.0000000  1.2552000  3
   3731   3729   3730   3740     1  0.0000000  1.2552000  3
   3731   3729   3730   3741     1  0.0000000  1.2552000  3
   3732   3731   3733   3737     1  0.0000000  0.6508444  3
   3732   3731   3733   3735     1  0.0000000  0.6508444  3
   3732   3731   3733   3736     1  0.0000000  0.6508444  3
   3733   3737   3738   3748     1  180.0000771  9.6232000  2
   3734   3731   3733   3737     1  0.0000000  0.6508444  3
   3734   3731   3733   3735     1  0.0000000  0.6508444  3
   3734   3731   3733   3736     1  0.0000000  0.6508444  3
   3735   3733   3737   3738     1  180.0000771  0.0000000  2
   3735   3733   3737   3739     1  0.0000000  3.3472000  1
   3735   3733   3737   3739     1  0.0000000  0.0000000  2
   3735   3733   3737   3739     1  180.0000771  0.3347200  3
   3736   3733   3737   3738     1  180.0000771  0.0000000  2
   3736   3733   3737   3739     1  0.0000000  3.3472000  1
   3736   3733   3737   3739     1  0.0000000  0.0000000  2
   3736   3733   3737   3739     1  180.0000771  0.3347200  3
   3739   3737   3738   3748     1  0.0000000  7.9496000  1
   3739   3737   3738   3748     1  180.0000771  9.6232000  2
   3740   3730   3742   3745     1  0.0000000  0.6508444  3
   3740   3730   3742   3743     1  0.0000000  0.6508444  3
   3740   3730   3742   3744     1  0.0000000  0.6508444  3
   3741   3730   3742   3745     1  0.0000000  0.6508444  3
   3741   3730   3742   3743     1  0.0000000  0.6508444  3
   3741   3730   3742   3744     1  0.0000000  0.6508444  3
   3742   3745   3747   3749     1  180.0000771  9.6232000  2
   3743   3742   3745   3746     1  0.0000000  3.3472000  1
   3743   3742   3745   3746     1  0.0000000  0.0000000  2
   3743   3742   3745   3746     1  180.0000771  0.3347200  3
   3743   3742   3745   3747     1  180.0000771  0.0000000  2
   3744   3742   3745   3746     1  0.0000000  3.3472000  1
   3744   3742   3745   3746     1  0.0000000  0.0000000  2
   3744   3742   3745   3746     1  180.0000771  0.3347200  3
   3744   3742   3745   3747     1  180.0000771  0.0000000  2
   3746   3745   3747   3749     1  0.0000000  7.9496000  1
   3746   3745   3747   3749     1  180.0000771  9.6232000  2
   3750   3752   3754   3756     1  0.0000000  0.6508444  3
   3750   3752   3754   3757     1  0.0000000  0.6508444  3
   3751   3750   3752   3754     1  0.0000000  0.0000000  2
   3751   3750   3752   3753     1  0.0000000  0.0000000  2
   3751   3750   3752   3755     1  0.0000000  0.0000000  2
   3753   3752   3754   3758     1  0.0000000  0.6508444  3
   3753   3752   3754   3756     1  0.0000000  0.6508444  3
   3753   3752   3754   3757     1  0.0000000  0.6508444  3
   3754   3758   3759   3769     1  0.0000000  1.2552000  3
   3754   3758   3759   3770     1  0.0000000  1.2552000  3
   3754   3758   3760   3761     1  0.0000000  1.2552000  3
   3754   3758   3760   3763     1  0.0000000  1.2552000  3
   3755   3752   3754   3758     1  0.0000000  0.6508444  3
   3755   3752   3754   3756     1  0.0000000  0.6508444  3
   3755   3752   3754   3757     1  0.0000000  0.6508444  3
   3756   3754   3758   3759     1  0.0000000  1.2552000  3
   3756   3754   3758   3760     1  0.0000000  1.2552000  3
   3757   3754   3758   3759     1  0.0000000  1.2552000  3
   3757   3754   3758   3760     1  0.0000000  1.2552000  3
   3758   3759   3771   3772     1  0.0000000  0.6508444  3
   3758   3759   3771   3773     1  0.0000000  0.6508444  3
   3758   3760   3762   3764     1  0.0000000  0.6508444  3
   3758   3760   3762   3765     1  0.0000000  0.6508444  3
   3759   3758   3760   3761     1  0.0000000  1.2552000  3
   3759   3758   3760   3763     1  0.0000000  1.2552000  3
   3760   3758   3759   3769     1  0.0000000  1.2552000  3
   3760   3758   3759   3770     1  0.0000000  1.2552000  3
   3761   3760   3762   3766     1  0.0000000  0.6508444  3
   3761   3760   3762   3764     1  0.0000000  0.6508444  3
   3761   3760   3762   3765     1  0.0000000  0.6508444  3
   3762   3766   3767   3777     1  180.0000771  9.6232000  2
   3763   3760   3762   3766     1  0.0000000  0.6508444  3
   3763   3760   3762   3764     1  0.0000000  0.6508444  3
   3763   3760   3762   3765     1  0.0000000  0.6508444  3
   3764   3762   3766   3767     1  180.0000771  0.0000000  2
   3764   3762   3766   3768     1  0.0000000  3.3472000  1
   3764   3762   3766   3768     1  0.0000000  0.0000000  2
   3764   3762   3766   3768     1  180.0000771  0.3347200  3
   3765   3762   3766   3767     1  180.0000771  0.0000000  2
   3765   3762   3766   3768     1  0.0000000  3.3472000  1
   3765   3762   3766   3768     1  0.0000000  0.0000000  2
   3765   3762   3766   3768     1  180.0000771  0.3347200  3
   3768   3766   3767   3777     1  0.0000000  7.9496000  1
   3768   3766   3767   3777     1  180.0000771  9.6232000  2
   3769   3759   3771   3774     1  0.0000000  0.6508444  3
   3769   3759   3771   3772     1  0.0000000  0.6508444  3
   3769   3759   3771   3773     1  0.0000000  0.6508444  3
   3770   3759   3771   3774     1  0.0000000  0.6508444  3
   3770   3759   3771   3772     1  0.0000000  0.6508444  3
   3770   3759   3771   3773     1  0.0000000  0.6508444  3
   3771   3774   3776   3778     1  180.0000771  9.6232000  2
   3772   3771   3774   3775     1  0.0000000  3.3472000  1
   3772   3771   3774   3775     1  0.0000000  0.0000000  2
   3772   3771   3774   3775     1  180.0000771  0.3347200  3
   3772   3771   3774   3776     1  180.0000771  0.0000000  2
   3773   3771   3774   3775     1  0.0000000  3.3472000  1
   3773   3771   3774   3775     1  0.0000000  0.0000000  2
   3773   3771   3774   3775     1  180.0000771  0.3347200  3
   3773   3771   3774   3776     1  180.0000771  0.0000000  2
   3775   3774   3776   3778     1  0.0000000  7.9496000  1
   3775   3774   3776   3778     1  180.0000771  9.6232000  2
   3779   3781   3783   3785     1  0.0000000  0.6508444  3
   3779   3781   3783   3786     1  0.0000000  0.6508444  3
   3780   3779   3781   3783     1  0.0000000  0.0000000  2
   3780   3779   3781   3782     1  0.0000000  0.0000000  2
   3780   3779   3781   3784     1  0.0000000  0.0000000  2
   3782   3781   3783   3787     1  0.0000000  0.6508444  3
   3782   3781   3783   3785     1  0.0000000  0.6508444  3
   3782   3781   3783   3786     1  0.0000000  0.6508444  3
   3783   3787   3788   3798     1  0.0000000  1.2552000  3
   3783   3787   3788   3799     1  0.0000000  1.2552000  3
   3783   3787   3789   3790     1  0.0000000  1.2552000  3
   3783   3787   3789   3792     1  0.0000000  1.2552000  3
   3784   3781   3783   3787     1  0.0000000  0.6508444  3
   3784   3781   3783   3785     1  0.0000000  0.6508444  3
   3784   3781   3783   3786     1  0.0000000  0.6508444  3
   3785   3783   3787   3788     1  0.0000000  1.2552000  3
   3785   3783   3787   3789     1  0.0000000  1.2552000  3
   3786   3783   3787   3788     1  0.0000000  1.2552000  3
   3786   3783   3787   3789     1  0.0000000  1.2552000  3
   3787   3788   3800   3801     1  0.0000000  0.6508444  3
   3787   3788   3800   3802     1  0.0000000  0.6508444  3
   3787   3789   3791   3793     1  0.0000000  0.6508444  3
   3787   3789   3791   3794     1  0.0000000  0.6508444  3
   3788   3787   3789   3790     1  0.0000000  1.2552000  3
   3788   3787   3789   3792     1  0.0000000  1.2552000  3
   3789   3787   3788   3798     1  0.0000000  1.2552000  3
   3789   3787   3788   3799     1  0.0000000  1.2552000  3
   3790   3789   3791   3795     1  0.0000000  0.6508444  3
   3790   3789   3791   3793     1  0.0000000  0.6508444  3
   3790   3789   3791   3794     1  0.0000000  0.6508444  3
   3791   3795   3796   3806     1  180.0000771  9.6232000  2
   3792   3789   3791   3795     1  0.0000000  0.6508444  3
   3792   3789   3791   3793     1  0.0000000  0.6508444  3
   3792   3789   3791   3794     1  0.0000000  0.6508444  3
   3793   3791   3795   3796     1  180.0000771  0.0000000  2
   3793   3791   3795   3797     1  0.0000000  3.3472000  1
   3793   3791   3795   3797     1  0.0000000  0.0000000  2
   3793   3791   3795   3797     1  180.0000771  0.3347200  3
   3794   3791   3795   3796     1  180.0000771  0.0000000  2
   3794   3791   3795   3797     1  0.0000000  3.3472000  1
   3794   3791   3795   3797     1  0.0000000  0.0000000  2
   3794   3791   3795   3797     1  180.0000771  0.3347200  3
   3797   3795   3796   3806     1  0.0000000  7.9496000  1
   3797   3795   3796   3806     1  180.0000771  9.6232000  2
   3798   3788   3800   3803     1  0.0000000  0.6508444  3
   3798   3788   3800   3801     1  0.0000000  0.6508444  3
   3798   3788   3800   3802     1  0.0000000  0.6508444  3
   3799   3788   3800   3803     1  0.0000000  0.6508444  3
   3799   3788   3800   3801     1  0.0000000  0.6508444  3
   3799   3788   3800   3802     1  0.0000000  0.6508444  3
   3800   3803   3805   3807     1  180.0000771  9.6232000  2
   3801   3800   3803   3804     1  0.0000000  3.3472000  1
   3801   3800   3803   3804     1  0.0000000  0.0000000  2
   3801   3800   3803   3804     1  180.0000771  0.3347200  3
   3801   3800   3803   3805     1  180.0000771  0.0000000  2
   3802   3800   3803   3804     1  0.0000000  3.3472000  1
   3802   3800   3803   3804     1  0.0000000  0.0000000  2
   3802   3800   3803   3804     1  180.0000771  0.3347200  3
   3802   3800   3803   3805     1  180.0000771  0.0000000  2
   3804   3803   3805   3807     1  0.0000000  7.9496000  1
   3804   3803   3805   3807     1  180.0000771  9.6232000  2
   3808   3810   3812   3814     1  0.0000000  0.6508444  3
   3808   3810   3812   3815     1  0.0000000  0.6508444  3
   3809   3808   3810   3812     1  0.0000000  0.0000000  2
   3809   3808   3810   3811     1  0.0000000  0.0000000  2
   3809   3808   3810   3813     1  0.0000000  0.0000000  2
   3811   3810   3812   3816     1  0.0000000  0.6508444  3
   3811   3810   3812   3814     1  0.0000000  0.6508444  3
   3811   3810   3812   3815     1  0.0000000  0.6508444  3
   3812   3816   3817   3827     1  0.0000000  1.2552000  3
   3812   3816   3817   3828     1  0.0000000  1.2552000  3
   3812   3816   3818   3819     1  0.0000000  1.2552000  3
   3812   3816   3818   3821     1  0.0000000  1.2552000  3
   3813   3810   3812   3816     1  0.0000000  0.6508444  3
   3813   3810   3812   3814     1  0.0000000  0.6508444  3
   3813   3810   3812   3815     1  0.0000000  0.6508444  3
   3814   3812   3816   3817     1  0.0000000  1.2552000  3
   3814   3812   3816   3818     1  0.0000000  1.2552000  3
   3815   3812   3816   3817     1  0.0000000  1.2552000  3
   3815   3812   3816   3818     1  0.0000000  1.2552000  3
   3816   3817   3829   3830     1  0.0000000  0.6508444  3
   3816   3817   3829   3831     1  0.0000000  0.6508444  3
   3816   3818   3820   3822     1  0.0000000  0.6508444  3
   3816   3818   3820   3823     1  0.0000000  0.6508444  3
   3817   3816   3818   3819     1  0.0000000  1.2552000  3
   3817   3816   3818   3821     1  0.0000000  1.2552000  3
   3818   3816   3817   3827     1  0.0000000  1.2552000  3
   3818   3816   3817   3828     1  0.0000000  1.2552000  3
   3819   3818   3820   3824     1  0.0000000  0.6508444  3
   3819   3818   3820   3822     1  0.0000000  0.6508444  3
   3819   3818   3820   3823     1  0.0000000  0.6508444  3
   3820   3824   3825   3835     1  180.0000771  9.6232000  2
   3821   3818   3820   3824     1  0.0000000  0.6508444  3
   3821   3818   3820   3822     1  0.0000000  0.6508444  3
   3821   3818   3820   3823     1  0.0000000  0.6508444  3
   3822   3820   3824   3825     1  180.0000771  0.0000000  2
   3822   3820   3824   3826     1  0.0000000  3.3472000  1
   3822   3820   3824   3826     1  0.0000000  0.0000000  2
   3822   3820   3824   3826     1  180.0000771  0.3347200  3
   3823   3820   3824   3825     1  180.0000771  0.0000000  2
   3823   3820   3824   3826     1  0.0000000  3.3472000  1
   3823   3820   3824   3826     1  0.0000000  0.0000000  2
   3823   3820   3824   3826     1  180.0000771  0.3347200  3
   3826   3824   3825   3835     1  0.0000000  7.9496000  1
   3826   3824   3825   3835     1  180.0000771  9.6232000  2
   3827   3817   3829   3832     1  0.0000000  0.6508444  3
   3827   3817   3829   3830     1  0.0000000  0.6508444  3
   3827   3817   3829   3831     1  0.0000000  0.6508444  3
   3828   3817   3829   3832     1  0.0000000  0.6508444  3
   3828   3817   3829   3830     1  0.0000000  0.6508444  3
   3828   3817   3829   3831     1  0.0000000  0.6508444  3
   3829   3832   3834   3836     1  180.0000771  9.6232000  2
   3830   3829   3832   3833     1  0.0000000  3.3472000  1
   3830   3829   3832   3833     1  0.0000000  0.0000000  2
   3830   3829   3832   3833     1  180.0000771  0.3347200  3
   3830   3829   3832   3834     1  180.0000771  0.0000000  2
   3831   3829   3832   3833     1  0.0000000  3.3472000  1
   3831   3829   3832   3833     1  0.0000000  0.0000000  2
   3831   3829   3832   3833     1  180.0000771  0.3347200  3
   3831   3829   3832   3834     1  180.0000771  0.0000000  2
   3833   3832   3834   3836     1  0.0000000  7.9496000  1
   3833   3832   3834   3836     1  180.0000771  9.6232000  2
   3837   3839   3841   3843     1  0.0000000  0.6508444  3
   3837   3839   3841   3844     1  0.0000000  0.6508444  3
   3838   3837   3839   3841     1  0.0000000  0.0000000  2
   3838   3837   3839   3840     1  0.0000000  0.0000000  2
   3838   3837   3839   3842     1  0.0000000  0.0000000  2
   3840   3839   3841   3845     1  0.0000000  0.6508444  3
   3840   3839   3841   3843     1  0.0000000  0.6508444  3
   3840   3839   3841   3844     1  0.0000000  0.6508444  3
   3841   3845   3846   3856     1  0.0000000  1.2552000  3
   3841   3845   3846   3857     1  0.0000000  1.2552000  3
   3841   3845   3847   3848     1  0.0000000  1.2552000  3
   3841   3845   3847   3850     1  0.0000000  1.2552000  3
   3842   3839   3841   3845     1  0.0000000  0.6508444  3
   3842   3839   3841   3843     1  0.0000000  0.6508444  3
   3842   3839   3841   3844     1  0.0000000  0.6508444  3
   3843   3841   3845   3846     1  0.0000000  1.2552000  3
   3843   3841   3845   3847     1  0.0000000  1.2552000  3
   3844   3841   3845   3846     1  0.0000000  1.2552000  3
   3844   3841   3845   3847     1  0.0000000  1.2552000  3
   3845   3846   3858   3859     1  0.0000000  0.6508444  3
   3845   3846   3858   3860     1  0.0000000  0.6508444  3
   3845   3847   3849   3851     1  0.0000000  0.6508444  3
   3845   3847   3849   3852     1  0.0000000  0.6508444  3
   3846   3845   3847   3848     1  0.0000000  1.2552000  3
   3846   3845   3847   3850     1  0.0000000  1.2552000  3
   3847   3845   3846   3856     1  0.0000000  1.2552000  3
   3847   3845   3846   3857     1  0.0000000  1.2552000  3
   3848   3847   3849   3853     1  0.0000000  0.6508444  3
   3848   3847   3849   3851     1  0.0000000  0.6508444  3
   3848   3847   3849   3852     1  0.0000000  0.6508444  3
   3849   3853   3854   3864     1  180.0000771  9.6232000  2
   3850   3847   3849   3853     1  0.0000000  0.6508444  3
   3850   3847   3849   3851     1  0.0000000  0.6508444  3
   3850   3847   3849   3852     1  0.0000000  0.6508444  3
   3851   3849   3853   3854     1  180.0000771  0.0000000  2
   3851   3849   3853   3855     1  0.0000000  3.3472000  1
   3851   3849   3853   3855     1  0.0000000  0.0000000  2
   3851   3849   3853   3855     1  180.0000771  0.3347200  3
   3852   3849   3853   3854     1  180.0000771  0.0000000  2
   3852   3849   3853   3855     1  0.0000000  3.3472000  1
   3852   3849   3853   3855     1  0.0000000  0.0000000  2
   3852   3849   3853   3855     1  180.0000771  0.3347200  3
   3855   3853   3854   3864     1  0.0000000  7.9496000  1
   3855   3853   3854   3864     1  180.0000771  9.6232000  2
   3856   3846   3858   3861     1  0.0000000  0.6508444  3
   3856   3846   3858   3859     1  0.0000000  0.6508444  3
   3856   3846   3858   3860     1  0.0000000  0.6508444  3
   3857   3846   3858   3861     1  0.0000000  0.6508444  3
   3857   3846   3858   3859     1  0.0000000  0.6508444  3
   3857   3846   3858   3860     1  0.0000000  0.6508444  3
   3858   3861   3863   3865     1  180.0000771  9.6232000  2
   3859   3858   3861   3862     1  0.0000000  3.3472000  1
   3859   3858   3861   3862     1  0.0000000  0.0000000  2
   3859   3858   3861   3862     1  180.0000771  0.3347200  3
   3859   3858   3861   3863     1  180.0000771  0.0000000  2
   3860   3858   3861   3862     1  0.0000000  3.3472000  1
   3860   3858   3861   3862     1  0.0000000  0.0000000  2
   3860   3858   3861   3862     1  180.0000771  0.3347200  3
   3860   3858   3861   3863     1  180.0000771  0.0000000  2
   3862   3861   3863   3865     1  0.0000000  7.9496000  1
   3862   3861   3863   3865     1  180.0000771  9.6232000  2
   3866   3868   3870   3872     1  0.0000000  0.6508444  3
   3866   3868   3870   3873     1  0.0000000  0.6508444  3
   3867   3866   3868   3870     1  0.0000000  0.0000000  2
   3867   3866   3868   3869     1  0.0000000  0.0000000  2
   3867   3866   3868   3871     1  0.0000000  0.0000000  2
   3869   3868   3870   3874     1  0.0000000  0.6508444  3
   3869   3868   3870   3872     1  0.0000000  0.6508444  3
   3869   3868   3870   3873     1  0.0000000  0.6508444  3
   3870   3874   3875   3885     1  0.0000000  1.2552000  3
   3870   3874   3875   3886     1  0.0000000  1.2552000  3
   3870   3874   3876   3877     1  0.0000000  1.2552000  3
   3870   3874   3876   3879     1  0.0000000  1.2552000  3
   3871   3868   3870   3874     1  0.0000000  0.6508444  3
   3871   3868   3870   3872     1  0.0000000  0.6508444  3
   3871   3868   3870   3873     1  0.0000000  0.6508444  3
   3872   3870   3874   3875     1  0.0000000  1.2552000  3
   3872   3870   3874   3876     1  0.0000000  1.2552000  3
   3873   3870   3874   3875     1  0.0000000  1.2552000  3
   3873   3870   3874   3876     1  0.0000000  1.2552000  3
   3874   3875   3887   3888     1  0.0000000  0.6508444  3
   3874   3875   3887   3889     1  0.0000000  0.6508444  3
   3874   3876   3878   3880     1  0.0000000  0.6508444  3
   3874   3876   3878   3881     1  0.0000000  0.6508444  3
   3875   3874   3876   3877     1  0.0000000  1.2552000  3
   3875   3874   3876   3879     1  0.0000000  1.2552000  3
   3876   3874   3875   3885     1  0.0000000  1.2552000  3
   3876   3874   3875   3886     1  0.0000000  1.2552000  3
   3877   3876   3878   3882     1  0.0000000  0.6508444  3
   3877   3876   3878   3880     1  0.0000000  0.6508444  3
   3877   3876   3878   3881     1  0.0000000  0.6508444  3
   3878   3882   3883   3893     1  180.0000771  9.6232000  2
   3879   3876   3878   3882     1  0.0000000  0.6508444  3
   3879   3876   3878   3880     1  0.0000000  0.6508444  3
   3879   3876   3878   3881     1  0.0000000  0.6508444  3
   3880   3878   3882   3883     1  180.0000771  0.0000000  2
   3880   3878   3882   3884     1  0.0000000  3.3472000  1
   3880   3878   3882   3884     1  0.0000000  0.0000000  2
   3880   3878   3882   3884     1  180.0000771  0.3347200  3
   3881   3878   3882   3883     1  180.0000771  0.0000000  2
   3881   3878   3882   3884     1  0.0000000  3.3472000  1
   3881   3878   3882   3884     1  0.0000000  0.0000000  2
   3881   3878   3882   3884     1  180.0000771  0.3347200  3
   3884   3882   3883   3893     1  0.0000000  7.9496000  1
   3884   3882   3883   3893     1  180.0000771  9.6232000  2
   3885   3875   3887   3890     1  0.0000000  0.6508444  3
   3885   3875   3887   3888     1  0.0000000  0.6508444  3
   3885   3875   3887   3889     1  0.0000000  0.6508444  3
   3886   3875   3887   3890     1  0.0000000  0.6508444  3
   3886   3875   3887   3888     1  0.0000000  0.6508444  3
   3886   3875   3887   3889     1  0.0000000  0.6508444  3
   3887   3890   3892   3894     1  180.0000771  9.6232000  2
   3888   3887   3890   3891     1  0.0000000  3.3472000  1
   3888   3887   3890   3891     1  0.0000000  0.0000000  2
   3888   3887   3890   3891     1  180.0000771  0.3347200  3
   3888   3887   3890   3892     1  180.0000771  0.0000000  2
   3889   3887   3890   3891     1  0.0000000  3.3472000  1
   3889   3887   3890   3891     1  0.0000000  0.0000000  2
   3889   3887   3890   3891     1  180.0000771  0.3347200  3
   3889   3887   3890   3892     1  180.0000771  0.0000000  2
   3891   3890   3892   3894     1  0.0000000  7.9496000  1
   3891   3890   3892   3894     1  180.0000771  9.6232000  2
   3895   3897   3899   3901     1  0.0000000  0.6508444  3
   3895   3897   3899   3902     1  0.0000000  0.6508444  3
   3896   3895   3897   3899     1  0.0000000  0.0000000  2
   3896   3895   3897   3898     1  0.0000000  0.0000000  2
   3896   3895   3897   3900     1  0.0000000  0.0000000  2
   3898   3897   3899   3903     1  0.0000000  0.6508444  3
   3898   3897   3899   3901     1  0.0000000  0.6508444  3
   3898   3897   3899   3902     1  0.0000000  0.6508444  3
   3899   3903   3904   3914     1  0.0000000  1.2552000  3
   3899   3903   3904   3915     1  0.0000000  1.2552000  3
   3899   3903   3905   3906     1  0.0000000  1.2552000  3
   3899   3903   3905   3908     1  0.0000000  1.2552000  3
   3900   3897   3899   3903     1  0.0000000  0.6508444  3
   3900   3897   3899   3901     1  0.0000000  0.6508444  3
   3900   3897   3899   3902     1  0.0000000  0.6508444  3
   3901   3899   3903   3904     1  0.0000000  1.2552000  3
   3901   3899   3903   3905     1  0.0000000  1.2552000  3
   3902   3899   3903   3904     1  0.0000000  1.2552000  3
   3902   3899   3903   3905     1  0.0000000  1.2552000  3
   3903   3904   3916   3917     1  0.0000000  0.6508444  3
   3903   3904   3916   3918     1  0.0000000  0.6508444  3
   3903   3905   3907   3909     1  0.0000000  0.6508444  3
   3903   3905   3907   3910     1  0.0000000  0.6508444  3
   3904   3903   3905   3906     1  0.0000000  1.2552000  3
   3904   3903   3905   3908     1  0.0000000  1.2552000  3
   3905   3903   3904   3914     1  0.0000000  1.2552000  3
   3905   3903   3904   3915     1  0.0000000  1.2552000  3
   3906   3905   3907   3911     1  0.0000000  0.6508444  3
   3906   3905   3907   3909     1  0.0000000  0.6508444  3
   3906   3905   3907   3910     1  0.0000000  0.6508444  3
   3907   3911   3912   3922     1  180.0000771  9.6232000  2
   3908   3905   3907   3911     1  0.0000000  0.6508444  3
   3908   3905   3907   3909     1  0.0000000  0.6508444  3
   3908   3905   3907   3910     1  0.0000000  0.6508444  3
   3909   3907   3911   3912     1  180.0000771  0.0000000  2
   3909   3907   3911   3913     1  0.0000000  3.3472000  1
   3909   3907   3911   3913     1  0.0000000  0.0000000  2
   3909   3907   3911   3913     1  180.0000771  0.3347200  3
   3910   3907   3911   3912     1  180.0000771  0.0000000  2
   3910   3907   3911   3913     1  0.0000000  3.3472000  1
   3910   3907   3911   3913     1  0.0000000  0.0000000  2
   3910   3907   3911   3913     1  180.0000771  0.3347200  3
   3913   3911   3912   3922     1  0.0000000  7.9496000  1
   3913   3911   3912   3922     1  180.0000771  9.6232000  2
   3914   3904   3916   3919     1  0.0000000  0.6508444  3
   3914   3904   3916   3917     1  0.0000000  0.6508444  3
   3914   3904   3916   3918     1  0.0000000  0.6508444  3
   3915   3904   3916   3919     1  0.0000000  0.6508444  3
   3915   3904   3916   3917     1  0.0000000  0.6508444  3
   3915   3904   3916   3918     1  0.0000000  0.6508444  3
   3916   3919   3921   3923     1  180.0000771  9.6232000  2
   3917   3916   3919   3920     1  0.0000000  3.3472000  1
   3917   3916   3919   3920     1  0.0000000  0.0000000  2
   3917   3916   3919   3920     1  180.0000771  0.3347200  3
   3917   3916   3919   3921     1  180.0000771  0.0000000  2
   3918   3916   3919   3920     1  0.0000000  3.3472000  1
   3918   3916   3919   3920     1  0.0000000  0.0000000  2
   3918   3916   3919   3920     1  180.0000771  0.3347200  3
   3918   3916   3919   3921     1  180.0000771  0.0000000  2
   3920   3919   3921   3923     1  0.0000000  7.9496000  1
   3920   3919   3921   3923     1  180.0000771  9.6232000  2
   3924   3926   3928   3930     1  0.0000000  0.6508444  3
   3924   3926   3928   3931     1  0.0000000  0.6508444  3
   3925   3924   3926   3928     1  0.0000000  0.0000000  2
   3925   3924   3926   3927     1  0.0000000  0.0000000  2
   3925   3924   3926   3929     1  0.0000000  0.0000000  2
   3927   3926   3928   3932     1  0.0000000  0.6508444  3
   3927   3926   3928   3930     1  0.0000000  0.6508444  3
   3927   3926   3928   3931     1  0.0000000  0.6508444  3
   3928   3932   3933   3943     1  0.0000000  1.2552000  3
   3928   3932   3933   3944     1  0.0000000  1.2552000  3
   3928   3932   3934   3935     1  0.0000000  1.2552000  3
   3928   3932   3934   3937     1  0.0000000  1.2552000  3
   3929   3926   3928   3932     1  0.0000000  0.6508444  3
   3929   3926   3928   3930     1  0.0000000  0.6508444  3
   3929   3926   3928   3931     1  0.0000000  0.6508444  3
   3930   3928   3932   3933     1  0.0000000  1.2552000  3
   3930   3928   3932   3934     1  0.0000000  1.2552000  3
   3931   3928   3932   3933     1  0.0000000  1.2552000  3
   3931   3928   3932   3934     1  0.0000000  1.2552000  3
   3932   3933   3945   3946     1  0.0000000  0.6508444  3
   3932   3933   3945   3947     1  0.0000000  0.6508444  3
   3932   3934   3936   3938     1  0.0000000  0.6508444  3
   3932   3934   3936   3939     1  0.0000000  0.6508444  3
   3933   3932   3934   3935     1  0.0000000  1.2552000  3
   3933   3932   3934   3937     1  0.0000000  1.2552000  3
   3934   3932   3933   3943     1  0.0000000  1.2552000  3
   3934   3932   3933   3944     1  0.0000000  1.2552000  3
   3935   3934   3936   3940     1  0.0000000  0.6508444  3
   3935   3934   3936   3938     1  0.0000000  0.6508444  3
   3935   3934   3936   3939     1  0.0000000  0.6508444  3
   3936   3940   3941   3951     1  180.0000771  9.6232000  2
   3937   3934   3936   3940     1  0.0000000  0.6508444  3
   3937   3934   3936   3938     1  0.0000000  0.6508444  3
   3937   3934   3936   3939     1  0.0000000  0.6508444  3
   3938   3936   3940   3941     1  180.0000771  0.0000000  2
   3938   3936   3940   3942     1  0.0000000  3.3472000  1
   3938   3936   3940   3942     1  0.0000000  0.0000000  2
   3938   3936   3940   3942     1  180.0000771  0.3347200  3
   3939   3936   3940   3941     1  180.0000771  0.0000000  2
   3939   3936   3940   3942     1  0.0000000  3.3472000  1
   3939   3936   3940   3942     1  0.0000000  0.0000000  2
   3939   3936   3940   3942     1  180.0000771  0.3347200  3
   3942   3940   3941   3951     1  0.0000000  7.9496000  1
   3942   3940   3941   3951     1  180.0000771  9.6232000  2
   3943   3933   3945   3948     1  0.0000000  0.6508444  3
   3943   3933   3945   3946     1  0.0000000  0.6508444  3
   3943   3933   3945   3947     1  0.0000000  0.6508444  3
   3944   3933   3945   3948     1  0.0000000  0.6508444  3
   3944   3933   3945   3946     1  0.0000000  0.6508444  3
   3944   3933   3945   3947     1  0.0000000  0.6508444  3
   3945   3948   3950   3952     1  180.0000771  9.6232000  2
   3946   3945   3948   3949     1  0.0000000  3.3472000  1
   3946   3945   3948   3949     1  0.0000000  0.0000000  2
   3946   3945   3948   3949     1  180.0000771  0.3347200  3
   3946   3945   3948   3950     1  180.0000771  0.0000000  2
   3947   3945   3948   3949     1  0.0000000  3.3472000  1
   3947   3945   3948   3949     1  0.0000000  0.0000000  2
   3947   3945   3948   3949     1  180.0000771  0.3347200  3
   3947   3945   3948   3950     1  180.0000771  0.0000000  2
   3949   3948   3950   3952     1  0.0000000  7.9496000  1
   3949   3948   3950   3952     1  180.0000771  9.6232000  2
   3953   3955   3957   3959     1  0.0000000  0.6508444  3
   3953   3955   3957   3960     1  0.0000000  0.6508444  3
   3954   3953   3955   3957     1  0.0000000  0.0000000  2
   3954   3953   3955   3956     1  0.0000000  0.0000000  2
   3954   3953   3955   3958     1  0.0000000  0.0000000  2
   3956   3955   3957   3961     1  0.0000000  0.6508444  3
   3956   3955   3957   3959     1  0.0000000  0.6508444  3
   3956   3955   3957   3960     1  0.0000000  0.6508444  3
   3957   3961   3962   3972     1  0.0000000  1.2552000  3
   3957   3961   3962   3973     1  0.0000000  1.2552000  3
   3957   3961   3963   3964     1  0.0000000  1.2552000  3
   3957   3961   3963   3966     1  0.0000000  1.2552000  3
   3958   3955   3957   3961     1  0.0000000  0.6508444  3
   3958   3955   3957   3959     1  0.0000000  0.6508444  3
   3958   3955   3957   3960     1  0.0000000  0.6508444  3
   3959   3957   3961   3962     1  0.0000000  1.2552000  3
   3959   3957   3961   3963     1  0.0000000  1.2552000  3
   3960   3957   3961   3962     1  0.0000000  1.2552000  3
   3960   3957   3961   3963     1  0.0000000  1.2552000  3
   3961   3962   3974   3975     1  0.0000000  0.6508444  3
   3961   3962   3974   3976     1  0.0000000  0.6508444  3
   3961   3963   3965   3967     1  0.0000000  0.6508444  3
   3961   3963   3965   3968     1  0.0000000  0.6508444  3
   3962   3961   3963   3964     1  0.0000000  1.2552000  3
   3962   3961   3963   3966     1  0.0000000  1.2552000  3
   3963   3961   3962   3972     1  0.0000000  1.2552000  3
   3963   3961   3962   3973     1  0.0000000  1.2552000  3
   3964   3963   3965   3969     1  0.0000000  0.6508444  3
   3964   3963   3965   3967     1  0.0000000  0.6508444  3
   3964   3963   3965   3968     1  0.0000000  0.6508444  3
   3965   3969   3970   3980     1  180.0000771  9.6232000  2
   3966   3963   3965   3969     1  0.0000000  0.6508444  3
   3966   3963   3965   3967     1  0.0000000  0.6508444  3
   3966   3963   3965   3968     1  0.0000000  0.6508444  3
   3967   3965   3969   3970     1  180.0000771  0.0000000  2
   3967   3965   3969   3971     1  0.0000000  3.3472000  1
   3967   3965   3969   3971     1  0.0000000  0.0000000  2
   3967   3965   3969   3971     1  180.0000771  0.3347200  3
   3968   3965   3969   3970     1  180.0000771  0.0000000  2
   3968   3965   3969   3971     1  0.0000000  3.3472000  1
   3968   3965   3969   3971     1  0.0000000  0.0000000  2
   3968   3965   3969   3971     1  180.0000771  0.3347200  3
   3971   3969   3970   3980     1  0.0000000  7.9496000  1
   3971   3969   3970   3980     1  180.0000771  9.6232000  2
   3972   3962   3974   3977     1  0.0000000  0.6508444  3
   3972   3962   3974   3975     1  0.0000000  0.6508444  3
   3972   3962   3974   3976     1  0.0000000  0.6508444  3
   3973   3962   3974   3977     1  0.0000000  0.6508444  3
   3973   3962   3974   3975     1  0.0000000  0.6508444  3
   3973   3962   3974   3976     1  0.0000000  0.6508444  3
   3974   3977   3979   3981     1  180.0000771  9.6232000  2
   3975   3974   3977   3978     1  0.0000000  3.3472000  1
   3975   3974   3977   3978     1  0.0000000  0.0000000  2
   3975   3974   3977   3978     1  180.0000771  0.3347200  3
   3975   3974   3977   3979     1  180.0000771  0.0000000  2
   3976   3974   3977   3978     1  0.0000000  3.3472000  1
   3976   3974   3977   3978     1  0.0000000  0.0000000  2
   3976   3974   3977   3978     1  180.0000771  0.3347200  3
   3976   3974   3977   3979     1  180.0000771  0.0000000  2
   3978   3977   3979   3981     1  0.0000000  7.9496000  1
   3978   3977   3979   3981     1  180.0000771  9.6232000  2
   3982   3984   3986   3988     1  0.0000000  0.6508444  3
   3982   3984   3986   3989     1  0.0000000  0.6508444  3
   3983   3982   3984   3986     1  0.0000000  0.0000000  2
   3983   3982   3984   3985     1  0.0000000  0.0000000  2
   3983   3982   3984   3987     1  0.0000000  0.0000000  2
   3985   3984   3986   3990     1  0.0000000  0.6508444  3
   3985   3984   3986   3988     1  0.0000000  0.6508444  3
   3985   3984   3986   3989     1  0.0000000  0.6508444  3
   3986   3990   3991   4001     1  0.0000000  1.2552000  3
   3986   3990   3991   4002     1  0.0000000  1.2552000  3
   3986   3990   3992   3993     1  0.0000000  1.2552000  3
   3986   3990   3992   3995     1  0.0000000  1.2552000  3
   3987   3984   3986   3990     1  0.0000000  0.6508444  3
   3987   3984   3986   3988     1  0.0000000  0.6508444  3
   3987   3984   3986   3989     1  0.0000000  0.6508444  3
   3988   3986   3990   3991     1  0.0000000  1.2552000  3
   3988   3986   3990   3992     1  0.0000000  1.2552000  3
   3989   3986   3990   3991     1  0.0000000  1.2552000  3
   3989   3986   3990   3992     1  0.0000000  1.2552000  3
   3990   3991   4003   4004     1  0.0000000  0.6508444  3
   3990   3991   4003   4005     1  0.0000000  0.6508444  3
   3990   3992   3994   3996     1  0.0000000  0.6508444  3
   3990   3992   3994   3997     1  0.0000000  0.6508444  3
   3991   3990   3992   3993     1  0.0000000  1.2552000  3
   3991   3990   3992   3995     1  0.0000000  1.2552000  3
   3992   3990   3991   4001     1  0.0000000  1.2552000  3
   3992   3990   3991   4002     1  0.0000000  1.2552000  3
   3993   3992   3994   3998     1  0.0000000  0.6508444  3
   3993   3992   3994   3996     1  0.0000000  0.6508444  3
   3993   3992   3994   3997     1  0.0000000  0.6508444  3
   3994   3998   3999   4009     1  180.0000771  9.6232000  2
   3995   3992   3994   3998     1  0.0000000  0.6508444  3
   3995   3992   3994   3996     1  0.0000000  0.6508444  3
   3995   3992   3994   3997     1  0.0000000  0.6508444  3
   3996   3994   3998   3999     1  180.0000771  0.0000000  2
   3996   3994   3998   4000     1  0.0000000  3.3472000  1
   3996   3994   3998   4000     1  0.0000000  0.0000000  2
   3996   3994   3998   4000     1  180.0000771  0.3347200  3
   3997   3994   3998   3999     1  180.0000771  0.0000000  2
   3997   3994   3998   4000     1  0.0000000  3.3472000  1
   3997   3994   3998   4000     1  0.0000000  0.0000000  2
   3997   3994   3998   4000     1  180.0000771  0.3347200  3
   4000   3998   3999   4009     1  0.0000000  7.9496000  1
   4000   3998   3999   4009     1  180.0000771  9.6232000  2
   4001   3991   4003   4006     1  0.0000000  0.6508444  3
   4001   3991   4003   4004     1  0.0000000  0.6508444  3
   4001   3991   4003   4005     1  0.0000000  0.6508444  3
   4002   3991   4003   4006     1  0.0000000  0.6508444  3
   4002   3991   4003   4004     1  0.0000000  0.6508444  3
   4002   3991   4003   4005     1  0.0000000  0.6508444  3
   4003   4006   4008   4010     1  180.0000771  9.6232000  2
   4004   4003   4006   4007     1  0.0000000  3.3472000  1
   4004   4003   4006   4007     1  0.0000000  0.0000000  2
   4004   4003   4006   4007     1  180.0000771  0.3347200  3
   4004   4003   4006   4008     1  180.0000771  0.0000000  2
   4005   4003   4006   4007     1  0.0000000  3.3472000  1
   4005   4003   4006   4007     1  0.0000000  0.0000000  2
   4005   4003   4006   4007     1  180.0000771  0.3347200  3
   4005   4003   4006   4008     1  180.0000771  0.0000000  2
   4007   4006   4008   4010     1  0.0000000  7.9496000  1
   4007   4006   4008   4010     1  180.0000771  9.6232000  2
   4011   4013   4015   4017     1  0.0000000  0.6508444  3
   4011   4013   4015   4018     1  0.0000000  0.6508444  3
   4012   4011   4013   4015     1  0.0000000  0.0000000  2
   4012   4011   4013   4014     1  0.0000000  0.0000000  2
   4012   4011   4013   4016     1  0.0000000  0.0000000  2
   4014   4013   4015   4019     1  0.0000000  0.6508444  3
   4014   4013   4015   4017     1  0.0000000  0.6508444  3
   4014   4013   4015   4018     1  0.0000000  0.6508444  3
   4015   4019   4020   4030     1  0.0000000  1.2552000  3
   4015   4019   4020   4031     1  0.0000000  1.2552000  3
   4015   4019   4021   4022     1  0.0000000  1.2552000  3
   4015   4019   4021   4024     1  0.0000000  1.2552000  3
   4016   4013   4015   4019     1  0.0000000  0.6508444  3
   4016   4013   4015   4017     1  0.0000000  0.6508444  3
   4016   4013   4015   4018     1  0.0000000  0.6508444  3
   4017   4015   4019   4020     1  0.0000000  1.2552000  3
   4017   4015   4019   4021     1  0.0000000  1.2552000  3
   4018   4015   4019   4020     1  0.0000000  1.2552000  3
   4018   4015   4019   4021     1  0.0000000  1.2552000  3
   4019   4020   4032   4033     1  0.0000000  0.6508444  3
   4019   4020   4032   4034     1  0.0000000  0.6508444  3
   4019   4021   4023   4025     1  0.0000000  0.6508444  3
   4019   4021   4023   4026     1  0.0000000  0.6508444  3
   4020   4019   4021   4022     1  0.0000000  1.2552000  3
   4020   4019   4021   4024     1  0.0000000  1.2552000  3
   4021   4019   4020   4030     1  0.0000000  1.2552000  3
   4021   4019   4020   4031     1  0.0000000  1.2552000  3
   4022   4021   4023   4027     1  0.0000000  0.6508444  3
   4022   4021   4023   4025     1  0.0000000  0.6508444  3
   4022   4021   4023   4026     1  0.0000000  0.6508444  3
   4023   4027   4028   4038     1  180.0000771  9.6232000  2
   4024   4021   4023   4027     1  0.0000000  0.6508444  3
   4024   4021   4023   4025     1  0.0000000  0.6508444  3
   4024   4021   4023   4026     1  0.0000000  0.6508444  3
   4025   4023   4027   4028     1  180.0000771  0.0000000  2
   4025   4023   4027   4029     1  0.0000000  3.3472000  1
   4025   4023   4027   4029     1  0.0000000  0.0000000  2
   4025   4023   4027   4029     1  180.0000771  0.3347200  3
   4026   4023   4027   4028     1  180.0000771  0.0000000  2
   4026   4023   4027   4029     1  0.0000000  3.3472000  1
   4026   4023   4027   4029     1  0.0000000  0.0000000  2
   4026   4023   4027   4029     1  180.0000771  0.3347200  3
   4029   4027   4028   4038     1  0.0000000  7.9496000  1
   4029   4027   4028   4038     1  180.0000771  9.6232000  2
   4030   4020   4032   4035     1  0.0000000  0.6508444  3
   4030   4020   4032   4033     1  0.0000000  0.6508444  3
   4030   4020   4032   4034     1  0.0000000  0.6508444  3
   4031   4020   4032   4035     1  0.0000000  0.6508444  3
   4031   4020   4032   4033     1  0.0000000  0.6508444  3
   4031   4020   4032   4034     1  0.0000000  0.6508444  3
   4032   4035   4037   4039     1  180.0000771  9.6232000  2
   4033   4032   4035   4036     1  0.0000000  3.3472000  1
   4033   4032   4035   4036     1  0.0000000  0.0000000  2
   4033   4032   4035   4036     1  180.0000771  0.3347200  3
   4033   4032   4035   4037     1  180.0000771  0.0000000  2
   4034   4032   4035   4036     1  0.0000000  3.3472000  1
   4034   4032   4035   4036     1  0.0000000  0.0000000  2
   4034   4032   4035   4036     1  180.0000771  0.3347200  3
   4034   4032   4035   4037     1  180.0000771  0.0000000  2
   4036   4035   4037   4039     1  0.0000000  7.9496000  1
   4036   4035   4037   4039     1  180.0000771  9.6232000  2
   4040   4042   4044   4046     1  0.0000000  0.6508444  3
   4040   4042   4044   4047     1  0.0000000  0.6508444  3
   4041   4040   4042   4044     1  0.0000000  0.0000000  2
   4041   4040   4042   4043     1  0.0000000  0.0000000  2
   4041   4040   4042   4045     1  0.0000000  0.0000000  2
   4043   4042   4044   4048     1  0.0000000  0.6508444  3
   4043   4042   4044   4046     1  0.0000000  0.6508444  3
   4043   4042   4044   4047     1  0.0000000  0.6508444  3
   4044   4048   4049   4059     1  0.0000000  1.2552000  3
   4044   4048   4049   4060     1  0.0000000  1.2552000  3
   4044   4048   4050   4051     1  0.0000000  1.2552000  3
   4044   4048   4050   4053     1  0.0000000  1.2552000  3
   4045   4042   4044   4048     1  0.0000000  0.6508444  3
   4045   4042   4044   4046     1  0.0000000  0.6508444  3
   4045   4042   4044   4047     1  0.0000000  0.6508444  3
   4046   4044   4048   4049     1  0.0000000  1.2552000  3
   4046   4044   4048   4050     1  0.0000000  1.2552000  3
   4047   4044   4048   4049     1  0.0000000  1.2552000  3
   4047   4044   4048   4050     1  0.0000000  1.2552000  3
   4048   4049   4061   4062     1  0.0000000  0.6508444  3
   4048   4049   4061   4063     1  0.0000000  0.6508444  3
   4048   4050   4052   4054     1  0.0000000  0.6508444  3
   4048   4050   4052   4055     1  0.0000000  0.6508444  3
   4049   4048   4050   4051     1  0.0000000  1.2552000  3
   4049   4048   4050   4053     1  0.0000000  1.2552000  3
   4050   4048   4049   4059     1  0.0000000  1.2552000  3
   4050   4048   4049   4060     1  0.0000000  1.2552000  3
   4051   4050   4052   4056     1  0.0000000  0.6508444  3
   4051   4050   4052   4054     1  0.0000000  0.6508444  3
   4051   4050   4052   4055     1  0.0000000  0.6508444  3
   4052   4056   4057   4067     1  180.0000771  9.6232000  2
   4053   4050   4052   4056     1  0.0000000  0.6508444  3
   4053   4050   4052   4054     1  0.0000000  0.6508444  3
   4053   4050   4052   4055     1  0.0000000  0.6508444  3
   4054   4052   4056   4057     1  180.0000771  0.0000000  2
   4054   4052   4056   4058     1  0.0000000  3.3472000  1
   4054   4052   4056   4058     1  0.0000000  0.0000000  2
   4054   4052   4056   4058     1  180.0000771  0.3347200  3
   4055   4052   4056   4057     1  180.0000771  0.0000000  2
   4055   4052   4056   4058     1  0.0000000  3.3472000  1
   4055   4052   4056   4058     1  0.0000000  0.0000000  2
   4055   4052   4056   4058     1  180.0000771  0.3347200  3
   4058   4056   4057   4067     1  0.0000000  7.9496000  1
   4058   4056   4057   4067     1  180.0000771  9.6232000  2
   4059   4049   4061   4064     1  0.0000000  0.6508444  3
   4059   4049   4061   4062     1  0.0000000  0.6508444  3
   4059   4049   4061   4063     1  0.0000000  0.6508444  3
   4060   4049   4061   4064     1  0.0000000  0.6508444  3
   4060   4049   4061   4062     1  0.0000000  0.6508444  3
   4060   4049   4061   4063     1  0.0000000  0.6508444  3
   4061   4064   4066   4068     1  180.0000771  9.6232000  2
   4062   4061   4064   4065     1  0.0000000  3.3472000  1
   4062   4061   4064   4065     1  0.0000000  0.0000000  2
   4062   4061   4064   4065     1  180.0000771  0.3347200  3
   4062   4061   4064   4066     1  180.0000771  0.0000000  2
   4063   4061   4064   4065     1  0.0000000  3.3472000  1
   4063   4061   4064   4065     1  0.0000000  0.0000000  2
   4063   4061   4064   4065     1  180.0000771  0.3347200  3
   4063   4061   4064   4066     1  180.0000771  0.0000000  2
   4065   4064   4066   4068     1  0.0000000  7.9496000  1
   4065   4064   4066   4068     1  180.0000771  9.6232000  2
   4069   4071   4073   4075     1  0.0000000  0.6508444  3
   4069   4071   4073   4076     1  0.0000000  0.6508444  3
   4070   4069   4071   4073     1  0.0000000  0.0000000  2
   4070   4069   4071   4072     1  0.0000000  0.0000000  2
   4070   4069   4071   4074     1  0.0000000  0.0000000  2
   4072   4071   4073   4077     1  0.0000000  0.6508444  3
   4072   4071   4073   4075     1  0.0000000  0.6508444  3
   4072   4071   4073   4076     1  0.0000000  0.6508444  3
   4073   4077   4078   4088     1  0.0000000  1.2552000  3
   4073   4077   4078   4089     1  0.0000000  1.2552000  3
   4073   4077   4079   4080     1  0.0000000  1.2552000  3
   4073   4077   4079   4082     1  0.0000000  1.2552000  3
   4074   4071   4073   4077     1  0.0000000  0.6508444  3
   4074   4071   4073   4075     1  0.0000000  0.6508444  3
   4074   4071   4073   4076     1  0.0000000  0.6508444  3
   4075   4073   4077   4078     1  0.0000000  1.2552000  3
   4075   4073   4077   4079     1  0.0000000  1.2552000  3
   4076   4073   4077   4078     1  0.0000000  1.2552000  3
   4076   4073   4077   4079     1  0.0000000  1.2552000  3
   4077   4078   4090   4091     1  0.0000000  0.6508444  3
   4077   4078   4090   4092     1  0.0000000  0.6508444  3
   4077   4079   4081   4083     1  0.0000000  0.6508444  3
   4077   4079   4081   4084     1  0.0000000  0.6508444  3
   4078   4077   4079   4080     1  0.0000000  1.2552000  3
   4078   4077   4079   4082     1  0.0000000  1.2552000  3
   4079   4077   4078   4088     1  0.0000000  1.2552000  3
   4079   4077   4078   4089     1  0.0000000  1.2552000  3
   4080   4079   4081   4085     1  0.0000000  0.6508444  3
   4080   4079   4081   4083     1  0.0000000  0.6508444  3
   4080   4079   4081   4084     1  0.0000000  0.6508444  3
   4081   4085   4086   4096     1  180.0000771  9.6232000  2
   4082   4079   4081   4085     1  0.0000000  0.6508444  3
   4082   4079   4081   4083     1  0.0000000  0.6508444  3
   4082   4079   4081   4084     1  0.0000000  0.6508444  3
   4083   4081   4085   4086     1  180.0000771  0.0000000  2
   4083   4081   4085   4087     1  0.0000000  3.3472000  1
   4083   4081   4085   4087     1  0.0000000  0.0000000  2
   4083   4081   4085   4087     1  180.0000771  0.3347200  3
   4084   4081   4085   4086     1  180.0000771  0.0000000  2
   4084   4081   4085   4087     1  0.0000000  3.3472000  1
   4084   4081   4085   4087     1  0.0000000  0.0000000  2
   4084   4081   4085   4087     1  180.0000771  0.3347200  3
   4087   4085   4086   4096     1  0.0000000  7.9496000  1
   4087   4085   4086   4096     1  180.0000771  9.6232000  2
   4088   4078   4090   4093     1  0.0000000  0.6508444  3
   4088   4078   4090   4091     1  0.0000000  0.6508444  3
   4088   4078   4090   4092     1  0.0000000  0.6508444  3
   4089   4078   4090   4093     1  0.0000000  0.6508444  3
   4089   4078   4090   4091     1  0.0000000  0.6508444  3
   4089   4078   4090   4092     1  0.0000000  0.6508444  3
   4090   4093   4095   4097     1  180.0000771  9.6232000  2
   4091   4090   4093   4094     1  0.0000000  3.3472000  1
   4091   4090   4093   4094     1  0.0000000  0.0000000  2
   4091   4090   4093   4094     1  180.0000771  0.3347200  3
   4091   4090   4093   4095     1  180.0000771  0.0000000  2
   4092   4090   4093   4094     1  0.0000000  3.3472000  1
   4092   4090   4093   4094     1  0.0000000  0.0000000  2
   4092   4090   4093   4094     1  180.0000771  0.3347200  3
   4092   4090   4093   4095     1  180.0000771  0.0000000  2
   4094   4093   4095   4097     1  0.0000000  7.9496000  1
   4094   4093   4095   4097     1  180.0000771  9.6232000  2
   4098   4100   4102   4104     1  0.0000000  0.6508444  3
   4098   4100   4102   4105     1  0.0000000  0.6508444  3
   4099   4098   4100   4102     1  0.0000000  0.0000000  2
   4099   4098   4100   4101     1  0.0000000  0.0000000  2
   4099   4098   4100   4103     1  0.0000000  0.0000000  2
   4101   4100   4102   4106     1  0.0000000  0.6508444  3
   4101   4100   4102   4104     1  0.0000000  0.6508444  3
   4101   4100   4102   4105     1  0.0000000  0.6508444  3
   4102   4106   4107   4117     1  0.0000000  1.2552000  3
   4102   4106   4107   4118     1  0.0000000  1.2552000  3
   4102   4106   4108   4109     1  0.0000000  1.2552000  3
   4102   4106   4108   4111     1  0.0000000  1.2552000  3
   4103   4100   4102   4106     1  0.0000000  0.6508444  3
   4103   4100   4102   4104     1  0.0000000  0.6508444  3
   4103   4100   4102   4105     1  0.0000000  0.6508444  3
   4104   4102   4106   4107     1  0.0000000  1.2552000  3
   4104   4102   4106   4108     1  0.0000000  1.2552000  3
   4105   4102   4106   4107     1  0.0000000  1.2552000  3
   4105   4102   4106   4108     1  0.0000000  1.2552000  3
   4106   4107   4119   4120     1  0.0000000  0.6508444  3
   4106   4107   4119   4121     1  0.0000000  0.6508444  3
   4106   4108   4110   4112     1  0.0000000  0.6508444  3
   4106   4108   4110   4113     1  0.0000000  0.6508444  3
   4107   4106   4108   4109     1  0.0000000  1.2552000  3
   4107   4106   4108   4111     1  0.0000000  1.2552000  3
   4108   4106   4107   4117     1  0.0000000  1.2552000  3
   4108   4106   4107   4118     1  0.0000000  1.2552000  3
   4109   4108   4110   4114     1  0.0000000  0.6508444  3
   4109   4108   4110   4112     1  0.0000000  0.6508444  3
   4109   4108   4110   4113     1  0.0000000  0.6508444  3
   4110   4114   4115   4125     1  180.0000771  9.6232000  2
   4111   4108   4110   4114     1  0.0000000  0.6508444  3
   4111   4108   4110   4112     1  0.0000000  0.6508444  3
   4111   4108   4110   4113     1  0.0000000  0.6508444  3
   4112   4110   4114   4115     1  180.0000771  0.0000000  2
   4112   4110   4114   4116     1  0.0000000  3.3472000  1
   4112   4110   4114   4116     1  0.0000000  0.0000000  2
   4112   4110   4114   4116     1  180.0000771  0.3347200  3
   4113   4110   4114   4115     1  180.0000771  0.0000000  2
   4113   4110   4114   4116     1  0.0000000  3.3472000  1
   4113   4110   4114   4116     1  0.0000000  0.0000000  2
   4113   4110   4114   4116     1  180.0000771  0.3347200  3
   4116   4114   4115   4125     1  0.0000000  7.9496000  1
   4116   4114   4115   4125     1  180.0000771  9.6232000  2
   4117   4107   4119   4122     1  0.0000000  0.6508444  3
   4117   4107   4119   4120     1  0.0000000  0.6508444  3
   4117   4107   4119   4121     1  0.0000000  0.6508444  3
   4118   4107   4119   4122     1  0.0000000  0.6508444  3
   4118   4107   4119   4120     1  0.0000000  0.6508444  3
   4118   4107   4119   4121     1  0.0000000  0.6508444  3
   4119   4122   4124   4126     1  180.0000771  9.6232000  2
   4120   4119   4122   4123     1  0.0000000  3.3472000  1
   4120   4119   4122   4123     1  0.0000000  0.0000000  2
   4120   4119   4122   4123     1  180.0000771  0.3347200  3
   4120   4119   4122   4124     1  180.0000771  0.0000000  2
   4121   4119   4122   4123     1  0.0000000  3.3472000  1
   4121   4119   4122   4123     1  0.0000000  0.0000000  2
   4121   4119   4122   4123     1  180.0000771  0.3347200  3
   4121   4119   4122   4124     1  180.0000771  0.0000000  2
   4123   4122   4124   4126     1  0.0000000  7.9496000  1
   4123   4122   4124   4126     1  180.0000771  9.6232000  2
   4127   4129   4131   4133     1  0.0000000  0.6508444  3
   4127   4129   4131   4134     1  0.0000000  0.6508444  3
   4128   4127   4129   4131     1  0.0000000  0.0000000  2
   4128   4127   4129   4130     1  0.0000000  0.0000000  2
   4128   4127   4129   4132     1  0.0000000  0.0000000  2
   4130   4129   4131   4135     1  0.0000000  0.6508444  3
   4130   4129   4131   4133     1  0.0000000  0.6508444  3
   4130   4129   4131   4134     1  0.0000000  0.6508444  3
   4131   4135   4136   4146     1  0.0000000  1.2552000  3
   4131   4135   4136   4147     1  0.0000000  1.2552000  3
   4131   4135   4137   4138     1  0.0000000  1.2552000  3
   4131   4135   4137   4140     1  0.0000000  1.2552000  3
   4132   4129   4131   4135     1  0.0000000  0.6508444  3
   4132   4129   4131   4133     1  0.0000000  0.6508444  3
   4132   4129   4131   4134     1  0.0000000  0.6508444  3
   4133   4131   4135   4136     1  0.0000000  1.2552000  3
   4133   4131   4135   4137     1  0.0000000  1.2552000  3
   4134   4131   4135   4136     1  0.0000000  1.2552000  3
   4134   4131   4135   4137     1  0.0000000  1.2552000  3
   4135   4136   4148   4149     1  0.0000000  0.6508444  3
   4135   4136   4148   4150     1  0.0000000  0.6508444  3
   4135   4137   4139   4141     1  0.0000000  0.6508444  3
   4135   4137   4139   4142     1  0.0000000  0.6508444  3
   4136   4135   4137   4138     1  0.0000000  1.2552000  3
   4136   4135   4137   4140     1  0.0000000  1.2552000  3
   4137   4135   4136   4146     1  0.0000000  1.2552000  3
   4137   4135   4136   4147     1  0.0000000  1.2552000  3
   4138   4137   4139   4143     1  0.0000000  0.6508444  3
   4138   4137   4139   4141     1  0.0000000  0.6508444  3
   4138   4137   4139   4142     1  0.0000000  0.6508444  3
   4139   4143   4144   4154     1  180.0000771  9.6232000  2
   4140   4137   4139   4143     1  0.0000000  0.6508444  3
   4140   4137   4139   4141     1  0.0000000  0.6508444  3
   4140   4137   4139   4142     1  0.0000000  0.6508444  3
   4141   4139   4143   4144     1  180.0000771  0.0000000  2
   4141   4139   4143   4145     1  0.0000000  3.3472000  1
   4141   4139   4143   4145     1  0.0000000  0.0000000  2
   4141   4139   4143   4145     1  180.0000771  0.3347200  3
   4142   4139   4143   4144     1  180.0000771  0.0000000  2
   4142   4139   4143   4145     1  0.0000000  3.3472000  1
   4142   4139   4143   4145     1  0.0000000  0.0000000  2
   4142   4139   4143   4145     1  180.0000771  0.3347200  3
   4145   4143   4144   4154     1  0.0000000  7.9496000  1
   4145   4143   4144   4154     1  180.0000771  9.6232000  2
   4146   4136   4148   4151     1  0.0000000  0.6508444  3
   4146   4136   4148   4149     1  0.0000000  0.6508444  3
   4146   4136   4148   4150     1  0.0000000  0.6508444  3
   4147   4136   4148   4151     1  0.0000000  0.6508444  3
   4147   4136   4148   4149     1  0.0000000  0.6508444  3
   4147   4136   4148   4150     1  0.0000000  0.6508444  3
   4148   4151   4153   4155     1  180.0000771  9.6232000  2
   4149   4148   4151   4152     1  0.0000000  3.3472000  1
   4149   4148   4151   4152     1  0.0000000  0.0000000  2
   4149   4148   4151   4152     1  180.0000771  0.3347200  3
   4149   4148   4151   4153     1  180.0000771  0.0000000  2
   4150   4148   4151   4152     1  0.0000000  3.3472000  1
   4150   4148   4151   4152     1  0.0000000  0.0000000  2
   4150   4148   4151   4152     1  180.0000771  0.3347200  3
   4150   4148   4151   4153     1  180.0000771  0.0000000  2
   4152   4151   4153   4155     1  0.0000000  7.9496000  1
   4152   4151   4153   4155     1  180.0000771  9.6232000  2
   4156   4158   4160   4162     1  0.0000000  0.6508444  3
   4156   4158   4160   4163     1  0.0000000  0.6508444  3
   4157   4156   4158   4160     1  0.0000000  0.0000000  2
   4157   4156   4158   4159     1  0.0000000  0.0000000  2
   4157   4156   4158   4161     1  0.0000000  0.0000000  2
   4159   4158   4160   4164     1  0.0000000  0.6508444  3
   4159   4158   4160   4162     1  0.0000000  0.6508444  3
   4159   4158   4160   4163     1  0.0000000  0.6508444  3
   4160   4164   4165   4175     1  0.0000000  1.2552000  3
   4160   4164   4165   4176     1  0.0000000  1.2552000  3
   4160   4164   4166   4167     1  0.0000000  1.2552000  3
   4160   4164   4166   4169     1  0.0000000  1.2552000  3
   4161   4158   4160   4164     1  0.0000000  0.6508444  3
   4161   4158   4160   4162     1  0.0000000  0.6508444  3
   4161   4158   4160   4163     1  0.0000000  0.6508444  3
   4162   4160   4164   4165     1  0.0000000  1.2552000  3
   4162   4160   4164   4166     1  0.0000000  1.2552000  3
   4163   4160   4164   4165     1  0.0000000  1.2552000  3
   4163   4160   4164   4166     1  0.0000000  1.2552000  3
   4164   4165   4177   4178     1  0.0000000  0.6508444  3
   4164   4165   4177   4179     1  0.0000000  0.6508444  3
   4164   4166   4168   4170     1  0.0000000  0.6508444  3
   4164   4166   4168   4171     1  0.0000000  0.6508444  3
   4165   4164   4166   4167     1  0.0000000  1.2552000  3
   4165   4164   4166   4169     1  0.0000000  1.2552000  3
   4166   4164   4165   4175     1  0.0000000  1.2552000  3
   4166   4164   4165   4176     1  0.0000000  1.2552000  3
   4167   4166   4168   4172     1  0.0000000  0.6508444  3
   4167   4166   4168   4170     1  0.0000000  0.6508444  3
   4167   4166   4168   4171     1  0.0000000  0.6508444  3
   4168   4172   4173   4183     1  180.0000771  9.6232000  2
   4169   4166   4168   4172     1  0.0000000  0.6508444  3
   4169   4166   4168   4170     1  0.0000000  0.6508444  3
   4169   4166   4168   4171     1  0.0000000  0.6508444  3
   4170   4168   4172   4173     1  180.0000771  0.0000000  2
   4170   4168   4172   4174     1  0.0000000  3.3472000  1
   4170   4168   4172   4174     1  0.0000000  0.0000000  2
   4170   4168   4172   4174     1  180.0000771  0.3347200  3
   4171   4168   4172   4173     1  180.0000771  0.0000000  2
   4171   4168   4172   4174     1  0.0000000  3.3472000  1
   4171   4168   4172   4174     1  0.0000000  0.0000000  2
   4171   4168   4172   4174     1  180.0000771  0.3347200  3
   4174   4172   4173   4183     1  0.0000000  7.9496000  1
   4174   4172   4173   4183     1  180.0000771  9.6232000  2
   4175   4165   4177   4180     1  0.0000000  0.6508444  3
   4175   4165   4177   4178     1  0.0000000  0.6508444  3
   4175   4165   4177   4179     1  0.0000000  0.6508444  3
   4176   4165   4177   4180     1  0.0000000  0.6508444  3
   4176   4165   4177   4178     1  0.0000000  0.6508444  3
   4176   4165   4177   4179     1  0.0000000  0.6508444  3
   4177   4180   4182   4184     1  180.0000771  9.6232000  2
   4178   4177   4180   4181     1  0.0000000  3.3472000  1
   4178   4177   4180   4181     1  0.0000000  0.0000000  2
   4178   4177   4180   4181     1  180.0000771  0.3347200  3
   4178   4177   4180   4182     1  180.0000771  0.0000000  2
   4179   4177   4180   4181     1  0.0000000  3.3472000  1
   4179   4177   4180   4181     1  0.0000000  0.0000000  2
   4179   4177   4180   4181     1  180.0000771  0.3347200  3
   4179   4177   4180   4182     1  180.0000771  0.0000000  2
   4181   4180   4182   4184     1  0.0000000  7.9496000  1
   4181   4180   4182   4184     1  180.0000771  9.6232000  2
   4185   4187   4189   4191     1  0.0000000  0.6508444  3
   4185   4187   4189   4192     1  0.0000000  0.6508444  3
   4186   4185   4187   4189     1  0.0000000  0.0000000  2
   4186   4185   4187   4188     1  0.0000000  0.0000000  2
   4186   4185   4187   4190     1  0.0000000  0.0000000  2
   4188   4187   4189   4193     1  0.0000000  0.6508444  3
   4188   4187   4189   4191     1  0.0000000  0.6508444  3
   4188   4187   4189   4192     1  0.0000000  0.6508444  3
   4189   4193   4194   4204     1  0.0000000  1.2552000  3
   4189   4193   4194   4205     1  0.0000000  1.2552000  3
   4189   4193   4195   4196     1  0.0000000  1.2552000  3
   4189   4193   4195   4198     1  0.0000000  1.2552000  3
   4190   4187   4189   4193     1  0.0000000  0.6508444  3
   4190   4187   4189   4191     1  0.0000000  0.6508444  3
   4190   4187   4189   4192     1  0.0000000  0.6508444  3
   4191   4189   4193   4194     1  0.0000000  1.2552000  3
   4191   4189   4193   4195     1  0.0000000  1.2552000  3
   4192   4189   4193   4194     1  0.0000000  1.2552000  3
   4192   4189   4193   4195     1  0.0000000  1.2552000  3
   4193   4194   4206   4207     1  0.0000000  0.6508444  3
   4193   4194   4206   4208     1  0.0000000  0.6508444  3
   4193   4195   4197   4199     1  0.0000000  0.6508444  3
   4193   4195   4197   4200     1  0.0000000  0.6508444  3
   4194   4193   4195   4196     1  0.0000000  1.2552000  3
   4194   4193   4195   4198     1  0.0000000  1.2552000  3
   4195   4193   4194   4204     1  0.0000000  1.2552000  3
   4195   4193   4194   4205     1  0.0000000  1.2552000  3
   4196   4195   4197   4201     1  0.0000000  0.6508444  3
   4196   4195   4197   4199     1  0.0000000  0.6508444  3
   4196   4195   4197   4200     1  0.0000000  0.6508444  3
   4197   4201   4202   4212     1  180.0000771  9.6232000  2
   4198   4195   4197   4201     1  0.0000000  0.6508444  3
   4198   4195   4197   4199     1  0.0000000  0.6508444  3
   4198   4195   4197   4200     1  0.0000000  0.6508444  3
   4199   4197   4201   4202     1  180.0000771  0.0000000  2
   4199   4197   4201   4203     1  0.0000000  3.3472000  1
   4199   4197   4201   4203     1  0.0000000  0.0000000  2
   4199   4197   4201   4203     1  180.0000771  0.3347200  3
   4200   4197   4201   4202     1  180.0000771  0.0000000  2
   4200   4197   4201   4203     1  0.0000000  3.3472000  1
   4200   4197   4201   4203     1  0.0000000  0.0000000  2
   4200   4197   4201   4203     1  180.0000771  0.3347200  3
   4203   4201   4202   4212     1  0.0000000  7.9496000  1
   4203   4201   4202   4212     1  180.0000771  9.6232000  2
   4204   4194   4206   4209     1  0.0000000  0.6508444  3
   4204   4194   4206   4207     1  0.0000000  0.6508444  3
   4204   4194   4206   4208     1  0.0000000  0.6508444  3
   4205   4194   4206   4209     1  0.0000000  0.6508444  3
   4205   4194   4206   4207     1  0.0000000  0.6508444  3
   4205   4194   4206   4208     1  0.0000000  0.6508444  3
   4206   4209   4211   4213     1  180.0000771  9.6232000  2
   4207   4206   4209   4210     1  0.0000000  3.3472000  1
   4207   4206   4209   4210     1  0.0000000  0.0000000  2
   4207   4206   4209   4210     1  180.0000771  0.3347200  3
   4207   4206   4209   4211     1  180.0000771  0.0000000  2
   4208   4206   4209   4210     1  0.0000000  3.3472000  1
   4208   4206   4209   4210     1  0.0000000  0.0000000  2
   4208   4206   4209   4210     1  180.0000771  0.3347200  3
   4208   4206   4209   4211     1  180.0000771  0.0000000  2
   4210   4209   4211   4213     1  0.0000000  7.9496000  1
   4210   4209   4211   4213     1  180.0000771  9.6232000  2
   4214   4216   4218   4220     1  0.0000000  0.6508444  3
   4214   4216   4218   4221     1  0.0000000  0.6508444  3
   4215   4214   4216   4218     1  0.0000000  0.0000000  2
   4215   4214   4216   4217     1  0.0000000  0.0000000  2
   4215   4214   4216   4219     1  0.0000000  0.0000000  2
   4217   4216   4218   4222     1  0.0000000  0.6508444  3
   4217   4216   4218   4220     1  0.0000000  0.6508444  3
   4217   4216   4218   4221     1  0.0000000  0.6508444  3
   4218   4222   4223   4233     1  0.0000000  1.2552000  3
   4218   4222   4223   4234     1  0.0000000  1.2552000  3
   4218   4222   4224   4225     1  0.0000000  1.2552000  3
   4218   4222   4224   4227     1  0.0000000  1.2552000  3
   4219   4216   4218   4222     1  0.0000000  0.6508444  3
   4219   4216   4218   4220     1  0.0000000  0.6508444  3
   4219   4216   4218   4221     1  0.0000000  0.6508444  3
   4220   4218   4222   4223     1  0.0000000  1.2552000  3
   4220   4218   4222   4224     1  0.0000000  1.2552000  3
   4221   4218   4222   4223     1  0.0000000  1.2552000  3
   4221   4218   4222   4224     1  0.0000000  1.2552000  3
   4222   4223   4235   4236     1  0.0000000  0.6508444  3
   4222   4223   4235   4237     1  0.0000000  0.6508444  3
   4222   4224   4226   4228     1  0.0000000  0.6508444  3
   4222   4224   4226   4229     1  0.0000000  0.6508444  3
   4223   4222   4224   4225     1  0.0000000  1.2552000  3
   4223   4222   4224   4227     1  0.0000000  1.2552000  3
   4224   4222   4223   4233     1  0.0000000  1.2552000  3
   4224   4222   4223   4234     1  0.0000000  1.2552000  3
   4225   4224   4226   4230     1  0.0000000  0.6508444  3
   4225   4224   4226   4228     1  0.0000000  0.6508444  3
   4225   4224   4226   4229     1  0.0000000  0.6508444  3
   4226   4230   4231   4241     1  180.0000771  9.6232000  2
   4227   4224   4226   4230     1  0.0000000  0.6508444  3
   4227   4224   4226   4228     1  0.0000000  0.6508444  3
   4227   4224   4226   4229     1  0.0000000  0.6508444  3
   4228   4226   4230   4231     1  180.0000771  0.0000000  2
   4228   4226   4230   4232     1  0.0000000  3.3472000  1
   4228   4226   4230   4232     1  0.0000000  0.0000000  2
   4228   4226   4230   4232     1  180.0000771  0.3347200  3
   4229   4226   4230   4231     1  180.0000771  0.0000000  2
   4229   4226   4230   4232     1  0.0000000  3.3472000  1
   4229   4226   4230   4232     1  0.0000000  0.0000000  2
   4229   4226   4230   4232     1  180.0000771  0.3347200  3
   4232   4230   4231   4241     1  0.0000000  7.9496000  1
   4232   4230   4231   4241     1  180.0000771  9.6232000  2
   4233   4223   4235   4238     1  0.0000000  0.6508444  3
   4233   4223   4235   4236     1  0.0000000  0.6508444  3
   4233   4223   4235   4237     1  0.0000000  0.6508444  3
   4234   4223   4235   4238     1  0.0000000  0.6508444  3
   4234   4223   4235   4236     1  0.0000000  0.6508444  3
   4234   4223   4235   4237     1  0.0000000  0.6508444  3
   4235   4238   4240   4242     1  180.0000771  9.6232000  2
   4236   4235   4238   4239     1  0.0000000  3.3472000  1
   4236   4235   4238   4239     1  0.0000000  0.0000000  2
   4236   4235   4238   4239     1  180.0000771  0.3347200  3
   4236   4235   4238   4240     1  180.0000771  0.0000000  2
   4237   4235   4238   4239     1  0.0000000  3.3472000  1
   4237   4235   4238   4239     1  0.0000000  0.0000000  2
   4237   4235   4238   4239     1  180.0000771  0.3347200  3
   4237   4235   4238   4240     1  180.0000771  0.0000000  2
   4239   4238   4240   4242     1  0.0000000  7.9496000  1
   4239   4238   4240   4242     1  180.0000771  9.6232000  2
   4243   4245   4247   4249     1  0.0000000  0.6508444  3
   4243   4245   4247   4250     1  0.0000000  0.6508444  3
   4244   4243   4245   4247     1  0.0000000  0.0000000  2
   4244   4243   4245   4246     1  0.0000000  0.0000000  2
   4244   4243   4245   4248     1  0.0000000  0.0000000  2
   4246   4245   4247   4251     1  0.0000000  0.6508444  3
   4246   4245   4247   4249     1  0.0000000  0.6508444  3
   4246   4245   4247   4250     1  0.0000000  0.6508444  3
   4247   4251   4252   4262     1  0.0000000  1.2552000  3
   4247   4251   4252   4263     1  0.0000000  1.2552000  3
   4247   4251   4253   4254     1  0.0000000  1.2552000  3
   4247   4251   4253   4256     1  0.0000000  1.2552000  3
   4248   4245   4247   4251     1  0.0000000  0.6508444  3
   4248   4245   4247   4249     1  0.0000000  0.6508444  3
   4248   4245   4247   4250     1  0.0000000  0.6508444  3
   4249   4247   4251   4252     1  0.0000000  1.2552000  3
   4249   4247   4251   4253     1  0.0000000  1.2552000  3
   4250   4247   4251   4252     1  0.0000000  1.2552000  3
   4250   4247   4251   4253     1  0.0000000  1.2552000  3
   4251   4252   4264   4265     1  0.0000000  0.6508444  3
   4251   4252   4264   4266     1  0.0000000  0.6508444  3
   4251   4253   4255   4257     1  0.0000000  0.6508444  3
   4251   4253   4255   4258     1  0.0000000  0.6508444  3
   4252   4251   4253   4254     1  0.0000000  1.2552000  3
   4252   4251   4253   4256     1  0.0000000  1.2552000  3
   4253   4251   4252   4262     1  0.0000000  1.2552000  3
   4253   4251   4252   4263     1  0.0000000  1.2552000  3
   4254   4253   4255   4259     1  0.0000000  0.6508444  3
   4254   4253   4255   4257     1  0.0000000  0.6508444  3
   4254   4253   4255   4258     1  0.0000000  0.6508444  3
   4255   4259   4260   4270     1  180.0000771  9.6232000  2
   4256   4253   4255   4259     1  0.0000000  0.6508444  3
   4256   4253   4255   4257     1  0.0000000  0.6508444  3
   4256   4253   4255   4258     1  0.0000000  0.6508444  3
   4257   4255   4259   4260     1  180.0000771  0.0000000  2
   4257   4255   4259   4261     1  0.0000000  3.3472000  1
   4257   4255   4259   4261     1  0.0000000  0.0000000  2
   4257   4255   4259   4261     1  180.0000771  0.3347200  3
   4258   4255   4259   4260     1  180.0000771  0.0000000  2
   4258   4255   4259   4261     1  0.0000000  3.3472000  1
   4258   4255   4259   4261     1  0.0000000  0.0000000  2
   4258   4255   4259   4261     1  180.0000771  0.3347200  3
   4261   4259   4260   4270     1  0.0000000  7.9496000  1
   4261   4259   4260   4270     1  180.0000771  9.6232000  2
   4262   4252   4264   4267     1  0.0000000  0.6508444  3
   4262   4252   4264   4265     1  0.0000000  0.6508444  3
   4262   4252   4264   4266     1  0.0000000  0.6508444  3
   4263   4252   4264   4267     1  0.0000000  0.6508444  3
   4263   4252   4264   4265     1  0.0000000  0.6508444  3
   4263   4252   4264   4266     1  0.0000000  0.6508444  3
   4264   4267   4269   4271     1  180.0000771  9.6232000  2
   4265   4264   4267   4268     1  0.0000000  3.3472000  1
   4265   4264   4267   4268     1  0.0000000  0.0000000  2
   4265   4264   4267   4268     1  180.0000771  0.3347200  3
   4265   4264   4267   4269     1  180.0000771  0.0000000  2
   4266   4264   4267   4268     1  0.0000000  3.3472000  1
   4266   4264   4267   4268     1  0.0000000  0.0000000  2
   4266   4264   4267   4268     1  180.0000771  0.3347200  3
   4266   4264   4267   4269     1  180.0000771  0.0000000  2
   4268   4267   4269   4271     1  0.0000000  7.9496000  1
   4268   4267   4269   4271     1  180.0000771  9.6232000  2
   4272   4274   4276   4278     1  0.0000000  0.6508444  3
   4272   4274   4276   4279     1  0.0000000  0.6508444  3
   4273   4272   4274   4276     1  0.0000000  0.0000000  2
   4273   4272   4274   4275     1  0.0000000  0.0000000  2
   4273   4272   4274   4277     1  0.0000000  0.0000000  2
   4275   4274   4276   4280     1  0.0000000  0.6508444  3
   4275   4274   4276   4278     1  0.0000000  0.6508444  3
   4275   4274   4276   4279     1  0.0000000  0.6508444  3
   4276   4280   4281   4291     1  0.0000000  1.2552000  3
   4276   4280   4281   4292     1  0.0000000  1.2552000  3
   4276   4280   4282   4283     1  0.0000000  1.2552000  3
   4276   4280   4282   4285     1  0.0000000  1.2552000  3
   4277   4274   4276   4280     1  0.0000000  0.6508444  3
   4277   4274   4276   4278     1  0.0000000  0.6508444  3
   4277   4274   4276   4279     1  0.0000000  0.6508444  3
   4278   4276   4280   4281     1  0.0000000  1.2552000  3
   4278   4276   4280   4282     1  0.0000000  1.2552000  3
   4279   4276   4280   4281     1  0.0000000  1.2552000  3
   4279   4276   4280   4282     1  0.0000000  1.2552000  3
   4280   4281   4293   4294     1  0.0000000  0.6508444  3
   4280   4281   4293   4295     1  0.0000000  0.6508444  3
   4280   4282   4284   4286     1  0.0000000  0.6508444  3
   4280   4282   4284   4287     1  0.0000000  0.6508444  3
   4281   4280   4282   4283     1  0.0000000  1.2552000  3
   4281   4280   4282   4285     1  0.0000000  1.2552000  3
   4282   4280   4281   4291     1  0.0000000  1.2552000  3
   4282   4280   4281   4292     1  0.0000000  1.2552000  3
   4283   4282   4284   4288     1  0.0000000  0.6508444  3
   4283   4282   4284   4286     1  0.0000000  0.6508444  3
   4283   4282   4284   4287     1  0.0000000  0.6508444  3
   4284   4288   4289   4299     1  180.0000771  9.6232000  2
   4285   4282   4284   4288     1  0.0000000  0.6508444  3
   4285   4282   4284   4286     1  0.0000000  0.6508444  3
   4285   4282   4284   4287     1  0.0000000  0.6508444  3
   4286   4284   4288   4289     1  180.0000771  0.0000000  2
   4286   4284   4288   4290     1  0.0000000  3.3472000  1
   4286   4284   4288   4290     1  0.0000000  0.0000000  2
   4286   4284   4288   4290     1  180.0000771  0.3347200  3
   4287   4284   4288   4289     1  180.0000771  0.0000000  2
   4287   4284   4288   4290     1  0.0000000  3.3472000  1
   4287   4284   4288   4290     1  0.0000000  0.0000000  2
   4287   4284   4288   4290     1  180.0000771  0.3347200  3
   4290   4288   4289   4299     1  0.0000000  7.9496000  1
   4290   4288   4289   4299     1  180.0000771  9.6232000  2
   4291   4281   4293   4296     1  0.0000000  0.6508444  3
   4291   4281   4293   4294     1  0.0000000  0.6508444  3
   4291   4281   4293   4295     1  0.0000000  0.6508444  3
   4292   4281   4293   4296     1  0.0000000  0.6508444  3
   4292   4281   4293   4294     1  0.0000000  0.6508444  3
   4292   4281   4293   4295     1  0.0000000  0.6508444  3
   4293   4296   4298   4300     1  180.0000771  9.6232000  2
   4294   4293   4296   4297     1  0.0000000  3.3472000  1
   4294   4293   4296   4297     1  0.0000000  0.0000000  2
   4294   4293   4296   4297     1  180.0000771  0.3347200  3
   4294   4293   4296   4298     1  180.0000771  0.0000000  2
   4295   4293   4296   4297     1  0.0000000  3.3472000  1
   4295   4293   4296   4297     1  0.0000000  0.0000000  2
   4295   4293   4296   4297     1  180.0000771  0.3347200  3
   4295   4293   4296   4298     1  180.0000771  0.0000000  2
   4297   4296   4298   4300     1  0.0000000  7.9496000  1
   4297   4296   4298   4300     1  180.0000771  9.6232000  2
   4301   4303   4305   4307     1  0.0000000  0.6508444  3
   4301   4303   4305   4308     1  0.0000000  0.6508444  3
   4302   4301   4303   4305     1  0.0000000  0.0000000  2
   4302   4301   4303   4304     1  0.0000000  0.0000000  2
   4302   4301   4303   4306     1  0.0000000  0.0000000  2
   4304   4303   4305   4309     1  0.0000000  0.6508444  3
   4304   4303   4305   4307     1  0.0000000  0.6508444  3
   4304   4303   4305   4308     1  0.0000000  0.6508444  3
   4305   4309   4310   4320     1  0.0000000  1.2552000  3
   4305   4309   4310   4321     1  0.0000000  1.2552000  3
   4305   4309   4311   4312     1  0.0000000  1.2552000  3
   4305   4309   4311   4314     1  0.0000000  1.2552000  3
   4306   4303   4305   4309     1  0.0000000  0.6508444  3
   4306   4303   4305   4307     1  0.0000000  0.6508444  3
   4306   4303   4305   4308     1  0.0000000  0.6508444  3
   4307   4305   4309   4310     1  0.0000000  1.2552000  3
   4307   4305   4309   4311     1  0.0000000  1.2552000  3
   4308   4305   4309   4310     1  0.0000000  1.2552000  3
   4308   4305   4309   4311     1  0.0000000  1.2552000  3
   4309   4310   4322   4323     1  0.0000000  0.6508444  3
   4309   4310   4322   4324     1  0.0000000  0.6508444  3
   4309   4311   4313   4315     1  0.0000000  0.6508444  3
   4309   4311   4313   4316     1  0.0000000  0.6508444  3
   4310   4309   4311   4312     1  0.0000000  1.2552000  3
   4310   4309   4311   4314     1  0.0000000  1.2552000  3
   4311   4309   4310   4320     1  0.0000000  1.2552000  3
   4311   4309   4310   4321     1  0.0000000  1.2552000  3
   4312   4311   4313   4317     1  0.0000000  0.6508444  3
   4312   4311   4313   4315     1  0.0000000  0.6508444  3
   4312   4311   4313   4316     1  0.0000000  0.6508444  3
   4313   4317   4318   4328     1  180.0000771  9.6232000  2
   4314   4311   4313   4317     1  0.0000000  0.6508444  3
   4314   4311   4313   4315     1  0.0000000  0.6508444  3
   4314   4311   4313   4316     1  0.0000000  0.6508444  3
   4315   4313   4317   4318     1  180.0000771  0.0000000  2
   4315   4313   4317   4319     1  0.0000000  3.3472000  1
   4315   4313   4317   4319     1  0.0000000  0.0000000  2
   4315   4313   4317   4319     1  180.0000771  0.3347200  3
   4316   4313   4317   4318     1  180.0000771  0.0000000  2
   4316   4313   4317   4319     1  0.0000000  3.3472000  1
   4316   4313   4317   4319     1  0.0000000  0.0000000  2
   4316   4313   4317   4319     1  180.0000771  0.3347200  3
   4319   4317   4318   4328     1  0.0000000  7.9496000  1
   4319   4317   4318   4328     1  180.0000771  9.6232000  2
   4320   4310   4322   4325     1  0.0000000  0.6508444  3
   4320   4310   4322   4323     1  0.0000000  0.6508444  3
   4320   4310   4322   4324     1  0.0000000  0.6508444  3
   4321   4310   4322   4325     1  0.0000000  0.6508444  3
   4321   4310   4322   4323     1  0.0000000  0.6508444  3
   4321   4310   4322   4324     1  0.0000000  0.6508444  3
   4322   4325   4327   4329     1  180.0000771  9.6232000  2
   4323   4322   4325   4326     1  0.0000000  3.3472000  1
   4323   4322   4325   4326     1  0.0000000  0.0000000  2
   4323   4322   4325   4326     1  180.0000771  0.3347200  3
   4323   4322   4325   4327     1  180.0000771  0.0000000  2
   4324   4322   4325   4326     1  0.0000000  3.3472000  1
   4324   4322   4325   4326     1  0.0000000  0.0000000  2
   4324   4322   4325   4326     1  180.0000771  0.3347200  3
   4324   4322   4325   4327     1  180.0000771  0.0000000  2
   4326   4325   4327   4329     1  0.0000000  7.9496000  1
   4326   4325   4327   4329     1  180.0000771  9.6232000  2
   4330   4332   4334   4336     1  0.0000000  0.6508444  3
   4330   4332   4334   4337     1  0.0000000  0.6508444  3
   4331   4330   4332   4334     1  0.0000000  0.0000000  2
   4331   4330   4332   4333     1  0.0000000  0.0000000  2
   4331   4330   4332   4335     1  0.0000000  0.0000000  2
   4333   4332   4334   4338     1  0.0000000  0.6508444  3
   4333   4332   4334   4336     1  0.0000000  0.6508444  3
   4333   4332   4334   4337     1  0.0000000  0.6508444  3
   4334   4338   4339   4349     1  0.0000000  1.2552000  3
   4334   4338   4339   4350     1  0.0000000  1.2552000  3
   4334   4338   4340   4341     1  0.0000000  1.2552000  3
   4334   4338   4340   4343     1  0.0000000  1.2552000  3
   4335   4332   4334   4338     1  0.0000000  0.6508444  3
   4335   4332   4334   4336     1  0.0000000  0.6508444  3
   4335   4332   4334   4337     1  0.0000000  0.6508444  3
   4336   4334   4338   4339     1  0.0000000  1.2552000  3
   4336   4334   4338   4340     1  0.0000000  1.2552000  3
   4337   4334   4338   4339     1  0.0000000  1.2552000  3
   4337   4334   4338   4340     1  0.0000000  1.2552000  3
   4338   4339   4351   4352     1  0.0000000  0.6508444  3
   4338   4339   4351   4353     1  0.0000000  0.6508444  3
   4338   4340   4342   4344     1  0.0000000  0.6508444  3
   4338   4340   4342   4345     1  0.0000000  0.6508444  3
   4339   4338   4340   4341     1  0.0000000  1.2552000  3
   4339   4338   4340   4343     1  0.0000000  1.2552000  3
   4340   4338   4339   4349     1  0.0000000  1.2552000  3
   4340   4338   4339   4350     1  0.0000000  1.2552000  3
   4341   4340   4342   4346     1  0.0000000  0.6508444  3
   4341   4340   4342   4344     1  0.0000000  0.6508444  3
   4341   4340   4342   4345     1  0.0000000  0.6508444  3
   4342   4346   4347   4357     1  180.0000771  9.6232000  2
   4343   4340   4342   4346     1  0.0000000  0.6508444  3
   4343   4340   4342   4344     1  0.0000000  0.6508444  3
   4343   4340   4342   4345     1  0.0000000  0.6508444  3
   4344   4342   4346   4347     1  180.0000771  0.0000000  2
   4344   4342   4346   4348     1  0.0000000  3.3472000  1
   4344   4342   4346   4348     1  0.0000000  0.0000000  2
   4344   4342   4346   4348     1  180.0000771  0.3347200  3
   4345   4342   4346   4347     1  180.0000771  0.0000000  2
   4345   4342   4346   4348     1  0.0000000  3.3472000  1
   4345   4342   4346   4348     1  0.0000000  0.0000000  2
   4345   4342   4346   4348     1  180.0000771  0.3347200  3
   4348   4346   4347   4357     1  0.0000000  7.9496000  1
   4348   4346   4347   4357     1  180.0000771  9.6232000  2
   4349   4339   4351   4354     1  0.0000000  0.6508444  3
   4349   4339   4351   4352     1  0.0000000  0.6508444  3
   4349   4339   4351   4353     1  0.0000000  0.6508444  3
   4350   4339   4351   4354     1  0.0000000  0.6508444  3
   4350   4339   4351   4352     1  0.0000000  0.6508444  3
   4350   4339   4351   4353     1  0.0000000  0.6508444  3
   4351   4354   4356   4358     1  180.0000771  9.6232000  2
   4352   4351   4354   4355     1  0.0000000  3.3472000  1
   4352   4351   4354   4355     1  0.0000000  0.0000000  2
   4352   4351   4354   4355     1  180.0000771  0.3347200  3
   4352   4351   4354   4356     1  180.0000771  0.0000000  2
   4353   4351   4354   4355     1  0.0000000  3.3472000  1
   4353   4351   4354   4355     1  0.0000000  0.0000000  2
   4353   4351   4354   4355     1  180.0000771  0.3347200  3
   4353   4351   4354   4356     1  180.0000771  0.0000000  2
   4355   4354   4356   4358     1  0.0000000  7.9496000  1
   4355   4354   4356   4358     1  180.0000771  9.6232000  2
   4359   4361   4363   4365     1  0.0000000  0.6508444  3
   4359   4361   4363   4366     1  0.0000000  0.6508444  3
   4360   4359   4361   4363     1  0.0000000  0.0000000  2
   4360   4359   4361   4362     1  0.0000000  0.0000000  2
   4360   4359   4361   4364     1  0.0000000  0.0000000  2
   4362   4361   4363   4367     1  0.0000000  0.6508444  3
   4362   4361   4363   4365     1  0.0000000  0.6508444  3
   4362   4361   4363   4366     1  0.0000000  0.6508444  3
   4363   4367   4368   4378     1  0.0000000  1.2552000  3
   4363   4367   4368   4379     1  0.0000000  1.2552000  3
   4363   4367   4369   4370     1  0.0000000  1.2552000  3
   4363   4367   4369   4372     1  0.0000000  1.2552000  3
   4364   4361   4363   4367     1  0.0000000  0.6508444  3
   4364   4361   4363   4365     1  0.0000000  0.6508444  3
   4364   4361   4363   4366     1  0.0000000  0.6508444  3
   4365   4363   4367   4368     1  0.0000000  1.2552000  3
   4365   4363   4367   4369     1  0.0000000  1.2552000  3
   4366   4363   4367   4368     1  0.0000000  1.2552000  3
   4366   4363   4367   4369     1  0.0000000  1.2552000  3
   4367   4368   4380   4381     1  0.0000000  0.6508444  3
   4367   4368   4380   4382     1  0.0000000  0.6508444  3
   4367   4369   4371   4373     1  0.0000000  0.6508444  3
   4367   4369   4371   4374     1  0.0000000  0.6508444  3
   4368   4367   4369   4370     1  0.0000000  1.2552000  3
   4368   4367   4369   4372     1  0.0000000  1.2552000  3
   4369   4367   4368   4378     1  0.0000000  1.2552000  3
   4369   4367   4368   4379     1  0.0000000  1.2552000  3
   4370   4369   4371   4375     1  0.0000000  0.6508444  3
   4370   4369   4371   4373     1  0.0000000  0.6508444  3
   4370   4369   4371   4374     1  0.0000000  0.6508444  3
   4371   4375   4376   4386     1  180.0000771  9.6232000  2
   4372   4369   4371   4375     1  0.0000000  0.6508444  3
   4372   4369   4371   4373     1  0.0000000  0.6508444  3
   4372   4369   4371   4374     1  0.0000000  0.6508444  3
   4373   4371   4375   4376     1  180.0000771  0.0000000  2
   4373   4371   4375   4377     1  0.0000000  3.3472000  1
   4373   4371   4375   4377     1  0.0000000  0.0000000  2
   4373   4371   4375   4377     1  180.0000771  0.3347200  3
   4374   4371   4375   4376     1  180.0000771  0.0000000  2
   4374   4371   4375   4377     1  0.0000000  3.3472000  1
   4374   4371   4375   4377     1  0.0000000  0.0000000  2
   4374   4371   4375   4377     1  180.0000771  0.3347200  3
   4377   4375   4376   4386     1  0.0000000  7.9496000  1
   4377   4375   4376   4386     1  180.0000771  9.6232000  2
   4378   4368   4380   4383     1  0.0000000  0.6508444  3
   4378   4368   4380   4381     1  0.0000000  0.6508444  3
   4378   4368   4380   4382     1  0.0000000  0.6508444  3
   4379   4368   4380   4383     1  0.0000000  0.6508444  3
   4379   4368   4380   4381     1  0.0000000  0.6508444  3
   4379   4368   4380   4382     1  0.0000000  0.6508444  3
   4380   4383   4385   4387     1  180.0000771  9.6232000  2
   4381   4380   4383   4384     1  0.0000000  3.3472000  1
   4381   4380   4383   4384     1  0.0000000  0.0000000  2
   4381   4380   4383   4384     1  180.0000771  0.3347200  3
   4381   4380   4383   4385     1  180.0000771  0.0000000  2
   4382   4380   4383   4384     1  0.0000000  3.3472000  1
   4382   4380   4383   4384     1  0.0000000  0.0000000  2
   4382   4380   4383   4384     1  180.0000771  0.3347200  3
   4382   4380   4383   4385     1  180.0000771  0.0000000  2
   4384   4383   4385   4387     1  0.0000000  7.9496000  1
   4384   4383   4385   4387     1  180.0000771  9.6232000  2
   4388   4390   4392   4394     1  0.0000000  0.6508444  3
   4388   4390   4392   4395     1  0.0000000  0.6508444  3
   4389   4388   4390   4392     1  0.0000000  0.0000000  2
   4389   4388   4390   4391     1  0.0000000  0.0000000  2
   4389   4388   4390   4393     1  0.0000000  0.0000000  2
   4391   4390   4392   4396     1  0.0000000  0.6508444  3
   4391   4390   4392   4394     1  0.0000000  0.6508444  3
   4391   4390   4392   4395     1  0.0000000  0.6508444  3
   4392   4396   4397   4407     1  0.0000000  1.2552000  3
   4392   4396   4397   4408     1  0.0000000  1.2552000  3
   4392   4396   4398   4399     1  0.0000000  1.2552000  3
   4392   4396   4398   4401     1  0.0000000  1.2552000  3
   4393   4390   4392   4396     1  0.0000000  0.6508444  3
   4393   4390   4392   4394     1  0.0000000  0.6508444  3
   4393   4390   4392   4395     1  0.0000000  0.6508444  3
   4394   4392   4396   4397     1  0.0000000  1.2552000  3
   4394   4392   4396   4398     1  0.0000000  1.2552000  3
   4395   4392   4396   4397     1  0.0000000  1.2552000  3
   4395   4392   4396   4398     1  0.0000000  1.2552000  3
   4396   4397   4409   4410     1  0.0000000  0.6508444  3
   4396   4397   4409   4411     1  0.0000000  0.6508444  3
   4396   4398   4400   4402     1  0.0000000  0.6508444  3
   4396   4398   4400   4403     1  0.0000000  0.6508444  3
   4397   4396   4398   4399     1  0.0000000  1.2552000  3
   4397   4396   4398   4401     1  0.0000000  1.2552000  3
   4398   4396   4397   4407     1  0.0000000  1.2552000  3
   4398   4396   4397   4408     1  0.0000000  1.2552000  3
   4399   4398   4400   4404     1  0.0000000  0.6508444  3
   4399   4398   4400   4402     1  0.0000000  0.6508444  3
   4399   4398   4400   4403     1  0.0000000  0.6508444  3
   4400   4404   4405   4415     1  180.0000771  9.6232000  2
   4401   4398   4400   4404     1  0.0000000  0.6508444  3
   4401   4398   4400   4402     1  0.0000000  0.6508444  3
   4401   4398   4400   4403     1  0.0000000  0.6508444  3
   4402   4400   4404   4405     1  180.0000771  0.0000000  2
   4402   4400   4404   4406     1  0.0000000  3.3472000  1
   4402   4400   4404   4406     1  0.0000000  0.0000000  2
   4402   4400   4404   4406     1  180.0000771  0.3347200  3
   4403   4400   4404   4405     1  180.0000771  0.0000000  2
   4403   4400   4404   4406     1  0.0000000  3.3472000  1
   4403   4400   4404   4406     1  0.0000000  0.0000000  2
   4403   4400   4404   4406     1  180.0000771  0.3347200  3
   4406   4404   4405   4415     1  0.0000000  7.9496000  1
   4406   4404   4405   4415     1  180.0000771  9.6232000  2
   4407   4397   4409   4412     1  0.0000000  0.6508444  3
   4407   4397   4409   4410     1  0.0000000  0.6508444  3
   4407   4397   4409   4411     1  0.0000000  0.6508444  3
   4408   4397   4409   4412     1  0.0000000  0.6508444  3
   4408   4397   4409   4410     1  0.0000000  0.6508444  3
   4408   4397   4409   4411     1  0.0000000  0.6508444  3
   4409   4412   4414   4416     1  180.0000771  9.6232000  2
   4410   4409   4412   4413     1  0.0000000  3.3472000  1
   4410   4409   4412   4413     1  0.0000000  0.0000000  2
   4410   4409   4412   4413     1  180.0000771  0.3347200  3
   4410   4409   4412   4414     1  180.0000771  0.0000000  2
   4411   4409   4412   4413     1  0.0000000  3.3472000  1
   4411   4409   4412   4413     1  0.0000000  0.0000000  2
   4411   4409   4412   4413     1  180.0000771  0.3347200  3
   4411   4409   4412   4414     1  180.0000771  0.0000000  2
   4413   4412   4414   4416     1  0.0000000  7.9496000  1
   4413   4412   4414   4416     1  180.0000771  9.6232000  2
   4417   4419   4421   4423     1  0.0000000  0.6508444  3
   4417   4419   4421   4424     1  0.0000000  0.6508444  3
   4418   4417   4419   4421     1  0.0000000  0.0000000  2
   4418   4417   4419   4420     1  0.0000000  0.0000000  2
   4418   4417   4419   4422     1  0.0000000  0.0000000  2
   4420   4419   4421   4425     1  0.0000000  0.6508444  3
   4420   4419   4421   4423     1  0.0000000  0.6508444  3
   4420   4419   4421   4424     1  0.0000000  0.6508444  3
   4421   4425   4426   4436     1  0.0000000  1.2552000  3
   4421   4425   4426   4437     1  0.0000000  1.2552000  3
   4421   4425   4427   4428     1  0.0000000  1.2552000  3
   4421   4425   4427   4430     1  0.0000000  1.2552000  3
   4422   4419   4421   4425     1  0.0000000  0.6508444  3
   4422   4419   4421   4423     1  0.0000000  0.6508444  3
   4422   4419   4421   4424     1  0.0000000  0.6508444  3
   4423   4421   4425   4426     1  0.0000000  1.2552000  3
   4423   4421   4425   4427     1  0.0000000  1.2552000  3
   4424   4421   4425   4426     1  0.0000000  1.2552000  3
   4424   4421   4425   4427     1  0.0000000  1.2552000  3
   4425   4426   4438   4439     1  0.0000000  0.6508444  3
   4425   4426   4438   4440     1  0.0000000  0.6508444  3
   4425   4427   4429   4431     1  0.0000000  0.6508444  3
   4425   4427   4429   4432     1  0.0000000  0.6508444  3
   4426   4425   4427   4428     1  0.0000000  1.2552000  3
   4426   4425   4427   4430     1  0.0000000  1.2552000  3
   4427   4425   4426   4436     1  0.0000000  1.2552000  3
   4427   4425   4426   4437     1  0.0000000  1.2552000  3
   4428   4427   4429   4433     1  0.0000000  0.6508444  3
   4428   4427   4429   4431     1  0.0000000  0.6508444  3
   4428   4427   4429   4432     1  0.0000000  0.6508444  3
   4429   4433   4434   4444     1  180.0000771  9.6232000  2
   4430   4427   4429   4433     1  0.0000000  0.6508444  3
   4430   4427   4429   4431     1  0.0000000  0.6508444  3
   4430   4427   4429   4432     1  0.0000000  0.6508444  3
   4431   4429   4433   4434     1  180.0000771  0.0000000  2
   4431   4429   4433   4435     1  0.0000000  3.3472000  1
   4431   4429   4433   4435     1  0.0000000  0.0000000  2
   4431   4429   4433   4435     1  180.0000771  0.3347200  3
   4432   4429   4433   4434     1  180.0000771  0.0000000  2
   4432   4429   4433   4435     1  0.0000000  3.3472000  1
   4432   4429   4433   4435     1  0.0000000  0.0000000  2
   4432   4429   4433   4435     1  180.0000771  0.3347200  3
   4435   4433   4434   4444     1  0.0000000  7.9496000  1
   4435   4433   4434   4444     1  180.0000771  9.6232000  2
   4436   4426   4438   4441     1  0.0000000  0.6508444  3
   4436   4426   4438   4439     1  0.0000000  0.6508444  3
   4436   4426   4438   4440     1  0.0000000  0.6508444  3
   4437   4426   4438   4441     1  0.0000000  0.6508444  3
   4437   4426   4438   4439     1  0.0000000  0.6508444  3
   4437   4426   4438   4440     1  0.0000000  0.6508444  3
   4438   4441   4443   4445     1  180.0000771  9.6232000  2
   4439   4438   4441   4442     1  0.0000000  3.3472000  1
   4439   4438   4441   4442     1  0.0000000  0.0000000  2
   4439   4438   4441   4442     1  180.0000771  0.3347200  3
   4439   4438   4441   4443     1  180.0000771  0.0000000  2
   4440   4438   4441   4442     1  0.0000000  3.3472000  1
   4440   4438   4441   4442     1  0.0000000  0.0000000  2
   4440   4438   4441   4442     1  180.0000771  0.3347200  3
   4440   4438   4441   4443     1  180.0000771  0.0000000  2
   4442   4441   4443   4445     1  0.0000000  7.9496000  1
   4442   4441   4443   4445     1  180.0000771  9.6232000  2
   4446   4448   4450   4452     1  0.0000000  0.6508444  3
   4446   4448   4450   4453     1  0.0000000  0.6508444  3
   4447   4446   4448   4450     1  0.0000000  0.0000000  2
   4447   4446   4448   4449     1  0.0000000  0.0000000  2
   4447   4446   4448   4451     1  0.0000000  0.0000000  2
   4449   4448   4450   4454     1  0.0000000  0.6508444  3
   4449   4448   4450   4452     1  0.0000000  0.6508444  3
   4449   4448   4450   4453     1  0.0000000  0.6508444  3
   4450   4454   4455   4465     1  0.0000000  1.2552000  3
   4450   4454   4455   4466     1  0.0000000  1.2552000  3
   4450   4454   4456   4457     1  0.0000000  1.2552000  3
   4450   4454   4456   4459     1  0.0000000  1.2552000  3
   4451   4448   4450   4454     1  0.0000000  0.6508444  3
   4451   4448   4450   4452     1  0.0000000  0.6508444  3
   4451   4448   4450   4453     1  0.0000000  0.6508444  3
   4452   4450   4454   4455     1  0.0000000  1.2552000  3
   4452   4450   4454   4456     1  0.0000000  1.2552000  3
   4453   4450   4454   4455     1  0.0000000  1.2552000  3
   4453   4450   4454   4456     1  0.0000000  1.2552000  3
   4454   4455   4467   4468     1  0.0000000  0.6508444  3
   4454   4455   4467   4469     1  0.0000000  0.6508444  3
   4454   4456   4458   4460     1  0.0000000  0.6508444  3
   4454   4456   4458   4461     1  0.0000000  0.6508444  3
   4455   4454   4456   4457     1  0.0000000  1.2552000  3
   4455   4454   4456   4459     1  0.0000000  1.2552000  3
   4456   4454   4455   4465     1  0.0000000  1.2552000  3
   4456   4454   4455   4466     1  0.0000000  1.2552000  3
   4457   4456   4458   4462     1  0.0000000  0.6508444  3
   4457   4456   4458   4460     1  0.0000000  0.6508444  3
   4457   4456   4458   4461     1  0.0000000  0.6508444  3
   4458   4462   4463   4473     1  180.0000771  9.6232000  2
   4459   4456   4458   4462     1  0.0000000  0.6508444  3
   4459   4456   4458   4460     1  0.0000000  0.6508444  3
   4459   4456   4458   4461     1  0.0000000  0.6508444  3
   4460   4458   4462   4463     1  180.0000771  0.0000000  2
   4460   4458   4462   4464     1  0.0000000  3.3472000  1
   4460   4458   4462   4464     1  0.0000000  0.0000000  2
   4460   4458   4462   4464     1  180.0000771  0.3347200  3
   4461   4458   4462   4463     1  180.0000771  0.0000000  2
   4461   4458   4462   4464     1  0.0000000  3.3472000  1
   4461   4458   4462   4464     1  0.0000000  0.0000000  2
   4461   4458   4462   4464     1  180.0000771  0.3347200  3
   4464   4462   4463   4473     1  0.0000000  7.9496000  1
   4464   4462   4463   4473     1  180.0000771  9.6232000  2
   4465   4455   4467   4470     1  0.0000000  0.6508444  3
   4465   4455   4467   4468     1  0.0000000  0.6508444  3
   4465   4455   4467   4469     1  0.0000000  0.6508444  3
   4466   4455   4467   4470     1  0.0000000  0.6508444  3
   4466   4455   4467   4468     1  0.0000000  0.6508444  3
   4466   4455   4467   4469     1  0.0000000  0.6508444  3
   4467   4470   4472   4474     1  180.0000771  9.6232000  2
   4468   4467   4470   4471     1  0.0000000  3.3472000  1
   4468   4467   4470   4471     1  0.0000000  0.0000000  2
   4468   4467   4470   4471     1  180.0000771  0.3347200  3
   4468   4467   4470   4472     1  180.0000771  0.0000000  2
   4469   4467   4470   4471     1  0.0000000  3.3472000  1
   4469   4467   4470   4471     1  0.0000000  0.0000000  2
   4469   4467   4470   4471     1  180.0000771  0.3347200  3
   4469   4467   4470   4472     1  180.0000771  0.0000000  2
   4471   4470   4472   4474     1  0.0000000  7.9496000  1
   4471   4470   4472   4474     1  180.0000771  9.6232000  2
   4475   4477   4479   4481     1  0.0000000  0.6508444  3
   4475   4477   4479   4482     1  0.0000000  0.6508444  3
   4476   4475   4477   4479     1  0.0000000  0.0000000  2
   4476   4475   4477   4478     1  0.0000000  0.0000000  2
   4476   4475   4477   4480     1  0.0000000  0.0000000  2
   4478   4477   4479   4483     1  0.0000000  0.6508444  3
   4478   4477   4479   4481     1  0.0000000  0.6508444  3
   4478   4477   4479   4482     1  0.0000000  0.6508444  3
   4479   4483   4484   4494     1  0.0000000  1.2552000  3
   4479   4483   4484   4495     1  0.0000000  1.2552000  3
   4479   4483   4485   4486     1  0.0000000  1.2552000  3
   4479   4483   4485   4488     1  0.0000000  1.2552000  3
   4480   4477   4479   4483     1  0.0000000  0.6508444  3
   4480   4477   4479   4481     1  0.0000000  0.6508444  3
   4480   4477   4479   4482     1  0.0000000  0.6508444  3
   4481   4479   4483   4484     1  0.0000000  1.2552000  3
   4481   4479   4483   4485     1  0.0000000  1.2552000  3
   4482   4479   4483   4484     1  0.0000000  1.2552000  3
   4482   4479   4483   4485     1  0.0000000  1.2552000  3
   4483   4484   4496   4497     1  0.0000000  0.6508444  3
   4483   4484   4496   4498     1  0.0000000  0.6508444  3
   4483   4485   4487   4489     1  0.0000000  0.6508444  3
   4483   4485   4487   4490     1  0.0000000  0.6508444  3
   4484   4483   4485   4486     1  0.0000000  1.2552000  3
   4484   4483   4485   4488     1  0.0000000  1.2552000  3
   4485   4483   4484   4494     1  0.0000000  1.2552000  3
   4485   4483   4484   4495     1  0.0000000  1.2552000  3
   4486   4485   4487   4491     1  0.0000000  0.6508444  3
   4486   4485   4487   4489     1  0.0000000  0.6508444  3
   4486   4485   4487   4490     1  0.0000000  0.6508444  3
   4487   4491   4492   4502     1  180.0000771  9.6232000  2
   4488   4485   4487   4491     1  0.0000000  0.6508444  3
   4488   4485   4487   4489     1  0.0000000  0.6508444  3
   4488   4485   4487   4490     1  0.0000000  0.6508444  3
   4489   4487   4491   4492     1  180.0000771  0.0000000  2
   4489   4487   4491   4493     1  0.0000000  3.3472000  1
   4489   4487   4491   4493     1  0.0000000  0.0000000  2
   4489   4487   4491   4493     1  180.0000771  0.3347200  3
   4490   4487   4491   4492     1  180.0000771  0.0000000  2
   4490   4487   4491   4493     1  0.0000000  3.3472000  1
   4490   4487   4491   4493     1  0.0000000  0.0000000  2
   4490   4487   4491   4493     1  180.0000771  0.3347200  3
   4493   4491   4492   4502     1  0.0000000  7.9496000  1
   4493   4491   4492   4502     1  180.0000771  9.6232000  2
   4494   4484   4496   4499     1  0.0000000  0.6508444  3
   4494   4484   4496   4497     1  0.0000000  0.6508444  3
   4494   4484   4496   4498     1  0.0000000  0.6508444  3
   4495   4484   4496   4499     1  0.0000000  0.6508444  3
   4495   4484   4496   4497     1  0.0000000  0.6508444  3
   4495   4484   4496   4498     1  0.0000000  0.6508444  3
   4496   4499   4501   4503     1  180.0000771  9.6232000  2
   4497   4496   4499   4500     1  0.0000000  3.3472000  1
   4497   4496   4499   4500     1  0.0000000  0.0000000  2
   4497   4496   4499   4500     1  180.0000771  0.3347200  3
   4497   4496   4499   4501     1  180.0000771  0.0000000  2
   4498   4496   4499   4500     1  0.0000000  3.3472000  1
   4498   4496   4499   4500     1  0.0000000  0.0000000  2
   4498   4496   4499   4500     1  180.0000771  0.3347200  3
   4498   4496   4499   4501     1  180.0000771  0.0000000  2
   4500   4499   4501   4503     1  0.0000000  7.9496000  1
   4500   4499   4501   4503     1  180.0000771  9.6232000  2
   4504   4506   4508   4510     1  0.0000000  0.6508444  3
   4504   4506   4508   4511     1  0.0000000  0.6508444  3
   4505   4504   4506   4508     1  0.0000000  0.0000000  2
   4505   4504   4506   4507     1  0.0000000  0.0000000  2
   4505   4504   4506   4509     1  0.0000000  0.0000000  2
   4507   4506   4508   4512     1  0.0000000  0.6508444  3
   4507   4506   4508   4510     1  0.0000000  0.6508444  3
   4507   4506   4508   4511     1  0.0000000  0.6508444  3
   4508   4512   4513   4523     1  0.0000000  1.2552000  3
   4508   4512   4513   4524     1  0.0000000  1.2552000  3
   4508   4512   4514   4515     1  0.0000000  1.2552000  3
   4508   4512   4514   4517     1  0.0000000  1.2552000  3
   4509   4506   4508   4512     1  0.0000000  0.6508444  3
   4509   4506   4508   4510     1  0.0000000  0.6508444  3
   4509   4506   4508   4511     1  0.0000000  0.6508444  3
   4510   4508   4512   4513     1  0.0000000  1.2552000  3
   4510   4508   4512   4514     1  0.0000000  1.2552000  3
   4511   4508   4512   4513     1  0.0000000  1.2552000  3
   4511   4508   4512   4514     1  0.0000000  1.2552000  3
   4512   4513   4525   4526     1  0.0000000  0.6508444  3
   4512   4513   4525   4527     1  0.0000000  0.6508444  3
   4512   4514   4516   4518     1  0.0000000  0.6508444  3
   4512   4514   4516   4519     1  0.0000000  0.6508444  3
   4513   4512   4514   4515     1  0.0000000  1.2552000  3
   4513   4512   4514   4517     1  0.0000000  1.2552000  3
   4514   4512   4513   4523     1  0.0000000  1.2552000  3
   4514   4512   4513   4524     1  0.0000000  1.2552000  3
   4515   4514   4516   4520     1  0.0000000  0.6508444  3
   4515   4514   4516   4518     1  0.0000000  0.6508444  3
   4515   4514   4516   4519     1  0.0000000  0.6508444  3
   4516   4520   4521   4531     1  180.0000771  9.6232000  2
   4517   4514   4516   4520     1  0.0000000  0.6508444  3
   4517   4514   4516   4518     1  0.0000000  0.6508444  3
   4517   4514   4516   4519     1  0.0000000  0.6508444  3
   4518   4516   4520   4521     1  180.0000771  0.0000000  2
   4518   4516   4520   4522     1  0.0000000  3.3472000  1
   4518   4516   4520   4522     1  0.0000000  0.0000000  2
   4518   4516   4520   4522     1  180.0000771  0.3347200  3
   4519   4516   4520   4521     1  180.0000771  0.0000000  2
   4519   4516   4520   4522     1  0.0000000  3.3472000  1
   4519   4516   4520   4522     1  0.0000000  0.0000000  2
   4519   4516   4520   4522     1  180.0000771  0.3347200  3
   4522   4520   4521   4531     1  0.0000000  7.9496000  1
   4522   4520   4521   4531     1  180.0000771  9.6232000  2
   4523   4513   4525   4528     1  0.0000000  0.6508444  3
   4523   4513   4525   4526     1  0.0000000  0.6508444  3
   4523   4513   4525   4527     1  0.0000000  0.6508444  3
   4524   4513   4525   4528     1  0.0000000  0.6508444  3
   4524   4513   4525   4526     1  0.0000000  0.6508444  3
   4524   4513   4525   4527     1  0.0000000  0.6508444  3
   4525   4528   4530   4532     1  180.0000771  9.6232000  2
   4526   4525   4528   4529     1  0.0000000  3.3472000  1
   4526   4525   4528   4529     1  0.0000000  0.0000000  2
   4526   4525   4528   4529     1  180.0000771  0.3347200  3
   4526   4525   4528   4530     1  180.0000771  0.0000000  2
   4527   4525   4528   4529     1  0.0000000  3.3472000  1
   4527   4525   4528   4529     1  0.0000000  0.0000000  2
   4527   4525   4528   4529     1  180.0000771  0.3347200  3
   4527   4525   4528   4530     1  180.0000771  0.0000000  2
   4529   4528   4530   4532     1  0.0000000  7.9496000  1
   4529   4528   4530   4532     1  180.0000771  9.6232000  2
   4533   4535   4537   4539     1  0.0000000  0.6508444  3
   4533   4535   4537   4540     1  0.0000000  0.6508444  3
   4534   4533   4535   4537     1  0.0000000  0.0000000  2
   4534   4533   4535   4536     1  0.0000000  0.0000000  2
   4534   4533   4535   4538     1  0.0000000  0.0000000  2
   4536   4535   4537   4541     1  0.0000000  0.6508444  3
   4536   4535   4537   4539     1  0.0000000  0.6508444  3
   4536   4535   4537   4540     1  0.0000000  0.6508444  3
   4537   4541   4542   4552     1  0.0000000  1.2552000  3
   4537   4541   4542   4553     1  0.0000000  1.2552000  3
   4537   4541   4543   4544     1  0.0000000  1.2552000  3
   4537   4541   4543   4546     1  0.0000000  1.2552000  3
   4538   4535   4537   4541     1  0.0000000  0.6508444  3
   4538   4535   4537   4539     1  0.0000000  0.6508444  3
   4538   4535   4537   4540     1  0.0000000  0.6508444  3
   4539   4537   4541   4542     1  0.0000000  1.2552000  3
   4539   4537   4541   4543     1  0.0000000  1.2552000  3
   4540   4537   4541   4542     1  0.0000000  1.2552000  3
   4540   4537   4541   4543     1  0.0000000  1.2552000  3
   4541   4542   4554   4555     1  0.0000000  0.6508444  3
   4541   4542   4554   4556     1  0.0000000  0.6508444  3
   4541   4543   4545   4547     1  0.0000000  0.6508444  3
   4541   4543   4545   4548     1  0.0000000  0.6508444  3
   4542   4541   4543   4544     1  0.0000000  1.2552000  3
   4542   4541   4543   4546     1  0.0000000  1.2552000  3
   4543   4541   4542   4552     1  0.0000000  1.2552000  3
   4543   4541   4542   4553     1  0.0000000  1.2552000  3
   4544   4543   4545   4549     1  0.0000000  0.6508444  3
   4544   4543   4545   4547     1  0.0000000  0.6508444  3
   4544   4543   4545   4548     1  0.0000000  0.6508444  3
   4545   4549   4550   4560     1  180.0000771  9.6232000  2
   4546   4543   4545   4549     1  0.0000000  0.6508444  3
   4546   4543   4545   4547     1  0.0000000  0.6508444  3
   4546   4543   4545   4548     1  0.0000000  0.6508444  3
   4547   4545   4549   4550     1  180.0000771  0.0000000  2
   4547   4545   4549   4551     1  0.0000000  3.3472000  1
   4547   4545   4549   4551     1  0.0000000  0.0000000  2
   4547   4545   4549   4551     1  180.0000771  0.3347200  3
   4548   4545   4549   4550     1  180.0000771  0.0000000  2
   4548   4545   4549   4551     1  0.0000000  3.3472000  1
   4548   4545   4549   4551     1  0.0000000  0.0000000  2
   4548   4545   4549   4551     1  180.0000771  0.3347200  3
   4551   4549   4550   4560     1  0.0000000  7.9496000  1
   4551   4549   4550   4560     1  180.0000771  9.6232000  2
   4552   4542   4554   4557     1  0.0000000  0.6508444  3
   4552   4542   4554   4555     1  0.0000000  0.6508444  3
   4552   4542   4554   4556     1  0.0000000  0.6508444  3
   4553   4542   4554   4557     1  0.0000000  0.6508444  3
   4553   4542   4554   4555     1  0.0000000  0.6508444  3
   4553   4542   4554   4556     1  0.0000000  0.6508444  3
   4554   4557   4559   4561     1  180.0000771  9.6232000  2
   4555   4554   4557   4558     1  0.0000000  3.3472000  1
   4555   4554   4557   4558     1  0.0000000  0.0000000  2
   4555   4554   4557   4558     1  180.0000771  0.3347200  3
   4555   4554   4557   4559     1  180.0000771  0.0000000  2
   4556   4554   4557   4558     1  0.0000000  3.3472000  1
   4556   4554   4557   4558     1  0.0000000  0.0000000  2
   4556   4554   4557   4558     1  180.0000771  0.3347200  3
   4556   4554   4557   4559     1  180.0000771  0.0000000  2
   4558   4557   4559   4561     1  0.0000000  7.9496000  1
   4558   4557   4559   4561     1  180.0000771  9.6232000  2
   4562   4564   4566   4568     1  0.0000000  0.6508444  3
   4562   4564   4566   4569     1  0.0000000  0.6508444  3
   4563   4562   4564   4566     1  0.0000000  0.0000000  2
   4563   4562   4564   4565     1  0.0000000  0.0000000  2
   4563   4562   4564   4567     1  0.0000000  0.0000000  2
   4565   4564   4566   4570     1  0.0000000  0.6508444  3
   4565   4564   4566   4568     1  0.0000000  0.6508444  3
   4565   4564   4566   4569     1  0.0000000  0.6508444  3
   4566   4570   4571   4581     1  0.0000000  1.2552000  3
   4566   4570   4571   4582     1  0.0000000  1.2552000  3
   4566   4570   4572   4573     1  0.0000000  1.2552000  3
   4566   4570   4572   4575     1  0.0000000  1.2552000  3
   4567   4564   4566   4570     1  0.0000000  0.6508444  3
   4567   4564   4566   4568     1  0.0000000  0.6508444  3
   4567   4564   4566   4569     1  0.0000000  0.6508444  3
   4568   4566   4570   4571     1  0.0000000  1.2552000  3
   4568   4566   4570   4572     1  0.0000000  1.2552000  3
   4569   4566   4570   4571     1  0.0000000  1.2552000  3
   4569   4566   4570   4572     1  0.0000000  1.2552000  3
   4570   4571   4583   4584     1  0.0000000  0.6508444  3
   4570   4571   4583   4585     1  0.0000000  0.6508444  3
   4570   4572   4574   4576     1  0.0000000  0.6508444  3
   4570   4572   4574   4577     1  0.0000000  0.6508444  3
   4571   4570   4572   4573     1  0.0000000  1.2552000  3
   4571   4570   4572   4575     1  0.0000000  1.2552000  3
   4572   4570   4571   4581     1  0.0000000  1.2552000  3
   4572   4570   4571   4582     1  0.0000000  1.2552000  3
   4573   4572   4574   4578     1  0.0000000  0.6508444  3
   4573   4572   4574   4576     1  0.0000000  0.6508444  3
   4573   4572   4574   4577     1  0.0000000  0.6508444  3
   4574   4578   4579   4589     1  180.0000771  9.6232000  2
   4575   4572   4574   4578     1  0.0000000  0.6508444  3
   4575   4572   4574   4576     1  0.0000000  0.6508444  3
   4575   4572   4574   4577     1  0.0000000  0.6508444  3
   4576   4574   4578   4579     1  180.0000771  0.0000000  2
   4576   4574   4578   4580     1  0.0000000  3.3472000  1
   4576   4574   4578   4580     1  0.0000000  0.0000000  2
   4576   4574   4578   4580     1  180.0000771  0.3347200  3
   4577   4574   4578   4579     1  180.0000771  0.0000000  2
   4577   4574   4578   4580     1  0.0000000  3.3472000  1
   4577   4574   4578   4580     1  0.0000000  0.0000000  2
   4577   4574   4578   4580     1  180.0000771  0.3347200  3
   4580   4578   4579   4589     1  0.0000000  7.9496000  1
   4580   4578   4579   4589     1  180.0000771  9.6232000  2
   4581   4571   4583   4586     1  0.0000000  0.6508444  3
   4581   4571   4583   4584     1  0.0000000  0.6508444  3
   4581   4571   4583   4585     1  0.0000000  0.6508444  3
   4582   4571   4583   4586     1  0.0000000  0.6508444  3
   4582   4571   4583   4584     1  0.0000000  0.6508444  3
   4582   4571   4583   4585     1  0.0000000  0.6508444  3
   4583   4586   4588   4590     1  180.0000771  9.6232000  2
   4584   4583   4586   4587     1  0.0000000  3.3472000  1
   4584   4583   4586   4587     1  0.0000000  0.0000000  2
   4584   4583   4586   4587     1  180.0000771  0.3347200  3
   4584   4583   4586   4588     1  180.0000771  0.0000000  2
   4585   4583   4586   4587     1  0.0000000  3.3472000  1
   4585   4583   4586   4587     1  0.0000000  0.0000000  2
   4585   4583   4586   4587     1  180.0000771  0.3347200  3
   4585   4583   4586   4588     1  180.0000771  0.0000000  2
   4587   4586   4588   4590     1  0.0000000  7.9496000  1
   4587   4586   4588   4590     1  180.0000771  9.6232000  2
   4591   4593   4595   4597     1  0.0000000  0.6508444  3
   4591   4593   4595   4598     1  0.0000000  0.6508444  3
   4592   4591   4593   4595     1  0.0000000  0.0000000  2
   4592   4591   4593   4594     1  0.0000000  0.0000000  2
   4592   4591   4593   4596     1  0.0000000  0.0000000  2
   4594   4593   4595   4599     1  0.0000000  0.6508444  3
   4594   4593   4595   4597     1  0.0000000  0.6508444  3
   4594   4593   4595   4598     1  0.0000000  0.6508444  3
   4595   4599   4600   4610     1  0.0000000  1.2552000  3
   4595   4599   4600   4611     1  0.0000000  1.2552000  3
   4595   4599   4601   4602     1  0.0000000  1.2552000  3
   4595   4599   4601   4604     1  0.0000000  1.2552000  3
   4596   4593   4595   4599     1  0.0000000  0.6508444  3
   4596   4593   4595   4597     1  0.0000000  0.6508444  3
   4596   4593   4595   4598     1  0.0000000  0.6508444  3
   4597   4595   4599   4600     1  0.0000000  1.2552000  3
   4597   4595   4599   4601     1  0.0000000  1.2552000  3
   4598   4595   4599   4600     1  0.0000000  1.2552000  3
   4598   4595   4599   4601     1  0.0000000  1.2552000  3
   4599   4600   4612   4613     1  0.0000000  0.6508444  3
   4599   4600   4612   4614     1  0.0000000  0.6508444  3
   4599   4601   4603   4605     1  0.0000000  0.6508444  3
   4599   4601   4603   4606     1  0.0000000  0.6508444  3
   4600   4599   4601   4602     1  0.0000000  1.2552000  3
   4600   4599   4601   4604     1  0.0000000  1.2552000  3
   4601   4599   4600   4610     1  0.0000000  1.2552000  3
   4601   4599   4600   4611     1  0.0000000  1.2552000  3
   4602   4601   4603   4607     1  0.0000000  0.6508444  3
   4602   4601   4603   4605     1  0.0000000  0.6508444  3
   4602   4601   4603   4606     1  0.0000000  0.6508444  3
   4603   4607   4608   4618     1  180.0000771  9.6232000  2
   4604   4601   4603   4607     1  0.0000000  0.6508444  3
   4604   4601   4603   4605     1  0.0000000  0.6508444  3
   4604   4601   4603   4606     1  0.0000000  0.6508444  3
   4605   4603   4607   4608     1  180.0000771  0.0000000  2
   4605   4603   4607   4609     1  0.0000000  3.3472000  1
   4605   4603   4607   4609     1  0.0000000  0.0000000  2
   4605   4603   4607   4609     1  180.0000771  0.3347200  3
   4606   4603   4607   4608     1  180.0000771  0.0000000  2
   4606   4603   4607   4609     1  0.0000000  3.3472000  1
   4606   4603   4607   4609     1  0.0000000  0.0000000  2
   4606   4603   4607   4609     1  180.0000771  0.3347200  3
   4609   4607   4608   4618     1  0.0000000  7.9496000  1
   4609   4607   4608   4618     1  180.0000771  9.6232000  2
   4610   4600   4612   4615     1  0.0000000  0.6508444  3
   4610   4600   4612   4613     1  0.0000000  0.6508444  3
   4610   4600   4612   4614     1  0.0000000  0.6508444  3
   4611   4600   4612   4615     1  0.0000000  0.6508444  3
   4611   4600   4612   4613     1  0.0000000  0.6508444  3
   4611   4600   4612   4614     1  0.0000000  0.6508444  3
   4612   4615   4617   4619     1  180.0000771  9.6232000  2
   4613   4612   4615   4616     1  0.0000000  3.3472000  1
   4613   4612   4615   4616     1  0.0000000  0.0000000  2
   4613   4612   4615   4616     1  180.0000771  0.3347200  3
   4613   4612   4615   4617     1  180.0000771  0.0000000  2
   4614   4612   4615   4616     1  0.0000000  3.3472000  1
   4614   4612   4615   4616     1  0.0000000  0.0000000  2
   4614   4612   4615   4616     1  180.0000771  0.3347200  3
   4614   4612   4615   4617     1  180.0000771  0.0000000  2
   4616   4615   4617   4619     1  0.0000000  7.9496000  1
   4616   4615   4617   4619     1  180.0000771  9.6232000  2
   4620   4622   4624   4626     1  0.0000000  0.6508444  3
   4620   4622   4624   4627     1  0.0000000  0.6508444  3
   4621   4620   4622   4624     1  0.0000000  0.0000000  2
   4621   4620   4622   4623     1  0.0000000  0.0000000  2
   4621   4620   4622   4625     1  0.0000000  0.0000000  2
   4623   4622   4624   4628     1  0.0000000  0.6508444  3
   4623   4622   4624   4626     1  0.0000000  0.6508444  3
   4623   4622   4624   4627     1  0.0000000  0.6508444  3
   4624   4628   4629   4639     1  0.0000000  1.2552000  3
   4624   4628   4629   4640     1  0.0000000  1.2552000  3
   4624   4628   4630   4631     1  0.0000000  1.2552000  3
   4624   4628   4630   4633     1  0.0000000  1.2552000  3
   4625   4622   4624   4628     1  0.0000000  0.6508444  3
   4625   4622   4624   4626     1  0.0000000  0.6508444  3
   4625   4622   4624   4627     1  0.0000000  0.6508444  3
   4626   4624   4628   4629     1  0.0000000  1.2552000  3
   4626   4624   4628   4630     1  0.0000000  1.2552000  3
   4627   4624   4628   4629     1  0.0000000  1.2552000  3
   4627   4624   4628   4630     1  0.0000000  1.2552000  3
   4628   4629   4641   4642     1  0.0000000  0.6508444  3
   4628   4629   4641   4643     1  0.0000000  0.6508444  3
   4628   4630   4632   4634     1  0.0000000  0.6508444  3
   4628   4630   4632   4635     1  0.0000000  0.6508444  3
   4629   4628   4630   4631     1  0.0000000  1.2552000  3
   4629   4628   4630   4633     1  0.0000000  1.2552000  3
   4630   4628   4629   4639     1  0.0000000  1.2552000  3
   4630   4628   4629   4640     1  0.0000000  1.2552000  3
   4631   4630   4632   4636     1  0.0000000  0.6508444  3
   4631   4630   4632   4634     1  0.0000000  0.6508444  3
   4631   4630   4632   4635     1  0.0000000  0.6508444  3
   4632   4636   4637   4647     1  180.0000771  9.6232000  2
   4633   4630   4632   4636     1  0.0000000  0.6508444  3
   4633   4630   4632   4634     1  0.0000000  0.6508444  3
   4633   4630   4632   4635     1  0.0000000  0.6508444  3
   4634   4632   4636   4637     1  180.0000771  0.0000000  2
   4634   4632   4636   4638     1  0.0000000  3.3472000  1
   4634   4632   4636   4638     1  0.0000000  0.0000000  2
   4634   4632   4636   4638     1  180.0000771  0.3347200  3
   4635   4632   4636   4637     1  180.0000771  0.0000000  2
   4635   4632   4636   4638     1  0.0000000  3.3472000  1
   4635   4632   4636   4638     1  0.0000000  0.0000000  2
   4635   4632   4636   4638     1  180.0000771  0.3347200  3
   4638   4636   4637   4647     1  0.0000000  7.9496000  1
   4638   4636   4637   4647     1  180.0000771  9.6232000  2
   4639   4629   4641   4644     1  0.0000000  0.6508444  3
   4639   4629   4641   4642     1  0.0000000  0.6508444  3
   4639   4629   4641   4643     1  0.0000000  0.6508444  3
   4640   4629   4641   4644     1  0.0000000  0.6508444  3
   4640   4629   4641   4642     1  0.0000000  0.6508444  3
   4640   4629   4641   4643     1  0.0000000  0.6508444  3
   4641   4644   4646   4648     1  180.0000771  9.6232000  2
   4642   4641   4644   4645     1  0.0000000  3.3472000  1
   4642   4641   4644   4645     1  0.0000000  0.0000000  2
   4642   4641   4644   4645     1  180.0000771  0.3347200  3
   4642   4641   4644   4646     1  180.0000771  0.0000000  2
   4643   4641   4644   4645     1  0.0000000  3.3472000  1
   4643   4641   4644   4645     1  0.0000000  0.0000000  2
   4643   4641   4644   4645     1  180.0000771  0.3347200  3
   4643   4641   4644   4646     1  180.0000771  0.0000000  2
   4645   4644   4646   4648     1  0.0000000  7.9496000  1
   4645   4644   4646   4648     1  180.0000771  9.6232000  2
   4649   4651   4653   4655     1  0.0000000  0.6508444  3
   4649   4651   4653   4656     1  0.0000000  0.6508444  3
   4650   4649   4651   4653     1  0.0000000  0.0000000  2
   4650   4649   4651   4652     1  0.0000000  0.0000000  2
   4650   4649   4651   4654     1  0.0000000  0.0000000  2
   4652   4651   4653   4657     1  0.0000000  0.6508444  3
   4652   4651   4653   4655     1  0.0000000  0.6508444  3
   4652   4651   4653   4656     1  0.0000000  0.6508444  3
   4653   4657   4658   4668     1  0.0000000  1.2552000  3
   4653   4657   4658   4669     1  0.0000000  1.2552000  3
   4653   4657   4659   4660     1  0.0000000  1.2552000  3
   4653   4657   4659   4662     1  0.0000000  1.2552000  3
   4654   4651   4653   4657     1  0.0000000  0.6508444  3
   4654   4651   4653   4655     1  0.0000000  0.6508444  3
   4654   4651   4653   4656     1  0.0000000  0.6508444  3
   4655   4653   4657   4658     1  0.0000000  1.2552000  3
   4655   4653   4657   4659     1  0.0000000  1.2552000  3
   4656   4653   4657   4658     1  0.0000000  1.2552000  3
   4656   4653   4657   4659     1  0.0000000  1.2552000  3
   4657   4658   4670   4671     1  0.0000000  0.6508444  3
   4657   4658   4670   4672     1  0.0000000  0.6508444  3
   4657   4659   4661   4663     1  0.0000000  0.6508444  3
   4657   4659   4661   4664     1  0.0000000  0.6508444  3
   4658   4657   4659   4660     1  0.0000000  1.2552000  3
   4658   4657   4659   4662     1  0.0000000  1.2552000  3
   4659   4657   4658   4668     1  0.0000000  1.2552000  3
   4659   4657   4658   4669     1  0.0000000  1.2552000  3
   4660   4659   4661   4665     1  0.0000000  0.6508444  3
   4660   4659   4661   4663     1  0.0000000  0.6508444  3
   4660   4659   4661   4664     1  0.0000000  0.6508444  3
   4661   4665   4666   4676     1  180.0000771  9.6232000  2
   4662   4659   4661   4665     1  0.0000000  0.6508444  3
   4662   4659   4661   4663     1  0.0000000  0.6508444  3
   4662   4659   4661   4664     1  0.0000000  0.6508444  3
   4663   4661   4665   4666     1  180.0000771  0.0000000  2
   4663   4661   4665   4667     1  0.0000000  3.3472000  1
   4663   4661   4665   4667     1  0.0000000  0.0000000  2
   4663   4661   4665   4667     1  180.0000771  0.3347200  3
   4664   4661   4665   4666     1  180.0000771  0.0000000  2
   4664   4661   4665   4667     1  0.0000000  3.3472000  1
   4664   4661   4665   4667     1  0.0000000  0.0000000  2
   4664   4661   4665   4667     1  180.0000771  0.3347200  3
   4667   4665   4666   4676     1  0.0000000  7.9496000  1
   4667   4665   4666   4676     1  180.0000771  9.6232000  2
   4668   4658   4670   4673     1  0.0000000  0.6508444  3
   4668   4658   4670   4671     1  0.0000000  0.6508444  3
   4668   4658   4670   4672     1  0.0000000  0.6508444  3
   4669   4658   4670   4673     1  0.0000000  0.6508444  3
   4669   4658   4670   4671     1  0.0000000  0.6508444  3
   4669   4658   4670   4672     1  0.0000000  0.6508444  3
   4670   4673   4675   4677     1  180.0000771  9.6232000  2
   4671   4670   4673   4674     1  0.0000000  3.3472000  1
   4671   4670   4673   4674     1  0.0000000  0.0000000  2
   4671   4670   4673   4674     1  180.0000771  0.3347200  3
   4671   4670   4673   4675     1  180.0000771  0.0000000  2
   4672   4670   4673   4674     1  0.0000000  3.3472000  1
   4672   4670   4673   4674     1  0.0000000  0.0000000  2
   4672   4670   4673   4674     1  180.0000771  0.3347200  3
   4672   4670   4673   4675     1  180.0000771  0.0000000  2
   4674   4673   4675   4677     1  0.0000000  7.9496000  1
   4674   4673   4675   4677     1  180.0000771  9.6232000  2
   4678   4680   4682   4684     1  0.0000000  0.6508444  3
   4678   4680   4682   4685     1  0.0000000  0.6508444  3
   4679   4678   4680   4682     1  0.0000000  0.0000000  2
   4679   4678   4680   4681     1  0.0000000  0.0000000  2
   4679   4678   4680   4683     1  0.0000000  0.0000000  2
   4681   4680   4682   4686     1  0.0000000  0.6508444  3
   4681   4680   4682   4684     1  0.0000000  0.6508444  3
   4681   4680   4682   4685     1  0.0000000  0.6508444  3
   4682   4686   4687   4697     1  0.0000000  1.2552000  3
   4682   4686   4687   4698     1  0.0000000  1.2552000  3
   4682   4686   4688   4689     1  0.0000000  1.2552000  3
   4682   4686   4688   4691     1  0.0000000  1.2552000  3
   4683   4680   4682   4686     1  0.0000000  0.6508444  3
   4683   4680   4682   4684     1  0.0000000  0.6508444  3
   4683   4680   4682   4685     1  0.0000000  0.6508444  3
   4684   4682   4686   4687     1  0.0000000  1.2552000  3
   4684   4682   4686   4688     1  0.0000000  1.2552000  3
   4685   4682   4686   4687     1  0.0000000  1.2552000  3
   4685   4682   4686   4688     1  0.0000000  1.2552000  3
   4686   4687   4699   4700     1  0.0000000  0.6508444  3
   4686   4687   4699   4701     1  0.0000000  0.6508444  3
   4686   4688   4690   4692     1  0.0000000  0.6508444  3
   4686   4688   4690   4693     1  0.0000000  0.6508444  3
   4687   4686   4688   4689     1  0.0000000  1.2552000  3
   4687   4686   4688   4691     1  0.0000000  1.2552000  3
   4688   4686   4687   4697     1  0.0000000  1.2552000  3
   4688   4686   4687   4698     1  0.0000000  1.2552000  3
   4689   4688   4690   4694     1  0.0000000  0.6508444  3
   4689   4688   4690   4692     1  0.0000000  0.6508444  3
   4689   4688   4690   4693     1  0.0000000  0.6508444  3
   4690   4694   4695   4705     1  180.0000771  9.6232000  2
   4691   4688   4690   4694     1  0.0000000  0.6508444  3
   4691   4688   4690   4692     1  0.0000000  0.6508444  3
   4691   4688   4690   4693     1  0.0000000  0.6508444  3
   4692   4690   4694   4695     1  180.0000771  0.0000000  2
   4692   4690   4694   4696     1  0.0000000  3.3472000  1
   4692   4690   4694   4696     1  0.0000000  0.0000000  2
   4692   4690   4694   4696     1  180.0000771  0.3347200  3
   4693   4690   4694   4695     1  180.0000771  0.0000000  2
   4693   4690   4694   4696     1  0.0000000  3.3472000  1
   4693   4690   4694   4696     1  0.0000000  0.0000000  2
   4693   4690   4694   4696     1  180.0000771  0.3347200  3
   4696   4694   4695   4705     1  0.0000000  7.9496000  1
   4696   4694   4695   4705     1  180.0000771  9.6232000  2
   4697   4687   4699   4702     1  0.0000000  0.6508444  3
   4697   4687   4699   4700     1  0.0000000  0.6508444  3
   4697   4687   4699   4701     1  0.0000000  0.6508444  3
   4698   4687   4699   4702     1  0.0000000  0.6508444  3
   4698   4687   4699   4700     1  0.0000000  0.6508444  3
   4698   4687   4699   4701     1  0.0000000  0.6508444  3
   4699   4702   4704   4706     1  180.0000771  9.6232000  2
   4700   4699   4702   4703     1  0.0000000  3.3472000  1
   4700   4699   4702   4703     1  0.0000000  0.0000000  2
   4700   4699   4702   4703     1  180.0000771  0.3347200  3
   4700   4699   4702   4704     1  180.0000771  0.0000000  2
   4701   4699   4702   4703     1  0.0000000  3.3472000  1
   4701   4699   4702   4703     1  0.0000000  0.0000000  2
   4701   4699   4702   4703     1  180.0000771  0.3347200  3
   4701   4699   4702   4704     1  180.0000771  0.0000000  2
   4703   4702   4704   4706     1  0.0000000  7.9496000  1
   4703   4702   4704   4706     1  180.0000771  9.6232000  2
   4707   4709   4711   4713     1  0.0000000  0.6508444  3
   4707   4709   4711   4714     1  0.0000000  0.6508444  3
   4708   4707   4709   4711     1  0.0000000  0.0000000  2
   4708   4707   4709   4710     1  0.0000000  0.0000000  2
   4708   4707   4709   4712     1  0.0000000  0.0000000  2
   4710   4709   4711   4715     1  0.0000000  0.6508444  3
   4710   4709   4711   4713     1  0.0000000  0.6508444  3
   4710   4709   4711   4714     1  0.0000000  0.6508444  3
   4711   4715   4716   4726     1  0.0000000  1.2552000  3
   4711   4715   4716   4727     1  0.0000000  1.2552000  3
   4711   4715   4717   4718     1  0.0000000  1.2552000  3
   4711   4715   4717   4720     1  0.0000000  1.2552000  3
   4712   4709   4711   4715     1  0.0000000  0.6508444  3
   4712   4709   4711   4713     1  0.0000000  0.6508444  3
   4712   4709   4711   4714     1  0.0000000  0.6508444  3
   4713   4711   4715   4716     1  0.0000000  1.2552000  3
   4713   4711   4715   4717     1  0.0000000  1.2552000  3
   4714   4711   4715   4716     1  0.0000000  1.2552000  3
   4714   4711   4715   4717     1  0.0000000  1.2552000  3
   4715   4716   4728   4729     1  0.0000000  0.6508444  3
   4715   4716   4728   4730     1  0.0000000  0.6508444  3
   4715   4717   4719   4721     1  0.0000000  0.6508444  3
   4715   4717   4719   4722     1  0.0000000  0.6508444  3
   4716   4715   4717   4718     1  0.0000000  1.2552000  3
   4716   4715   4717   4720     1  0.0000000  1.2552000  3
   4717   4715   4716   4726     1  0.0000000  1.2552000  3
   4717   4715   4716   4727     1  0.0000000  1.2552000  3
   4718   4717   4719   4723     1  0.0000000  0.6508444  3
   4718   4717   4719   4721     1  0.0000000  0.6508444  3
   4718   4717   4719   4722     1  0.0000000  0.6508444  3
   4719   4723   4724   4734     1  180.0000771  9.6232000  2
   4720   4717   4719   4723     1  0.0000000  0.6508444  3
   4720   4717   4719   4721     1  0.0000000  0.6508444  3
   4720   4717   4719   4722     1  0.0000000  0.6508444  3
   4721   4719   4723   4724     1  180.0000771  0.0000000  2
   4721   4719   4723   4725     1  0.0000000  3.3472000  1
   4721   4719   4723   4725     1  0.0000000  0.0000000  2
   4721   4719   4723   4725     1  180.0000771  0.3347200  3
   4722   4719   4723   4724     1  180.0000771  0.0000000  2
   4722   4719   4723   4725     1  0.0000000  3.3472000  1
   4722   4719   4723   4725     1  0.0000000  0.0000000  2
   4722   4719   4723   4725     1  180.0000771  0.3347200  3
   4725   4723   4724   4734     1  0.0000000  7.9496000  1
   4725   4723   4724   4734     1  180.0000771  9.6232000  2
   4726   4716   4728   4731     1  0.0000000  0.6508444  3
   4726   4716   4728   4729     1  0.0000000  0.6508444  3
   4726   4716   4728   4730     1  0.0000000  0.6508444  3
   4727   4716   4728   4731     1  0.0000000  0.6508444  3
   4727   4716   4728   4729     1  0.0000000  0.6508444  3
   4727   4716   4728   4730     1  0.0000000  0.6508444  3
   4728   4731   4733   4735     1  180.0000771  9.6232000  2
   4729   4728   4731   4732     1  0.0000000  3.3472000  1
   4729   4728   4731   4732     1  0.0000000  0.0000000  2
   4729   4728   4731   4732     1  180.0000771  0.3347200  3
   4729   4728   4731   4733     1  180.0000771  0.0000000  2
   4730   4728   4731   4732     1  0.0000000  3.3472000  1
   4730   4728   4731   4732     1  0.0000000  0.0000000  2
   4730   4728   4731   4732     1  180.0000771  0.3347200  3
   4730   4728   4731   4733     1  180.0000771  0.0000000  2
   4732   4731   4733   4735     1  0.0000000  7.9496000  1
   4732   4731   4733   4735     1  180.0000771  9.6232000  2
   4736   4738   4740   4742     1  0.0000000  0.6508444  3
   4736   4738   4740   4743     1  0.0000000  0.6508444  3
   4737   4736   4738   4740     1  0.0000000  0.0000000  2
   4737   4736   4738   4739     1  0.0000000  0.0000000  2
   4737   4736   4738   4741     1  0.0000000  0.0000000  2
   4739   4738   4740   4744     1  0.0000000  0.6508444  3
   4739   4738   4740   4742     1  0.0000000  0.6508444  3
   4739   4738   4740   4743     1  0.0000000  0.6508444  3
   4740   4744   4745   4755     1  0.0000000  1.2552000  3
   4740   4744   4745   4756     1  0.0000000  1.2552000  3
   4740   4744   4746   4747     1  0.0000000  1.2552000  3
   4740   4744   4746   4749     1  0.0000000  1.2552000  3
   4741   4738   4740   4744     1  0.0000000  0.6508444  3
   4741   4738   4740   4742     1  0.0000000  0.6508444  3
   4741   4738   4740   4743     1  0.0000000  0.6508444  3
   4742   4740   4744   4745     1  0.0000000  1.2552000  3
   4742   4740   4744   4746     1  0.0000000  1.2552000  3
   4743   4740   4744   4745     1  0.0000000  1.2552000  3
   4743   4740   4744   4746     1  0.0000000  1.2552000  3
   4744   4745   4757   4758     1  0.0000000  0.6508444  3
   4744   4745   4757   4759     1  0.0000000  0.6508444  3
   4744   4746   4748   4750     1  0.0000000  0.6508444  3
   4744   4746   4748   4751     1  0.0000000  0.6508444  3
   4745   4744   4746   4747     1  0.0000000  1.2552000  3
   4745   4744   4746   4749     1  0.0000000  1.2552000  3
   4746   4744   4745   4755     1  0.0000000  1.2552000  3
   4746   4744   4745   4756     1  0.0000000  1.2552000  3
   4747   4746   4748   4752     1  0.0000000  0.6508444  3
   4747   4746   4748   4750     1  0.0000000  0.6508444  3
   4747   4746   4748   4751     1  0.0000000  0.6508444  3
   4748   4752   4753   4763     1  180.0000771  9.6232000  2
   4749   4746   4748   4752     1  0.0000000  0.6508444  3
   4749   4746   4748   4750     1  0.0000000  0.6508444  3
   4749   4746   4748   4751     1  0.0000000  0.6508444  3
   4750   4748   4752   4753     1  180.0000771  0.0000000  2
   4750   4748   4752   4754     1  0.0000000  3.3472000  1
   4750   4748   4752   4754     1  0.0000000  0.0000000  2
   4750   4748   4752   4754     1  180.0000771  0.3347200  3
   4751   4748   4752   4753     1  180.0000771  0.0000000  2
   4751   4748   4752   4754     1  0.0000000  3.3472000  1
   4751   4748   4752   4754     1  0.0000000  0.0000000  2
   4751   4748   4752   4754     1  180.0000771  0.3347200  3
   4754   4752   4753   4763     1  0.0000000  7.9496000  1
   4754   4752   4753   4763     1  180.0000771  9.6232000  2
   4755   4745   4757   4760     1  0.0000000  0.6508444  3
   4755   4745   4757   4758     1  0.0000000  0.6508444  3
   4755   4745   4757   4759     1  0.0000000  0.6508444  3
   4756   4745   4757   4760     1  0.0000000  0.6508444  3
   4756   4745   4757   4758     1  0.0000000  0.6508444  3
   4756   4745   4757   4759     1  0.0000000  0.6508444  3
   4757   4760   4762   4764     1  180.0000771  9.6232000  2
   4758   4757   4760   4761     1  0.0000000  3.3472000  1
   4758   4757   4760   4761     1  0.0000000  0.0000000  2
   4758   4757   4760   4761     1  180.0000771  0.3347200  3
   4758   4757   4760   4762     1  180.0000771  0.0000000  2
   4759   4757   4760   4761     1  0.0000000  3.3472000  1
   4759   4757   4760   4761     1  0.0000000  0.0000000  2
   4759   4757   4760   4761     1  180.0000771  0.3347200  3
   4759   4757   4760   4762     1  180.0000771  0.0000000  2
   4761   4760   4762   4764     1  0.0000000  7.9496000  1
   4761   4760   4762   4764     1  180.0000771  9.6232000  2
   4765   4767   4769   4771     1  0.0000000  0.6508444  3
   4765   4767   4769   4772     1  0.0000000  0.6508444  3
   4766   4765   4767   4769     1  0.0000000  0.0000000  2
   4766   4765   4767   4768     1  0.0000000  0.0000000  2
   4766   4765   4767   4770     1  0.0000000  0.0000000  2
   4768   4767   4769   4773     1  0.0000000  0.6508444  3
   4768   4767   4769   4771     1  0.0000000  0.6508444  3
   4768   4767   4769   4772     1  0.0000000  0.6508444  3
   4769   4773   4774   4784     1  0.0000000  1.2552000  3
   4769   4773   4774   4785     1  0.0000000  1.2552000  3
   4769   4773   4775   4776     1  0.0000000  1.2552000  3
   4769   4773   4775   4778     1  0.0000000  1.2552000  3
   4770   4767   4769   4773     1  0.0000000  0.6508444  3
   4770   4767   4769   4771     1  0.0000000  0.6508444  3
   4770   4767   4769   4772     1  0.0000000  0.6508444  3
   4771   4769   4773   4774     1  0.0000000  1.2552000  3
   4771   4769   4773   4775     1  0.0000000  1.2552000  3
   4772   4769   4773   4774     1  0.0000000  1.2552000  3
   4772   4769   4773   4775     1  0.0000000  1.2552000  3
   4773   4774   4786   4787     1  0.0000000  0.6508444  3
   4773   4774   4786   4788     1  0.0000000  0.6508444  3
   4773   4775   4777   4779     1  0.0000000  0.6508444  3
   4773   4775   4777   4780     1  0.0000000  0.6508444  3
   4774   4773   4775   4776     1  0.0000000  1.2552000  3
   4774   4773   4775   4778     1  0.0000000  1.2552000  3
   4775   4773   4774   4784     1  0.0000000  1.2552000  3
   4775   4773   4774   4785     1  0.0000000  1.2552000  3
   4776   4775   4777   4781     1  0.0000000  0.6508444  3
   4776   4775   4777   4779     1  0.0000000  0.6508444  3
   4776   4775   4777   4780     1  0.0000000  0.6508444  3
   4777   4781   4782   4792     1  180.0000771  9.6232000  2
   4778   4775   4777   4781     1  0.0000000  0.6508444  3
   4778   4775   4777   4779     1  0.0000000  0.6508444  3
   4778   4775   4777   4780     1  0.0000000  0.6508444  3
   4779   4777   4781   4782     1  180.0000771  0.0000000  2
   4779   4777   4781   4783     1  0.0000000  3.3472000  1
   4779   4777   4781   4783     1  0.0000000  0.0000000  2
   4779   4777   4781   4783     1  180.0000771  0.3347200  3
   4780   4777   4781   4782     1  180.0000771  0.0000000  2
   4780   4777   4781   4783     1  0.0000000  3.3472000  1
   4780   4777   4781   4783     1  0.0000000  0.0000000  2
   4780   4777   4781   4783     1  180.0000771  0.3347200  3
   4783   4781   4782   4792     1  0.0000000  7.9496000  1
   4783   4781   4782   4792     1  180.0000771  9.6232000  2
   4784   4774   4786   4789     1  0.0000000  0.6508444  3
   4784   4774   4786   4787     1  0.0000000  0.6508444  3
   4784   4774   4786   4788     1  0.0000000  0.6508444  3
   4785   4774   4786   4789     1  0.0000000  0.6508444  3
   4785   4774   4786   4787     1  0.0000000  0.6508444  3
   4785   4774   4786   4788     1  0.0000000  0.6508444  3
   4786   4789   4791   4793     1  180.0000771  9.6232000  2
   4787   4786   4789   4790     1  0.0000000  3.3472000  1
   4787   4786   4789   4790     1  0.0000000  0.0000000  2
   4787   4786   4789   4790     1  180.0000771  0.3347200  3
   4787   4786   4789   4791     1  180.0000771  0.0000000  2
   4788   4786   4789   4790     1  0.0000000  3.3472000  1
   4788   4786   4789   4790     1  0.0000000  0.0000000  2
   4788   4786   4789   4790     1  180.0000771  0.3347200  3
   4788   4786   4789   4791     1  180.0000771  0.0000000  2
   4790   4789   4791   4793     1  0.0000000  7.9496000  1
   4790   4789   4791   4793     1  180.0000771  9.6232000  2
   4794   4796   4798   4800     1  0.0000000  0.6508444  3
   4794   4796   4798   4801     1  0.0000000  0.6508444  3
   4795   4794   4796   4798     1  0.0000000  0.0000000  2
   4795   4794   4796   4797     1  0.0000000  0.0000000  2
   4795   4794   4796   4799     1  0.0000000  0.0000000  2
   4797   4796   4798   4802     1  0.0000000  0.6508444  3
   4797   4796   4798   4800     1  0.0000000  0.6508444  3
   4797   4796   4798   4801     1  0.0000000  0.6508444  3
   4798   4802   4803   4813     1  0.0000000  1.2552000  3
   4798   4802   4803   4814     1  0.0000000  1.2552000  3
   4798   4802   4804   4805     1  0.0000000  1.2552000  3
   4798   4802   4804   4807     1  0.0000000  1.2552000  3
   4799   4796   4798   4802     1  0.0000000  0.6508444  3
   4799   4796   4798   4800     1  0.0000000  0.6508444  3
   4799   4796   4798   4801     1  0.0000000  0.6508444  3
   4800   4798   4802   4803     1  0.0000000  1.2552000  3
   4800   4798   4802   4804     1  0.0000000  1.2552000  3
   4801   4798   4802   4803     1  0.0000000  1.2552000  3
   4801   4798   4802   4804     1  0.0000000  1.2552000  3
   4802   4803   4815   4816     1  0.0000000  0.6508444  3
   4802   4803   4815   4817     1  0.0000000  0.6508444  3
   4802   4804   4806   4808     1  0.0000000  0.6508444  3
   4802   4804   4806   4809     1  0.0000000  0.6508444  3
   4803   4802   4804   4805     1  0.0000000  1.2552000  3
   4803   4802   4804   4807     1  0.0000000  1.2552000  3
   4804   4802   4803   4813     1  0.0000000  1.2552000  3
   4804   4802   4803   4814     1  0.0000000  1.2552000  3
   4805   4804   4806   4810     1  0.0000000  0.6508444  3
   4805   4804   4806   4808     1  0.0000000  0.6508444  3
   4805   4804   4806   4809     1  0.0000000  0.6508444  3
   4806   4810   4811   4821     1  180.0000771  9.6232000  2
   4807   4804   4806   4810     1  0.0000000  0.6508444  3
   4807   4804   4806   4808     1  0.0000000  0.6508444  3
   4807   4804   4806   4809     1  0.0000000  0.6508444  3
   4808   4806   4810   4811     1  180.0000771  0.0000000  2
   4808   4806   4810   4812     1  0.0000000  3.3472000  1
   4808   4806   4810   4812     1  0.0000000  0.0000000  2
   4808   4806   4810   4812     1  180.0000771  0.3347200  3
   4809   4806   4810   4811     1  180.0000771  0.0000000  2
   4809   4806   4810   4812     1  0.0000000  3.3472000  1
   4809   4806   4810   4812     1  0.0000000  0.0000000  2
   4809   4806   4810   4812     1  180.0000771  0.3347200  3
   4812   4810   4811   4821     1  0.0000000  7.9496000  1
   4812   4810   4811   4821     1  180.0000771  9.6232000  2
   4813   4803   4815   4818     1  0.0000000  0.6508444  3
   4813   4803   4815   4816     1  0.0000000  0.6508444  3
   4813   4803   4815   4817     1  0.0000000  0.6508444  3
   4814   4803   4815   4818     1  0.0000000  0.6508444  3
   4814   4803   4815   4816     1  0.0000000  0.6508444  3
   4814   4803   4815   4817     1  0.0000000  0.6508444  3
   4815   4818   4820   4822     1  180.0000771  9.6232000  2
   4816   4815   4818   4819     1  0.0000000  3.3472000  1
   4816   4815   4818   4819     1  0.0000000  0.0000000  2
   4816   4815   4818   4819     1  180.0000771  0.3347200  3
   4816   4815   4818   4820     1  180.0000771  0.0000000  2
   4817   4815   4818   4819     1  0.0000000  3.3472000  1
   4817   4815   4818   4819     1  0.0000000  0.0000000  2
   4817   4815   4818   4819     1  180.0000771  0.3347200  3
   4817   4815   4818   4820     1  180.0000771  0.0000000  2
   4819   4818   4820   4822     1  0.0000000  7.9496000  1
   4819   4818   4820   4822     1  180.0000771  9.6232000  2
   4823   4825   4827   4829     1  0.0000000  0.6508444  3
   4823   4825   4827   4830     1  0.0000000  0.6508444  3
   4824   4823   4825   4827     1  0.0000000  0.0000000  2
   4824   4823   4825   4826     1  0.0000000  0.0000000  2
   4824   4823   4825   4828     1  0.0000000  0.0000000  2
   4826   4825   4827   4831     1  0.0000000  0.6508444  3
   4826   4825   4827   4829     1  0.0000000  0.6508444  3
   4826   4825   4827   4830     1  0.0000000  0.6508444  3
   4827   4831   4832   4842     1  0.0000000  1.2552000  3
   4827   4831   4832   4843     1  0.0000000  1.2552000  3
   4827   4831   4833   4834     1  0.0000000  1.2552000  3
   4827   4831   4833   4836     1  0.0000000  1.2552000  3
   4828   4825   4827   4831     1  0.0000000  0.6508444  3
   4828   4825   4827   4829     1  0.0000000  0.6508444  3
   4828   4825   4827   4830     1  0.0000000  0.6508444  3
   4829   4827   4831   4832     1  0.0000000  1.2552000  3
   4829   4827   4831   4833     1  0.0000000  1.2552000  3
   4830   4827   4831   4832     1  0.0000000  1.2552000  3
   4830   4827   4831   4833     1  0.0000000  1.2552000  3
   4831   4832   4844   4845     1  0.0000000  0.6508444  3
   4831   4832   4844   4846     1  0.0000000  0.6508444  3
   4831   4833   4835   4837     1  0.0000000  0.6508444  3
   4831   4833   4835   4838     1  0.0000000  0.6508444  3
   4832   4831   4833   4834     1  0.0000000  1.2552000  3
   4832   4831   4833   4836     1  0.0000000  1.2552000  3
   4833   4831   4832   4842     1  0.0000000  1.2552000  3
   4833   4831   4832   4843     1  0.0000000  1.2552000  3
   4834   4833   4835   4839     1  0.0000000  0.6508444  3
   4834   4833   4835   4837     1  0.0000000  0.6508444  3
   4834   4833   4835   4838     1  0.0000000  0.6508444  3
   4835   4839   4840   4850     1  180.0000771  9.6232000  2
   4836   4833   4835   4839     1  0.0000000  0.6508444  3
   4836   4833   4835   4837     1  0.0000000  0.6508444  3
   4836   4833   4835   4838     1  0.0000000  0.6508444  3
   4837   4835   4839   4840     1  180.0000771  0.0000000  2
   4837   4835   4839   4841     1  0.0000000  3.3472000  1
   4837   4835   4839   4841     1  0.0000000  0.0000000  2
   4837   4835   4839   4841     1  180.0000771  0.3347200  3
   4838   4835   4839   4840     1  180.0000771  0.0000000  2
   4838   4835   4839   4841     1  0.0000000  3.3472000  1
   4838   4835   4839   4841     1  0.0000000  0.0000000  2
   4838   4835   4839   4841     1  180.0000771  0.3347200  3
   4841   4839   4840   4850     1  0.0000000  7.9496000  1
   4841   4839   4840   4850     1  180.0000771  9.6232000  2
   4842   4832   4844   4847     1  0.0000000  0.6508444  3
   4842   4832   4844   4845     1  0.0000000  0.6508444  3
   4842   4832   4844   4846     1  0.0000000  0.6508444  3
   4843   4832   4844   4847     1  0.0000000  0.6508444  3
   4843   4832   4844   4845     1  0.0000000  0.6508444  3
   4843   4832   4844   4846     1  0.0000000  0.6508444  3
   4844   4847   4849   4851     1  180.0000771  9.6232000  2
   4845   4844   4847   4848     1  0.0000000  3.3472000  1
   4845   4844   4847   4848     1  0.0000000  0.0000000  2
   4845   4844   4847   4848     1  180.0000771  0.3347200  3
   4845   4844   4847   4849     1  180.0000771  0.0000000  2
   4846   4844   4847   4848     1  0.0000000  3.3472000  1
   4846   4844   4847   4848     1  0.0000000  0.0000000  2
   4846   4844   4847   4848     1  180.0000771  0.3347200  3
   4846   4844   4847   4849     1  180.0000771  0.0000000  2
   4848   4847   4849   4851     1  0.0000000  7.9496000  1
   4848   4847   4849   4851     1  180.0000771  9.6232000  2
   4852   4854   4856   4858     1  0.0000000  0.6508444  3
   4852   4854   4856   4859     1  0.0000000  0.6508444  3
   4853   4852   4854   4856     1  0.0000000  0.0000000  2
   4853   4852   4854   4855     1  0.0000000  0.0000000  2
   4853   4852   4854   4857     1  0.0000000  0.0000000  2
   4855   4854   4856   4860     1  0.0000000  0.6508444  3
   4855   4854   4856   4858     1  0.0000000  0.6508444  3
   4855   4854   4856   4859     1  0.0000000  0.6508444  3
   4856   4860   4861   4871     1  0.0000000  1.2552000  3
   4856   4860   4861   4872     1  0.0000000  1.2552000  3
   4856   4860   4862   4863     1  0.0000000  1.2552000  3
   4856   4860   4862   4865     1  0.0000000  1.2552000  3
   4857   4854   4856   4860     1  0.0000000  0.6508444  3
   4857   4854   4856   4858     1  0.0000000  0.6508444  3
   4857   4854   4856   4859     1  0.0000000  0.6508444  3
   4858   4856   4860   4861     1  0.0000000  1.2552000  3
   4858   4856   4860   4862     1  0.0000000  1.2552000  3
   4859   4856   4860   4861     1  0.0000000  1.2552000  3
   4859   4856   4860   4862     1  0.0000000  1.2552000  3
   4860   4861   4873   4874     1  0.0000000  0.6508444  3
   4860   4861   4873   4875     1  0.0000000  0.6508444  3
   4860   4862   4864   4866     1  0.0000000  0.6508444  3
   4860   4862   4864   4867     1  0.0000000  0.6508444  3
   4861   4860   4862   4863     1  0.0000000  1.2552000  3
   4861   4860   4862   4865     1  0.0000000  1.2552000  3
   4862   4860   4861   4871     1  0.0000000  1.2552000  3
   4862   4860   4861   4872     1  0.0000000  1.2552000  3
   4863   4862   4864   4868     1  0.0000000  0.6508444  3
   4863   4862   4864   4866     1  0.0000000  0.6508444  3
   4863   4862   4864   4867     1  0.0000000  0.6508444  3
   4864   4868   4869   4879     1  180.0000771  9.6232000  2
   4865   4862   4864   4868     1  0.0000000  0.6508444  3
   4865   4862   4864   4866     1  0.0000000  0.6508444  3
   4865   4862   4864   4867     1  0.0000000  0.6508444  3
   4866   4864   4868   4869     1  180.0000771  0.0000000  2
   4866   4864   4868   4870     1  0.0000000  3.3472000  1
   4866   4864   4868   4870     1  0.0000000  0.0000000  2
   4866   4864   4868   4870     1  180.0000771  0.3347200  3
   4867   4864   4868   4869     1  180.0000771  0.0000000  2
   4867   4864   4868   4870     1  0.0000000  3.3472000  1
   4867   4864   4868   4870     1  0.0000000  0.0000000  2
   4867   4864   4868   4870     1  180.0000771  0.3347200  3
   4870   4868   4869   4879     1  0.0000000  7.9496000  1
   4870   4868   4869   4879     1  180.0000771  9.6232000  2
   4871   4861   4873   4876     1  0.0000000  0.6508444  3
   4871   4861   4873   4874     1  0.0000000  0.6508444  3
   4871   4861   4873   4875     1  0.0000000  0.6508444  3
   4872   4861   4873   4876     1  0.0000000  0.6508444  3
   4872   4861   4873   4874     1  0.0000000  0.6508444  3
   4872   4861   4873   4875     1  0.0000000  0.6508444  3
   4873   4876   4878   4880     1  180.0000771  9.6232000  2
   4874   4873   4876   4877     1  0.0000000  3.3472000  1
   4874   4873   4876   4877     1  0.0000000  0.0000000  2
   4874   4873   4876   4877     1  180.0000771  0.3347200  3
   4874   4873   4876   4878     1  180.0000771  0.0000000  2
   4875   4873   4876   4877     1  0.0000000  3.3472000  1
   4875   4873   4876   4877     1  0.0000000  0.0000000  2
   4875   4873   4876   4877     1  180.0000771  0.3347200  3
   4875   4873   4876   4878     1  180.0000771  0.0000000  2
   4877   4876   4878   4880     1  0.0000000  7.9496000  1
   4877   4876   4878   4880     1  180.0000771  9.6232000  2
   4881   4883   4885   4887     1  0.0000000  0.6508444  3
   4881   4883   4885   4888     1  0.0000000  0.6508444  3
   4882   4881   4883   4885     1  0.0000000  0.0000000  2
   4882   4881   4883   4884     1  0.0000000  0.0000000  2
   4882   4881   4883   4886     1  0.0000000  0.0000000  2
   4884   4883   4885   4889     1  0.0000000  0.6508444  3
   4884   4883   4885   4887     1  0.0000000  0.6508444  3
   4884   4883   4885   4888     1  0.0000000  0.6508444  3
   4885   4889   4890   4900     1  0.0000000  1.2552000  3
   4885   4889   4890   4901     1  0.0000000  1.2552000  3
   4885   4889   4891   4892     1  0.0000000  1.2552000  3
   4885   4889   4891   4894     1  0.0000000  1.2552000  3
   4886   4883   4885   4889     1  0.0000000  0.6508444  3
   4886   4883   4885   4887     1  0.0000000  0.6508444  3
   4886   4883   4885   4888     1  0.0000000  0.6508444  3
   4887   4885   4889   4890     1  0.0000000  1.2552000  3
   4887   4885   4889   4891     1  0.0000000  1.2552000  3
   4888   4885   4889   4890     1  0.0000000  1.2552000  3
   4888   4885   4889   4891     1  0.0000000  1.2552000  3
   4889   4890   4902   4903     1  0.0000000  0.6508444  3
   4889   4890   4902   4904     1  0.0000000  0.6508444  3
   4889   4891   4893   4895     1  0.0000000  0.6508444  3
   4889   4891   4893   4896     1  0.0000000  0.6508444  3
   4890   4889   4891   4892     1  0.0000000  1.2552000  3
   4890   4889   4891   4894     1  0.0000000  1.2552000  3
   4891   4889   4890   4900     1  0.0000000  1.2552000  3
   4891   4889   4890   4901     1  0.0000000  1.2552000  3
   4892   4891   4893   4897     1  0.0000000  0.6508444  3
   4892   4891   4893   4895     1  0.0000000  0.6508444  3
   4892   4891   4893   4896     1  0.0000000  0.6508444  3
   4893   4897   4898   4908     1  180.0000771  9.6232000  2
   4894   4891   4893   4897     1  0.0000000  0.6508444  3
   4894   4891   4893   4895     1  0.0000000  0.6508444  3
   4894   4891   4893   4896     1  0.0000000  0.6508444  3
   4895   4893   4897   4898     1  180.0000771  0.0000000  2
   4895   4893   4897   4899     1  0.0000000  3.3472000  1
   4895   4893   4897   4899     1  0.0000000  0.0000000  2
   4895   4893   4897   4899     1  180.0000771  0.3347200  3
   4896   4893   4897   4898     1  180.0000771  0.0000000  2
   4896   4893   4897   4899     1  0.0000000  3.3472000  1
   4896   4893   4897   4899     1  0.0000000  0.0000000  2
   4896   4893   4897   4899     1  180.0000771  0.3347200  3
   4899   4897   4898   4908     1  0.0000000  7.9496000  1
   4899   4897   4898   4908     1  180.0000771  9.6232000  2
   4900   4890   4902   4905     1  0.0000000  0.6508444  3
   4900   4890   4902   4903     1  0.0000000  0.6508444  3
   4900   4890   4902   4904     1  0.0000000  0.6508444  3
   4901   4890   4902   4905     1  0.0000000  0.6508444  3
   4901   4890   4902   4903     1  0.0000000  0.6508444  3
   4901   4890   4902   4904     1  0.0000000  0.6508444  3
   4902   4905   4907   4909     1  180.0000771  9.6232000  2
   4903   4902   4905   4906     1  0.0000000  3.3472000  1
   4903   4902   4905   4906     1  0.0000000  0.0000000  2
   4903   4902   4905   4906     1  180.0000771  0.3347200  3
   4903   4902   4905   4907     1  180.0000771  0.0000000  2
   4904   4902   4905   4906     1  0.0000000  3.3472000  1
   4904   4902   4905   4906     1  0.0000000  0.0000000  2
   4904   4902   4905   4906     1  180.0000771  0.3347200  3
   4904   4902   4905   4907     1  180.0000771  0.0000000  2
   4906   4905   4907   4909     1  0.0000000  7.9496000  1
   4906   4905   4907   4909     1  180.0000771  9.6232000  2
   4910   4912   4914   4916     1  0.0000000  0.6508444  3
   4910   4912   4914   4917     1  0.0000000  0.6508444  3
   4911   4910   4912   4914     1  0.0000000  0.0000000  2
   4911   4910   4912   4913     1  0.0000000  0.0000000  2
   4911   4910   4912   4915     1  0.0000000  0.0000000  2
   4913   4912   4914   4918     1  0.0000000  0.6508444  3
   4913   4912   4914   4916     1  0.0000000  0.6508444  3
   4913   4912   4914   4917     1  0.0000000  0.6508444  3
   4914   4918   4919   4929     1  0.0000000  1.2552000  3
   4914   4918   4919   4930     1  0.0000000  1.2552000  3
   4914   4918   4920   4921     1  0.0000000  1.2552000  3
   4914   4918   4920   4923     1  0.0000000  1.2552000  3
   4915   4912   4914   4918     1  0.0000000  0.6508444  3
   4915   4912   4914   4916     1  0.0000000  0.6508444  3
   4915   4912   4914   4917     1  0.0000000  0.6508444  3
   4916   4914   4918   4919     1  0.0000000  1.2552000  3
   4916   4914   4918   4920     1  0.0000000  1.2552000  3
   4917   4914   4918   4919     1  0.0000000  1.2552000  3
   4917   4914   4918   4920     1  0.0000000  1.2552000  3
   4918   4919   4931   4932     1  0.0000000  0.6508444  3
   4918   4919   4931   4933     1  0.0000000  0.6508444  3
   4918   4920   4922   4924     1  0.0000000  0.6508444  3
   4918   4920   4922   4925     1  0.0000000  0.6508444  3
   4919   4918   4920   4921     1  0.0000000  1.2552000  3
   4919   4918   4920   4923     1  0.0000000  1.2552000  3
   4920   4918   4919   4929     1  0.0000000  1.2552000  3
   4920   4918   4919   4930     1  0.0000000  1.2552000  3
   4921   4920   4922   4926     1  0.0000000  0.6508444  3
   4921   4920   4922   4924     1  0.0000000  0.6508444  3
   4921   4920   4922   4925     1  0.0000000  0.6508444  3
   4922   4926   4927   4937     1  180.0000771  9.6232000  2
   4923   4920   4922   4926     1  0.0000000  0.6508444  3
   4923   4920   4922   4924     1  0.0000000  0.6508444  3
   4923   4920   4922   4925     1  0.0000000  0.6508444  3
   4924   4922   4926   4927     1  180.0000771  0.0000000  2
   4924   4922   4926   4928     1  0.0000000  3.3472000  1
   4924   4922   4926   4928     1  0.0000000  0.0000000  2
   4924   4922   4926   4928     1  180.0000771  0.3347200  3
   4925   4922   4926   4927     1  180.0000771  0.0000000  2
   4925   4922   4926   4928     1  0.0000000  3.3472000  1
   4925   4922   4926   4928     1  0.0000000  0.0000000  2
   4925   4922   4926   4928     1  180.0000771  0.3347200  3
   4928   4926   4927   4937     1  0.0000000  7.9496000  1
   4928   4926   4927   4937     1  180.0000771  9.6232000  2
   4929   4919   4931   4934     1  0.0000000  0.6508444  3
   4929   4919   4931   4932     1  0.0000000  0.6508444  3
   4929   4919   4931   4933     1  0.0000000  0.6508444  3
   4930   4919   4931   4934     1  0.0000000  0.6508444  3
   4930   4919   4931   4932     1  0.0000000  0.6508444  3
   4930   4919   4931   4933     1  0.0000000  0.6508444  3
   4931   4934   4936   4938     1  180.0000771  9.6232000  2
   4932   4931   4934   4935     1  0.0000000  3.3472000  1
   4932   4931   4934   4935     1  0.0000000  0.0000000  2
   4932   4931   4934   4935     1  180.0000771  0.3347200  3
   4932   4931   4934   4936     1  180.0000771  0.0000000  2
   4933   4931   4934   4935     1  0.0000000  3.3472000  1
   4933   4931   4934   4935     1  0.0000000  0.0000000  2
   4933   4931   4934   4935     1  180.0000771  0.3347200  3
   4933   4931   4934   4936     1  180.0000771  0.0000000  2
   4935   4934   4936   4938     1  0.0000000  7.9496000  1
   4935   4934   4936   4938     1  180.0000771  9.6232000  2
   4939   4941   4943   4945     1  0.0000000  0.6508444  3
   4939   4941   4943   4946     1  0.0000000  0.6508444  3
   4940   4939   4941   4943     1  0.0000000  0.0000000  2
   4940   4939   4941   4942     1  0.0000000  0.0000000  2
   4940   4939   4941   4944     1  0.0000000  0.0000000  2
   4942   4941   4943   4947     1  0.0000000  0.6508444  3
   4942   4941   4943   4945     1  0.0000000  0.6508444  3
   4942   4941   4943   4946     1  0.0000000  0.6508444  3
   4943   4947   4948   4958     1  0.0000000  1.2552000  3
   4943   4947   4948   4959     1  0.0000000  1.2552000  3
   4943   4947   4949   4950     1  0.0000000  1.2552000  3
   4943   4947   4949   4952     1  0.0000000  1.2552000  3
   4944   4941   4943   4947     1  0.0000000  0.6508444  3
   4944   4941   4943   4945     1  0.0000000  0.6508444  3
   4944   4941   4943   4946     1  0.0000000  0.6508444  3
   4945   4943   4947   4948     1  0.0000000  1.2552000  3
   4945   4943   4947   4949     1  0.0000000  1.2552000  3
   4946   4943   4947   4948     1  0.0000000  1.2552000  3
   4946   4943   4947   4949     1  0.0000000  1.2552000  3
   4947   4948   4960   4961     1  0.0000000  0.6508444  3
   4947   4948   4960   4962     1  0.0000000  0.6508444  3
   4947   4949   4951   4953     1  0.0000000  0.6508444  3
   4947   4949   4951   4954     1  0.0000000  0.6508444  3
   4948   4947   4949   4950     1  0.0000000  1.2552000  3
   4948   4947   4949   4952     1  0.0000000  1.2552000  3
   4949   4947   4948   4958     1  0.0000000  1.2552000  3
   4949   4947   4948   4959     1  0.0000000  1.2552000  3
   4950   4949   4951   4955     1  0.0000000  0.6508444  3
   4950   4949   4951   4953     1  0.0000000  0.6508444  3
   4950   4949   4951   4954     1  0.0000000  0.6508444  3
   4951   4955   4956   4966     1  180.0000771  9.6232000  2
   4952   4949   4951   4955     1  0.0000000  0.6508444  3
   4952   4949   4951   4953     1  0.0000000  0.6508444  3
   4952   4949   4951   4954     1  0.0000000  0.6508444  3
   4953   4951   4955   4956     1  180.0000771  0.0000000  2
   4953   4951   4955   4957     1  0.0000000  3.3472000  1
   4953   4951   4955   4957     1  0.0000000  0.0000000  2
   4953   4951   4955   4957     1  180.0000771  0.3347200  3
   4954   4951   4955   4956     1  180.0000771  0.0000000  2
   4954   4951   4955   4957     1  0.0000000  3.3472000  1
   4954   4951   4955   4957     1  0.0000000  0.0000000  2
   4954   4951   4955   4957     1  180.0000771  0.3347200  3
   4957   4955   4956   4966     1  0.0000000  7.9496000  1
   4957   4955   4956   4966     1  180.0000771  9.6232000  2
   4958   4948   4960   4963     1  0.0000000  0.6508444  3
   4958   4948   4960   4961     1  0.0000000  0.6508444  3
   4958   4948   4960   4962     1  0.0000000  0.6508444  3
   4959   4948   4960   4963     1  0.0000000  0.6508444  3
   4959   4948   4960   4961     1  0.0000000  0.6508444  3
   4959   4948   4960   4962     1  0.0000000  0.6508444  3
   4960   4963   4965   4967     1  180.0000771  9.6232000  2
   4961   4960   4963   4964     1  0.0000000  3.3472000  1
   4961   4960   4963   4964     1  0.0000000  0.0000000  2
   4961   4960   4963   4964     1  180.0000771  0.3347200  3
   4961   4960   4963   4965     1  180.0000771  0.0000000  2
   4962   4960   4963   4964     1  0.0000000  3.3472000  1
   4962   4960   4963   4964     1  0.0000000  0.0000000  2
   4962   4960   4963   4964     1  180.0000771  0.3347200  3
   4962   4960   4963   4965     1  180.0000771  0.0000000  2
   4964   4963   4965   4967     1  0.0000000  7.9496000  1
   4964   4963   4965   4967     1  180.0000771  9.6232000  2
   4968   4970   4972   4974     1  0.0000000  0.6508444  3
   4968   4970   4972   4975     1  0.0000000  0.6508444  3
   4969   4968   4970   4972     1  0.0000000  0.0000000  2
   4969   4968   4970   4971     1  0.0000000  0.0000000  2
   4969   4968   4970   4973     1  0.0000000  0.0000000  2
   4971   4970   4972   4976     1  0.0000000  0.6508444  3
   4971   4970   4972   4974     1  0.0000000  0.6508444  3
   4971   4970   4972   4975     1  0.0000000  0.6508444  3
   4972   4976   4977   4987     1  0.0000000  1.2552000  3
   4972   4976   4977   4988     1  0.0000000  1.2552000  3
   4972   4976   4978   4979     1  0.0000000  1.2552000  3
   4972   4976   4978   4981     1  0.0000000  1.2552000  3
   4973   4970   4972   4976     1  0.0000000  0.6508444  3
   4973   4970   4972   4974     1  0.0000000  0.6508444  3
   4973   4970   4972   4975     1  0.0000000  0.6508444  3
   4974   4972   4976   4977     1  0.0000000  1.2552000  3
   4974   4972   4976   4978     1  0.0000000  1.2552000  3
   4975   4972   4976   4977     1  0.0000000  1.2552000  3
   4975   4972   4976   4978     1  0.0000000  1.2552000  3
   4976   4977   4989   4990     1  0.0000000  0.6508444  3
   4976   4977   4989   4991     1  0.0000000  0.6508444  3
   4976   4978   4980   4982     1  0.0000000  0.6508444  3
   4976   4978   4980   4983     1  0.0000000  0.6508444  3
   4977   4976   4978   4979     1  0.0000000  1.2552000  3
   4977   4976   4978   4981     1  0.0000000  1.2552000  3
   4978   4976   4977   4987     1  0.0000000  1.2552000  3
   4978   4976   4977   4988     1  0.0000000  1.2552000  3
   4979   4978   4980   4984     1  0.0000000  0.6508444  3
   4979   4978   4980   4982     1  0.0000000  0.6508444  3
   4979   4978   4980   4983     1  0.0000000  0.6508444  3
   4980   4984   4985   4995     1  180.0000771  9.6232000  2
   4981   4978   4980   4984     1  0.0000000  0.6508444  3
   4981   4978   4980   4982     1  0.0000000  0.6508444  3
   4981   4978   4980   4983     1  0.0000000  0.6508444  3
   4982   4980   4984   4985     1  180.0000771  0.0000000  2
   4982   4980   4984   4986     1  0.0000000  3.3472000  1
   4982   4980   4984   4986     1  0.0000000  0.0000000  2
   4982   4980   4984   4986     1  180.0000771  0.3347200  3
   4983   4980   4984   4985     1  180.0000771  0.0000000  2
   4983   4980   4984   4986     1  0.0000000  3.3472000  1
   4983   4980   4984   4986     1  0.0000000  0.0000000  2
   4983   4980   4984   4986     1  180.0000771  0.3347200  3
   4986   4984   4985   4995     1  0.0000000  7.9496000  1
   4986   4984   4985   4995     1  180.0000771  9.6232000  2
   4987   4977   4989   4992     1  0.0000000  0.6508444  3
   4987   4977   4989   4990     1  0.0000000  0.6508444  3
   4987   4977   4989   4991     1  0.0000000  0.6508444  3
   4988   4977   4989   4992     1  0.0000000  0.6508444  3
   4988   4977   4989   4990     1  0.0000000  0.6508444  3
   4988   4977   4989   4991     1  0.0000000  0.6508444  3
   4989   4992   4994   4996     1  180.0000771  9.6232000  2
   4990   4989   4992   4993     1  0.0000000  3.3472000  1
   4990   4989   4992   4993     1  0.0000000  0.0000000  2
   4990   4989   4992   4993     1  180.0000771  0.3347200  3
   4990   4989   4992   4994     1  180.0000771  0.0000000  2
   4991   4989   4992   4993     1  0.0000000  3.3472000  1
   4991   4989   4992   4993     1  0.0000000  0.0000000  2
   4991   4989   4992   4993     1  180.0000771  0.3347200  3
   4991   4989   4992   4994     1  180.0000771  0.0000000  2
   4993   4992   4994   4996     1  0.0000000  7.9496000  1
   4993   4992   4994   4996     1  180.0000771  9.6232000  2
   4997   4999   5001   5003     1  0.0000000  0.6508444  3
   4997   4999   5001   5004     1  0.0000000  0.6508444  3
   4998   4997   4999   5001     1  0.0000000  0.0000000  2
   4998   4997   4999   5000     1  0.0000000  0.0000000  2
   4998   4997   4999   5002     1  0.0000000  0.0000000  2
   5000   4999   5001   5005     1  0.0000000  0.6508444  3
   5000   4999   5001   5003     1  0.0000000  0.6508444  3
   5000   4999   5001   5004     1  0.0000000  0.6508444  3
   5001   5005   5006   5016     1  0.0000000  1.2552000  3
   5001   5005   5006   5017     1  0.0000000  1.2552000  3
   5001   5005   5007   5008     1  0.0000000  1.2552000  3
   5001   5005   5007   5010     1  0.0000000  1.2552000  3
   5002   4999   5001   5005     1  0.0000000  0.6508444  3
   5002   4999   5001   5003     1  0.0000000  0.6508444  3
   5002   4999   5001   5004     1  0.0000000  0.6508444  3
   5003   5001   5005   5006     1  0.0000000  1.2552000  3
   5003   5001   5005   5007     1  0.0000000  1.2552000  3
   5004   5001   5005   5006     1  0.0000000  1.2552000  3
   5004   5001   5005   5007     1  0.0000000  1.2552000  3
   5005   5006   5018   5019     1  0.0000000  0.6508444  3
   5005   5006   5018   5020     1  0.0000000  0.6508444  3
   5005   5007   5009   5011     1  0.0000000  0.6508444  3
   5005   5007   5009   5012     1  0.0000000  0.6508444  3
   5006   5005   5007   5008     1  0.0000000  1.2552000  3
   5006   5005   5007   5010     1  0.0000000  1.2552000  3
   5007   5005   5006   5016     1  0.0000000  1.2552000  3
   5007   5005   5006   5017     1  0.0000000  1.2552000  3
   5008   5007   5009   5013     1  0.0000000  0.6508444  3
   5008   5007   5009   5011     1  0.0000000  0.6508444  3
   5008   5007   5009   5012     1  0.0000000  0.6508444  3
   5009   5013   5014   5024     1  180.0000771  9.6232000  2
   5010   5007   5009   5013     1  0.0000000  0.6508444  3
   5010   5007   5009   5011     1  0.0000000  0.6508444  3
   5010   5007   5009   5012     1  0.0000000  0.6508444  3
   5011   5009   5013   5014     1  180.0000771  0.0000000  2
   5011   5009   5013   5015     1  0.0000000  3.3472000  1
   5011   5009   5013   5015     1  0.0000000  0.0000000  2
   5011   5009   5013   5015     1  180.0000771  0.3347200  3
   5012   5009   5013   5014     1  180.0000771  0.0000000  2
   5012   5009   5013   5015     1  0.0000000  3.3472000  1
   5012   5009   5013   5015     1  0.0000000  0.0000000  2
   5012   5009   5013   5015     1  180.0000771  0.3347200  3
   5015   5013   5014   5024     1  0.0000000  7.9496000  1
   5015   5013   5014   5024     1  180.0000771  9.6232000  2
   5016   5006   5018   5021     1  0.0000000  0.6508444  3
   5016   5006   5018   5019     1  0.0000000  0.6508444  3
   5016   5006   5018   5020     1  0.0000000  0.6508444  3
   5017   5006   5018   5021     1  0.0000000  0.6508444  3
   5017   5006   5018   5019     1  0.0000000  0.6508444  3
   5017   5006   5018   5020     1  0.0000000  0.6508444  3
   5018   5021   5023   5025     1  180.0000771  9.6232000  2
   5019   5018   5021   5022     1  0.0000000  3.3472000  1
   5019   5018   5021   5022     1  0.0000000  0.0000000  2
   5019   5018   5021   5022     1  180.0000771  0.3347200  3
   5019   5018   5021   5023     1  180.0000771  0.0000000  2
   5020   5018   5021   5022     1  0.0000000  3.3472000  1
   5020   5018   5021   5022     1  0.0000000  0.0000000  2
   5020   5018   5021   5022     1  180.0000771  0.3347200  3
   5020   5018   5021   5023     1  180.0000771  0.0000000  2
   5022   5021   5023   5025     1  0.0000000  7.9496000  1
   5022   5021   5023   5025     1  180.0000771  9.6232000  2
   5026   5028   5030   5032     1  0.0000000  0.6508444  3
   5026   5028   5030   5033     1  0.0000000  0.6508444  3
   5027   5026   5028   5030     1  0.0000000  0.0000000  2
   5027   5026   5028   5029     1  0.0000000  0.0000000  2
   5027   5026   5028   5031     1  0.0000000  0.0000000  2
   5029   5028   5030   5034     1  0.0000000  0.6508444  3
   5029   5028   5030   5032     1  0.0000000  0.6508444  3
   5029   5028   5030   5033     1  0.0000000  0.6508444  3
   5030   5034   5035   5045     1  0.0000000  1.2552000  3
   5030   5034   5035   5046     1  0.0000000  1.2552000  3
   5030   5034   5036   5037     1  0.0000000  1.2552000  3
   5030   5034   5036   5039     1  0.0000000  1.2552000  3
   5031   5028   5030   5034     1  0.0000000  0.6508444  3
   5031   5028   5030   5032     1  0.0000000  0.6508444  3
   5031   5028   5030   5033     1  0.0000000  0.6508444  3
   5032   5030   5034   5035     1  0.0000000  1.2552000  3
   5032   5030   5034   5036     1  0.0000000  1.2552000  3
   5033   5030   5034   5035     1  0.0000000  1.2552000  3
   5033   5030   5034   5036     1  0.0000000  1.2552000  3
   5034   5035   5047   5048     1  0.0000000  0.6508444  3
   5034   5035   5047   5049     1  0.0000000  0.6508444  3
   5034   5036   5038   5040     1  0.0000000  0.6508444  3
   5034   5036   5038   5041     1  0.0000000  0.6508444  3
   5035   5034   5036   5037     1  0.0000000  1.2552000  3
   5035   5034   5036   5039     1  0.0000000  1.2552000  3
   5036   5034   5035   5045     1  0.0000000  1.2552000  3
   5036   5034   5035   5046     1  0.0000000  1.2552000  3
   5037   5036   5038   5042     1  0.0000000  0.6508444  3
   5037   5036   5038   5040     1  0.0000000  0.6508444  3
   5037   5036   5038   5041     1  0.0000000  0.6508444  3
   5038   5042   5043   5053     1  180.0000771  9.6232000  2
   5039   5036   5038   5042     1  0.0000000  0.6508444  3
   5039   5036   5038   5040     1  0.0000000  0.6508444  3
   5039   5036   5038   5041     1  0.0000000  0.6508444  3
   5040   5038   5042   5043     1  180.0000771  0.0000000  2
   5040   5038   5042   5044     1  0.0000000  3.3472000  1
   5040   5038   5042   5044     1  0.0000000  0.0000000  2
   5040   5038   5042   5044     1  180.0000771  0.3347200  3
   5041   5038   5042   5043     1  180.0000771  0.0000000  2
   5041   5038   5042   5044     1  0.0000000  3.3472000  1
   5041   5038   5042   5044     1  0.0000000  0.0000000  2
   5041   5038   5042   5044     1  180.0000771  0.3347200  3
   5044   5042   5043   5053     1  0.0000000  7.9496000  1
   5044   5042   5043   5053     1  180.0000771  9.6232000  2
   5045   5035   5047   5050     1  0.0000000  0.6508444  3
   5045   5035   5047   5048     1  0.0000000  0.6508444  3
   5045   5035   5047   5049     1  0.0000000  0.6508444  3
   5046   5035   5047   5050     1  0.0000000  0.6508444  3
   5046   5035   5047   5048     1  0.0000000  0.6508444  3
   5046   5035   5047   5049     1  0.0000000  0.6508444  3
   5047   5050   5052   5054     1  180.0000771  9.6232000  2
   5048   5047   5050   5051     1  0.0000000  3.3472000  1
   5048   5047   5050   5051     1  0.0000000  0.0000000  2
   5048   5047   5050   5051     1  180.0000771  0.3347200  3
   5048   5047   5050   5052     1  180.0000771  0.0000000  2
   5049   5047   5050   5051     1  0.0000000  3.3472000  1
   5049   5047   5050   5051     1  0.0000000  0.0000000  2
   5049   5047   5050   5051     1  180.0000771  0.3347200  3
   5049   5047   5050   5052     1  180.0000771  0.0000000  2
   5051   5050   5052   5054     1  0.0000000  7.9496000  1
   5051   5050   5052   5054     1  180.0000771  9.6232000  2
   5055   5057   5059   5061     1  0.0000000  0.6508444  3
   5055   5057   5059   5062     1  0.0000000  0.6508444  3
   5056   5055   5057   5059     1  0.0000000  0.0000000  2
   5056   5055   5057   5058     1  0.0000000  0.0000000  2
   5056   5055   5057   5060     1  0.0000000  0.0000000  2
   5058   5057   5059   5063     1  0.0000000  0.6508444  3
   5058   5057   5059   5061     1  0.0000000  0.6508444  3
   5058   5057   5059   5062     1  0.0000000  0.6508444  3
   5059   5063   5064   5074     1  0.0000000  1.2552000  3
   5059   5063   5064   5075     1  0.0000000  1.2552000  3
   5059   5063   5065   5066     1  0.0000000  1.2552000  3
   5059   5063   5065   5068     1  0.0000000  1.2552000  3
   5060   5057   5059   5063     1  0.0000000  0.6508444  3
   5060   5057   5059   5061     1  0.0000000  0.6508444  3
   5060   5057   5059   5062     1  0.0000000  0.6508444  3
   5061   5059   5063   5064     1  0.0000000  1.2552000  3
   5061   5059   5063   5065     1  0.0000000  1.2552000  3
   5062   5059   5063   5064     1  0.0000000  1.2552000  3
   5062   5059   5063   5065     1  0.0000000  1.2552000  3
   5063   5064   5076   5077     1  0.0000000  0.6508444  3
   5063   5064   5076   5078     1  0.0000000  0.6508444  3
   5063   5065   5067   5069     1  0.0000000  0.6508444  3
   5063   5065   5067   5070     1  0.0000000  0.6508444  3
   5064   5063   5065   5066     1  0.0000000  1.2552000  3
   5064   5063   5065   5068     1  0.0000000  1.2552000  3
   5065   5063   5064   5074     1  0.0000000  1.2552000  3
   5065   5063   5064   5075     1  0.0000000  1.2552000  3
   5066   5065   5067   5071     1  0.0000000  0.6508444  3
   5066   5065   5067   5069     1  0.0000000  0.6508444  3
   5066   5065   5067   5070     1  0.0000000  0.6508444  3
   5067   5071   5072   5082     1  180.0000771  9.6232000  2
   5068   5065   5067   5071     1  0.0000000  0.6508444  3
   5068   5065   5067   5069     1  0.0000000  0.6508444  3
   5068   5065   5067   5070     1  0.0000000  0.6508444  3
   5069   5067   5071   5072     1  180.0000771  0.0000000  2
   5069   5067   5071   5073     1  0.0000000  3.3472000  1
   5069   5067   5071   5073     1  0.0000000  0.0000000  2
   5069   5067   5071   5073     1  180.0000771  0.3347200  3
   5070   5067   5071   5072     1  180.0000771  0.0000000  2
   5070   5067   5071   5073     1  0.0000000  3.3472000  1
   5070   5067   5071   5073     1  0.0000000  0.0000000  2
   5070   5067   5071   5073     1  180.0000771  0.3347200  3
   5073   5071   5072   5082     1  0.0000000  7.9496000  1
   5073   5071   5072   5082     1  180.0000771  9.6232000  2
   5074   5064   5076   5079     1  0.0000000  0.6508444  3
   5074   5064   5076   5077     1  0.0000000  0.6508444  3
   5074   5064   5076   5078     1  0.0000000  0.6508444  3
   5075   5064   5076   5079     1  0.0000000  0.6508444  3
   5075   5064   5076   5077     1  0.0000000  0.6508444  3
   5075   5064   5076   5078     1  0.0000000  0.6508444  3
   5076   5079   5081   5083     1  180.0000771  9.6232000  2
   5077   5076   5079   5080     1  0.0000000  3.3472000  1
   5077   5076   5079   5080     1  0.0000000  0.0000000  2
   5077   5076   5079   5080     1  180.0000771  0.3347200  3
   5077   5076   5079   5081     1  180.0000771  0.0000000  2
   5078   5076   5079   5080     1  0.0000000  3.3472000  1
   5078   5076   5079   5080     1  0.0000000  0.0000000  2
   5078   5076   5079   5080     1  180.0000771  0.3347200  3
   5078   5076   5079   5081     1  180.0000771  0.0000000  2
   5080   5079   5081   5083     1  0.0000000  7.9496000  1
   5080   5079   5081   5083     1  180.0000771  9.6232000  2
   5084   5086   5088   5090     1  0.0000000  0.6508444  3
   5084   5086   5088   5091     1  0.0000000  0.6508444  3
   5085   5084   5086   5088     1  0.0000000  0.0000000  2
   5085   5084   5086   5087     1  0.0000000  0.0000000  2
   5085   5084   5086   5089     1  0.0000000  0.0000000  2
   5087   5086   5088   5092     1  0.0000000  0.6508444  3
   5087   5086   5088   5090     1  0.0000000  0.6508444  3
   5087   5086   5088   5091     1  0.0000000  0.6508444  3
   5088   5092   5093   5103     1  0.0000000  1.2552000  3
   5088   5092   5093   5104     1  0.0000000  1.2552000  3
   5088   5092   5094   5095     1  0.0000000  1.2552000  3
   5088   5092   5094   5097     1  0.0000000  1.2552000  3
   5089   5086   5088   5092     1  0.0000000  0.6508444  3
   5089   5086   5088   5090     1  0.0000000  0.6508444  3
   5089   5086   5088   5091     1  0.0000000  0.6508444  3
   5090   5088   5092   5093     1  0.0000000  1.2552000  3
   5090   5088   5092   5094     1  0.0000000  1.2552000  3
   5091   5088   5092   5093     1  0.0000000  1.2552000  3
   5091   5088   5092   5094     1  0.0000000  1.2552000  3
   5092   5093   5105   5106     1  0.0000000  0.6508444  3
   5092   5093   5105   5107     1  0.0000000  0.6508444  3
   5092   5094   5096   5098     1  0.0000000  0.6508444  3
   5092   5094   5096   5099     1  0.0000000  0.6508444  3
   5093   5092   5094   5095     1  0.0000000  1.2552000  3
   5093   5092   5094   5097     1  0.0000000  1.2552000  3
   5094   5092   5093   5103     1  0.0000000  1.2552000  3
   5094   5092   5093   5104     1  0.0000000  1.2552000  3
   5095   5094   5096   5100     1  0.0000000  0.6508444  3
   5095   5094   5096   5098     1  0.0000000  0.6508444  3
   5095   5094   5096   5099     1  0.0000000  0.6508444  3
   5096   5100   5101   5111     1  180.0000771  9.6232000  2
   5097   5094   5096   5100     1  0.0000000  0.6508444  3
   5097   5094   5096   5098     1  0.0000000  0.6508444  3
   5097   5094   5096   5099     1  0.0000000  0.6508444  3
   5098   5096   5100   5101     1  180.0000771  0.0000000  2
   5098   5096   5100   5102     1  0.0000000  3.3472000  1
   5098   5096   5100   5102     1  0.0000000  0.0000000  2
   5098   5096   5100   5102     1  180.0000771  0.3347200  3
   5099   5096   5100   5101     1  180.0000771  0.0000000  2
   5099   5096   5100   5102     1  0.0000000  3.3472000  1
   5099   5096   5100   5102     1  0.0000000  0.0000000  2
   5099   5096   5100   5102     1  180.0000771  0.3347200  3
   5102   5100   5101   5111     1  0.0000000  7.9496000  1
   5102   5100   5101   5111     1  180.0000771  9.6232000  2
   5103   5093   5105   5108     1  0.0000000  0.6508444  3
   5103   5093   5105   5106     1  0.0000000  0.6508444  3
   5103   5093   5105   5107     1  0.0000000  0.6508444  3
   5104   5093   5105   5108     1  0.0000000  0.6508444  3
   5104   5093   5105   5106     1  0.0000000  0.6508444  3
   5104   5093   5105   5107     1  0.0000000  0.6508444  3
   5105   5108   5110   5112     1  180.0000771  9.6232000  2
   5106   5105   5108   5109     1  0.0000000  3.3472000  1
   5106   5105   5108   5109     1  0.0000000  0.0000000  2
   5106   5105   5108   5109     1  180.0000771  0.3347200  3
   5106   5105   5108   5110     1  180.0000771  0.0000000  2
   5107   5105   5108   5109     1  0.0000000  3.3472000  1
   5107   5105   5108   5109     1  0.0000000  0.0000000  2
   5107   5105   5108   5109     1  180.0000771  0.3347200  3
   5107   5105   5108   5110     1  180.0000771  0.0000000  2
   5109   5108   5110   5112     1  0.0000000  7.9496000  1
   5109   5108   5110   5112     1  180.0000771  9.6232000  2
   5113   5115   5117   5119     1  0.0000000  0.6508444  3
   5113   5115   5117   5120     1  0.0000000  0.6508444  3
   5114   5113   5115   5117     1  0.0000000  0.0000000  2
   5114   5113   5115   5116     1  0.0000000  0.0000000  2
   5114   5113   5115   5118     1  0.0000000  0.0000000  2
   5116   5115   5117   5121     1  0.0000000  0.6508444  3
   5116   5115   5117   5119     1  0.0000000  0.6508444  3
   5116   5115   5117   5120     1  0.0000000  0.6508444  3
   5117   5121   5122   5132     1  0.0000000  1.2552000  3
   5117   5121   5122   5133     1  0.0000000  1.2552000  3
   5117   5121   5123   5124     1  0.0000000  1.2552000  3
   5117   5121   5123   5126     1  0.0000000  1.2552000  3
   5118   5115   5117   5121     1  0.0000000  0.6508444  3
   5118   5115   5117   5119     1  0.0000000  0.6508444  3
   5118   5115   5117   5120     1  0.0000000  0.6508444  3
   5119   5117   5121   5122     1  0.0000000  1.2552000  3
   5119   5117   5121   5123     1  0.0000000  1.2552000  3
   5120   5117   5121   5122     1  0.0000000  1.2552000  3
   5120   5117   5121   5123     1  0.0000000  1.2552000  3
   5121   5122   5134   5135     1  0.0000000  0.6508444  3
   5121   5122   5134   5136     1  0.0000000  0.6508444  3
   5121   5123   5125   5127     1  0.0000000  0.6508444  3
   5121   5123   5125   5128     1  0.0000000  0.6508444  3
   5122   5121   5123   5124     1  0.0000000  1.2552000  3
   5122   5121   5123   5126     1  0.0000000  1.2552000  3
   5123   5121   5122   5132     1  0.0000000  1.2552000  3
   5123   5121   5122   5133     1  0.0000000  1.2552000  3
   5124   5123   5125   5129     1  0.0000000  0.6508444  3
   5124   5123   5125   5127     1  0.0000000  0.6508444  3
   5124   5123   5125   5128     1  0.0000000  0.6508444  3
   5125   5129   5130   5140     1  180.0000771  9.6232000  2
   5126   5123   5125   5129     1  0.0000000  0.6508444  3
   5126   5123   5125   5127     1  0.0000000  0.6508444  3
   5126   5123   5125   5128     1  0.0000000  0.6508444  3
   5127   5125   5129   5130     1  180.0000771  0.0000000  2
   5127   5125   5129   5131     1  0.0000000  3.3472000  1
   5127   5125   5129   5131     1  0.0000000  0.0000000  2
   5127   5125   5129   5131     1  180.0000771  0.3347200  3
   5128   5125   5129   5130     1  180.0000771  0.0000000  2
   5128   5125   5129   5131     1  0.0000000  3.3472000  1
   5128   5125   5129   5131     1  0.0000000  0.0000000  2
   5128   5125   5129   5131     1  180.0000771  0.3347200  3
   5131   5129   5130   5140     1  0.0000000  7.9496000  1
   5131   5129   5130   5140     1  180.0000771  9.6232000  2
   5132   5122   5134   5137     1  0.0000000  0.6508444  3
   5132   5122   5134   5135     1  0.0000000  0.6508444  3
   5132   5122   5134   5136     1  0.0000000  0.6508444  3
   5133   5122   5134   5137     1  0.0000000  0.6508444  3
   5133   5122   5134   5135     1  0.0000000  0.6508444  3
   5133   5122   5134   5136     1  0.0000000  0.6508444  3
   5134   5137   5139   5141     1  180.0000771  9.6232000  2
   5135   5134   5137   5138     1  0.0000000  3.3472000  1
   5135   5134   5137   5138     1  0.0000000  0.0000000  2
   5135   5134   5137   5138     1  180.0000771  0.3347200  3
   5135   5134   5137   5139     1  180.0000771  0.0000000  2
   5136   5134   5137   5138     1  0.0000000  3.3472000  1
   5136   5134   5137   5138     1  0.0000000  0.0000000  2
   5136   5134   5137   5138     1  180.0000771  0.3347200  3
   5136   5134   5137   5139     1  180.0000771  0.0000000  2
   5138   5137   5139   5141     1  0.0000000  7.9496000  1
   5138   5137   5139   5141     1  180.0000771  9.6232000  2
   5142   5144   5146   5148     1  0.0000000  0.6508444  3
   5142   5144   5146   5149     1  0.0000000  0.6508444  3
   5143   5142   5144   5146     1  0.0000000  0.0000000  2
   5143   5142   5144   5145     1  0.0000000  0.0000000  2
   5143   5142   5144   5147     1  0.0000000  0.0000000  2
   5145   5144   5146   5150     1  0.0000000  0.6508444  3
   5145   5144   5146   5148     1  0.0000000  0.6508444  3
   5145   5144   5146   5149     1  0.0000000  0.6508444  3
   5146   5150   5151   5161     1  0.0000000  1.2552000  3
   5146   5150   5151   5162     1  0.0000000  1.2552000  3
   5146   5150   5152   5153     1  0.0000000  1.2552000  3
   5146   5150   5152   5155     1  0.0000000  1.2552000  3
   5147   5144   5146   5150     1  0.0000000  0.6508444  3
   5147   5144   5146   5148     1  0.0000000  0.6508444  3
   5147   5144   5146   5149     1  0.0000000  0.6508444  3
   5148   5146   5150   5151     1  0.0000000  1.2552000  3
   5148   5146   5150   5152     1  0.0000000  1.2552000  3
   5149   5146   5150   5151     1  0.0000000  1.2552000  3
   5149   5146   5150   5152     1  0.0000000  1.2552000  3
   5150   5151   5163   5164     1  0.0000000  0.6508444  3
   5150   5151   5163   5165     1  0.0000000  0.6508444  3
   5150   5152   5154   5156     1  0.0000000  0.6508444  3
   5150   5152   5154   5157     1  0.0000000  0.6508444  3
   5151   5150   5152   5153     1  0.0000000  1.2552000  3
   5151   5150   5152   5155     1  0.0000000  1.2552000  3
   5152   5150   5151   5161     1  0.0000000  1.2552000  3
   5152   5150   5151   5162     1  0.0000000  1.2552000  3
   5153   5152   5154   5158     1  0.0000000  0.6508444  3
   5153   5152   5154   5156     1  0.0000000  0.6508444  3
   5153   5152   5154   5157     1  0.0000000  0.6508444  3
   5154   5158   5159   5169     1  180.0000771  9.6232000  2
   5155   5152   5154   5158     1  0.0000000  0.6508444  3
   5155   5152   5154   5156     1  0.0000000  0.6508444  3
   5155   5152   5154   5157     1  0.0000000  0.6508444  3
   5156   5154   5158   5159     1  180.0000771  0.0000000  2
   5156   5154   5158   5160     1  0.0000000  3.3472000  1
   5156   5154   5158   5160     1  0.0000000  0.0000000  2
   5156   5154   5158   5160     1  180.0000771  0.3347200  3
   5157   5154   5158   5159     1  180.0000771  0.0000000  2
   5157   5154   5158   5160     1  0.0000000  3.3472000  1
   5157   5154   5158   5160     1  0.0000000  0.0000000  2
   5157   5154   5158   5160     1  180.0000771  0.3347200  3
   5160   5158   5159   5169     1  0.0000000  7.9496000  1
   5160   5158   5159   5169     1  180.0000771  9.6232000  2
   5161   5151   5163   5166     1  0.0000000  0.6508444  3
   5161   5151   5163   5164     1  0.0000000  0.6508444  3
   5161   5151   5163   5165     1  0.0000000  0.6508444  3
   5162   5151   5163   5166     1  0.0000000  0.6508444  3
   5162   5151   5163   5164     1  0.0000000  0.6508444  3
   5162   5151   5163   5165     1  0.0000000  0.6508444  3
   5163   5166   5168   5170     1  180.0000771  9.6232000  2
   5164   5163   5166   5167     1  0.0000000  3.3472000  1
   5164   5163   5166   5167     1  0.0000000  0.0000000  2
   5164   5163   5166   5167     1  180.0000771  0.3347200  3
   5164   5163   5166   5168     1  180.0000771  0.0000000  2
   5165   5163   5166   5167     1  0.0000000  3.3472000  1
   5165   5163   5166   5167     1  0.0000000  0.0000000  2
   5165   5163   5166   5167     1  180.0000771  0.3347200  3
   5165   5163   5166   5168     1  180.0000771  0.0000000  2
   5167   5166   5168   5170     1  0.0000000  7.9496000  1
   5167   5166   5168   5170     1  180.0000771  9.6232000  2
   5171   5173   5175   5177     1  0.0000000  0.6508444  3
   5171   5173   5175   5178     1  0.0000000  0.6508444  3
   5172   5171   5173   5175     1  0.0000000  0.0000000  2
   5172   5171   5173   5174     1  0.0000000  0.0000000  2
   5172   5171   5173   5176     1  0.0000000  0.0000000  2
   5174   5173   5175   5179     1  0.0000000  0.6508444  3
   5174   5173   5175   5177     1  0.0000000  0.6508444  3
   5174   5173   5175   5178     1  0.0000000  0.6508444  3
   5175   5179   5180   5190     1  0.0000000  1.2552000  3
   5175   5179   5180   5191     1  0.0000000  1.2552000  3
   5175   5179   5181   5182     1  0.0000000  1.2552000  3
   5175   5179   5181   5184     1  0.0000000  1.2552000  3
   5176   5173   5175   5179     1  0.0000000  0.6508444  3
   5176   5173   5175   5177     1  0.0000000  0.6508444  3
   5176   5173   5175   5178     1  0.0000000  0.6508444  3
   5177   5175   5179   5180     1  0.0000000  1.2552000  3
   5177   5175   5179   5181     1  0.0000000  1.2552000  3
   5178   5175   5179   5180     1  0.0000000  1.2552000  3
   5178   5175   5179   5181     1  0.0000000  1.2552000  3
   5179   5180   5192   5193     1  0.0000000  0.6508444  3
   5179   5180   5192   5194     1  0.0000000  0.6508444  3
   5179   5181   5183   5185     1  0.0000000  0.6508444  3
   5179   5181   5183   5186     1  0.0000000  0.6508444  3
   5180   5179   5181   5182     1  0.0000000  1.2552000  3
   5180   5179   5181   5184     1  0.0000000  1.2552000  3
   5181   5179   5180   5190     1  0.0000000  1.2552000  3
   5181   5179   5180   5191     1  0.0000000  1.2552000  3
   5182   5181   5183   5187     1  0.0000000  0.6508444  3
   5182   5181   5183   5185     1  0.0000000  0.6508444  3
   5182   5181   5183   5186     1  0.0000000  0.6508444  3
   5183   5187   5188   5198     1  180.0000771  9.6232000  2
   5184   5181   5183   5187     1  0.0000000  0.6508444  3
   5184   5181   5183   5185     1  0.0000000  0.6508444  3
   5184   5181   5183   5186     1  0.0000000  0.6508444  3
   5185   5183   5187   5188     1  180.0000771  0.0000000  2
   5185   5183   5187   5189     1  0.0000000  3.3472000  1
   5185   5183   5187   5189     1  0.0000000  0.0000000  2
   5185   5183   5187   5189     1  180.0000771  0.3347200  3
   5186   5183   5187   5188     1  180.0000771  0.0000000  2
   5186   5183   5187   5189     1  0.0000000  3.3472000  1
   5186   5183   5187   5189     1  0.0000000  0.0000000  2
   5186   5183   5187   5189     1  180.0000771  0.3347200  3
   5189   5187   5188   5198     1  0.0000000  7.9496000  1
   5189   5187   5188   5198     1  180.0000771  9.6232000  2
   5190   5180   5192   5195     1  0.0000000  0.6508444  3
   5190   5180   5192   5193     1  0.0000000  0.6508444  3
   5190   5180   5192   5194     1  0.0000000  0.6508444  3
   5191   5180   5192   5195     1  0.0000000  0.6508444  3
   5191   5180   5192   5193     1  0.0000000  0.6508444  3
   5191   5180   5192   5194     1  0.0000000  0.6508444  3
   5192   5195   5197   5199     1  180.0000771  9.6232000  2
   5193   5192   5195   5196     1  0.0000000  3.3472000  1
   5193   5192   5195   5196     1  0.0000000  0.0000000  2
   5193   5192   5195   5196     1  180.0000771  0.3347200  3
   5193   5192   5195   5197     1  180.0000771  0.0000000  2
   5194   5192   5195   5196     1  0.0000000  3.3472000  1
   5194   5192   5195   5196     1  0.0000000  0.0000000  2
   5194   5192   5195   5196     1  180.0000771  0.3347200  3
   5194   5192   5195   5197     1  180.0000771  0.0000000  2
   5196   5195   5197   5199     1  0.0000000  7.9496000  1
   5196   5195   5197   5199     1  180.0000771  9.6232000  2
   5200   5202   5204   5206     1  0.0000000  0.6508444  3
   5200   5202   5204   5207     1  0.0000000  0.6508444  3
   5201   5200   5202   5204     1  0.0000000  0.0000000  2
   5201   5200   5202   5203     1  0.0000000  0.0000000  2
   5201   5200   5202   5205     1  0.0000000  0.0000000  2
   5203   5202   5204   5208     1  0.0000000  0.6508444  3
   5203   5202   5204   5206     1  0.0000000  0.6508444  3
   5203   5202   5204   5207     1  0.0000000  0.6508444  3
   5204   5208   5209   5219     1  0.0000000  1.2552000  3
   5204   5208   5209   5220     1  0.0000000  1.2552000  3
   5204   5208   5210   5211     1  0.0000000  1.2552000  3
   5204   5208   5210   5213     1  0.0000000  1.2552000  3
   5205   5202   5204   5208     1  0.0000000  0.6508444  3
   5205   5202   5204   5206     1  0.0000000  0.6508444  3
   5205   5202   5204   5207     1  0.0000000  0.6508444  3
   5206   5204   5208   5209     1  0.0000000  1.2552000  3
   5206   5204   5208   5210     1  0.0000000  1.2552000  3
   5207   5204   5208   5209     1  0.0000000  1.2552000  3
   5207   5204   5208   5210     1  0.0000000  1.2552000  3
   5208   5209   5221   5222     1  0.0000000  0.6508444  3
   5208   5209   5221   5223     1  0.0000000  0.6508444  3
   5208   5210   5212   5214     1  0.0000000  0.6508444  3
   5208   5210   5212   5215     1  0.0000000  0.6508444  3
   5209   5208   5210   5211     1  0.0000000  1.2552000  3
   5209   5208   5210   5213     1  0.0000000  1.2552000  3
   5210   5208   5209   5219     1  0.0000000  1.2552000  3
   5210   5208   5209   5220     1  0.0000000  1.2552000  3
   5211   5210   5212   5216     1  0.0000000  0.6508444  3
   5211   5210   5212   5214     1  0.0000000  0.6508444  3
   5211   5210   5212   5215     1  0.0000000  0.6508444  3
   5212   5216   5217   5227     1  180.0000771  9.6232000  2
   5213   5210   5212   5216     1  0.0000000  0.6508444  3
   5213   5210   5212   5214     1  0.0000000  0.6508444  3
   5213   5210   5212   5215     1  0.0000000  0.6508444  3
   5214   5212   5216   5217     1  180.0000771  0.0000000  2
   5214   5212   5216   5218     1  0.0000000  3.3472000  1
   5214   5212   5216   5218     1  0.0000000  0.0000000  2
   5214   5212   5216   5218     1  180.0000771  0.3347200  3
   5215   5212   5216   5217     1  180.0000771  0.0000000  2
   5215   5212   5216   5218     1  0.0000000  3.3472000  1
   5215   5212   5216   5218     1  0.0000000  0.0000000  2
   5215   5212   5216   5218     1  180.0000771  0.3347200  3
   5218   5216   5217   5227     1  0.0000000  7.9496000  1
   5218   5216   5217   5227     1  180.0000771  9.6232000  2
   5219   5209   5221   5224     1  0.0000000  0.6508444  3
   5219   5209   5221   5222     1  0.0000000  0.6508444  3
   5219   5209   5221   5223     1  0.0000000  0.6508444  3
   5220   5209   5221   5224     1  0.0000000  0.6508444  3
   5220   5209   5221   5222     1  0.0000000  0.6508444  3
   5220   5209   5221   5223     1  0.0000000  0.6508444  3
   5221   5224   5226   5228     1  180.0000771  9.6232000  2
   5222   5221   5224   5225     1  0.0000000  3.3472000  1
   5222   5221   5224   5225     1  0.0000000  0.0000000  2
   5222   5221   5224   5225     1  180.0000771  0.3347200  3
   5222   5221   5224   5226     1  180.0000771  0.0000000  2
   5223   5221   5224   5225     1  0.0000000  3.3472000  1
   5223   5221   5224   5225     1  0.0000000  0.0000000  2
   5223   5221   5224   5225     1  180.0000771  0.3347200  3
   5223   5221   5224   5226     1  180.0000771  0.0000000  2
   5225   5224   5226   5228     1  0.0000000  7.9496000  1
   5225   5224   5226   5228     1  180.0000771  9.6232000  2
   5229   5231   5233   5235     1  0.0000000  0.6508444  3
   5229   5231   5233   5236     1  0.0000000  0.6508444  3
   5230   5229   5231   5233     1  0.0000000  0.0000000  2
   5230   5229   5231   5232     1  0.0000000  0.0000000  2
   5230   5229   5231   5234     1  0.0000000  0.0000000  2
   5232   5231   5233   5237     1  0.0000000  0.6508444  3
   5232   5231   5233   5235     1  0.0000000  0.6508444  3
   5232   5231   5233   5236     1  0.0000000  0.6508444  3
   5233   5237   5238   5248     1  0.0000000  1.2552000  3
   5233   5237   5238   5249     1  0.0000000  1.2552000  3
   5233   5237   5239   5240     1  0.0000000  1.2552000  3
   5233   5237   5239   5242     1  0.0000000  1.2552000  3
   5234   5231   5233   5237     1  0.0000000  0.6508444  3
   5234   5231   5233   5235     1  0.0000000  0.6508444  3
   5234   5231   5233   5236     1  0.0000000  0.6508444  3
   5235   5233   5237   5238     1  0.0000000  1.2552000  3
   5235   5233   5237   5239     1  0.0000000  1.2552000  3
   5236   5233   5237   5238     1  0.0000000  1.2552000  3
   5236   5233   5237   5239     1  0.0000000  1.2552000  3
   5237   5238   5250   5251     1  0.0000000  0.6508444  3
   5237   5238   5250   5252     1  0.0000000  0.6508444  3
   5237   5239   5241   5243     1  0.0000000  0.6508444  3
   5237   5239   5241   5244     1  0.0000000  0.6508444  3
   5238   5237   5239   5240     1  0.0000000  1.2552000  3
   5238   5237   5239   5242     1  0.0000000  1.2552000  3
   5239   5237   5238   5248     1  0.0000000  1.2552000  3
   5239   5237   5238   5249     1  0.0000000  1.2552000  3
   5240   5239   5241   5245     1  0.0000000  0.6508444  3
   5240   5239   5241   5243     1  0.0000000  0.6508444  3
   5240   5239   5241   5244     1  0.0000000  0.6508444  3
   5241   5245   5246   5256     1  180.0000771  9.6232000  2
   5242   5239   5241   5245     1  0.0000000  0.6508444  3
   5242   5239   5241   5243     1  0.0000000  0.6508444  3
   5242   5239   5241   5244     1  0.0000000  0.6508444  3
   5243   5241   5245   5246     1  180.0000771  0.0000000  2
   5243   5241   5245   5247     1  0.0000000  3.3472000  1
   5243   5241   5245   5247     1  0.0000000  0.0000000  2
   5243   5241   5245   5247     1  180.0000771  0.3347200  3
   5244   5241   5245   5246     1  180.0000771  0.0000000  2
   5244   5241   5245   5247     1  0.0000000  3.3472000  1
   5244   5241   5245   5247     1  0.0000000  0.0000000  2
   5244   5241   5245   5247     1  180.0000771  0.3347200  3
   5247   5245   5246   5256     1  0.0000000  7.9496000  1
   5247   5245   5246   5256     1  180.0000771  9.6232000  2
   5248   5238   5250   5253     1  0.0000000  0.6508444  3
   5248   5238   5250   5251     1  0.0000000  0.6508444  3
   5248   5238   5250   5252     1  0.0000000  0.6508444  3
   5249   5238   5250   5253     1  0.0000000  0.6508444  3
   5249   5238   5250   5251     1  0.0000000  0.6508444  3
   5249   5238   5250   5252     1  0.0000000  0.6508444  3
   5250   5253   5255   5257     1  180.0000771  9.6232000  2
   5251   5250   5253   5254     1  0.0000000  3.3472000  1
   5251   5250   5253   5254     1  0.0000000  0.0000000  2
   5251   5250   5253   5254     1  180.0000771  0.3347200  3
   5251   5250   5253   5255     1  180.0000771  0.0000000  2
   5252   5250   5253   5254     1  0.0000000  3.3472000  1
   5252   5250   5253   5254     1  0.0000000  0.0000000  2
   5252   5250   5253   5254     1  180.0000771  0.3347200  3
   5252   5250   5253   5255     1  180.0000771  0.0000000  2
   5254   5253   5255   5257     1  0.0000000  7.9496000  1
   5254   5253   5255   5257     1  180.0000771  9.6232000  2
   5258   5260   5262   5264     1  0.0000000  0.6508444  3
   5258   5260   5262   5265     1  0.0000000  0.6508444  3
   5259   5258   5260   5262     1  0.0000000  0.0000000  2
   5259   5258   5260   5261     1  0.0000000  0.0000000  2
   5259   5258   5260   5263     1  0.0000000  0.0000000  2
   5261   5260   5262   5266     1  0.0000000  0.6508444  3
   5261   5260   5262   5264     1  0.0000000  0.6508444  3
   5261   5260   5262   5265     1  0.0000000  0.6508444  3
   5262   5266   5267   5277     1  0.0000000  1.2552000  3
   5262   5266   5267   5278     1  0.0000000  1.2552000  3
   5262   5266   5268   5269     1  0.0000000  1.2552000  3
   5262   5266   5268   5271     1  0.0000000  1.2552000  3
   5263   5260   5262   5266     1  0.0000000  0.6508444  3
   5263   5260   5262   5264     1  0.0000000  0.6508444  3
   5263   5260   5262   5265     1  0.0000000  0.6508444  3
   5264   5262   5266   5267     1  0.0000000  1.2552000  3
   5264   5262   5266   5268     1  0.0000000  1.2552000  3
   5265   5262   5266   5267     1  0.0000000  1.2552000  3
   5265   5262   5266   5268     1  0.0000000  1.2552000  3
   5266   5267   5279   5280     1  0.0000000  0.6508444  3
   5266   5267   5279   5281     1  0.0000000  0.6508444  3
   5266   5268   5270   5272     1  0.0000000  0.6508444  3
   5266   5268   5270   5273     1  0.0000000  0.6508444  3
   5267   5266   5268   5269     1  0.0000000  1.2552000  3
   5267   5266   5268   5271     1  0.0000000  1.2552000  3
   5268   5266   5267   5277     1  0.0000000  1.2552000  3
   5268   5266   5267   5278     1  0.0000000  1.2552000  3
   5269   5268   5270   5274     1  0.0000000  0.6508444  3
   5269   5268   5270   5272     1  0.0000000  0.6508444  3
   5269   5268   5270   5273     1  0.0000000  0.6508444  3
   5270   5274   5275   5285     1  180.0000771  9.6232000  2
   5271   5268   5270   5274     1  0.0000000  0.6508444  3
   5271   5268   5270   5272     1  0.0000000  0.6508444  3
   5271   5268   5270   5273     1  0.0000000  0.6508444  3
   5272   5270   5274   5275     1  180.0000771  0.0000000  2
   5272   5270   5274   5276     1  0.0000000  3.3472000  1
   5272   5270   5274   5276     1  0.0000000  0.0000000  2
   5272   5270   5274   5276     1  180.0000771  0.3347200  3
   5273   5270   5274   5275     1  180.0000771  0.0000000  2
   5273   5270   5274   5276     1  0.0000000  3.3472000  1
   5273   5270   5274   5276     1  0.0000000  0.0000000  2
   5273   5270   5274   5276     1  180.0000771  0.3347200  3
   5276   5274   5275   5285     1  0.0000000  7.9496000  1
   5276   5274   5275   5285     1  180.0000771  9.6232000  2
   5277   5267   5279   5282     1  0.0000000  0.6508444  3
   5277   5267   5279   5280     1  0.0000000  0.6508444  3
   5277   5267   5279   5281     1  0.0000000  0.6508444  3
   5278   5267   5279   5282     1  0.0000000  0.6508444  3
   5278   5267   5279   5280     1  0.0000000  0.6508444  3
   5278   5267   5279   5281     1  0.0000000  0.6508444  3
   5279   5282   5284   5286     1  180.0000771  9.6232000  2
   5280   5279   5282   5283     1  0.0000000  3.3472000  1
   5280   5279   5282   5283     1  0.0000000  0.0000000  2
   5280   5279   5282   5283     1  180.0000771  0.3347200  3
   5280   5279   5282   5284     1  180.0000771  0.0000000  2
   5281   5279   5282   5283     1  0.0000000  3.3472000  1
   5281   5279   5282   5283     1  0.0000000  0.0000000  2
   5281   5279   5282   5283     1  180.0000771  0.3347200  3
   5281   5279   5282   5284     1  180.0000771  0.0000000  2
   5283   5282   5284   5286     1  0.0000000  7.9496000  1
   5283   5282   5284   5286     1  180.0000771  9.6232000  2
   5287   5289   5291   5293     1  0.0000000  0.6508444  3
   5287   5289   5291   5294     1  0.0000000  0.6508444  3
   5288   5287   5289   5291     1  0.0000000  0.0000000  2
   5288   5287   5289   5290     1  0.0000000  0.0000000  2
   5288   5287   5289   5292     1  0.0000000  0.0000000  2
   5290   5289   5291   5295     1  0.0000000  0.6508444  3
   5290   5289   5291   5293     1  0.0000000  0.6508444  3
   5290   5289   5291   5294     1  0.0000000  0.6508444  3
   5291   5295   5296   5306     1  0.0000000  1.2552000  3
   5291   5295   5296   5307     1  0.0000000  1.2552000  3
   5291   5295   5297   5298     1  0.0000000  1.2552000  3
   5291   5295   5297   5300     1  0.0000000  1.2552000  3
   5292   5289   5291   5295     1  0.0000000  0.6508444  3
   5292   5289   5291   5293     1  0.0000000  0.6508444  3
   5292   5289   5291   5294     1  0.0000000  0.6508444  3
   5293   5291   5295   5296     1  0.0000000  1.2552000  3
   5293   5291   5295   5297     1  0.0000000  1.2552000  3
   5294   5291   5295   5296     1  0.0000000  1.2552000  3
   5294   5291   5295   5297     1  0.0000000  1.2552000  3
   5295   5296   5308   5309     1  0.0000000  0.6508444  3
   5295   5296   5308   5310     1  0.0000000  0.6508444  3
   5295   5297   5299   5301     1  0.0000000  0.6508444  3
   5295   5297   5299   5302     1  0.0000000  0.6508444  3
   5296   5295   5297   5298     1  0.0000000  1.2552000  3
   5296   5295   5297   5300     1  0.0000000  1.2552000  3
   5297   5295   5296   5306     1  0.0000000  1.2552000  3
   5297   5295   5296   5307     1  0.0000000  1.2552000  3
   5298   5297   5299   5303     1  0.0000000  0.6508444  3
   5298   5297   5299   5301     1  0.0000000  0.6508444  3
   5298   5297   5299   5302     1  0.0000000  0.6508444  3
   5299   5303   5304   5314     1  180.0000771  9.6232000  2
   5300   5297   5299   5303     1  0.0000000  0.6508444  3
   5300   5297   5299   5301     1  0.0000000  0.6508444  3
   5300   5297   5299   5302     1  0.0000000  0.6508444  3
   5301   5299   5303   5304     1  180.0000771  0.0000000  2
   5301   5299   5303   5305     1  0.0000000  3.3472000  1
   5301   5299   5303   5305     1  0.0000000  0.0000000  2
   5301   5299   5303   5305     1  180.0000771  0.3347200  3
   5302   5299   5303   5304     1  180.0000771  0.0000000  2
   5302   5299   5303   5305     1  0.0000000  3.3472000  1
   5302   5299   5303   5305     1  0.0000000  0.0000000  2
   5302   5299   5303   5305     1  180.0000771  0.3347200  3
   5305   5303   5304   5314     1  0.0000000  7.9496000  1
   5305   5303   5304   5314     1  180.0000771  9.6232000  2
   5306   5296   5308   5311     1  0.0000000  0.6508444  3
   5306   5296   5308   5309     1  0.0000000  0.6508444  3
   5306   5296   5308   5310     1  0.0000000  0.6508444  3
   5307   5296   5308   5311     1  0.0000000  0.6508444  3
   5307   5296   5308   5309     1  0.0000000  0.6508444  3
   5307   5296   5308   5310     1  0.0000000  0.6508444  3
   5308   5311   5313   5315     1  180.0000771  9.6232000  2
   5309   5308   5311   5312     1  0.0000000  3.3472000  1
   5309   5308   5311   5312     1  0.0000000  0.0000000  2
   5309   5308   5311   5312     1  180.0000771  0.3347200  3
   5309   5308   5311   5313     1  180.0000771  0.0000000  2
   5310   5308   5311   5312     1  0.0000000  3.3472000  1
   5310   5308   5311   5312     1  0.0000000  0.0000000  2
   5310   5308   5311   5312     1  180.0000771  0.3347200  3
   5310   5308   5311   5313     1  180.0000771  0.0000000  2
   5312   5311   5313   5315     1  0.0000000  7.9496000  1
   5312   5311   5313   5315     1  180.0000771  9.6232000  2
   5316   5318   5320   5322     1  0.0000000  0.6508444  3
   5316   5318   5320   5323     1  0.0000000  0.6508444  3
   5317   5316   5318   5320     1  0.0000000  0.0000000  2
   5317   5316   5318   5319     1  0.0000000  0.0000000  2
   5317   5316   5318   5321     1  0.0000000  0.0000000  2
   5319   5318   5320   5324     1  0.0000000  0.6508444  3
   5319   5318   5320   5322     1  0.0000000  0.6508444  3
   5319   5318   5320   5323     1  0.0000000  0.6508444  3
   5320   5324   5325   5335     1  0.0000000  1.2552000  3
   5320   5324   5325   5336     1  0.0000000  1.2552000  3
   5320   5324   5326   5327     1  0.0000000  1.2552000  3
   5320   5324   5326   5329     1  0.0000000  1.2552000  3
   5321   5318   5320   5324     1  0.0000000  0.6508444  3
   5321   5318   5320   5322     1  0.0000000  0.6508444  3
   5321   5318   5320   5323     1  0.0000000  0.6508444  3
   5322   5320   5324   5325     1  0.0000000  1.2552000  3
   5322   5320   5324   5326     1  0.0000000  1.2552000  3
   5323   5320   5324   5325     1  0.0000000  1.2552000  3
   5323   5320   5324   5326     1  0.0000000  1.2552000  3
   5324   5325   5337   5338     1  0.0000000  0.6508444  3
   5324   5325   5337   5339     1  0.0000000  0.6508444  3
   5324   5326   5328   5330     1  0.0000000  0.6508444  3
   5324   5326   5328   5331     1  0.0000000  0.6508444  3
   5325   5324   5326   5327     1  0.0000000  1.2552000  3
   5325   5324   5326   5329     1  0.0000000  1.2552000  3
   5326   5324   5325   5335     1  0.0000000  1.2552000  3
   5326   5324   5325   5336     1  0.0000000  1.2552000  3
   5327   5326   5328   5332     1  0.0000000  0.6508444  3
   5327   5326   5328   5330     1  0.0000000  0.6508444  3
   5327   5326   5328   5331     1  0.0000000  0.6508444  3
   5328   5332   5333   5343     1  180.0000771  9.6232000  2
   5329   5326   5328   5332     1  0.0000000  0.6508444  3
   5329   5326   5328   5330     1  0.0000000  0.6508444  3
   5329   5326   5328   5331     1  0.0000000  0.6508444  3
   5330   5328   5332   5333     1  180.0000771  0.0000000  2
   5330   5328   5332   5334     1  0.0000000  3.3472000  1
   5330   5328   5332   5334     1  0.0000000  0.0000000  2
   5330   5328   5332   5334     1  180.0000771  0.3347200  3
   5331   5328   5332   5333     1  180.0000771  0.0000000  2
   5331   5328   5332   5334     1  0.0000000  3.3472000  1
   5331   5328   5332   5334     1  0.0000000  0.0000000  2
   5331   5328   5332   5334     1  180.0000771  0.3347200  3
   5334   5332   5333   5343     1  0.0000000  7.9496000  1
   5334   5332   5333   5343     1  180.0000771  9.6232000  2
   5335   5325   5337   5340     1  0.0000000  0.6508444  3
   5335   5325   5337   5338     1  0.0000000  0.6508444  3
   5335   5325   5337   5339     1  0.0000000  0.6508444  3
   5336   5325   5337   5340     1  0.0000000  0.6508444  3
   5336   5325   5337   5338     1  0.0000000  0.6508444  3
   5336   5325   5337   5339     1  0.0000000  0.6508444  3
   5337   5340   5342   5344     1  180.0000771  9.6232000  2
   5338   5337   5340   5341     1  0.0000000  3.3472000  1
   5338   5337   5340   5341     1  0.0000000  0.0000000  2
   5338   5337   5340   5341     1  180.0000771  0.3347200  3
   5338   5337   5340   5342     1  180.0000771  0.0000000  2
   5339   5337   5340   5341     1  0.0000000  3.3472000  1
   5339   5337   5340   5341     1  0.0000000  0.0000000  2
   5339   5337   5340   5341     1  180.0000771  0.3347200  3
   5339   5337   5340   5342     1  180.0000771  0.0000000  2
   5341   5340   5342   5344     1  0.0000000  7.9496000  1
   5341   5340   5342   5344     1  180.0000771  9.6232000  2
   5345   5347   5349   5351     1  0.0000000  0.6508444  3
   5345   5347   5349   5352     1  0.0000000  0.6508444  3
   5346   5345   5347   5349     1  0.0000000  0.0000000  2
   5346   5345   5347   5348     1  0.0000000  0.0000000  2
   5346   5345   5347   5350     1  0.0000000  0.0000000  2
   5348   5347   5349   5353     1  0.0000000  0.6508444  3
   5348   5347   5349   5351     1  0.0000000  0.6508444  3
   5348   5347   5349   5352     1  0.0000000  0.6508444  3
   5349   5353   5354   5364     1  0.0000000  1.2552000  3
   5349   5353   5354   5365     1  0.0000000  1.2552000  3
   5349   5353   5355   5356     1  0.0000000  1.2552000  3
   5349   5353   5355   5358     1  0.0000000  1.2552000  3
   5350   5347   5349   5353     1  0.0000000  0.6508444  3
   5350   5347   5349   5351     1  0.0000000  0.6508444  3
   5350   5347   5349   5352     1  0.0000000  0.6508444  3
   5351   5349   5353   5354     1  0.0000000  1.2552000  3
   5351   5349   5353   5355     1  0.0000000  1.2552000  3
   5352   5349   5353   5354     1  0.0000000  1.2552000  3
   5352   5349   5353   5355     1  0.0000000  1.2552000  3
   5353   5354   5366   5367     1  0.0000000  0.6508444  3
   5353   5354   5366   5368     1  0.0000000  0.6508444  3
   5353   5355   5357   5359     1  0.0000000  0.6508444  3
   5353   5355   5357   5360     1  0.0000000  0.6508444  3
   5354   5353   5355   5356     1  0.0000000  1.2552000  3
   5354   5353   5355   5358     1  0.0000000  1.2552000  3
   5355   5353   5354   5364     1  0.0000000  1.2552000  3
   5355   5353   5354   5365     1  0.0000000  1.2552000  3
   5356   5355   5357   5361     1  0.0000000  0.6508444  3
   5356   5355   5357   5359     1  0.0000000  0.6508444  3
   5356   5355   5357   5360     1  0.0000000  0.6508444  3
   5357   5361   5362   5372     1  180.0000771  9.6232000  2
   5358   5355   5357   5361     1  0.0000000  0.6508444  3
   5358   5355   5357   5359     1  0.0000000  0.6508444  3
   5358   5355   5357   5360     1  0.0000000  0.6508444  3
   5359   5357   5361   5362     1  180.0000771  0.0000000  2
   5359   5357   5361   5363     1  0.0000000  3.3472000  1
   5359   5357   5361   5363     1  0.0000000  0.0000000  2
   5359   5357   5361   5363     1  180.0000771  0.3347200  3
   5360   5357   5361   5362     1  180.0000771  0.0000000  2
   5360   5357   5361   5363     1  0.0000000  3.3472000  1
   5360   5357   5361   5363     1  0.0000000  0.0000000  2
   5360   5357   5361   5363     1  180.0000771  0.3347200  3
   5363   5361   5362   5372     1  0.0000000  7.9496000  1
   5363   5361   5362   5372     1  180.0000771  9.6232000  2
   5364   5354   5366   5369     1  0.0000000  0.6508444  3
   5364   5354   5366   5367     1  0.0000000  0.6508444  3
   5364   5354   5366   5368     1  0.0000000  0.6508444  3
   5365   5354   5366   5369     1  0.0000000  0.6508444  3
   5365   5354   5366   5367     1  0.0000000  0.6508444  3
   5365   5354   5366   5368     1  0.0000000  0.6508444  3
   5366   5369   5371   5373     1  180.0000771  9.6232000  2
   5367   5366   5369   5370     1  0.0000000  3.3472000  1
   5367   5366   5369   5370     1  0.0000000  0.0000000  2
   5367   5366   5369   5370     1  180.0000771  0.3347200  3
   5367   5366   5369   5371     1  180.0000771  0.0000000  2
   5368   5366   5369   5370     1  0.0000000  3.3472000  1
   5368   5366   5369   5370     1  0.0000000  0.0000000  2
   5368   5366   5369   5370     1  180.0000771  0.3347200  3
   5368   5366   5369   5371     1  180.0000771  0.0000000  2
   5370   5369   5371   5373     1  0.0000000  7.9496000  1
   5370   5369   5371   5373     1  180.0000771  9.6232000  2
   5374   5376   5378   5380     1  0.0000000  0.6508444  3
   5374   5376   5378   5381     1  0.0000000  0.6508444  3
   5375   5374   5376   5378     1  0.0000000  0.0000000  2
   5375   5374   5376   5377     1  0.0000000  0.0000000  2
   5375   5374   5376   5379     1  0.0000000  0.0000000  2
   5377   5376   5378   5382     1  0.0000000  0.6508444  3
   5377   5376   5378   5380     1  0.0000000  0.6508444  3
   5377   5376   5378   5381     1  0.0000000  0.6508444  3
   5378   5382   5383   5393     1  0.0000000  1.2552000  3
   5378   5382   5383   5394     1  0.0000000  1.2552000  3
   5378   5382   5384   5385     1  0.0000000  1.2552000  3
   5378   5382   5384   5387     1  0.0000000  1.2552000  3
   5379   5376   5378   5382     1  0.0000000  0.6508444  3
   5379   5376   5378   5380     1  0.0000000  0.6508444  3
   5379   5376   5378   5381     1  0.0000000  0.6508444  3
   5380   5378   5382   5383     1  0.0000000  1.2552000  3
   5380   5378   5382   5384     1  0.0000000  1.2552000  3
   5381   5378   5382   5383     1  0.0000000  1.2552000  3
   5381   5378   5382   5384     1  0.0000000  1.2552000  3
   5382   5383   5395   5396     1  0.0000000  0.6508444  3
   5382   5383   5395   5397     1  0.0000000  0.6508444  3
   5382   5384   5386   5388     1  0.0000000  0.6508444  3
   5382   5384   5386   5389     1  0.0000000  0.6508444  3
   5383   5382   5384   5385     1  0.0000000  1.2552000  3
   5383   5382   5384   5387     1  0.0000000  1.2552000  3
   5384   5382   5383   5393     1  0.0000000  1.2552000  3
   5384   5382   5383   5394     1  0.0000000  1.2552000  3
   5385   5384   5386   5390     1  0.0000000  0.6508444  3
   5385   5384   5386   5388     1  0.0000000  0.6508444  3
   5385   5384   5386   5389     1  0.0000000  0.6508444  3
   5386   5390   5391   5401     1  180.0000771  9.6232000  2
   5387   5384   5386   5390     1  0.0000000  0.6508444  3
   5387   5384   5386   5388     1  0.0000000  0.6508444  3
   5387   5384   5386   5389     1  0.0000000  0.6508444  3
   5388   5386   5390   5391     1  180.0000771  0.0000000  2
   5388   5386   5390   5392     1  0.0000000  3.3472000  1
   5388   5386   5390   5392     1  0.0000000  0.0000000  2
   5388   5386   5390   5392     1  180.0000771  0.3347200  3
   5389   5386   5390   5391     1  180.0000771  0.0000000  2
   5389   5386   5390   5392     1  0.0000000  3.3472000  1
   5389   5386   5390   5392     1  0.0000000  0.0000000  2
   5389   5386   5390   5392     1  180.0000771  0.3347200  3
   5392   5390   5391   5401     1  0.0000000  7.9496000  1
   5392   5390   5391   5401     1  180.0000771  9.6232000  2
   5393   5383   5395   5398     1  0.0000000  0.6508444  3
   5393   5383   5395   5396     1  0.0000000  0.6508444  3
   5393   5383   5395   5397     1  0.0000000  0.6508444  3
   5394   5383   5395   5398     1  0.0000000  0.6508444  3
   5394   5383   5395   5396     1  0.0000000  0.6508444  3
   5394   5383   5395   5397     1  0.0000000  0.6508444  3
   5395   5398   5400   5402     1  180.0000771  9.6232000  2
   5396   5395   5398   5399     1  0.0000000  3.3472000  1
   5396   5395   5398   5399     1  0.0000000  0.0000000  2
   5396   5395   5398   5399     1  180.0000771  0.3347200  3
   5396   5395   5398   5400     1  180.0000771  0.0000000  2
   5397   5395   5398   5399     1  0.0000000  3.3472000  1
   5397   5395   5398   5399     1  0.0000000  0.0000000  2
   5397   5395   5398   5399     1  180.0000771  0.3347200  3
   5397   5395   5398   5400     1  180.0000771  0.0000000  2
   5399   5398   5400   5402     1  0.0000000  7.9496000  1
   5399   5398   5400   5402     1  180.0000771  9.6232000  2
   5403   5405   5407   5409     1  0.0000000  0.6508444  3
   5403   5405   5407   5410     1  0.0000000  0.6508444  3
   5404   5403   5405   5407     1  0.0000000  0.0000000  2
   5404   5403   5405   5406     1  0.0000000  0.0000000  2
   5404   5403   5405   5408     1  0.0000000  0.0000000  2
   5406   5405   5407   5411     1  0.0000000  0.6508444  3
   5406   5405   5407   5409     1  0.0000000  0.6508444  3
   5406   5405   5407   5410     1  0.0000000  0.6508444  3
   5407   5411   5412   5422     1  0.0000000  1.2552000  3
   5407   5411   5412   5423     1  0.0000000  1.2552000  3
   5407   5411   5413   5414     1  0.0000000  1.2552000  3
   5407   5411   5413   5416     1  0.0000000  1.2552000  3
   5408   5405   5407   5411     1  0.0000000  0.6508444  3
   5408   5405   5407   5409     1  0.0000000  0.6508444  3
   5408   5405   5407   5410     1  0.0000000  0.6508444  3
   5409   5407   5411   5412     1  0.0000000  1.2552000  3
   5409   5407   5411   5413     1  0.0000000  1.2552000  3
   5410   5407   5411   5412     1  0.0000000  1.2552000  3
   5410   5407   5411   5413     1  0.0000000  1.2552000  3
   5411   5412   5424   5425     1  0.0000000  0.6508444  3
   5411   5412   5424   5426     1  0.0000000  0.6508444  3
   5411   5413   5415   5417     1  0.0000000  0.6508444  3
   5411   5413   5415   5418     1  0.0000000  0.6508444  3
   5412   5411   5413   5414     1  0.0000000  1.2552000  3
   5412   5411   5413   5416     1  0.0000000  1.2552000  3
   5413   5411   5412   5422     1  0.0000000  1.2552000  3
   5413   5411   5412   5423     1  0.0000000  1.2552000  3
   5414   5413   5415   5419     1  0.0000000  0.6508444  3
   5414   5413   5415   5417     1  0.0000000  0.6508444  3
   5414   5413   5415   5418     1  0.0000000  0.6508444  3
   5415   5419   5420   5430     1  180.0000771  9.6232000  2
   5416   5413   5415   5419     1  0.0000000  0.6508444  3
   5416   5413   5415   5417     1  0.0000000  0.6508444  3
   5416   5413   5415   5418     1  0.0000000  0.6508444  3
   5417   5415   5419   5420     1  180.0000771  0.0000000  2
   5417   5415   5419   5421     1  0.0000000  3.3472000  1
   5417   5415   5419   5421     1  0.0000000  0.0000000  2
   5417   5415   5419   5421     1  180.0000771  0.3347200  3
   5418   5415   5419   5420     1  180.0000771  0.0000000  2
   5418   5415   5419   5421     1  0.0000000  3.3472000  1
   5418   5415   5419   5421     1  0.0000000  0.0000000  2
   5418   5415   5419   5421     1  180.0000771  0.3347200  3
   5421   5419   5420   5430     1  0.0000000  7.9496000  1
   5421   5419   5420   5430     1  180.0000771  9.6232000  2
   5422   5412   5424   5427     1  0.0000000  0.6508444  3
   5422   5412   5424   5425     1  0.0000000  0.6508444  3
   5422   5412   5424   5426     1  0.0000000  0.6508444  3
   5423   5412   5424   5427     1  0.0000000  0.6508444  3
   5423   5412   5424   5425     1  0.0000000  0.6508444  3
   5423   5412   5424   5426     1  0.0000000  0.6508444  3
   5424   5427   5429   5431     1  180.0000771  9.6232000  2
   5425   5424   5427   5428     1  0.0000000  3.3472000  1
   5425   5424   5427   5428     1  0.0000000  0.0000000  2
   5425   5424   5427   5428     1  180.0000771  0.3347200  3
   5425   5424   5427   5429     1  180.0000771  0.0000000  2
   5426   5424   5427   5428     1  0.0000000  3.3472000  1
   5426   5424   5427   5428     1  0.0000000  0.0000000  2
   5426   5424   5427   5428     1  180.0000771  0.3347200  3
   5426   5424   5427   5429     1  180.0000771  0.0000000  2
   5428   5427   5429   5431     1  0.0000000  7.9496000  1
   5428   5427   5429   5431     1  180.0000771  9.6232000  2
   5432   5434   5436   5438     1  0.0000000  0.6508444  3
   5432   5434   5436   5439     1  0.0000000  0.6508444  3
   5433   5432   5434   5436     1  0.0000000  0.0000000  2
   5433   5432   5434   5435     1  0.0000000  0.0000000  2
   5433   5432   5434   5437     1  0.0000000  0.0000000  2
   5435   5434   5436   5440     1  0.0000000  0.6508444  3
   5435   5434   5436   5438     1  0.0000000  0.6508444  3
   5435   5434   5436   5439     1  0.0000000  0.6508444  3
   5436   5440   5441   5451     1  0.0000000  1.2552000  3
   5436   5440   5441   5452     1  0.0000000  1.2552000  3
   5436   5440   5442   5443     1  0.0000000  1.2552000  3
   5436   5440   5442   5445     1  0.0000000  1.2552000  3
   5437   5434   5436   5440     1  0.0000000  0.6508444  3
   5437   5434   5436   5438     1  0.0000000  0.6508444  3
   5437   5434   5436   5439     1  0.0000000  0.6508444  3
   5438   5436   5440   5441     1  0.0000000  1.2552000  3
   5438   5436   5440   5442     1  0.0000000  1.2552000  3
   5439   5436   5440   5441     1  0.0000000  1.2552000  3
   5439   5436   5440   5442     1  0.0000000  1.2552000  3
   5440   5441   5453   5454     1  0.0000000  0.6508444  3
   5440   5441   5453   5455     1  0.0000000  0.6508444  3
   5440   5442   5444   5446     1  0.0000000  0.6508444  3
   5440   5442   5444   5447     1  0.0000000  0.6508444  3
   5441   5440   5442   5443     1  0.0000000  1.2552000  3
   5441   5440   5442   5445     1  0.0000000  1.2552000  3
   5442   5440   5441   5451     1  0.0000000  1.2552000  3
   5442   5440   5441   5452     1  0.0000000  1.2552000  3
   5443   5442   5444   5448     1  0.0000000  0.6508444  3
   5443   5442   5444   5446     1  0.0000000  0.6508444  3
   5443   5442   5444   5447     1  0.0000000  0.6508444  3
   5444   5448   5449   5459     1  180.0000771  9.6232000  2
   5445   5442   5444   5448     1  0.0000000  0.6508444  3
   5445   5442   5444   5446     1  0.0000000  0.6508444  3
   5445   5442   5444   5447     1  0.0000000  0.6508444  3
   5446   5444   5448   5449     1  180.0000771  0.0000000  2
   5446   5444   5448   5450     1  0.0000000  3.3472000  1
   5446   5444   5448   5450     1  0.0000000  0.0000000  2
   5446   5444   5448   5450     1  180.0000771  0.3347200  3
   5447   5444   5448   5449     1  180.0000771  0.0000000  2
   5447   5444   5448   5450     1  0.0000000  3.3472000  1
   5447   5444   5448   5450     1  0.0000000  0.0000000  2
   5447   5444   5448   5450     1  180.0000771  0.3347200  3
   5450   5448   5449   5459     1  0.0000000  7.9496000  1
   5450   5448   5449   5459     1  180.0000771  9.6232000  2
   5451   5441   5453   5456     1  0.0000000  0.6508444  3
   5451   5441   5453   5454     1  0.0000000  0.6508444  3
   5451   5441   5453   5455     1  0.0000000  0.6508444  3
   5452   5441   5453   5456     1  0.0000000  0.6508444  3
   5452   5441   5453   5454     1  0.0000000  0.6508444  3
   5452   5441   5453   5455     1  0.0000000  0.6508444  3
   5453   5456   5458   5460     1  180.0000771  9.6232000  2
   5454   5453   5456   5457     1  0.0000000  3.3472000  1
   5454   5453   5456   5457     1  0.0000000  0.0000000  2
   5454   5453   5456   5457     1  180.0000771  0.3347200  3
   5454   5453   5456   5458     1  180.0000771  0.0000000  2
   5455   5453   5456   5457     1  0.0000000  3.3472000  1
   5455   5453   5456   5457     1  0.0000000  0.0000000  2
   5455   5453   5456   5457     1  180.0000771  0.3347200  3
   5455   5453   5456   5458     1  180.0000771  0.0000000  2
   5457   5456   5458   5460     1  0.0000000  7.9496000  1
   5457   5456   5458   5460     1  180.0000771  9.6232000  2
   5461   5463   5465   5467     1  0.0000000  0.6508444  3
   5461   5463   5465   5468     1  0.0000000  0.6508444  3
   5462   5461   5463   5465     1  0.0000000  0.0000000  2
   5462   5461   5463   5464     1  0.0000000  0.0000000  2
   5462   5461   5463   5466     1  0.0000000  0.0000000  2
   5464   5463   5465   5469     1  0.0000000  0.6508444  3
   5464   5463   5465   5467     1  0.0000000  0.6508444  3
   5464   5463   5465   5468     1  0.0000000  0.6508444  3
   5465   5469   5470   5480     1  0.0000000  1.2552000  3
   5465   5469   5470   5481     1  0.0000000  1.2552000  3
   5465   5469   5471   5472     1  0.0000000  1.2552000  3
   5465   5469   5471   5474     1  0.0000000  1.2552000  3
   5466   5463   5465   5469     1  0.0000000  0.6508444  3
   5466   5463   5465   5467     1  0.0000000  0.6508444  3
   5466   5463   5465   5468     1  0.0000000  0.6508444  3
   5467   5465   5469   5470     1  0.0000000  1.2552000  3
   5467   5465   5469   5471     1  0.0000000  1.2552000  3
   5468   5465   5469   5470     1  0.0000000  1.2552000  3
   5468   5465   5469   5471     1  0.0000000  1.2552000  3
   5469   5470   5482   5483     1  0.0000000  0.6508444  3
   5469   5470   5482   5484     1  0.0000000  0.6508444  3
   5469   5471   5473   5475     1  0.0000000  0.6508444  3
   5469   5471   5473   5476     1  0.0000000  0.6508444  3
   5470   5469   5471   5472     1  0.0000000  1.2552000  3
   5470   5469   5471   5474     1  0.0000000  1.2552000  3
   5471   5469   5470   5480     1  0.0000000  1.2552000  3
   5471   5469   5470   5481     1  0.0000000  1.2552000  3
   5472   5471   5473   5477     1  0.0000000  0.6508444  3
   5472   5471   5473   5475     1  0.0000000  0.6508444  3
   5472   5471   5473   5476     1  0.0000000  0.6508444  3
   5473   5477   5478   5488     1  180.0000771  9.6232000  2
   5474   5471   5473   5477     1  0.0000000  0.6508444  3
   5474   5471   5473   5475     1  0.0000000  0.6508444  3
   5474   5471   5473   5476     1  0.0000000  0.6508444  3
   5475   5473   5477   5478     1  180.0000771  0.0000000  2
   5475   5473   5477   5479     1  0.0000000  3.3472000  1
   5475   5473   5477   5479     1  0.0000000  0.0000000  2
   5475   5473   5477   5479     1  180.0000771  0.3347200  3
   5476   5473   5477   5478     1  180.0000771  0.0000000  2
   5476   5473   5477   5479     1  0.0000000  3.3472000  1
   5476   5473   5477   5479     1  0.0000000  0.0000000  2
   5476   5473   5477   5479     1  180.0000771  0.3347200  3
   5479   5477   5478   5488     1  0.0000000  7.9496000  1
   5479   5477   5478   5488     1  180.0000771  9.6232000  2
   5480   5470   5482   5485     1  0.0000000  0.6508444  3
   5480   5470   5482   5483     1  0.0000000  0.6508444  3
   5480   5470   5482   5484     1  0.0000000  0.6508444  3
   5481   5470   5482   5485     1  0.0000000  0.6508444  3
   5481   5470   5482   5483     1  0.0000000  0.6508444  3
   5481   5470   5482   5484     1  0.0000000  0.6508444  3
   5482   5485   5487   5489     1  180.0000771  9.6232000  2
   5483   5482   5485   5486     1  0.0000000  3.3472000  1
   5483   5482   5485   5486     1  0.0000000  0.0000000  2
   5483   5482   5485   5486     1  180.0000771  0.3347200  3
   5483   5482   5485   5487     1  180.0000771  0.0000000  2
   5484   5482   5485   5486     1  0.0000000  3.3472000  1
   5484   5482   5485   5486     1  0.0000000  0.0000000  2
   5484   5482   5485   5486     1  180.0000771  0.3347200  3
   5484   5482   5485   5487     1  180.0000771  0.0000000  2
   5486   5485   5487   5489     1  0.0000000  7.9496000  1
   5486   5485   5487   5489     1  180.0000771  9.6232000  2
   5490   5492   5494   5496     1  0.0000000  0.6508444  3
   5490   5492   5494   5497     1  0.0000000  0.6508444  3
   5491   5490   5492   5494     1  0.0000000  0.0000000  2
   5491   5490   5492   5493     1  0.0000000  0.0000000  2
   5491   5490   5492   5495     1  0.0000000  0.0000000  2
   5493   5492   5494   5498     1  0.0000000  0.6508444  3
   5493   5492   5494   5496     1  0.0000000  0.6508444  3
   5493   5492   5494   5497     1  0.0000000  0.6508444  3
   5494   5498   5499   5509     1  0.0000000  1.2552000  3
   5494   5498   5499   5510     1  0.0000000  1.2552000  3
   5494   5498   5500   5501     1  0.0000000  1.2552000  3
   5494   5498   5500   5503     1  0.0000000  1.2552000  3
   5495   5492   5494   5498     1  0.0000000  0.6508444  3
   5495   5492   5494   5496     1  0.0000000  0.6508444  3
   5495   5492   5494   5497     1  0.0000000  0.6508444  3
   5496   5494   5498   5499     1  0.0000000  1.2552000  3
   5496   5494   5498   5500     1  0.0000000  1.2552000  3
   5497   5494   5498   5499     1  0.0000000  1.2552000  3
   5497   5494   5498   5500     1  0.0000000  1.2552000  3
   5498   5499   5511   5512     1  0.0000000  0.6508444  3
   5498   5499   5511   5513     1  0.0000000  0.6508444  3
   5498   5500   5502   5504     1  0.0000000  0.6508444  3
   5498   5500   5502   5505     1  0.0000000  0.6508444  3
   5499   5498   5500   5501     1  0.0000000  1.2552000  3
   5499   5498   5500   5503     1  0.0000000  1.2552000  3
   5500   5498   5499   5509     1  0.0000000  1.2552000  3
   5500   5498   5499   5510     1  0.0000000  1.2552000  3
   5501   5500   5502   5506     1  0.0000000  0.6508444  3
   5501   5500   5502   5504     1  0.0000000  0.6508444  3
   5501   5500   5502   5505     1  0.0000000  0.6508444  3
   5502   5506   5507   5517     1  180.0000771  9.6232000  2
   5503   5500   5502   5506     1  0.0000000  0.6508444  3
   5503   5500   5502   5504     1  0.0000000  0.6508444  3
   5503   5500   5502   5505     1  0.0000000  0.6508444  3
   5504   5502   5506   5507     1  180.0000771  0.0000000  2
   5504   5502   5506   5508     1  0.0000000  3.3472000  1
   5504   5502   5506   5508     1  0.0000000  0.0000000  2
   5504   5502   5506   5508     1  180.0000771  0.3347200  3
   5505   5502   5506   5507     1  180.0000771  0.0000000  2
   5505   5502   5506   5508     1  0.0000000  3.3472000  1
   5505   5502   5506   5508     1  0.0000000  0.0000000  2
   5505   5502   5506   5508     1  180.0000771  0.3347200  3
   5508   5506   5507   5517     1  0.0000000  7.9496000  1
   5508   5506   5507   5517     1  180.0000771  9.6232000  2
   5509   5499   5511   5514     1  0.0000000  0.6508444  3
   5509   5499   5511   5512     1  0.0000000  0.6508444  3
   5509   5499   5511   5513     1  0.0000000  0.6508444  3
   5510   5499   5511   5514     1  0.0000000  0.6508444  3
   5510   5499   5511   5512     1  0.0000000  0.6508444  3
   5510   5499   5511   5513     1  0.0000000  0.6508444  3
   5511   5514   5516   5518     1  180.0000771  9.6232000  2
   5512   5511   5514   5515     1  0.0000000  3.3472000  1
   5512   5511   5514   5515     1  0.0000000  0.0000000  2
   5512   5511   5514   5515     1  180.0000771  0.3347200  3
   5512   5511   5514   5516     1  180.0000771  0.0000000  2
   5513   5511   5514   5515     1  0.0000000  3.3472000  1
   5513   5511   5514   5515     1  0.0000000  0.0000000  2
   5513   5511   5514   5515     1  180.0000771  0.3347200  3
   5513   5511   5514   5516     1  180.0000771  0.0000000  2
   5515   5514   5516   5518     1  0.0000000  7.9496000  1
   5515   5514   5516   5518     1  180.0000771  9.6232000  2
   5519   5521   5523   5525     1  0.0000000  0.6508444  3
   5519   5521   5523   5526     1  0.0000000  0.6508444  3
   5520   5519   5521   5523     1  0.0000000  0.0000000  2
   5520   5519   5521   5522     1  0.0000000  0.0000000  2
   5520   5519   5521   5524     1  0.0000000  0.0000000  2
   5522   5521   5523   5527     1  0.0000000  0.6508444  3
   5522   5521   5523   5525     1  0.0000000  0.6508444  3
   5522   5521   5523   5526     1  0.0000000  0.6508444  3
   5523   5527   5528   5538     1  0.0000000  1.2552000  3
   5523   5527   5528   5539     1  0.0000000  1.2552000  3
   5523   5527   5529   5530     1  0.0000000  1.2552000  3
   5523   5527   5529   5532     1  0.0000000  1.2552000  3
   5524   5521   5523   5527     1  0.0000000  0.6508444  3
   5524   5521   5523   5525     1  0.0000000  0.6508444  3
   5524   5521   5523   5526     1  0.0000000  0.6508444  3
   5525   5523   5527   5528     1  0.0000000  1.2552000  3
   5525   5523   5527   5529     1  0.0000000  1.2552000  3
   5526   5523   5527   5528     1  0.0000000  1.2552000  3
   5526   5523   5527   5529     1  0.0000000  1.2552000  3
   5527   5528   5540   5541     1  0.0000000  0.6508444  3
   5527   5528   5540   5542     1  0.0000000  0.6508444  3
   5527   5529   5531   5533     1  0.0000000  0.6508444  3
   5527   5529   5531   5534     1  0.0000000  0.6508444  3
   5528   5527   5529   5530     1  0.0000000  1.2552000  3
   5528   5527   5529   5532     1  0.0000000  1.2552000  3
   5529   5527   5528   5538     1  0.0000000  1.2552000  3
   5529   5527   5528   5539     1  0.0000000  1.2552000  3
   5530   5529   5531   5535     1  0.0000000  0.6508444  3
   5530   5529   5531   5533     1  0.0000000  0.6508444  3
   5530   5529   5531   5534     1  0.0000000  0.6508444  3
   5531   5535   5536   5546     1  180.0000771  9.6232000  2
   5532   5529   5531   5535     1  0.0000000  0.6508444  3
   5532   5529   5531   5533     1  0.0000000  0.6508444  3
   5532   5529   5531   5534     1  0.0000000  0.6508444  3
   5533   5531   5535   5536     1  180.0000771  0.0000000  2
   5533   5531   5535   5537     1  0.0000000  3.3472000  1
   5533   5531   5535   5537     1  0.0000000  0.0000000  2
   5533   5531   5535   5537     1  180.0000771  0.3347200  3
   5534   5531   5535   5536     1  180.0000771  0.0000000  2
   5534   5531   5535   5537     1  0.0000000  3.3472000  1
   5534   5531   5535   5537     1  0.0000000  0.0000000  2
   5534   5531   5535   5537     1  180.0000771  0.3347200  3
   5537   5535   5536   5546     1  0.0000000  7.9496000  1
   5537   5535   5536   5546     1  180.0000771  9.6232000  2
   5538   5528   5540   5543     1  0.0000000  0.6508444  3
   5538   5528   5540   5541     1  0.0000000  0.6508444  3
   5538   5528   5540   5542     1  0.0000000  0.6508444  3
   5539   5528   5540   5543     1  0.0000000  0.6508444  3
   5539   5528   5540   5541     1  0.0000000  0.6508444  3
   5539   5528   5540   5542     1  0.0000000  0.6508444  3
   5540   5543   5545   5547     1  180.0000771  9.6232000  2
   5541   5540   5543   5544     1  0.0000000  3.3472000  1
   5541   5540   5543   5544     1  0.0000000  0.0000000  2
   5541   5540   5543   5544     1  180.0000771  0.3347200  3
   5541   5540   5543   5545     1  180.0000771  0.0000000  2
   5542   5540   5543   5544     1  0.0000000  3.3472000  1
   5542   5540   5543   5544     1  0.0000000  0.0000000  2
   5542   5540   5543   5544     1  180.0000771  0.3347200  3
   5542   5540   5543   5545     1  180.0000771  0.0000000  2
   5544   5543   5545   5547     1  0.0000000  7.9496000  1
   5544   5543   5545   5547     1  180.0000771  9.6232000  2
   5548   5550   5552   5554     1  0.0000000  0.6508444  3
   5548   5550   5552   5555     1  0.0000000  0.6508444  3
   5549   5548   5550   5552     1  0.0000000  0.0000000  2
   5549   5548   5550   5551     1  0.0000000  0.0000000  2
   5549   5548   5550   5553     1  0.0000000  0.0000000  2
   5551   5550   5552   5556     1  0.0000000  0.6508444  3
   5551   5550   5552   5554     1  0.0000000  0.6508444  3
   5551   5550   5552   5555     1  0.0000000  0.6508444  3
   5552   5556   5557   5567     1  0.0000000  1.2552000  3
   5552   5556   5557   5568     1  0.0000000  1.2552000  3
   5552   5556   5558   5559     1  0.0000000  1.2552000  3
   5552   5556   5558   5561     1  0.0000000  1.2552000  3
   5553   5550   5552   5556     1  0.0000000  0.6508444  3
   5553   5550   5552   5554     1  0.0000000  0.6508444  3
   5553   5550   5552   5555     1  0.0000000  0.6508444  3
   5554   5552   5556   5557     1  0.0000000  1.2552000  3
   5554   5552   5556   5558     1  0.0000000  1.2552000  3
   5555   5552   5556   5557     1  0.0000000  1.2552000  3
   5555   5552   5556   5558     1  0.0000000  1.2552000  3
   5556   5557   5569   5570     1  0.0000000  0.6508444  3
   5556   5557   5569   5571     1  0.0000000  0.6508444  3
   5556   5558   5560   5562     1  0.0000000  0.6508444  3
   5556   5558   5560   5563     1  0.0000000  0.6508444  3
   5557   5556   5558   5559     1  0.0000000  1.2552000  3
   5557   5556   5558   5561     1  0.0000000  1.2552000  3
   5558   5556   5557   5567     1  0.0000000  1.2552000  3
   5558   5556   5557   5568     1  0.0000000  1.2552000  3
   5559   5558   5560   5564     1  0.0000000  0.6508444  3
   5559   5558   5560   5562     1  0.0000000  0.6508444  3
   5559   5558   5560   5563     1  0.0000000  0.6508444  3
   5560   5564   5565   5575     1  180.0000771  9.6232000  2
   5561   5558   5560   5564     1  0.0000000  0.6508444  3
   5561   5558   5560   5562     1  0.0000000  0.6508444  3
   5561   5558   5560   5563     1  0.0000000  0.6508444  3
   5562   5560   5564   5565     1  180.0000771  0.0000000  2
   5562   5560   5564   5566     1  0.0000000  3.3472000  1
   5562   5560   5564   5566     1  0.0000000  0.0000000  2
   5562   5560   5564   5566     1  180.0000771  0.3347200  3
   5563   5560   5564   5565     1  180.0000771  0.0000000  2
   5563   5560   5564   5566     1  0.0000000  3.3472000  1
   5563   5560   5564   5566     1  0.0000000  0.0000000  2
   5563   5560   5564   5566     1  180.0000771  0.3347200  3
   5566   5564   5565   5575     1  0.0000000  7.9496000  1
   5566   5564   5565   5575     1  180.0000771  9.6232000  2
   5567   5557   5569   5572     1  0.0000000  0.6508444  3
   5567   5557   5569   5570     1  0.0000000  0.6508444  3
   5567   5557   5569   5571     1  0.0000000  0.6508444  3
   5568   5557   5569   5572     1  0.0000000  0.6508444  3
   5568   5557   5569   5570     1  0.0000000  0.6508444  3
   5568   5557   5569   5571     1  0.0000000  0.6508444  3
   5569   5572   5574   5576     1  180.0000771  9.6232000  2
   5570   5569   5572   5573     1  0.0000000  3.3472000  1
   5570   5569   5572   5573     1  0.0000000  0.0000000  2
   5570   5569   5572   5573     1  180.0000771  0.3347200  3
   5570   5569   5572   5574     1  180.0000771  0.0000000  2
   5571   5569   5572   5573     1  0.0000000  3.3472000  1
   5571   5569   5572   5573     1  0.0000000  0.0000000  2
   5571   5569   5572   5573     1  180.0000771  0.3347200  3
   5571   5569   5572   5574     1  180.0000771  0.0000000  2
   5573   5572   5574   5576     1  0.0000000  7.9496000  1
   5573   5572   5574   5576     1  180.0000771  9.6232000  2
   5577   5579   5581   5583     1  0.0000000  0.6508444  3
   5577   5579   5581   5584     1  0.0000000  0.6508444  3
   5578   5577   5579   5581     1  0.0000000  0.0000000  2
   5578   5577   5579   5580     1  0.0000000  0.0000000  2
   5578   5577   5579   5582     1  0.0000000  0.0000000  2
   5580   5579   5581   5585     1  0.0000000  0.6508444  3
   5580   5579   5581   5583     1  0.0000000  0.6508444  3
   5580   5579   5581   5584     1  0.0000000  0.6508444  3
   5581   5585   5586   5596     1  0.0000000  1.2552000  3
   5581   5585   5586   5597     1  0.0000000  1.2552000  3
   5581   5585   5587   5588     1  0.0000000  1.2552000  3
   5581   5585   5587   5590     1  0.0000000  1.2552000  3
   5582   5579   5581   5585     1  0.0000000  0.6508444  3
   5582   5579   5581   5583     1  0.0000000  0.6508444  3
   5582   5579   5581   5584     1  0.0000000  0.6508444  3
   5583   5581   5585   5586     1  0.0000000  1.2552000  3
   5583   5581   5585   5587     1  0.0000000  1.2552000  3
   5584   5581   5585   5586     1  0.0000000  1.2552000  3
   5584   5581   5585   5587     1  0.0000000  1.2552000  3
   5585   5586   5598   5599     1  0.0000000  0.6508444  3
   5585   5586   5598   5600     1  0.0000000  0.6508444  3
   5585   5587   5589   5591     1  0.0000000  0.6508444  3
   5585   5587   5589   5592     1  0.0000000  0.6508444  3
   5586   5585   5587   5588     1  0.0000000  1.2552000  3
   5586   5585   5587   5590     1  0.0000000  1.2552000  3
   5587   5585   5586   5596     1  0.0000000  1.2552000  3
   5587   5585   5586   5597     1  0.0000000  1.2552000  3
   5588   5587   5589   5593     1  0.0000000  0.6508444  3
   5588   5587   5589   5591     1  0.0000000  0.6508444  3
   5588   5587   5589   5592     1  0.0000000  0.6508444  3
   5589   5593   5594   5604     1  180.0000771  9.6232000  2
   5590   5587   5589   5593     1  0.0000000  0.6508444  3
   5590   5587   5589   5591     1  0.0000000  0.6508444  3
   5590   5587   5589   5592     1  0.0000000  0.6508444  3
   5591   5589   5593   5594     1  180.0000771  0.0000000  2
   5591   5589   5593   5595     1  0.0000000  3.3472000  1
   5591   5589   5593   5595     1  0.0000000  0.0000000  2
   5591   5589   5593   5595     1  180.0000771  0.3347200  3
   5592   5589   5593   5594     1  180.0000771  0.0000000  2
   5592   5589   5593   5595     1  0.0000000  3.3472000  1
   5592   5589   5593   5595     1  0.0000000  0.0000000  2
   5592   5589   5593   5595     1  180.0000771  0.3347200  3
   5595   5593   5594   5604     1  0.0000000  7.9496000  1
   5595   5593   5594   5604     1  180.0000771  9.6232000  2
   5596   5586   5598   5601     1  0.0000000  0.6508444  3
   5596   5586   5598   5599     1  0.0000000  0.6508444  3
   5596   5586   5598   5600     1  0.0000000  0.6508444  3
   5597   5586   5598   5601     1  0.0000000  0.6508444  3
   5597   5586   5598   5599     1  0.0000000  0.6508444  3
   5597   5586   5598   5600     1  0.0000000  0.6508444  3
   5598   5601   5603   5605     1  180.0000771  9.6232000  2
   5599   5598   5601   5602     1  0.0000000  3.3472000  1
   5599   5598   5601   5602     1  0.0000000  0.0000000  2
   5599   5598   5601   5602     1  180.0000771  0.3347200  3
   5599   5598   5601   5603     1  180.0000771  0.0000000  2
   5600   5598   5601   5602     1  0.0000000  3.3472000  1
   5600   5598   5601   5602     1  0.0000000  0.0000000  2
   5600   5598   5601   5602     1  180.0000771  0.3347200  3
   5600   5598   5601   5603     1  180.0000771  0.0000000  2
   5602   5601   5603   5605     1  0.0000000  7.9496000  1
   5602   5601   5603   5605     1  180.0000771  9.6232000  2
   5606   5608   5610   5612     1  0.0000000  0.6508444  3
   5606   5608   5610   5613     1  0.0000000  0.6508444  3
   5607   5606   5608   5610     1  0.0000000  0.0000000  2
   5607   5606   5608   5609     1  0.0000000  0.0000000  2
   5607   5606   5608   5611     1  0.0000000  0.0000000  2
   5609   5608   5610   5614     1  0.0000000  0.6508444  3
   5609   5608   5610   5612     1  0.0000000  0.6508444  3
   5609   5608   5610   5613     1  0.0000000  0.6508444  3
   5610   5614   5615   5625     1  0.0000000  1.2552000  3
   5610   5614   5615   5626     1  0.0000000  1.2552000  3
   5610   5614   5616   5617     1  0.0000000  1.2552000  3
   5610   5614   5616   5619     1  0.0000000  1.2552000  3
   5611   5608   5610   5614     1  0.0000000  0.6508444  3
   5611   5608   5610   5612     1  0.0000000  0.6508444  3
   5611   5608   5610   5613     1  0.0000000  0.6508444  3
   5612   5610   5614   5615     1  0.0000000  1.2552000  3
   5612   5610   5614   5616     1  0.0000000  1.2552000  3
   5613   5610   5614   5615     1  0.0000000  1.2552000  3
   5613   5610   5614   5616     1  0.0000000  1.2552000  3
   5614   5615   5627   5628     1  0.0000000  0.6508444  3
   5614   5615   5627   5629     1  0.0000000  0.6508444  3
   5614   5616   5618   5620     1  0.0000000  0.6508444  3
   5614   5616   5618   5621     1  0.0000000  0.6508444  3
   5615   5614   5616   5617     1  0.0000000  1.2552000  3
   5615   5614   5616   5619     1  0.0000000  1.2552000  3
   5616   5614   5615   5625     1  0.0000000  1.2552000  3
   5616   5614   5615   5626     1  0.0000000  1.2552000  3
   5617   5616   5618   5622     1  0.0000000  0.6508444  3
   5617   5616   5618   5620     1  0.0000000  0.6508444  3
   5617   5616   5618   5621     1  0.0000000  0.6508444  3
   5618   5622   5623   5633     1  180.0000771  9.6232000  2
   5619   5616   5618   5622     1  0.0000000  0.6508444  3
   5619   5616   5618   5620     1  0.0000000  0.6508444  3
   5619   5616   5618   5621     1  0.0000000  0.6508444  3
   5620   5618   5622   5623     1  180.0000771  0.0000000  2
   5620   5618   5622   5624     1  0.0000000  3.3472000  1
   5620   5618   5622   5624     1  0.0000000  0.0000000  2
   5620   5618   5622   5624     1  180.0000771  0.3347200  3
   5621   5618   5622   5623     1  180.0000771  0.0000000  2
   5621   5618   5622   5624     1  0.0000000  3.3472000  1
   5621   5618   5622   5624     1  0.0000000  0.0000000  2
   5621   5618   5622   5624     1  180.0000771  0.3347200  3
   5624   5622   5623   5633     1  0.0000000  7.9496000  1
   5624   5622   5623   5633     1  180.0000771  9.6232000  2
   5625   5615   5627   5630     1  0.0000000  0.6508444  3
   5625   5615   5627   5628     1  0.0000000  0.6508444  3
   5625   5615   5627   5629     1  0.0000000  0.6508444  3
   5626   5615   5627   5630     1  0.0000000  0.6508444  3
   5626   5615   5627   5628     1  0.0000000  0.6508444  3
   5626   5615   5627   5629     1  0.0000000  0.6508444  3
   5627   5630   5632   5634     1  180.0000771  9.6232000  2
   5628   5627   5630   5631     1  0.0000000  3.3472000  1
   5628   5627   5630   5631     1  0.0000000  0.0000000  2
   5628   5627   5630   5631     1  180.0000771  0.3347200  3
   5628   5627   5630   5632     1  180.0000771  0.0000000  2
   5629   5627   5630   5631     1  0.0000000  3.3472000  1
   5629   5627   5630   5631     1  0.0000000  0.0000000  2
   5629   5627   5630   5631     1  180.0000771  0.3347200  3
   5629   5627   5630   5632     1  180.0000771  0.0000000  2
   5631   5630   5632   5634     1  0.0000000  7.9496000  1
   5631   5630   5632   5634     1  180.0000771  9.6232000  2
   5635   5637   5639   5641     1  0.0000000  0.6508444  3
   5635   5637   5639   5642     1  0.0000000  0.6508444  3
   5636   5635   5637   5639     1  0.0000000  0.0000000  2
   5636   5635   5637   5638     1  0.0000000  0.0000000  2
   5636   5635   5637   5640     1  0.0000000  0.0000000  2
   5638   5637   5639   5643     1  0.0000000  0.6508444  3
   5638   5637   5639   5641     1  0.0000000  0.6508444  3
   5638   5637   5639   5642     1  0.0000000  0.6508444  3
   5639   5643   5644   5654     1  0.0000000  1.2552000  3
   5639   5643   5644   5655     1  0.0000000  1.2552000  3
   5639   5643   5645   5646     1  0.0000000  1.2552000  3
   5639   5643   5645   5648     1  0.0000000  1.2552000  3
   5640   5637   5639   5643     1  0.0000000  0.6508444  3
   5640   5637   5639   5641     1  0.0000000  0.6508444  3
   5640   5637   5639   5642     1  0.0000000  0.6508444  3
   5641   5639   5643   5644     1  0.0000000  1.2552000  3
   5641   5639   5643   5645     1  0.0000000  1.2552000  3
   5642   5639   5643   5644     1  0.0000000  1.2552000  3
   5642   5639   5643   5645     1  0.0000000  1.2552000  3
   5643   5644   5656   5657     1  0.0000000  0.6508444  3
   5643   5644   5656   5658     1  0.0000000  0.6508444  3
   5643   5645   5647   5649     1  0.0000000  0.6508444  3
   5643   5645   5647   5650     1  0.0000000  0.6508444  3
   5644   5643   5645   5646     1  0.0000000  1.2552000  3
   5644   5643   5645   5648     1  0.0000000  1.2552000  3
   5645   5643   5644   5654     1  0.0000000  1.2552000  3
   5645   5643   5644   5655     1  0.0000000  1.2552000  3
   5646   5645   5647   5651     1  0.0000000  0.6508444  3
   5646   5645   5647   5649     1  0.0000000  0.6508444  3
   5646   5645   5647   5650     1  0.0000000  0.6508444  3
   5647   5651   5652   5662     1  180.0000771  9.6232000  2
   5648   5645   5647   5651     1  0.0000000  0.6508444  3
   5648   5645   5647   5649     1  0.0000000  0.6508444  3
   5648   5645   5647   5650     1  0.0000000  0.6508444  3
   5649   5647   5651   5652     1  180.0000771  0.0000000  2
   5649   5647   5651   5653     1  0.0000000  3.3472000  1
   5649   5647   5651   5653     1  0.0000000  0.0000000  2
   5649   5647   5651   5653     1  180.0000771  0.3347200  3
   5650   5647   5651   5652     1  180.0000771  0.0000000  2
   5650   5647   5651   5653     1  0.0000000  3.3472000  1
   5650   5647   5651   5653     1  0.0000000  0.0000000  2
   5650   5647   5651   5653     1  180.0000771  0.3347200  3
   5653   5651   5652   5662     1  0.0000000  7.9496000  1
   5653   5651   5652   5662     1  180.0000771  9.6232000  2
   5654   5644   5656   5659     1  0.0000000  0.6508444  3
   5654   5644   5656   5657     1  0.0000000  0.6508444  3
   5654   5644   5656   5658     1  0.0000000  0.6508444  3
   5655   5644   5656   5659     1  0.0000000  0.6508444  3
   5655   5644   5656   5657     1  0.0000000  0.6508444  3
   5655   5644   5656   5658     1  0.0000000  0.6508444  3
   5656   5659   5661   5663     1  180.0000771  9.6232000  2
   5657   5656   5659   5660     1  0.0000000  3.3472000  1
   5657   5656   5659   5660     1  0.0000000  0.0000000  2
   5657   5656   5659   5660     1  180.0000771  0.3347200  3
   5657   5656   5659   5661     1  180.0000771  0.0000000  2
   5658   5656   5659   5660     1  0.0000000  3.3472000  1
   5658   5656   5659   5660     1  0.0000000  0.0000000  2
   5658   5656   5659   5660     1  180.0000771  0.3347200  3
   5658   5656   5659   5661     1  180.0000771  0.0000000  2
   5660   5659   5661   5663     1  0.0000000  7.9496000  1
   5660   5659   5661   5663     1  180.0000771  9.6232000  2
   5664   5666   5668   5670     1  0.0000000  0.6508444  3
   5664   5666   5668   5671     1  0.0000000  0.6508444  3
   5665   5664   5666   5668     1  0.0000000  0.0000000  2
   5665   5664   5666   5667     1  0.0000000  0.0000000  2
   5665   5664   5666   5669     1  0.0000000  0.0000000  2
   5667   5666   5668   5672     1  0.0000000  0.6508444  3
   5667   5666   5668   5670     1  0.0000000  0.6508444  3
   5667   5666   5668   5671     1  0.0000000  0.6508444  3
   5668   5672   5673   5683     1  0.0000000  1.2552000  3
   5668   5672   5673   5684     1  0.0000000  1.2552000  3
   5668   5672   5674   5675     1  0.0000000  1.2552000  3
   5668   5672   5674   5677     1  0.0000000  1.2552000  3
   5669   5666   5668   5672     1  0.0000000  0.6508444  3
   5669   5666   5668   5670     1  0.0000000  0.6508444  3
   5669   5666   5668   5671     1  0.0000000  0.6508444  3
   5670   5668   5672   5673     1  0.0000000  1.2552000  3
   5670   5668   5672   5674     1  0.0000000  1.2552000  3
   5671   5668   5672   5673     1  0.0000000  1.2552000  3
   5671   5668   5672   5674     1  0.0000000  1.2552000  3
   5672   5673   5685   5686     1  0.0000000  0.6508444  3
   5672   5673   5685   5687     1  0.0000000  0.6508444  3
   5672   5674   5676   5678     1  0.0000000  0.6508444  3
   5672   5674   5676   5679     1  0.0000000  0.6508444  3
   5673   5672   5674   5675     1  0.0000000  1.2552000  3
   5673   5672   5674   5677     1  0.0000000  1.2552000  3
   5674   5672   5673   5683     1  0.0000000  1.2552000  3
   5674   5672   5673   5684     1  0.0000000  1.2552000  3
   5675   5674   5676   5680     1  0.0000000  0.6508444  3
   5675   5674   5676   5678     1  0.0000000  0.6508444  3
   5675   5674   5676   5679     1  0.0000000  0.6508444  3
   5676   5680   5681   5691     1  180.0000771  9.6232000  2
   5677   5674   5676   5680     1  0.0000000  0.6508444  3
   5677   5674   5676   5678     1  0.0000000  0.6508444  3
   5677   5674   5676   5679     1  0.0000000  0.6508444  3
   5678   5676   5680   5681     1  180.0000771  0.0000000  2
   5678   5676   5680   5682     1  0.0000000  3.3472000  1
   5678   5676   5680   5682     1  0.0000000  0.0000000  2
   5678   5676   5680   5682     1  180.0000771  0.3347200  3
   5679   5676   5680   5681     1  180.0000771  0.0000000  2
   5679   5676   5680   5682     1  0.0000000  3.3472000  1
   5679   5676   5680   5682     1  0.0000000  0.0000000  2
   5679   5676   5680   5682     1  180.0000771  0.3347200  3
   5682   5680   5681   5691     1  0.0000000  7.9496000  1
   5682   5680   5681   5691     1  180.0000771  9.6232000  2
   5683   5673   5685   5688     1  0.0000000  0.6508444  3
   5683   5673   5685   5686     1  0.0000000  0.6508444  3
   5683   5673   5685   5687     1  0.0000000  0.6508444  3
   5684   5673   5685   5688     1  0.0000000  0.6508444  3
   5684   5673   5685   5686     1  0.0000000  0.6508444  3
   5684   5673   5685   5687     1  0.0000000  0.6508444  3
   5685   5688   5690   5692     1  180.0000771  9.6232000  2
   5686   5685   5688   5689     1  0.0000000  3.3472000  1
   5686   5685   5688   5689     1  0.0000000  0.0000000  2
   5686   5685   5688   5689     1  180.0000771  0.3347200  3
   5686   5685   5688   5690     1  180.0000771  0.0000000  2
   5687   5685   5688   5689     1  0.0000000  3.3472000  1
   5687   5685   5688   5689     1  0.0000000  0.0000000  2
   5687   5685   5688   5689     1  180.0000771  0.3347200  3
   5687   5685   5688   5690     1  180.0000771  0.0000000  2
   5689   5688   5690   5692     1  0.0000000  7.9496000  1
   5689   5688   5690   5692     1  180.0000771  9.6232000  2
   5693   5695   5697   5699     1  0.0000000  0.6508444  3
   5693   5695   5697   5700     1  0.0000000  0.6508444  3
   5694   5693   5695   5697     1  0.0000000  0.0000000  2
   5694   5693   5695   5696     1  0.0000000  0.0000000  2
   5694   5693   5695   5698     1  0.0000000  0.0000000  2
   5696   5695   5697   5701     1  0.0000000  0.6508444  3
   5696   5695   5697   5699     1  0.0000000  0.6508444  3
   5696   5695   5697   5700     1  0.0000000  0.6508444  3
   5697   5701   5702   5712     1  0.0000000  1.2552000  3
   5697   5701   5702   5713     1  0.0000000  1.2552000  3
   5697   5701   5703   5704     1  0.0000000  1.2552000  3
   5697   5701   5703   5706     1  0.0000000  1.2552000  3
   5698   5695   5697   5701     1  0.0000000  0.6508444  3
   5698   5695   5697   5699     1  0.0000000  0.6508444  3
   5698   5695   5697   5700     1  0.0000000  0.6508444  3
   5699   5697   5701   5702     1  0.0000000  1.2552000  3
   5699   5697   5701   5703     1  0.0000000  1.2552000  3
   5700   5697   5701   5702     1  0.0000000  1.2552000  3
   5700   5697   5701   5703     1  0.0000000  1.2552000  3
   5701   5702   5714   5715     1  0.0000000  0.6508444  3
   5701   5702   5714   5716     1  0.0000000  0.6508444  3
   5701   5703   5705   5707     1  0.0000000  0.6508444  3
   5701   5703   5705   5708     1  0.0000000  0.6508444  3
   5702   5701   5703   5704     1  0.0000000  1.2552000  3
   5702   5701   5703   5706     1  0.0000000  1.2552000  3
   5703   5701   5702   5712     1  0.0000000  1.2552000  3
   5703   5701   5702   5713     1  0.0000000  1.2552000  3
   5704   5703   5705   5709     1  0.0000000  0.6508444  3
   5704   5703   5705   5707     1  0.0000000  0.6508444  3
   5704   5703   5705   5708     1  0.0000000  0.6508444  3
   5705   5709   5710   5720     1  180.0000771  9.6232000  2
   5706   5703   5705   5709     1  0.0000000  0.6508444  3
   5706   5703   5705   5707     1  0.0000000  0.6508444  3
   5706   5703   5705   5708     1  0.0000000  0.6508444  3
   5707   5705   5709   5710     1  180.0000771  0.0000000  2
   5707   5705   5709   5711     1  0.0000000  3.3472000  1
   5707   5705   5709   5711     1  0.0000000  0.0000000  2
   5707   5705   5709   5711     1  180.0000771  0.3347200  3
   5708   5705   5709   5710     1  180.0000771  0.0000000  2
   5708   5705   5709   5711     1  0.0000000  3.3472000  1
   5708   5705   5709   5711     1  0.0000000  0.0000000  2
   5708   5705   5709   5711     1  180.0000771  0.3347200  3
   5711   5709   5710   5720     1  0.0000000  7.9496000  1
   5711   5709   5710   5720     1  180.0000771  9.6232000  2
   5712   5702   5714   5717     1  0.0000000  0.6508444  3
   5712   5702   5714   5715     1  0.0000000  0.6508444  3
   5712   5702   5714   5716     1  0.0000000  0.6508444  3
   5713   5702   5714   5717     1  0.0000000  0.6508444  3
   5713   5702   5714   5715     1  0.0000000  0.6508444  3
   5713   5702   5714   5716     1  0.0000000  0.6508444  3
   5714   5717   5719   5721     1  180.0000771  9.6232000  2
   5715   5714   5717   5718     1  0.0000000  3.3472000  1
   5715   5714   5717   5718     1  0.0000000  0.0000000  2
   5715   5714   5717   5718     1  180.0000771  0.3347200  3
   5715   5714   5717   5719     1  180.0000771  0.0000000  2
   5716   5714   5717   5718     1  0.0000000  3.3472000  1
   5716   5714   5717   5718     1  0.0000000  0.0000000  2
   5716   5714   5717   5718     1  180.0000771  0.3347200  3
   5716   5714   5717   5719     1  180.0000771  0.0000000  2
   5718   5717   5719   5721     1  0.0000000  7.9496000  1
   5718   5717   5719   5721     1  180.0000771  9.6232000  2
   5722   5724   5726   5728     1  0.0000000  0.6508444  3
   5722   5724   5726   5729     1  0.0000000  0.6508444  3
   5723   5722   5724   5726     1  0.0000000  0.0000000  2
   5723   5722   5724   5725     1  0.0000000  0.0000000  2
   5723   5722   5724   5727     1  0.0000000  0.0000000  2
   5725   5724   5726   5730     1  0.0000000  0.6508444  3
   5725   5724   5726   5728     1  0.0000000  0.6508444  3
   5725   5724   5726   5729     1  0.0000000  0.6508444  3
   5726   5730   5731   5741     1  0.0000000  1.2552000  3
   5726   5730   5731   5742     1  0.0000000  1.2552000  3
   5726   5730   5732   5733     1  0.0000000  1.2552000  3
   5726   5730   5732   5735     1  0.0000000  1.2552000  3
   5727   5724   5726   5730     1  0.0000000  0.6508444  3
   5727   5724   5726   5728     1  0.0000000  0.6508444  3
   5727   5724   5726   5729     1  0.0000000  0.6508444  3
   5728   5726   5730   5731     1  0.0000000  1.2552000  3
   5728   5726   5730   5732     1  0.0000000  1.2552000  3
   5729   5726   5730   5731     1  0.0000000  1.2552000  3
   5729   5726   5730   5732     1  0.0000000  1.2552000  3
   5730   5731   5743   5744     1  0.0000000  0.6508444  3
   5730   5731   5743   5745     1  0.0000000  0.6508444  3
   5730   5732   5734   5736     1  0.0000000  0.6508444  3
   5730   5732   5734   5737     1  0.0000000  0.6508444  3
   5731   5730   5732   5733     1  0.0000000  1.2552000  3
   5731   5730   5732   5735     1  0.0000000  1.2552000  3
   5732   5730   5731   5741     1  0.0000000  1.2552000  3
   5732   5730   5731   5742     1  0.0000000  1.2552000  3
   5733   5732   5734   5738     1  0.0000000  0.6508444  3
   5733   5732   5734   5736     1  0.0000000  0.6508444  3
   5733   5732   5734   5737     1  0.0000000  0.6508444  3
   5734   5738   5739   5749     1  180.0000771  9.6232000  2
   5735   5732   5734   5738     1  0.0000000  0.6508444  3
   5735   5732   5734   5736     1  0.0000000  0.6508444  3
   5735   5732   5734   5737     1  0.0000000  0.6508444  3
   5736   5734   5738   5739     1  180.0000771  0.0000000  2
   5736   5734   5738   5740     1  0.0000000  3.3472000  1
   5736   5734   5738   5740     1  0.0000000  0.0000000  2
   5736   5734   5738   5740     1  180.0000771  0.3347200  3
   5737   5734   5738   5739     1  180.0000771  0.0000000  2
   5737   5734   5738   5740     1  0.0000000  3.3472000  1
   5737   5734   5738   5740     1  0.0000000  0.0000000  2
   5737   5734   5738   5740     1  180.0000771  0.3347200  3
   5740   5738   5739   5749     1  0.0000000  7.9496000  1
   5740   5738   5739   5749     1  180.0000771  9.6232000  2
   5741   5731   5743   5746     1  0.0000000  0.6508444  3
   5741   5731   5743   5744     1  0.0000000  0.6508444  3
   5741   5731   5743   5745     1  0.0000000  0.6508444  3
   5742   5731   5743   5746     1  0.0000000  0.6508444  3
   5742   5731   5743   5744     1  0.0000000  0.6508444  3
   5742   5731   5743   5745     1  0.0000000  0.6508444  3
   5743   5746   5748   5750     1  180.0000771  9.6232000  2
   5744   5743   5746   5747     1  0.0000000  3.3472000  1
   5744   5743   5746   5747     1  0.0000000  0.0000000  2
   5744   5743   5746   5747     1  180.0000771  0.3347200  3
   5744   5743   5746   5748     1  180.0000771  0.0000000  2
   5745   5743   5746   5747     1  0.0000000  3.3472000  1
   5745   5743   5746   5747     1  0.0000000  0.0000000  2
   5745   5743   5746   5747     1  180.0000771  0.3347200  3
   5745   5743   5746   5748     1  180.0000771  0.0000000  2
   5747   5746   5748   5750     1  0.0000000  7.9496000  1
   5747   5746   5748   5750     1  180.0000771  9.6232000  2
   5751   5753   5755   5757     1  0.0000000  0.6508444  3
   5751   5753   5755   5758     1  0.0000000  0.6508444  3
   5752   5751   5753   5755     1  0.0000000  0.0000000  2
   5752   5751   5753   5754     1  0.0000000  0.0000000  2
   5752   5751   5753   5756     1  0.0000000  0.0000000  2
   5754   5753   5755   5759     1  0.0000000  0.6508444  3
   5754   5753   5755   5757     1  0.0000000  0.6508444  3
   5754   5753   5755   5758     1  0.0000000  0.6508444  3
   5755   5759   5760   5770     1  0.0000000  1.2552000  3
   5755   5759   5760   5771     1  0.0000000  1.2552000  3
   5755   5759   5761   5762     1  0.0000000  1.2552000  3
   5755   5759   5761   5764     1  0.0000000  1.2552000  3
   5756   5753   5755   5759     1  0.0000000  0.6508444  3
   5756   5753   5755   5757     1  0.0000000  0.6508444  3
   5756   5753   5755   5758     1  0.0000000  0.6508444  3
   5757   5755   5759   5760     1  0.0000000  1.2552000  3
   5757   5755   5759   5761     1  0.0000000  1.2552000  3
   5758   5755   5759   5760     1  0.0000000  1.2552000  3
   5758   5755   5759   5761     1  0.0000000  1.2552000  3
   5759   5760   5772   5773     1  0.0000000  0.6508444  3
   5759   5760   5772   5774     1  0.0000000  0.6508444  3
   5759   5761   5763   5765     1  0.0000000  0.6508444  3
   5759   5761   5763   5766     1  0.0000000  0.6508444  3
   5760   5759   5761   5762     1  0.0000000  1.2552000  3
   5760   5759   5761   5764     1  0.0000000  1.2552000  3
   5761   5759   5760   5770     1  0.0000000  1.2552000  3
   5761   5759   5760   5771     1  0.0000000  1.2552000  3
   5762   5761   5763   5767     1  0.0000000  0.6508444  3
   5762   5761   5763   5765     1  0.0000000  0.6508444  3
   5762   5761   5763   5766     1  0.0000000  0.6508444  3
   5763   5767   5768   5778     1  180.0000771  9.6232000  2
   5764   5761   5763   5767     1  0.0000000  0.6508444  3
   5764   5761   5763   5765     1  0.0000000  0.6508444  3
   5764   5761   5763   5766     1  0.0000000  0.6508444  3
   5765   5763   5767   5768     1  180.0000771  0.0000000  2
   5765   5763   5767   5769     1  0.0000000  3.3472000  1
   5765   5763   5767   5769     1  0.0000000  0.0000000  2
   5765   5763   5767   5769     1  180.0000771  0.3347200  3
   5766   5763   5767   5768     1  180.0000771  0.0000000  2
   5766   5763   5767   5769     1  0.0000000  3.3472000  1
   5766   5763   5767   5769     1  0.0000000  0.0000000  2
   5766   5763   5767   5769     1  180.0000771  0.3347200  3
   5769   5767   5768   5778     1  0.0000000  7.9496000  1
   5769   5767   5768   5778     1  180.0000771  9.6232000  2
   5770   5760   5772   5775     1  0.0000000  0.6508444  3
   5770   5760   5772   5773     1  0.0000000  0.6508444  3
   5770   5760   5772   5774     1  0.0000000  0.6508444  3
   5771   5760   5772   5775     1  0.0000000  0.6508444  3
   5771   5760   5772   5773     1  0.0000000  0.6508444  3
   5771   5760   5772   5774     1  0.0000000  0.6508444  3
   5772   5775   5777   5779     1  180.0000771  9.6232000  2
   5773   5772   5775   5776     1  0.0000000  3.3472000  1
   5773   5772   5775   5776     1  0.0000000  0.0000000  2
   5773   5772   5775   5776     1  180.0000771  0.3347200  3
   5773   5772   5775   5777     1  180.0000771  0.0000000  2
   5774   5772   5775   5776     1  0.0000000  3.3472000  1
   5774   5772   5775   5776     1  0.0000000  0.0000000  2
   5774   5772   5775   5776     1  180.0000771  0.3347200  3
   5774   5772   5775   5777     1  180.0000771  0.0000000  2
   5776   5775   5777   5779     1  0.0000000  7.9496000  1
   5776   5775   5777   5779     1  180.0000771  9.6232000  2
   5780   5782   5784   5786     1  0.0000000  0.6508444  3
   5780   5782   5784   5787     1  0.0000000  0.6508444  3
   5781   5780   5782   5784     1  0.0000000  0.0000000  2
   5781   5780   5782   5783     1  0.0000000  0.0000000  2
   5781   5780   5782   5785     1  0.0000000  0.0000000  2
   5783   5782   5784   5788     1  0.0000000  0.6508444  3
   5783   5782   5784   5786     1  0.0000000  0.6508444  3
   5783   5782   5784   5787     1  0.0000000  0.6508444  3
   5784   5788   5789   5799     1  0.0000000  1.2552000  3
   5784   5788   5789   5800     1  0.0000000  1.2552000  3
   5784   5788   5790   5791     1  0.0000000  1.2552000  3
   5784   5788   5790   5793     1  0.0000000  1.2552000  3
   5785   5782   5784   5788     1  0.0000000  0.6508444  3
   5785   5782   5784   5786     1  0.0000000  0.6508444  3
   5785   5782   5784   5787     1  0.0000000  0.6508444  3
   5786   5784   5788   5789     1  0.0000000  1.2552000  3
   5786   5784   5788   5790     1  0.0000000  1.2552000  3
   5787   5784   5788   5789     1  0.0000000  1.2552000  3
   5787   5784   5788   5790     1  0.0000000  1.2552000  3
   5788   5789   5801   5802     1  0.0000000  0.6508444  3
   5788   5789   5801   5803     1  0.0000000  0.6508444  3
   5788   5790   5792   5794     1  0.0000000  0.6508444  3
   5788   5790   5792   5795     1  0.0000000  0.6508444  3
   5789   5788   5790   5791     1  0.0000000  1.2552000  3
   5789   5788   5790   5793     1  0.0000000  1.2552000  3
   5790   5788   5789   5799     1  0.0000000  1.2552000  3
   5790   5788   5789   5800     1  0.0000000  1.2552000  3
   5791   5790   5792   5796     1  0.0000000  0.6508444  3
   5791   5790   5792   5794     1  0.0000000  0.6508444  3
   5791   5790   5792   5795     1  0.0000000  0.6508444  3
   5792   5796   5797   5807     1  180.0000771  9.6232000  2
   5793   5790   5792   5796     1  0.0000000  0.6508444  3
   5793   5790   5792   5794     1  0.0000000  0.6508444  3
   5793   5790   5792   5795     1  0.0000000  0.6508444  3
   5794   5792   5796   5797     1  180.0000771  0.0000000  2
   5794   5792   5796   5798     1  0.0000000  3.3472000  1
   5794   5792   5796   5798     1  0.0000000  0.0000000  2
   5794   5792   5796   5798     1  180.0000771  0.3347200  3
   5795   5792   5796   5797     1  180.0000771  0.0000000  2
   5795   5792   5796   5798     1  0.0000000  3.3472000  1
   5795   5792   5796   5798     1  0.0000000  0.0000000  2
   5795   5792   5796   5798     1  180.0000771  0.3347200  3
   5798   5796   5797   5807     1  0.0000000  7.9496000  1
   5798   5796   5797   5807     1  180.0000771  9.6232000  2
   5799   5789   5801   5804     1  0.0000000  0.6508444  3
   5799   5789   5801   5802     1  0.0000000  0.6508444  3
   5799   5789   5801   5803     1  0.0000000  0.6508444  3
   5800   5789   5801   5804     1  0.0000000  0.6508444  3
   5800   5789   5801   5802     1  0.0000000  0.6508444  3
   5800   5789   5801   5803     1  0.0000000  0.6508444  3
   5801   5804   5806   5808     1  180.0000771  9.6232000  2
   5802   5801   5804   5805     1  0.0000000  3.3472000  1
   5802   5801   5804   5805     1  0.0000000  0.0000000  2
   5802   5801   5804   5805     1  180.0000771  0.3347200  3
   5802   5801   5804   5806     1  180.0000771  0.0000000  2
   5803   5801   5804   5805     1  0.0000000  3.3472000  1
   5803   5801   5804   5805     1  0.0000000  0.0000000  2
   5803   5801   5804   5805     1  180.0000771  0.3347200  3
   5803   5801   5804   5806     1  180.0000771  0.0000000  2
   5805   5804   5806   5808     1  0.0000000  7.9496000  1
   5805   5804   5806   5808     1  180.0000771  9.6232000  2
   5809   5811   5813   5815     1  0.0000000  0.6508444  3
   5809   5811   5813   5816     1  0.0000000  0.6508444  3
   5810   5809   5811   5813     1  0.0000000  0.0000000  2
   5810   5809   5811   5812     1  0.0000000  0.0000000  2
   5810   5809   5811   5814     1  0.0000000  0.0000000  2
   5812   5811   5813   5817     1  0.0000000  0.6508444  3
   5812   5811   5813   5815     1  0.0000000  0.6508444  3
   5812   5811   5813   5816     1  0.0000000  0.6508444  3
   5813   5817   5818   5828     1  0.0000000  1.2552000  3
   5813   5817   5818   5829     1  0.0000000  1.2552000  3
   5813   5817   5819   5820     1  0.0000000  1.2552000  3
   5813   5817   5819   5822     1  0.0000000  1.2552000  3
   5814   5811   5813   5817     1  0.0000000  0.6508444  3
   5814   5811   5813   5815     1  0.0000000  0.6508444  3
   5814   5811   5813   5816     1  0.0000000  0.6508444  3
   5815   5813   5817   5818     1  0.0000000  1.2552000  3
   5815   5813   5817   5819     1  0.0000000  1.2552000  3
   5816   5813   5817   5818     1  0.0000000  1.2552000  3
   5816   5813   5817   5819     1  0.0000000  1.2552000  3
   5817   5818   5830   5831     1  0.0000000  0.6508444  3
   5817   5818   5830   5832     1  0.0000000  0.6508444  3
   5817   5819   5821   5823     1  0.0000000  0.6508444  3
   5817   5819   5821   5824     1  0.0000000  0.6508444  3
   5818   5817   5819   5820     1  0.0000000  1.2552000  3
   5818   5817   5819   5822     1  0.0000000  1.2552000  3
   5819   5817   5818   5828     1  0.0000000  1.2552000  3
   5819   5817   5818   5829     1  0.0000000  1.2552000  3
   5820   5819   5821   5825     1  0.0000000  0.6508444  3
   5820   5819   5821   5823     1  0.0000000  0.6508444  3
   5820   5819   5821   5824     1  0.0000000  0.6508444  3
   5821   5825   5826   5836     1  180.0000771  9.6232000  2
   5822   5819   5821   5825     1  0.0000000  0.6508444  3
   5822   5819   5821   5823     1  0.0000000  0.6508444  3
   5822   5819   5821   5824     1  0.0000000  0.6508444  3
   5823   5821   5825   5826     1  180.0000771  0.0000000  2
   5823   5821   5825   5827     1  0.0000000  3.3472000  1
   5823   5821   5825   5827     1  0.0000000  0.0000000  2
   5823   5821   5825   5827     1  180.0000771  0.3347200  3
   5824   5821   5825   5826     1  180.0000771  0.0000000  2
   5824   5821   5825   5827     1  0.0000000  3.3472000  1
   5824   5821   5825   5827     1  0.0000000  0.0000000  2
   5824   5821   5825   5827     1  180.0000771  0.3347200  3
   5827   5825   5826   5836     1  0.0000000  7.9496000  1
   5827   5825   5826   5836     1  180.0000771  9.6232000  2
   5828   5818   5830   5833     1  0.0000000  0.6508444  3
   5828   5818   5830   5831     1  0.0000000  0.6508444  3
   5828   5818   5830   5832     1  0.0000000  0.6508444  3
   5829   5818   5830   5833     1  0.0000000  0.6508444  3
   5829   5818   5830   5831     1  0.0000000  0.6508444  3
   5829   5818   5830   5832     1  0.0000000  0.6508444  3
   5830   5833   5835   5837     1  180.0000771  9.6232000  2
   5831   5830   5833   5834     1  0.0000000  3.3472000  1
   5831   5830   5833   5834     1  0.0000000  0.0000000  2
   5831   5830   5833   5834     1  180.0000771  0.3347200  3
   5831   5830   5833   5835     1  180.0000771  0.0000000  2
   5832   5830   5833   5834     1  0.0000000  3.3472000  1
   5832   5830   5833   5834     1  0.0000000  0.0000000  2
   5832   5830   5833   5834     1  180.0000771  0.3347200  3
   5832   5830   5833   5835     1  180.0000771  0.0000000  2
   5834   5833   5835   5837     1  0.0000000  7.9496000  1
   5834   5833   5835   5837     1  180.0000771  9.6232000  2
   5838   5840   5842   5844     1  0.0000000  0.6508444  3
   5838   5840   5842   5845     1  0.0000000  0.6508444  3
   5839   5838   5840   5842     1  0.0000000  0.0000000  2
   5839   5838   5840   5841     1  0.0000000  0.0000000  2
   5839   5838   5840   5843     1  0.0000000  0.0000000  2
   5841   5840   5842   5846     1  0.0000000  0.6508444  3
   5841   5840   5842   5844     1  0.0000000  0.6508444  3
   5841   5840   5842   5845     1  0.0000000  0.6508444  3
   5842   5846   5847   5857     1  0.0000000  1.2552000  3
   5842   5846   5847   5858     1  0.0000000  1.2552000  3
   5842   5846   5848   5849     1  0.0000000  1.2552000  3
   5842   5846   5848   5851     1  0.0000000  1.2552000  3
   5843   5840   5842   5846     1  0.0000000  0.6508444  3
   5843   5840   5842   5844     1  0.0000000  0.6508444  3
   5843   5840   5842   5845     1  0.0000000  0.6508444  3
   5844   5842   5846   5847     1  0.0000000  1.2552000  3
   5844   5842   5846   5848     1  0.0000000  1.2552000  3
   5845   5842   5846   5847     1  0.0000000  1.2552000  3
   5845   5842   5846   5848     1  0.0000000  1.2552000  3
   5846   5847   5859   5860     1  0.0000000  0.6508444  3
   5846   5847   5859   5861     1  0.0000000  0.6508444  3
   5846   5848   5850   5852     1  0.0000000  0.6508444  3
   5846   5848   5850   5853     1  0.0000000  0.6508444  3
   5847   5846   5848   5849     1  0.0000000  1.2552000  3
   5847   5846   5848   5851     1  0.0000000  1.2552000  3
   5848   5846   5847   5857     1  0.0000000  1.2552000  3
   5848   5846   5847   5858     1  0.0000000  1.2552000  3
   5849   5848   5850   5854     1  0.0000000  0.6508444  3
   5849   5848   5850   5852     1  0.0000000  0.6508444  3
   5849   5848   5850   5853     1  0.0000000  0.6508444  3
   5850   5854   5855   5865     1  180.0000771  9.6232000  2
   5851   5848   5850   5854     1  0.0000000  0.6508444  3
   5851   5848   5850   5852     1  0.0000000  0.6508444  3
   5851   5848   5850   5853     1  0.0000000  0.6508444  3
   5852   5850   5854   5855     1  180.0000771  0.0000000  2
   5852   5850   5854   5856     1  0.0000000  3.3472000  1
   5852   5850   5854   5856     1  0.0000000  0.0000000  2
   5852   5850   5854   5856     1  180.0000771  0.3347200  3
   5853   5850   5854   5855     1  180.0000771  0.0000000  2
   5853   5850   5854   5856     1  0.0000000  3.3472000  1
   5853   5850   5854   5856     1  0.0000000  0.0000000  2
   5853   5850   5854   5856     1  180.0000771  0.3347200  3
   5856   5854   5855   5865     1  0.0000000  7.9496000  1
   5856   5854   5855   5865     1  180.0000771  9.6232000  2
   5857   5847   5859   5862     1  0.0000000  0.6508444  3
   5857   5847   5859   5860     1  0.0000000  0.6508444  3
   5857   5847   5859   5861     1  0.0000000  0.6508444  3
   5858   5847   5859   5862     1  0.0000000  0.6508444  3
   5858   5847   5859   5860     1  0.0000000  0.6508444  3
   5858   5847   5859   5861     1  0.0000000  0.6508444  3
   5859   5862   5864   5866     1  180.0000771  9.6232000  2
   5860   5859   5862   5863     1  0.0000000  3.3472000  1
   5860   5859   5862   5863     1  0.0000000  0.0000000  2
   5860   5859   5862   5863     1  180.0000771  0.3347200  3
   5860   5859   5862   5864     1  180.0000771  0.0000000  2
   5861   5859   5862   5863     1  0.0000000  3.3472000  1
   5861   5859   5862   5863     1  0.0000000  0.0000000  2
   5861   5859   5862   5863     1  180.0000771  0.3347200  3
   5861   5859   5862   5864     1  180.0000771  0.0000000  2
   5863   5862   5864   5866     1  0.0000000  7.9496000  1
   5863   5862   5864   5866     1  180.0000771  9.6232000  2
   5867   5869   5871   5873     1  0.0000000  0.6508444  3
   5867   5869   5871   5874     1  0.0000000  0.6508444  3
   5868   5867   5869   5871     1  0.0000000  0.0000000  2
   5868   5867   5869   5870     1  0.0000000  0.0000000  2
   5868   5867   5869   5872     1  0.0000000  0.0000000  2
   5870   5869   5871   5875     1  0.0000000  0.6508444  3
   5870   5869   5871   5873     1  0.0000000  0.6508444  3
   5870   5869   5871   5874     1  0.0000000  0.6508444  3
   5871   5875   5876   5886     1  0.0000000  1.2552000  3
   5871   5875   5876   5887     1  0.0000000  1.2552000  3
   5871   5875   5877   5878     1  0.0000000  1.2552000  3
   5871   5875   5877   5880     1  0.0000000  1.2552000  3
   5872   5869   5871   5875     1  0.0000000  0.6508444  3
   5872   5869   5871   5873     1  0.0000000  0.6508444  3
   5872   5869   5871   5874     1  0.0000000  0.6508444  3
   5873   5871   5875   5876     1  0.0000000  1.2552000  3
   5873   5871   5875   5877     1  0.0000000  1.2552000  3
   5874   5871   5875   5876     1  0.0000000  1.2552000  3
   5874   5871   5875   5877     1  0.0000000  1.2552000  3
   5875   5876   5888   5889     1  0.0000000  0.6508444  3
   5875   5876   5888   5890     1  0.0000000  0.6508444  3
   5875   5877   5879   5881     1  0.0000000  0.6508444  3
   5875   5877   5879   5882     1  0.0000000  0.6508444  3
   5876   5875   5877   5878     1  0.0000000  1.2552000  3
   5876   5875   5877   5880     1  0.0000000  1.2552000  3
   5877   5875   5876   5886     1  0.0000000  1.2552000  3
   5877   5875   5876   5887     1  0.0000000  1.2552000  3
   5878   5877   5879   5883     1  0.0000000  0.6508444  3
   5878   5877   5879   5881     1  0.0000000  0.6508444  3
   5878   5877   5879   5882     1  0.0000000  0.6508444  3
   5879   5883   5884   5894     1  180.0000771  9.6232000  2
   5880   5877   5879   5883     1  0.0000000  0.6508444  3
   5880   5877   5879   5881     1  0.0000000  0.6508444  3
   5880   5877   5879   5882     1  0.0000000  0.6508444  3
   5881   5879   5883   5884     1  180.0000771  0.0000000  2
   5881   5879   5883   5885     1  0.0000000  3.3472000  1
   5881   5879   5883   5885     1  0.0000000  0.0000000  2
   5881   5879   5883   5885     1  180.0000771  0.3347200  3
   5882   5879   5883   5884     1  180.0000771  0.0000000  2
   5882   5879   5883   5885     1  0.0000000  3.3472000  1
   5882   5879   5883   5885     1  0.0000000  0.0000000  2
   5882   5879   5883   5885     1  180.0000771  0.3347200  3
   5885   5883   5884   5894     1  0.0000000  7.9496000  1
   5885   5883   5884   5894     1  180.0000771  9.6232000  2
   5886   5876   5888   5891     1  0.0000000  0.6508444  3
   5886   5876   5888   5889     1  0.0000000  0.6508444  3
   5886   5876   5888   5890     1  0.0000000  0.6508444  3
   5887   5876   5888   5891     1  0.0000000  0.6508444  3
   5887   5876   5888   5889     1  0.0000000  0.6508444  3
   5887   5876   5888   5890     1  0.0000000  0.6508444  3
   5888   5891   5893   5895     1  180.0000771  9.6232000  2
   5889   5888   5891   5892     1  0.0000000  3.3472000  1
   5889   5888   5891   5892     1  0.0000000  0.0000000  2
   5889   5888   5891   5892     1  180.0000771  0.3347200  3
   5889   5888   5891   5893     1  180.0000771  0.0000000  2
   5890   5888   5891   5892     1  0.0000000  3.3472000  1
   5890   5888   5891   5892     1  0.0000000  0.0000000  2
   5890   5888   5891   5892     1  180.0000771  0.3347200  3
   5890   5888   5891   5893     1  180.0000771  0.0000000  2
   5892   5891   5893   5895     1  0.0000000  7.9496000  1
   5892   5891   5893   5895     1  180.0000771  9.6232000  2
   5896   5898   5900   5902     1  0.0000000  0.6508444  3
   5896   5898   5900   5903     1  0.0000000  0.6508444  3
   5897   5896   5898   5900     1  0.0000000  0.0000000  2
   5897   5896   5898   5899     1  0.0000000  0.0000000  2
   5897   5896   5898   5901     1  0.0000000  0.0000000  2
   5899   5898   5900   5904     1  0.0000000  0.6508444  3
   5899   5898   5900   5902     1  0.0000000  0.6508444  3
   5899   5898   5900   5903     1  0.0000000  0.6508444  3
   5900   5904   5905   5915     1  0.0000000  1.2552000  3
   5900   5904   5905   5916     1  0.0000000  1.2552000  3
   5900   5904   5906   5907     1  0.0000000  1.2552000  3
   5900   5904   5906   5909     1  0.0000000  1.2552000  3
   5901   5898   5900   5904     1  0.0000000  0.6508444  3
   5901   5898   5900   5902     1  0.0000000  0.6508444  3
   5901   5898   5900   5903     1  0.0000000  0.6508444  3
   5902   5900   5904   5905     1  0.0000000  1.2552000  3
   5902   5900   5904   5906     1  0.0000000  1.2552000  3
   5903   5900   5904   5905     1  0.0000000  1.2552000  3
   5903   5900   5904   5906     1  0.0000000  1.2552000  3
   5904   5905   5917   5918     1  0.0000000  0.6508444  3
   5904   5905   5917   5919     1  0.0000000  0.6508444  3
   5904   5906   5908   5910     1  0.0000000  0.6508444  3
   5904   5906   5908   5911     1  0.0000000  0.6508444  3
   5905   5904   5906   5907     1  0.0000000  1.2552000  3
   5905   5904   5906   5909     1  0.0000000  1.2552000  3
   5906   5904   5905   5915     1  0.0000000  1.2552000  3
   5906   5904   5905   5916     1  0.0000000  1.2552000  3
   5907   5906   5908   5912     1  0.0000000  0.6508444  3
   5907   5906   5908   5910     1  0.0000000  0.6508444  3
   5907   5906   5908   5911     1  0.0000000  0.6508444  3
   5908   5912   5913   5923     1  180.0000771  9.6232000  2
   5909   5906   5908   5912     1  0.0000000  0.6508444  3
   5909   5906   5908   5910     1  0.0000000  0.6508444  3
   5909   5906   5908   5911     1  0.0000000  0.6508444  3
   5910   5908   5912   5913     1  180.0000771  0.0000000  2
   5910   5908   5912   5914     1  0.0000000  3.3472000  1
   5910   5908   5912   5914     1  0.0000000  0.0000000  2
   5910   5908   5912   5914     1  180.0000771  0.3347200  3
   5911   5908   5912   5913     1  180.0000771  0.0000000  2
   5911   5908   5912   5914     1  0.0000000  3.3472000  1
   5911   5908   5912   5914     1  0.0000000  0.0000000  2
   5911   5908   5912   5914     1  180.0000771  0.3347200  3
   5914   5912   5913   5923     1  0.0000000  7.9496000  1
   5914   5912   5913   5923     1  180.0000771  9.6232000  2
   5915   5905   5917   5920     1  0.0000000  0.6508444  3
   5915   5905   5917   5918     1  0.0000000  0.6508444  3
   5915   5905   5917   5919     1  0.0000000  0.6508444  3
   5916   5905   5917   5920     1  0.0000000  0.6508444  3
   5916   5905   5917   5918     1  0.0000000  0.6508444  3
   5916   5905   5917   5919     1  0.0000000  0.6508444  3
   5917   5920   5922   5924     1  180.0000771  9.6232000  2
   5918   5917   5920   5921     1  0.0000000  3.3472000  1
   5918   5917   5920   5921     1  0.0000000  0.0000000  2
   5918   5917   5920   5921     1  180.0000771  0.3347200  3
   5918   5917   5920   5922     1  180.0000771  0.0000000  2
   5919   5917   5920   5921     1  0.0000000  3.3472000  1
   5919   5917   5920   5921     1  0.0000000  0.0000000  2
   5919   5917   5920   5921     1  180.0000771  0.3347200  3
   5919   5917   5920   5922     1  180.0000771  0.0000000  2
   5921   5920   5922   5924     1  0.0000000  7.9496000  1
   5921   5920   5922   5924     1  180.0000771  9.6232000  2
   5925   5927   5929   5931     1  0.0000000  0.6508444  3
   5925   5927   5929   5932     1  0.0000000  0.6508444  3
   5926   5925   5927   5929     1  0.0000000  0.0000000  2
   5926   5925   5927   5928     1  0.0000000  0.0000000  2
   5926   5925   5927   5930     1  0.0000000  0.0000000  2
   5928   5927   5929   5933     1  0.0000000  0.6508444  3
   5928   5927   5929   5931     1  0.0000000  0.6508444  3
   5928   5927   5929   5932     1  0.0000000  0.6508444  3
   5929   5933   5934   5944     1  0.0000000  1.2552000  3
   5929   5933   5934   5945     1  0.0000000  1.2552000  3
   5929   5933   5935   5936     1  0.0000000  1.2552000  3
   5929   5933   5935   5938     1  0.0000000  1.2552000  3
   5930   5927   5929   5933     1  0.0000000  0.6508444  3
   5930   5927   5929   5931     1  0.0000000  0.6508444  3
   5930   5927   5929   5932     1  0.0000000  0.6508444  3
   5931   5929   5933   5934     1  0.0000000  1.2552000  3
   5931   5929   5933   5935     1  0.0000000  1.2552000  3
   5932   5929   5933   5934     1  0.0000000  1.2552000  3
   5932   5929   5933   5935     1  0.0000000  1.2552000  3
   5933   5934   5946   5947     1  0.0000000  0.6508444  3
   5933   5934   5946   5948     1  0.0000000  0.6508444  3
   5933   5935   5937   5939     1  0.0000000  0.6508444  3
   5933   5935   5937   5940     1  0.0000000  0.6508444  3
   5934   5933   5935   5936     1  0.0000000  1.2552000  3
   5934   5933   5935   5938     1  0.0000000  1.2552000  3
   5935   5933   5934   5944     1  0.0000000  1.2552000  3
   5935   5933   5934   5945     1  0.0000000  1.2552000  3
   5936   5935   5937   5941     1  0.0000000  0.6508444  3
   5936   5935   5937   5939     1  0.0000000  0.6508444  3
   5936   5935   5937   5940     1  0.0000000  0.6508444  3
   5937   5941   5942   5952     1  180.0000771  9.6232000  2
   5938   5935   5937   5941     1  0.0000000  0.6508444  3
   5938   5935   5937   5939     1  0.0000000  0.6508444  3
   5938   5935   5937   5940     1  0.0000000  0.6508444  3
   5939   5937   5941   5942     1  180.0000771  0.0000000  2
   5939   5937   5941   5943     1  0.0000000  3.3472000  1
   5939   5937   5941   5943     1  0.0000000  0.0000000  2
   5939   5937   5941   5943     1  180.0000771  0.3347200  3
   5940   5937   5941   5942     1  180.0000771  0.0000000  2
   5940   5937   5941   5943     1  0.0000000  3.3472000  1
   5940   5937   5941   5943     1  0.0000000  0.0000000  2
   5940   5937   5941   5943     1  180.0000771  0.3347200  3
   5943   5941   5942   5952     1  0.0000000  7.9496000  1
   5943   5941   5942   5952     1  180.0000771  9.6232000  2
   5944   5934   5946   5949     1  0.0000000  0.6508444  3
   5944   5934   5946   5947     1  0.0000000  0.6508444  3
   5944   5934   5946   5948     1  0.0000000  0.6508444  3
   5945   5934   5946   5949     1  0.0000000  0.6508444  3
   5945   5934   5946   5947     1  0.0000000  0.6508444  3
   5945   5934   5946   5948     1  0.0000000  0.6508444  3
   5946   5949   5951   5953     1  180.0000771  9.6232000  2
   5947   5946   5949   5950     1  0.0000000  3.3472000  1
   5947   5946   5949   5950     1  0.0000000  0.0000000  2
   5947   5946   5949   5950     1  180.0000771  0.3347200  3
   5947   5946   5949   5951     1  180.0000771  0.0000000  2
   5948   5946   5949   5950     1  0.0000000  3.3472000  1
   5948   5946   5949   5950     1  0.0000000  0.0000000  2
   5948   5946   5949   5950     1  180.0000771  0.3347200  3
   5948   5946   5949   5951     1  180.0000771  0.0000000  2
   5950   5949   5951   5953     1  0.0000000  7.9496000  1
   5950   5949   5951   5953     1  180.0000771  9.6232000  2
   5954   5956   5958   5960     1  0.0000000  0.6508444  3
   5954   5956   5958   5961     1  0.0000000  0.6508444  3
   5955   5954   5956   5958     1  0.0000000  0.0000000  2
   5955   5954   5956   5957     1  0.0000000  0.0000000  2
   5955   5954   5956   5959     1  0.0000000  0.0000000  2
   5957   5956   5958   5962     1  0.0000000  0.6508444  3
   5957   5956   5958   5960     1  0.0000000  0.6508444  3
   5957   5956   5958   5961     1  0.0000000  0.6508444  3
   5958   5962   5963   5973     1  0.0000000  1.2552000  3
   5958   5962   5963   5974     1  0.0000000  1.2552000  3
   5958   5962   5964   5965     1  0.0000000  1.2552000  3
   5958   5962   5964   5967     1  0.0000000  1.2552000  3
   5959   5956   5958   5962     1  0.0000000  0.6508444  3
   5959   5956   5958   5960     1  0.0000000  0.6508444  3
   5959   5956   5958   5961     1  0.0000000  0.6508444  3
   5960   5958   5962   5963     1  0.0000000  1.2552000  3
   5960   5958   5962   5964     1  0.0000000  1.2552000  3
   5961   5958   5962   5963     1  0.0000000  1.2552000  3
   5961   5958   5962   5964     1  0.0000000  1.2552000  3
   5962   5963   5975   5976     1  0.0000000  0.6508444  3
   5962   5963   5975   5977     1  0.0000000  0.6508444  3
   5962   5964   5966   5968     1  0.0000000  0.6508444  3
   5962   5964   5966   5969     1  0.0000000  0.6508444  3
   5963   5962   5964   5965     1  0.0000000  1.2552000  3
   5963   5962   5964   5967     1  0.0000000  1.2552000  3
   5964   5962   5963   5973     1  0.0000000  1.2552000  3
   5964   5962   5963   5974     1  0.0000000  1.2552000  3
   5965   5964   5966   5970     1  0.0000000  0.6508444  3
   5965   5964   5966   5968     1  0.0000000  0.6508444  3
   5965   5964   5966   5969     1  0.0000000  0.6508444  3
   5966   5970   5971   5981     1  180.0000771  9.6232000  2
   5967   5964   5966   5970     1  0.0000000  0.6508444  3
   5967   5964   5966   5968     1  0.0000000  0.6508444  3
   5967   5964   5966   5969     1  0.0000000  0.6508444  3
   5968   5966   5970   5971     1  180.0000771  0.0000000  2
   5968   5966   5970   5972     1  0.0000000  3.3472000  1
   5968   5966   5970   5972     1  0.0000000  0.0000000  2
   5968   5966   5970   5972     1  180.0000771  0.3347200  3
   5969   5966   5970   5971     1  180.0000771  0.0000000  2
   5969   5966   5970   5972     1  0.0000000  3.3472000  1
   5969   5966   5970   5972     1  0.0000000  0.0000000  2
   5969   5966   5970   5972     1  180.0000771  0.3347200  3
   5972   5970   5971   5981     1  0.0000000  7.9496000  1
   5972   5970   5971   5981     1  180.0000771  9.6232000  2
   5973   5963   5975   5978     1  0.0000000  0.6508444  3
   5973   5963   5975   5976     1  0.0000000  0.6508444  3
   5973   5963   5975   5977     1  0.0000000  0.6508444  3
   5974   5963   5975   5978     1  0.0000000  0.6508444  3
   5974   5963   5975   5976     1  0.0000000  0.6508444  3
   5974   5963   5975   5977     1  0.0000000  0.6508444  3
   5975   5978   5980   5982     1  180.0000771  9.6232000  2
   5976   5975   5978   5979     1  0.0000000  3.3472000  1
   5976   5975   5978   5979     1  0.0000000  0.0000000  2
   5976   5975   5978   5979     1  180.0000771  0.3347200  3
   5976   5975   5978   5980     1  180.0000771  0.0000000  2
   5977   5975   5978   5979     1  0.0000000  3.3472000  1
   5977   5975   5978   5979     1  0.0000000  0.0000000  2
   5977   5975   5978   5979     1  180.0000771  0.3347200  3
   5977   5975   5978   5980     1  180.0000771  0.0000000  2
   5979   5978   5980   5982     1  0.0000000  7.9496000  1
   5979   5978   5980   5982     1  180.0000771  9.6232000  2
   5983   5985   5987   5989     1  0.0000000  0.6508444  3
   5983   5985   5987   5990     1  0.0000000  0.6508444  3
   5984   5983   5985   5987     1  0.0000000  0.0000000  2
   5984   5983   5985   5986     1  0.0000000  0.0000000  2
   5984   5983   5985   5988     1  0.0000000  0.0000000  2
   5986   5985   5987   5991     1  0.0000000  0.6508444  3
   5986   5985   5987   5989     1  0.0000000  0.6508444  3
   5986   5985   5987   5990     1  0.0000000  0.6508444  3
   5987   5991   5992   6002     1  0.0000000  1.2552000  3
   5987   5991   5992   6003     1  0.0000000  1.2552000  3
   5987   5991   5993   5994     1  0.0000000  1.2552000  3
   5987   5991   5993   5996     1  0.0000000  1.2552000  3
   5988   5985   5987   5991     1  0.0000000  0.6508444  3
   5988   5985   5987   5989     1  0.0000000  0.6508444  3
   5988   5985   5987   5990     1  0.0000000  0.6508444  3
   5989   5987   5991   5992     1  0.0000000  1.2552000  3
   5989   5987   5991   5993     1  0.0000000  1.2552000  3
   5990   5987   5991   5992     1  0.0000000  1.2552000  3
   5990   5987   5991   5993     1  0.0000000  1.2552000  3
   5991   5992   6004   6005     1  0.0000000  0.6508444  3
   5991   5992   6004   6006     1  0.0000000  0.6508444  3
   5991   5993   5995   5997     1  0.0000000  0.6508444  3
   5991   5993   5995   5998     1  0.0000000  0.6508444  3
   5992   5991   5993   5994     1  0.0000000  1.2552000  3
   5992   5991   5993   5996     1  0.0000000  1.2552000  3
   5993   5991   5992   6002     1  0.0000000  1.2552000  3
   5993   5991   5992   6003     1  0.0000000  1.2552000  3
   5994   5993   5995   5999     1  0.0000000  0.6508444  3
   5994   5993   5995   5997     1  0.0000000  0.6508444  3
   5994   5993   5995   5998     1  0.0000000  0.6508444  3
   5995   5999   6000   6010     1  180.0000771  9.6232000  2
   5996   5993   5995   5999     1  0.0000000  0.6508444  3
   5996   5993   5995   5997     1  0.0000000  0.6508444  3
   5996   5993   5995   5998     1  0.0000000  0.6508444  3
   5997   5995   5999   6000     1  180.0000771  0.0000000  2
   5997   5995   5999   6001     1  0.0000000  3.3472000  1
   5997   5995   5999   6001     1  0.0000000  0.0000000  2
   5997   5995   5999   6001     1  180.0000771  0.3347200  3
   5998   5995   5999   6000     1  180.0000771  0.0000000  2
   5998   5995   5999   6001     1  0.0000000  3.3472000  1
   5998   5995   5999   6001     1  0.0000000  0.0000000  2
   5998   5995   5999   6001     1  180.0000771  0.3347200  3
   6001   5999   6000   6010     1  0.0000000  7.9496000  1
   6001   5999   6000   6010     1  180.0000771  9.6232000  2
   6002   5992   6004   6007     1  0.0000000  0.6508444  3
   6002   5992   6004   6005     1  0.0000000  0.6508444  3
   6002   5992   6004   6006     1  0.0000000  0.6508444  3
   6003   5992   6004   6007     1  0.0000000  0.6508444  3
   6003   5992   6004   6005     1  0.0000000  0.6508444  3
   6003   5992   6004   6006     1  0.0000000  0.6508444  3
   6004   6007   6009   6011     1  180.0000771  9.6232000  2
   6005   6004   6007   6008     1  0.0000000  3.3472000  1
   6005   6004   6007   6008     1  0.0000000  0.0000000  2
   6005   6004   6007   6008     1  180.0000771  0.3347200  3
   6005   6004   6007   6009     1  180.0000771  0.0000000  2
   6006   6004   6007   6008     1  0.0000000  3.3472000  1
   6006   6004   6007   6008     1  0.0000000  0.0000000  2
   6006   6004   6007   6008     1  180.0000771  0.3347200  3
   6006   6004   6007   6009     1  180.0000771  0.0000000  2
   6008   6007   6009   6011     1  0.0000000  7.9496000  1
   6008   6007   6009   6011     1  180.0000771  9.6232000  2
   6012   6014   6016   6018     1  0.0000000  0.6508444  3
   6012   6014   6016   6019     1  0.0000000  0.6508444  3
   6013   6012   6014   6016     1  0.0000000  0.0000000  2
   6013   6012   6014   6015     1  0.0000000  0.0000000  2
   6013   6012   6014   6017     1  0.0000000  0.0000000  2
   6015   6014   6016   6020     1  0.0000000  0.6508444  3
   6015   6014   6016   6018     1  0.0000000  0.6508444  3
   6015   6014   6016   6019     1  0.0000000  0.6508444  3
   6016   6020   6021   6031     1  0.0000000  1.2552000  3
   6016   6020   6021   6032     1  0.0000000  1.2552000  3
   6016   6020   6022   6023     1  0.0000000  1.2552000  3
   6016   6020   6022   6025     1  0.0000000  1.2552000  3
   6017   6014   6016   6020     1  0.0000000  0.6508444  3
   6017   6014   6016   6018     1  0.0000000  0.6508444  3
   6017   6014   6016   6019     1  0.0000000  0.6508444  3
   6018   6016   6020   6021     1  0.0000000  1.2552000  3
   6018   6016   6020   6022     1  0.0000000  1.2552000  3
   6019   6016   6020   6021     1  0.0000000  1.2552000  3
   6019   6016   6020   6022     1  0.0000000  1.2552000  3
   6020   6021   6033   6034     1  0.0000000  0.6508444  3
   6020   6021   6033   6035     1  0.0000000  0.6508444  3
   6020   6022   6024   6026     1  0.0000000  0.6508444  3
   6020   6022   6024   6027     1  0.0000000  0.6508444  3
   6021   6020   6022   6023     1  0.0000000  1.2552000  3
   6021   6020   6022   6025     1  0.0000000  1.2552000  3
   6022   6020   6021   6031     1  0.0000000  1.2552000  3
   6022   6020   6021   6032     1  0.0000000  1.2552000  3
   6023   6022   6024   6028     1  0.0000000  0.6508444  3
   6023   6022   6024   6026     1  0.0000000  0.6508444  3
   6023   6022   6024   6027     1  0.0000000  0.6508444  3
   6024   6028   6029   6039     1  180.0000771  9.6232000  2
   6025   6022   6024   6028     1  0.0000000  0.6508444  3
   6025   6022   6024   6026     1  0.0000000  0.6508444  3
   6025   6022   6024   6027     1  0.0000000  0.6508444  3
   6026   6024   6028   6029     1  180.0000771  0.0000000  2
   6026   6024   6028   6030     1  0.0000000  3.3472000  1
   6026   6024   6028   6030     1  0.0000000  0.0000000  2
   6026   6024   6028   6030     1  180.0000771  0.3347200  3
   6027   6024   6028   6029     1  180.0000771  0.0000000  2
   6027   6024   6028   6030     1  0.0000000  3.3472000  1
   6027   6024   6028   6030     1  0.0000000  0.0000000  2
   6027   6024   6028   6030     1  180.0000771  0.3347200  3
   6030   6028   6029   6039     1  0.0000000  7.9496000  1
   6030   6028   6029   6039     1  180.0000771  9.6232000  2
   6031   6021   6033   6036     1  0.0000000  0.6508444  3
   6031   6021   6033   6034     1  0.0000000  0.6508444  3
   6031   6021   6033   6035     1  0.0000000  0.6508444  3
   6032   6021   6033   6036     1  0.0000000  0.6508444  3
   6032   6021   6033   6034     1  0.0000000  0.6508444  3
   6032   6021   6033   6035     1  0.0000000  0.6508444  3
   6033   6036   6038   6040     1  180.0000771  9.6232000  2
   6034   6033   6036   6037     1  0.0000000  3.3472000  1
   6034   6033   6036   6037     1  0.0000000  0.0000000  2
   6034   6033   6036   6037     1  180.0000771  0.3347200  3
   6034   6033   6036   6038     1  180.0000771  0.0000000  2
   6035   6033   6036   6037     1  0.0000000  3.3472000  1
   6035   6033   6036   6037     1  0.0000000  0.0000000  2
   6035   6033   6036   6037     1  180.0000771  0.3347200  3
   6035   6033   6036   6038     1  180.0000771  0.0000000  2
   6037   6036   6038   6040     1  0.0000000  7.9496000  1
   6037   6036   6038   6040     1  180.0000771  9.6232000  2
   6041   6043   6045   6047     1  0.0000000  0.6508444  3
   6041   6043   6045   6048     1  0.0000000  0.6508444  3
   6042   6041   6043   6045     1  0.0000000  0.0000000  2
   6042   6041   6043   6044     1  0.0000000  0.0000000  2
   6042   6041   6043   6046     1  0.0000000  0.0000000  2
   6044   6043   6045   6049     1  0.0000000  0.6508444  3
   6044   6043   6045   6047     1  0.0000000  0.6508444  3
   6044   6043   6045   6048     1  0.0000000  0.6508444  3
   6045   6049   6050   6060     1  0.0000000  1.2552000  3
   6045   6049   6050   6061     1  0.0000000  1.2552000  3
   6045   6049   6051   6052     1  0.0000000  1.2552000  3
   6045   6049   6051   6054     1  0.0000000  1.2552000  3
   6046   6043   6045   6049     1  0.0000000  0.6508444  3
   6046   6043   6045   6047     1  0.0000000  0.6508444  3
   6046   6043   6045   6048     1  0.0000000  0.6508444  3
   6047   6045   6049   6050     1  0.0000000  1.2552000  3
   6047   6045   6049   6051     1  0.0000000  1.2552000  3
   6048   6045   6049   6050     1  0.0000000  1.2552000  3
   6048   6045   6049   6051     1  0.0000000  1.2552000  3
   6049   6050   6062   6063     1  0.0000000  0.6508444  3
   6049   6050   6062   6064     1  0.0000000  0.6508444  3
   6049   6051   6053   6055     1  0.0000000  0.6508444  3
   6049   6051   6053   6056     1  0.0000000  0.6508444  3
   6050   6049   6051   6052     1  0.0000000  1.2552000  3
   6050   6049   6051   6054     1  0.0000000  1.2552000  3
   6051   6049   6050   6060     1  0.0000000  1.2552000  3
   6051   6049   6050   6061     1  0.0000000  1.2552000  3
   6052   6051   6053   6057     1  0.0000000  0.6508444  3
   6052   6051   6053   6055     1  0.0000000  0.6508444  3
   6052   6051   6053   6056     1  0.0000000  0.6508444  3
   6053   6057   6058   6068     1  180.0000771  9.6232000  2
   6054   6051   6053   6057     1  0.0000000  0.6508444  3
   6054   6051   6053   6055     1  0.0000000  0.6508444  3
   6054   6051   6053   6056     1  0.0000000  0.6508444  3
   6055   6053   6057   6058     1  180.0000771  0.0000000  2
   6055   6053   6057   6059     1  0.0000000  3.3472000  1
   6055   6053   6057   6059     1  0.0000000  0.0000000  2
   6055   6053   6057   6059     1  180.0000771  0.3347200  3
   6056   6053   6057   6058     1  180.0000771  0.0000000  2
   6056   6053   6057   6059     1  0.0000000  3.3472000  1
   6056   6053   6057   6059     1  0.0000000  0.0000000  2
   6056   6053   6057   6059     1  180.0000771  0.3347200  3
   6059   6057   6058   6068     1  0.0000000  7.9496000  1
   6059   6057   6058   6068     1  180.0000771  9.6232000  2
   6060   6050   6062   6065     1  0.0000000  0.6508444  3
   6060   6050   6062   6063     1  0.0000000  0.6508444  3
   6060   6050   6062   6064     1  0.0000000  0.6508444  3
   6061   6050   6062   6065     1  0.0000000  0.6508444  3
   6061   6050   6062   6063     1  0.0000000  0.6508444  3
   6061   6050   6062   6064     1  0.0000000  0.6508444  3
   6062   6065   6067   6069     1  180.0000771  9.6232000  2
   6063   6062   6065   6066     1  0.0000000  3.3472000  1
   6063   6062   6065   6066     1  0.0000000  0.0000000  2
   6063   6062   6065   6066     1  180.0000771  0.3347200  3
   6063   6062   6065   6067     1  180.0000771  0.0000000  2
   6064   6062   6065   6066     1  0.0000000  3.3472000  1
   6064   6062   6065   6066     1  0.0000000  0.0000000  2
   6064   6062   6065   6066     1  180.0000771  0.3347200  3
   6064   6062   6065   6067     1  180.0000771  0.0000000  2
   6066   6065   6067   6069     1  0.0000000  7.9496000  1
   6066   6065   6067   6069     1  180.0000771  9.6232000  2
   6070   6072   6074   6076     1  0.0000000  0.6508444  3
   6070   6072   6074   6077     1  0.0000000  0.6508444  3
   6071   6070   6072   6074     1  0.0000000  0.0000000  2
   6071   6070   6072   6073     1  0.0000000  0.0000000  2
   6071   6070   6072   6075     1  0.0000000  0.0000000  2
   6073   6072   6074   6078     1  0.0000000  0.6508444  3
   6073   6072   6074   6076     1  0.0000000  0.6508444  3
   6073   6072   6074   6077     1  0.0000000  0.6508444  3
   6074   6078   6079   6089     1  0.0000000  1.2552000  3
   6074   6078   6079   6090     1  0.0000000  1.2552000  3
   6074   6078   6080   6081     1  0.0000000  1.2552000  3
   6074   6078   6080   6083     1  0.0000000  1.2552000  3
   6075   6072   6074   6078     1  0.0000000  0.6508444  3
   6075   6072   6074   6076     1  0.0000000  0.6508444  3
   6075   6072   6074   6077     1  0.0000000  0.6508444  3
   6076   6074   6078   6079     1  0.0000000  1.2552000  3
   6076   6074   6078   6080     1  0.0000000  1.2552000  3
   6077   6074   6078   6079     1  0.0000000  1.2552000  3
   6077   6074   6078   6080     1  0.0000000  1.2552000  3
   6078   6079   6091   6092     1  0.0000000  0.6508444  3
   6078   6079   6091   6093     1  0.0000000  0.6508444  3
   6078   6080   6082   6084     1  0.0000000  0.6508444  3
   6078   6080   6082   6085     1  0.0000000  0.6508444  3
   6079   6078   6080   6081     1  0.0000000  1.2552000  3
   6079   6078   6080   6083     1  0.0000000  1.2552000  3
   6080   6078   6079   6089     1  0.0000000  1.2552000  3
   6080   6078   6079   6090     1  0.0000000  1.2552000  3
   6081   6080   6082   6086     1  0.0000000  0.6508444  3
   6081   6080   6082   6084     1  0.0000000  0.6508444  3
   6081   6080   6082   6085     1  0.0000000  0.6508444  3
   6082   6086   6087   6097     1  180.0000771  9.6232000  2
   6083   6080   6082   6086     1  0.0000000  0.6508444  3
   6083   6080   6082   6084     1  0.0000000  0.6508444  3
   6083   6080   6082   6085     1  0.0000000  0.6508444  3
   6084   6082   6086   6087     1  180.0000771  0.0000000  2
   6084   6082   6086   6088     1  0.0000000  3.3472000  1
   6084   6082   6086   6088     1  0.0000000  0.0000000  2
   6084   6082   6086   6088     1  180.0000771  0.3347200  3
   6085   6082   6086   6087     1  180.0000771  0.0000000  2
   6085   6082   6086   6088     1  0.0000000  3.3472000  1
   6085   6082   6086   6088     1  0.0000000  0.0000000  2
   6085   6082   6086   6088     1  180.0000771  0.3347200  3
   6088   6086   6087   6097     1  0.0000000  7.9496000  1
   6088   6086   6087   6097     1  180.0000771  9.6232000  2
   6089   6079   6091   6094     1  0.0000000  0.6508444  3
   6089   6079   6091   6092     1  0.0000000  0.6508444  3
   6089   6079   6091   6093     1  0.0000000  0.6508444  3
   6090   6079   6091   6094     1  0.0000000  0.6508444  3
   6090   6079   6091   6092     1  0.0000000  0.6508444  3
   6090   6079   6091   6093     1  0.0000000  0.6508444  3
   6091   6094   6096   6098     1  180.0000771  9.6232000  2
   6092   6091   6094   6095     1  0.0000000  3.3472000  1
   6092   6091   6094   6095     1  0.0000000  0.0000000  2
   6092   6091   6094   6095     1  180.0000771  0.3347200  3
   6092   6091   6094   6096     1  180.0000771  0.0000000  2
   6093   6091   6094   6095     1  0.0000000  3.3472000  1
   6093   6091   6094   6095     1  0.0000000  0.0000000  2
   6093   6091   6094   6095     1  180.0000771  0.3347200  3
   6093   6091   6094   6096     1  180.0000771  0.0000000  2
   6095   6094   6096   6098     1  0.0000000  7.9496000  1
   6095   6094   6096   6098     1  180.0000771  9.6232000  2
   6099   6101   6103   6105     1  0.0000000  0.6508444  3
   6099   6101   6103   6106     1  0.0000000  0.6508444  3
   6100   6099   6101   6103     1  0.0000000  0.0000000  2
   6100   6099   6101   6102     1  0.0000000  0.0000000  2
   6100   6099   6101   6104     1  0.0000000  0.0000000  2
   6102   6101   6103   6107     1  0.0000000  0.6508444  3
   6102   6101   6103   6105     1  0.0000000  0.6508444  3
   6102   6101   6103   6106     1  0.0000000  0.6508444  3
   6103   6107   6108   6118     1  0.0000000  1.2552000  3
   6103   6107   6108   6119     1  0.0000000  1.2552000  3
   6103   6107   6109   6110     1  0.0000000  1.2552000  3
   6103   6107   6109   6112     1  0.0000000  1.2552000  3
   6104   6101   6103   6107     1  0.0000000  0.6508444  3
   6104   6101   6103   6105     1  0.0000000  0.6508444  3
   6104   6101   6103   6106     1  0.0000000  0.6508444  3
   6105   6103   6107   6108     1  0.0000000  1.2552000  3
   6105   6103   6107   6109     1  0.0000000  1.2552000  3
   6106   6103   6107   6108     1  0.0000000  1.2552000  3
   6106   6103   6107   6109     1  0.0000000  1.2552000  3
   6107   6108   6120   6121     1  0.0000000  0.6508444  3
   6107   6108   6120   6122     1  0.0000000  0.6508444  3
   6107   6109   6111   6113     1  0.0000000  0.6508444  3
   6107   6109   6111   6114     1  0.0000000  0.6508444  3
   6108   6107   6109   6110     1  0.0000000  1.2552000  3
   6108   6107   6109   6112     1  0.0000000  1.2552000  3
   6109   6107   6108   6118     1  0.0000000  1.2552000  3
   6109   6107   6108   6119     1  0.0000000  1.2552000  3
   6110   6109   6111   6115     1  0.0000000  0.6508444  3
   6110   6109   6111   6113     1  0.0000000  0.6508444  3
   6110   6109   6111   6114     1  0.0000000  0.6508444  3
   6111   6115   6116   6126     1  180.0000771  9.6232000  2
   6112   6109   6111   6115     1  0.0000000  0.6508444  3
   6112   6109   6111   6113     1  0.0000000  0.6508444  3
   6112   6109   6111   6114     1  0.0000000  0.6508444  3
   6113   6111   6115   6116     1  180.0000771  0.0000000  2
   6113   6111   6115   6117     1  0.0000000  3.3472000  1
   6113   6111   6115   6117     1  0.0000000  0.0000000  2
   6113   6111   6115   6117     1  180.0000771  0.3347200  3
   6114   6111   6115   6116     1  180.0000771  0.0000000  2
   6114   6111   6115   6117     1  0.0000000  3.3472000  1
   6114   6111   6115   6117     1  0.0000000  0.0000000  2
   6114   6111   6115   6117     1  180.0000771  0.3347200  3
   6117   6115   6116   6126     1  0.0000000  7.9496000  1
   6117   6115   6116   6126     1  180.0000771  9.6232000  2
   6118   6108   6120   6123     1  0.0000000  0.6508444  3
   6118   6108   6120   6121     1  0.0000000  0.6508444  3
   6118   6108   6120   6122     1  0.0000000  0.6508444  3
   6119   6108   6120   6123     1  0.0000000  0.6508444  3
   6119   6108   6120   6121     1  0.0000000  0.6508444  3
   6119   6108   6120   6122     1  0.0000000  0.6508444  3
   6120   6123   6125   6127     1  180.0000771  9.6232000  2
   6121   6120   6123   6124     1  0.0000000  3.3472000  1
   6121   6120   6123   6124     1  0.0000000  0.0000000  2
   6121   6120   6123   6124     1  180.0000771  0.3347200  3
   6121   6120   6123   6125     1  180.0000771  0.0000000  2
   6122   6120   6123   6124     1  0.0000000  3.3472000  1
   6122   6120   6123   6124     1  0.0000000  0.0000000  2
   6122   6120   6123   6124     1  180.0000771  0.3347200  3
   6122   6120   6123   6125     1  180.0000771  0.0000000  2
   6124   6123   6125   6127     1  0.0000000  7.9496000  1
   6124   6123   6125   6127     1  180.0000771  9.6232000  2
   6128   6130   6132   6134     1  0.0000000  0.6508444  3
   6128   6130   6132   6135     1  0.0000000  0.6508444  3
   6129   6128   6130   6132     1  0.0000000  0.0000000  2
   6129   6128   6130   6131     1  0.0000000  0.0000000  2
   6129   6128   6130   6133     1  0.0000000  0.0000000  2
   6131   6130   6132   6136     1  0.0000000  0.6508444  3
   6131   6130   6132   6134     1  0.0000000  0.6508444  3
   6131   6130   6132   6135     1  0.0000000  0.6508444  3
   6132   6136   6137   6147     1  0.0000000  1.2552000  3
   6132   6136   6137   6148     1  0.0000000  1.2552000  3
   6132   6136   6138   6139     1  0.0000000  1.2552000  3
   6132   6136   6138   6141     1  0.0000000  1.2552000  3
   6133   6130   6132   6136     1  0.0000000  0.6508444  3
   6133   6130   6132   6134     1  0.0000000  0.6508444  3
   6133   6130   6132   6135     1  0.0000000  0.6508444  3
   6134   6132   6136   6137     1  0.0000000  1.2552000  3
   6134   6132   6136   6138     1  0.0000000  1.2552000  3
   6135   6132   6136   6137     1  0.0000000  1.2552000  3
   6135   6132   6136   6138     1  0.0000000  1.2552000  3
   6136   6137   6149   6150     1  0.0000000  0.6508444  3
   6136   6137   6149   6151     1  0.0000000  0.6508444  3
   6136   6138   6140   6142     1  0.0000000  0.6508444  3
   6136   6138   6140   6143     1  0.0000000  0.6508444  3
   6137   6136   6138   6139     1  0.0000000  1.2552000  3
   6137   6136   6138   6141     1  0.0000000  1.2552000  3
   6138   6136   6137   6147     1  0.0000000  1.2552000  3
   6138   6136   6137   6148     1  0.0000000  1.2552000  3
   6139   6138   6140   6144     1  0.0000000  0.6508444  3
   6139   6138   6140   6142     1  0.0000000  0.6508444  3
   6139   6138   6140   6143     1  0.0000000  0.6508444  3
   6140   6144   6145   6155     1  180.0000771  9.6232000  2
   6141   6138   6140   6144     1  0.0000000  0.6508444  3
   6141   6138   6140   6142     1  0.0000000  0.6508444  3
   6141   6138   6140   6143     1  0.0000000  0.6508444  3
   6142   6140   6144   6145     1  180.0000771  0.0000000  2
   6142   6140   6144   6146     1  0.0000000  3.3472000  1
   6142   6140   6144   6146     1  0.0000000  0.0000000  2
   6142   6140   6144   6146     1  180.0000771  0.3347200  3
   6143   6140   6144   6145     1  180.0000771  0.0000000  2
   6143   6140   6144   6146     1  0.0000000  3.3472000  1
   6143   6140   6144   6146     1  0.0000000  0.0000000  2
   6143   6140   6144   6146     1  180.0000771  0.3347200  3
   6146   6144   6145   6155     1  0.0000000  7.9496000  1
   6146   6144   6145   6155     1  180.0000771  9.6232000  2
   6147   6137   6149   6152     1  0.0000000  0.6508444  3
   6147   6137   6149   6150     1  0.0000000  0.6508444  3
   6147   6137   6149   6151     1  0.0000000  0.6508444  3
   6148   6137   6149   6152     1  0.0000000  0.6508444  3
   6148   6137   6149   6150     1  0.0000000  0.6508444  3
   6148   6137   6149   6151     1  0.0000000  0.6508444  3
   6149   6152   6154   6156     1  180.0000771  9.6232000  2
   6150   6149   6152   6153     1  0.0000000  3.3472000  1
   6150   6149   6152   6153     1  0.0000000  0.0000000  2
   6150   6149   6152   6153     1  180.0000771  0.3347200  3
   6150   6149   6152   6154     1  180.0000771  0.0000000  2
   6151   6149   6152   6153     1  0.0000000  3.3472000  1
   6151   6149   6152   6153     1  0.0000000  0.0000000  2
   6151   6149   6152   6153     1  180.0000771  0.3347200  3
   6151   6149   6152   6154     1  180.0000771  0.0000000  2
   6153   6152   6154   6156     1  0.0000000  7.9496000  1
   6153   6152   6154   6156     1  180.0000771  9.6232000  2
   6157   6159   6161   6163     1  0.0000000  0.6508444  3
   6157   6159   6161   6164     1  0.0000000  0.6508444  3
   6158   6157   6159   6161     1  0.0000000  0.0000000  2
   6158   6157   6159   6160     1  0.0000000  0.0000000  2
   6158   6157   6159   6162     1  0.0000000  0.0000000  2
   6160   6159   6161   6165     1  0.0000000  0.6508444  3
   6160   6159   6161   6163     1  0.0000000  0.6508444  3
   6160   6159   6161   6164     1  0.0000000  0.6508444  3
   6161   6165   6166   6176     1  0.0000000  1.2552000  3
   6161   6165   6166   6177     1  0.0000000  1.2552000  3
   6161   6165   6167   6168     1  0.0000000  1.2552000  3
   6161   6165   6167   6170     1  0.0000000  1.2552000  3
   6162   6159   6161   6165     1  0.0000000  0.6508444  3
   6162   6159   6161   6163     1  0.0000000  0.6508444  3
   6162   6159   6161   6164     1  0.0000000  0.6508444  3
   6163   6161   6165   6166     1  0.0000000  1.2552000  3
   6163   6161   6165   6167     1  0.0000000  1.2552000  3
   6164   6161   6165   6166     1  0.0000000  1.2552000  3
   6164   6161   6165   6167     1  0.0000000  1.2552000  3
   6165   6166   6178   6179     1  0.0000000  0.6508444  3
   6165   6166   6178   6180     1  0.0000000  0.6508444  3
   6165   6167   6169   6171     1  0.0000000  0.6508444  3
   6165   6167   6169   6172     1  0.0000000  0.6508444  3
   6166   6165   6167   6168     1  0.0000000  1.2552000  3
   6166   6165   6167   6170     1  0.0000000  1.2552000  3
   6167   6165   6166   6176     1  0.0000000  1.2552000  3
   6167   6165   6166   6177     1  0.0000000  1.2552000  3
   6168   6167   6169   6173     1  0.0000000  0.6508444  3
   6168   6167   6169   6171     1  0.0000000  0.6508444  3
   6168   6167   6169   6172     1  0.0000000  0.6508444  3
   6169   6173   6174   6184     1  180.0000771  9.6232000  2
   6170   6167   6169   6173     1  0.0000000  0.6508444  3
   6170   6167   6169   6171     1  0.0000000  0.6508444  3
   6170   6167   6169   6172     1  0.0000000  0.6508444  3
   6171   6169   6173   6174     1  180.0000771  0.0000000  2
   6171   6169   6173   6175     1  0.0000000  3.3472000  1
   6171   6169   6173   6175     1  0.0000000  0.0000000  2
   6171   6169   6173   6175     1  180.0000771  0.3347200  3
   6172   6169   6173   6174     1  180.0000771  0.0000000  2
   6172   6169   6173   6175     1  0.0000000  3.3472000  1
   6172   6169   6173   6175     1  0.0000000  0.0000000  2
   6172   6169   6173   6175     1  180.0000771  0.3347200  3
   6175   6173   6174   6184     1  0.0000000  7.9496000  1
   6175   6173   6174   6184     1  180.0000771  9.6232000  2
   6176   6166   6178   6181     1  0.0000000  0.6508444  3
   6176   6166   6178   6179     1  0.0000000  0.6508444  3
   6176   6166   6178   6180     1  0.0000000  0.6508444  3
   6177   6166   6178   6181     1  0.0000000  0.6508444  3
   6177   6166   6178   6179     1  0.0000000  0.6508444  3
   6177   6166   6178   6180     1  0.0000000  0.6508444  3
   6178   6181   6183   6185     1  180.0000771  9.6232000  2
   6179   6178   6181   6182     1  0.0000000  3.3472000  1
   6179   6178   6181   6182     1  0.0000000  0.0000000  2
   6179   6178   6181   6182     1  180.0000771  0.3347200  3
   6179   6178   6181   6183     1  180.0000771  0.0000000  2
   6180   6178   6181   6182     1  0.0000000  3.3472000  1
   6180   6178   6181   6182     1  0.0000000  0.0000000  2
   6180   6178   6181   6182     1  180.0000771  0.3347200  3
   6180   6178   6181   6183     1  180.0000771  0.0000000  2
   6182   6181   6183   6185     1  0.0000000  7.9496000  1
   6182   6181   6183   6185     1  180.0000771  9.6232000  2
   6186   6188   6190   6192     1  0.0000000  0.6508444  3
   6186   6188   6190   6193     1  0.0000000  0.6508444  3
   6187   6186   6188   6190     1  0.0000000  0.0000000  2
   6187   6186   6188   6189     1  0.0000000  0.0000000  2
   6187   6186   6188   6191     1  0.0000000  0.0000000  2
   6189   6188   6190   6194     1  0.0000000  0.6508444  3
   6189   6188   6190   6192     1  0.0000000  0.6508444  3
   6189   6188   6190   6193     1  0.0000000  0.6508444  3
   6190   6194   6195   6205     1  0.0000000  1.2552000  3
   6190   6194   6195   6206     1  0.0000000  1.2552000  3
   6190   6194   6196   6197     1  0.0000000  1.2552000  3
   6190   6194   6196   6199     1  0.0000000  1.2552000  3
   6191   6188   6190   6194     1  0.0000000  0.6508444  3
   6191   6188   6190   6192     1  0.0000000  0.6508444  3
   6191   6188   6190   6193     1  0.0000000  0.6508444  3
   6192   6190   6194   6195     1  0.0000000  1.2552000  3
   6192   6190   6194   6196     1  0.0000000  1.2552000  3
   6193   6190   6194   6195     1  0.0000000  1.2552000  3
   6193   6190   6194   6196     1  0.0000000  1.2552000  3
   6194   6195   6207   6208     1  0.0000000  0.6508444  3
   6194   6195   6207   6209     1  0.0000000  0.6508444  3
   6194   6196   6198   6200     1  0.0000000  0.6508444  3
   6194   6196   6198   6201     1  0.0000000  0.6508444  3
   6195   6194   6196   6197     1  0.0000000  1.2552000  3
   6195   6194   6196   6199     1  0.0000000  1.2552000  3
   6196   6194   6195   6205     1  0.0000000  1.2552000  3
   6196   6194   6195   6206     1  0.0000000  1.2552000  3
   6197   6196   6198   6202     1  0.0000000  0.6508444  3
   6197   6196   6198   6200     1  0.0000000  0.6508444  3
   6197   6196   6198   6201     1  0.0000000  0.6508444  3
   6198   6202   6203   6213     1  180.0000771  9.6232000  2
   6199   6196   6198   6202     1  0.0000000  0.6508444  3
   6199   6196   6198   6200     1  0.0000000  0.6508444  3
   6199   6196   6198   6201     1  0.0000000  0.6508444  3
   6200   6198   6202   6203     1  180.0000771  0.0000000  2
   6200   6198   6202   6204     1  0.0000000  3.3472000  1
   6200   6198   6202   6204     1  0.0000000  0.0000000  2
   6200   6198   6202   6204     1  180.0000771  0.3347200  3
   6201   6198   6202   6203     1  180.0000771  0.0000000  2
   6201   6198   6202   6204     1  0.0000000  3.3472000  1
   6201   6198   6202   6204     1  0.0000000  0.0000000  2
   6201   6198   6202   6204     1  180.0000771  0.3347200  3
   6204   6202   6203   6213     1  0.0000000  7.9496000  1
   6204   6202   6203   6213     1  180.0000771  9.6232000  2
   6205   6195   6207   6210     1  0.0000000  0.6508444  3
   6205   6195   6207   6208     1  0.0000000  0.6508444  3
   6205   6195   6207   6209     1  0.0000000  0.6508444  3
   6206   6195   6207   6210     1  0.0000000  0.6508444  3
   6206   6195   6207   6208     1  0.0000000  0.6508444  3
   6206   6195   6207   6209     1  0.0000000  0.6508444  3
   6207   6210   6212   6214     1  180.0000771  9.6232000  2
   6208   6207   6210   6211     1  0.0000000  3.3472000  1
   6208   6207   6210   6211     1  0.0000000  0.0000000  2
   6208   6207   6210   6211     1  180.0000771  0.3347200  3
   6208   6207   6210   6212     1  180.0000771  0.0000000  2
   6209   6207   6210   6211     1  0.0000000  3.3472000  1
   6209   6207   6210   6211     1  0.0000000  0.0000000  2
   6209   6207   6210   6211     1  180.0000771  0.3347200  3
   6209   6207   6210   6212     1  180.0000771  0.0000000  2
   6211   6210   6212   6214     1  0.0000000  7.9496000  1
   6211   6210   6212   6214     1  180.0000771  9.6232000  2
   6215   6217   6219   6221     1  0.0000000  0.6508444  3
   6215   6217   6219   6222     1  0.0000000  0.6508444  3
   6216   6215   6217   6219     1  0.0000000  0.0000000  2
   6216   6215   6217   6218     1  0.0000000  0.0000000  2
   6216   6215   6217   6220     1  0.0000000  0.0000000  2
   6218   6217   6219   6223     1  0.0000000  0.6508444  3
   6218   6217   6219   6221     1  0.0000000  0.6508444  3
   6218   6217   6219   6222     1  0.0000000  0.6508444  3
   6219   6223   6224   6234     1  0.0000000  1.2552000  3
   6219   6223   6224   6235     1  0.0000000  1.2552000  3
   6219   6223   6225   6226     1  0.0000000  1.2552000  3
   6219   6223   6225   6228     1  0.0000000  1.2552000  3
   6220   6217   6219   6223     1  0.0000000  0.6508444  3
   6220   6217   6219   6221     1  0.0000000  0.6508444  3
   6220   6217   6219   6222     1  0.0000000  0.6508444  3
   6221   6219   6223   6224     1  0.0000000  1.2552000  3
   6221   6219   6223   6225     1  0.0000000  1.2552000  3
   6222   6219   6223   6224     1  0.0000000  1.2552000  3
   6222   6219   6223   6225     1  0.0000000  1.2552000  3
   6223   6224   6236   6237     1  0.0000000  0.6508444  3
   6223   6224   6236   6238     1  0.0000000  0.6508444  3
   6223   6225   6227   6229     1  0.0000000  0.6508444  3
   6223   6225   6227   6230     1  0.0000000  0.6508444  3
   6224   6223   6225   6226     1  0.0000000  1.2552000  3
   6224   6223   6225   6228     1  0.0000000  1.2552000  3
   6225   6223   6224   6234     1  0.0000000  1.2552000  3
   6225   6223   6224   6235     1  0.0000000  1.2552000  3
   6226   6225   6227   6231     1  0.0000000  0.6508444  3
   6226   6225   6227   6229     1  0.0000000  0.6508444  3
   6226   6225   6227   6230     1  0.0000000  0.6508444  3
   6227   6231   6232   6242     1  180.0000771  9.6232000  2
   6228   6225   6227   6231     1  0.0000000  0.6508444  3
   6228   6225   6227   6229     1  0.0000000  0.6508444  3
   6228   6225   6227   6230     1  0.0000000  0.6508444  3
   6229   6227   6231   6232     1  180.0000771  0.0000000  2
   6229   6227   6231   6233     1  0.0000000  3.3472000  1
   6229   6227   6231   6233     1  0.0000000  0.0000000  2
   6229   6227   6231   6233     1  180.0000771  0.3347200  3
   6230   6227   6231   6232     1  180.0000771  0.0000000  2
   6230   6227   6231   6233     1  0.0000000  3.3472000  1
   6230   6227   6231   6233     1  0.0000000  0.0000000  2
   6230   6227   6231   6233     1  180.0000771  0.3347200  3
   6233   6231   6232   6242     1  0.0000000  7.9496000  1
   6233   6231   6232   6242     1  180.0000771  9.6232000  2
   6234   6224   6236   6239     1  0.0000000  0.6508444  3
   6234   6224   6236   6237     1  0.0000000  0.6508444  3
   6234   6224   6236   6238     1  0.0000000  0.6508444  3
   6235   6224   6236   6239     1  0.0000000  0.6508444  3
   6235   6224   6236   6237     1  0.0000000  0.6508444  3
   6235   6224   6236   6238     1  0.0000000  0.6508444  3
   6236   6239   6241   6243     1  180.0000771  9.6232000  2
   6237   6236   6239   6240     1  0.0000000  3.3472000  1
   6237   6236   6239   6240     1  0.0000000  0.0000000  2
   6237   6236   6239   6240     1  180.0000771  0.3347200  3
   6237   6236   6239   6241     1  180.0000771  0.0000000  2
   6238   6236   6239   6240     1  0.0000000  3.3472000  1
   6238   6236   6239   6240     1  0.0000000  0.0000000  2
   6238   6236   6239   6240     1  180.0000771  0.3347200  3
   6238   6236   6239   6241     1  180.0000771  0.0000000  2
   6240   6239   6241   6243     1  0.0000000  7.9496000  1
   6240   6239   6241   6243     1  180.0000771  9.6232000  2
   6244   6246   6248   6250     1  0.0000000  0.6508444  3
   6244   6246   6248   6251     1  0.0000000  0.6508444  3
   6245   6244   6246   6248     1  0.0000000  0.0000000  2
   6245   6244   6246   6247     1  0.0000000  0.0000000  2
   6245   6244   6246   6249     1  0.0000000  0.0000000  2
   6247   6246   6248   6252     1  0.0000000  0.6508444  3
   6247   6246   6248   6250     1  0.0000000  0.6508444  3
   6247   6246   6248   6251     1  0.0000000  0.6508444  3
   6248   6252   6253   6263     1  0.0000000  1.2552000  3
   6248   6252   6253   6264     1  0.0000000  1.2552000  3
   6248   6252   6254   6255     1  0.0000000  1.2552000  3
   6248   6252   6254   6257     1  0.0000000  1.2552000  3
   6249   6246   6248   6252     1  0.0000000  0.6508444  3
   6249   6246   6248   6250     1  0.0000000  0.6508444  3
   6249   6246   6248   6251     1  0.0000000  0.6508444  3
   6250   6248   6252   6253     1  0.0000000  1.2552000  3
   6250   6248   6252   6254     1  0.0000000  1.2552000  3
   6251   6248   6252   6253     1  0.0000000  1.2552000  3
   6251   6248   6252   6254     1  0.0000000  1.2552000  3
   6252   6253   6265   6266     1  0.0000000  0.6508444  3
   6252   6253   6265   6267     1  0.0000000  0.6508444  3
   6252   6254   6256   6258     1  0.0000000  0.6508444  3
   6252   6254   6256   6259     1  0.0000000  0.6508444  3
   6253   6252   6254   6255     1  0.0000000  1.2552000  3
   6253   6252   6254   6257     1  0.0000000  1.2552000  3
   6254   6252   6253   6263     1  0.0000000  1.2552000  3
   6254   6252   6253   6264     1  0.0000000  1.2552000  3
   6255   6254   6256   6260     1  0.0000000  0.6508444  3
   6255   6254   6256   6258     1  0.0000000  0.6508444  3
   6255   6254   6256   6259     1  0.0000000  0.6508444  3
   6256   6260   6261   6271     1  180.0000771  9.6232000  2
   6257   6254   6256   6260     1  0.0000000  0.6508444  3
   6257   6254   6256   6258     1  0.0000000  0.6508444  3
   6257   6254   6256   6259     1  0.0000000  0.6508444  3
   6258   6256   6260   6261     1  180.0000771  0.0000000  2
   6258   6256   6260   6262     1  0.0000000  3.3472000  1
   6258   6256   6260   6262     1  0.0000000  0.0000000  2
   6258   6256   6260   6262     1  180.0000771  0.3347200  3
   6259   6256   6260   6261     1  180.0000771  0.0000000  2
   6259   6256   6260   6262     1  0.0000000  3.3472000  1
   6259   6256   6260   6262     1  0.0000000  0.0000000  2
   6259   6256   6260   6262     1  180.0000771  0.3347200  3
   6262   6260   6261   6271     1  0.0000000  7.9496000  1
   6262   6260   6261   6271     1  180.0000771  9.6232000  2
   6263   6253   6265   6268     1  0.0000000  0.6508444  3
   6263   6253   6265   6266     1  0.0000000  0.6508444  3
   6263   6253   6265   6267     1  0.0000000  0.6508444  3
   6264   6253   6265   6268     1  0.0000000  0.6508444  3
   6264   6253   6265   6266     1  0.0000000  0.6508444  3
   6264   6253   6265   6267     1  0.0000000  0.6508444  3
   6265   6268   6270   6272     1  180.0000771  9.6232000  2
   6266   6265   6268   6269     1  0.0000000  3.3472000  1
   6266   6265   6268   6269     1  0.0000000  0.0000000  2
   6266   6265   6268   6269     1  180.0000771  0.3347200  3
   6266   6265   6268   6270     1  180.0000771  0.0000000  2
   6267   6265   6268   6269     1  0.0000000  3.3472000  1
   6267   6265   6268   6269     1  0.0000000  0.0000000  2
   6267   6265   6268   6269     1  180.0000771  0.3347200  3
   6267   6265   6268   6270     1  180.0000771  0.0000000  2
   6269   6268   6270   6272     1  0.0000000  7.9496000  1
   6269   6268   6270   6272     1  180.0000771  9.6232000  2
   6273   6275   6277   6279     1  0.0000000  0.6508444  3
   6273   6275   6277   6280     1  0.0000000  0.6508444  3
   6274   6273   6275   6277     1  0.0000000  0.0000000  2
   6274   6273   6275   6276     1  0.0000000  0.0000000  2
   6274   6273   6275   6278     1  0.0000000  0.0000000  2
   6276   6275   6277   6281     1  0.0000000  0.6508444  3
   6276   6275   6277   6279     1  0.0000000  0.6508444  3
   6276   6275   6277   6280     1  0.0000000  0.6508444  3
   6277   6281   6282   6292     1  0.0000000  1.2552000  3
   6277   6281   6282   6293     1  0.0000000  1.2552000  3
   6277   6281   6283   6284     1  0.0000000  1.2552000  3
   6277   6281   6283   6286     1  0.0000000  1.2552000  3
   6278   6275   6277   6281     1  0.0000000  0.6508444  3
   6278   6275   6277   6279     1  0.0000000  0.6508444  3
   6278   6275   6277   6280     1  0.0000000  0.6508444  3
   6279   6277   6281   6282     1  0.0000000  1.2552000  3
   6279   6277   6281   6283     1  0.0000000  1.2552000  3
   6280   6277   6281   6282     1  0.0000000  1.2552000  3
   6280   6277   6281   6283     1  0.0000000  1.2552000  3
   6281   6282   6294   6295     1  0.0000000  0.6508444  3
   6281   6282   6294   6296     1  0.0000000  0.6508444  3
   6281   6283   6285   6287     1  0.0000000  0.6508444  3
   6281   6283   6285   6288     1  0.0000000  0.6508444  3
   6282   6281   6283   6284     1  0.0000000  1.2552000  3
   6282   6281   6283   6286     1  0.0000000  1.2552000  3
   6283   6281   6282   6292     1  0.0000000  1.2552000  3
   6283   6281   6282   6293     1  0.0000000  1.2552000  3
   6284   6283   6285   6289     1  0.0000000  0.6508444  3
   6284   6283   6285   6287     1  0.0000000  0.6508444  3
   6284   6283   6285   6288     1  0.0000000  0.6508444  3
   6285   6289   6290   6300     1  180.0000771  9.6232000  2
   6286   6283   6285   6289     1  0.0000000  0.6508444  3
   6286   6283   6285   6287     1  0.0000000  0.6508444  3
   6286   6283   6285   6288     1  0.0000000  0.6508444  3
   6287   6285   6289   6290     1  180.0000771  0.0000000  2
   6287   6285   6289   6291     1  0.0000000  3.3472000  1
   6287   6285   6289   6291     1  0.0000000  0.0000000  2
   6287   6285   6289   6291     1  180.0000771  0.3347200  3
   6288   6285   6289   6290     1  180.0000771  0.0000000  2
   6288   6285   6289   6291     1  0.0000000  3.3472000  1
   6288   6285   6289   6291     1  0.0000000  0.0000000  2
   6288   6285   6289   6291     1  180.0000771  0.3347200  3
   6291   6289   6290   6300     1  0.0000000  7.9496000  1
   6291   6289   6290   6300     1  180.0000771  9.6232000  2
   6292   6282   6294   6297     1  0.0000000  0.6508444  3
   6292   6282   6294   6295     1  0.0000000  0.6508444  3
   6292   6282   6294   6296     1  0.0000000  0.6508444  3
   6293   6282   6294   6297     1  0.0000000  0.6508444  3
   6293   6282   6294   6295     1  0.0000000  0.6508444  3
   6293   6282   6294   6296     1  0.0000000  0.6508444  3
   6294   6297   6299   6301     1  180.0000771  9.6232000  2
   6295   6294   6297   6298     1  0.0000000  3.3472000  1
   6295   6294   6297   6298     1  0.0000000  0.0000000  2
   6295   6294   6297   6298     1  180.0000771  0.3347200  3
   6295   6294   6297   6299     1  180.0000771  0.0000000  2
   6296   6294   6297   6298     1  0.0000000  3.3472000  1
   6296   6294   6297   6298     1  0.0000000  0.0000000  2
   6296   6294   6297   6298     1  180.0000771  0.3347200  3
   6296   6294   6297   6299     1  180.0000771  0.0000000  2
   6298   6297   6299   6301     1  0.0000000  7.9496000  1
   6298   6297   6299   6301     1  180.0000771  9.6232000  2
   6302   6304   6306   6308     1  0.0000000  0.6508444  3
   6302   6304   6306   6309     1  0.0000000  0.6508444  3
   6303   6302   6304   6306     1  0.0000000  0.0000000  2
   6303   6302   6304   6305     1  0.0000000  0.0000000  2
   6303   6302   6304   6307     1  0.0000000  0.0000000  2
   6305   6304   6306   6310     1  0.0000000  0.6508444  3
   6305   6304   6306   6308     1  0.0000000  0.6508444  3
   6305   6304   6306   6309     1  0.0000000  0.6508444  3
   6306   6310   6311   6321     1  0.0000000  1.2552000  3
   6306   6310   6311   6322     1  0.0000000  1.2552000  3
   6306   6310   6312   6313     1  0.0000000  1.2552000  3
   6306   6310   6312   6315     1  0.0000000  1.2552000  3
   6307   6304   6306   6310     1  0.0000000  0.6508444  3
   6307   6304   6306   6308     1  0.0000000  0.6508444  3
   6307   6304   6306   6309     1  0.0000000  0.6508444  3
   6308   6306   6310   6311     1  0.0000000  1.2552000  3
   6308   6306   6310   6312     1  0.0000000  1.2552000  3
   6309   6306   6310   6311     1  0.0000000  1.2552000  3
   6309   6306   6310   6312     1  0.0000000  1.2552000  3
   6310   6311   6323   6324     1  0.0000000  0.6508444  3
   6310   6311   6323   6325     1  0.0000000  0.6508444  3
   6310   6312   6314   6316     1  0.0000000  0.6508444  3
   6310   6312   6314   6317     1  0.0000000  0.6508444  3
   6311   6310   6312   6313     1  0.0000000  1.2552000  3
   6311   6310   6312   6315     1  0.0000000  1.2552000  3
   6312   6310   6311   6321     1  0.0000000  1.2552000  3
   6312   6310   6311   6322     1  0.0000000  1.2552000  3
   6313   6312   6314   6318     1  0.0000000  0.6508444  3
   6313   6312   6314   6316     1  0.0000000  0.6508444  3
   6313   6312   6314   6317     1  0.0000000  0.6508444  3
   6314   6318   6319   6329     1  180.0000771  9.6232000  2
   6315   6312   6314   6318     1  0.0000000  0.6508444  3
   6315   6312   6314   6316     1  0.0000000  0.6508444  3
   6315   6312   6314   6317     1  0.0000000  0.6508444  3
   6316   6314   6318   6319     1  180.0000771  0.0000000  2
   6316   6314   6318   6320     1  0.0000000  3.3472000  1
   6316   6314   6318   6320     1  0.0000000  0.0000000  2
   6316   6314   6318   6320     1  180.0000771  0.3347200  3
   6317   6314   6318   6319     1  180.0000771  0.0000000  2
   6317   6314   6318   6320     1  0.0000000  3.3472000  1
   6317   6314   6318   6320     1  0.0000000  0.0000000  2
   6317   6314   6318   6320     1  180.0000771  0.3347200  3
   6320   6318   6319   6329     1  0.0000000  7.9496000  1
   6320   6318   6319   6329     1  180.0000771  9.6232000  2
   6321   6311   6323   6326     1  0.0000000  0.6508444  3
   6321   6311   6323   6324     1  0.0000000  0.6508444  3
   6321   6311   6323   6325     1  0.0000000  0.6508444  3
   6322   6311   6323   6326     1  0.0000000  0.6508444  3
   6322   6311   6323   6324     1  0.0000000  0.6508444  3
   6322   6311   6323   6325     1  0.0000000  0.6508444  3
   6323   6326   6328   6330     1  180.0000771  9.6232000  2
   6324   6323   6326   6327     1  0.0000000  3.3472000  1
   6324   6323   6326   6327     1  0.0000000  0.0000000  2
   6324   6323   6326   6327     1  180.0000771  0.3347200  3
   6324   6323   6326   6328     1  180.0000771  0.0000000  2
   6325   6323   6326   6327     1  0.0000000  3.3472000  1
   6325   6323   6326   6327     1  0.0000000  0.0000000  2
   6325   6323   6326   6327     1  180.0000771  0.3347200  3
   6325   6323   6326   6328     1  180.0000771  0.0000000  2
   6327   6326   6328   6330     1  0.0000000  7.9496000  1
   6327   6326   6328   6330     1  180.0000771  9.6232000  2
   6331   6333   6335   6337     1  0.0000000  0.6508444  3
   6331   6333   6335   6338     1  0.0000000  0.6508444  3
   6332   6331   6333   6335     1  0.0000000  0.0000000  2
   6332   6331   6333   6334     1  0.0000000  0.0000000  2
   6332   6331   6333   6336     1  0.0000000  0.0000000  2
   6334   6333   6335   6339     1  0.0000000  0.6508444  3
   6334   6333   6335   6337     1  0.0000000  0.6508444  3
   6334   6333   6335   6338     1  0.0000000  0.6508444  3
   6335   6339   6340   6350     1  0.0000000  1.2552000  3
   6335   6339   6340   6351     1  0.0000000  1.2552000  3
   6335   6339   6341   6342     1  0.0000000  1.2552000  3
   6335   6339   6341   6344     1  0.0000000  1.2552000  3
   6336   6333   6335   6339     1  0.0000000  0.6508444  3
   6336   6333   6335   6337     1  0.0000000  0.6508444  3
   6336   6333   6335   6338     1  0.0000000  0.6508444  3
   6337   6335   6339   6340     1  0.0000000  1.2552000  3
   6337   6335   6339   6341     1  0.0000000  1.2552000  3
   6338   6335   6339   6340     1  0.0000000  1.2552000  3
   6338   6335   6339   6341     1  0.0000000  1.2552000  3
   6339   6340   6352   6353     1  0.0000000  0.6508444  3
   6339   6340   6352   6354     1  0.0000000  0.6508444  3
   6339   6341   6343   6345     1  0.0000000  0.6508444  3
   6339   6341   6343   6346     1  0.0000000  0.6508444  3
   6340   6339   6341   6342     1  0.0000000  1.2552000  3
   6340   6339   6341   6344     1  0.0000000  1.2552000  3
   6341   6339   6340   6350     1  0.0000000  1.2552000  3
   6341   6339   6340   6351     1  0.0000000  1.2552000  3
   6342   6341   6343   6347     1  0.0000000  0.6508444  3
   6342   6341   6343   6345     1  0.0000000  0.6508444  3
   6342   6341   6343   6346     1  0.0000000  0.6508444  3
   6343   6347   6348   6358     1  180.0000771  9.6232000  2
   6344   6341   6343   6347     1  0.0000000  0.6508444  3
   6344   6341   6343   6345     1  0.0000000  0.6508444  3
   6344   6341   6343   6346     1  0.0000000  0.6508444  3
   6345   6343   6347   6348     1  180.0000771  0.0000000  2
   6345   6343   6347   6349     1  0.0000000  3.3472000  1
   6345   6343   6347   6349     1  0.0000000  0.0000000  2
   6345   6343   6347   6349     1  180.0000771  0.3347200  3
   6346   6343   6347   6348     1  180.0000771  0.0000000  2
   6346   6343   6347   6349     1  0.0000000  3.3472000  1
   6346   6343   6347   6349     1  0.0000000  0.0000000  2
   6346   6343   6347   6349     1  180.0000771  0.3347200  3
   6349   6347   6348   6358     1  0.0000000  7.9496000  1
   6349   6347   6348   6358     1  180.0000771  9.6232000  2
   6350   6340   6352   6355     1  0.0000000  0.6508444  3
   6350   6340   6352   6353     1  0.0000000  0.6508444  3
   6350   6340   6352   6354     1  0.0000000  0.6508444  3
   6351   6340   6352   6355     1  0.0000000  0.6508444  3
   6351   6340   6352   6353     1  0.0000000  0.6508444  3
   6351   6340   6352   6354     1  0.0000000  0.6508444  3
   6352   6355   6357   6359     1  180.0000771  9.6232000  2
   6353   6352   6355   6356     1  0.0000000  3.3472000  1
   6353   6352   6355   6356     1  0.0000000  0.0000000  2
   6353   6352   6355   6356     1  180.0000771  0.3347200  3
   6353   6352   6355   6357     1  180.0000771  0.0000000  2
   6354   6352   6355   6356     1  0.0000000  3.3472000  1
   6354   6352   6355   6356     1  0.0000000  0.0000000  2
   6354   6352   6355   6356     1  180.0000771  0.3347200  3
   6354   6352   6355   6357     1  180.0000771  0.0000000  2
   6356   6355   6357   6359     1  0.0000000  7.9496000  1
   6356   6355   6357   6359     1  180.0000771  9.6232000  2
   6360   6362   6364   6366     1  0.0000000  0.6508444  3
   6360   6362   6364   6367     1  0.0000000  0.6508444  3
   6361   6360   6362   6364     1  0.0000000  0.0000000  2
   6361   6360   6362   6363     1  0.0000000  0.0000000  2
   6361   6360   6362   6365     1  0.0000000  0.0000000  2
   6363   6362   6364   6368     1  0.0000000  0.6508444  3
   6363   6362   6364   6366     1  0.0000000  0.6508444  3
   6363   6362   6364   6367     1  0.0000000  0.6508444  3
   6364   6368   6369   6379     1  0.0000000  1.2552000  3
   6364   6368   6369   6380     1  0.0000000  1.2552000  3
   6364   6368   6370   6371     1  0.0000000  1.2552000  3
   6364   6368   6370   6373     1  0.0000000  1.2552000  3
   6365   6362   6364   6368     1  0.0000000  0.6508444  3
   6365   6362   6364   6366     1  0.0000000  0.6508444  3
   6365   6362   6364   6367     1  0.0000000  0.6508444  3
   6366   6364   6368   6369     1  0.0000000  1.2552000  3
   6366   6364   6368   6370     1  0.0000000  1.2552000  3
   6367   6364   6368   6369     1  0.0000000  1.2552000  3
   6367   6364   6368   6370     1  0.0000000  1.2552000  3
   6368   6369   6381   6382     1  0.0000000  0.6508444  3
   6368   6369   6381   6383     1  0.0000000  0.6508444  3
   6368   6370   6372   6374     1  0.0000000  0.6508444  3
   6368   6370   6372   6375     1  0.0000000  0.6508444  3
   6369   6368   6370   6371     1  0.0000000  1.2552000  3
   6369   6368   6370   6373     1  0.0000000  1.2552000  3
   6370   6368   6369   6379     1  0.0000000  1.2552000  3
   6370   6368   6369   6380     1  0.0000000  1.2552000  3
   6371   6370   6372   6376     1  0.0000000  0.6508444  3
   6371   6370   6372   6374     1  0.0000000  0.6508444  3
   6371   6370   6372   6375     1  0.0000000  0.6508444  3
   6372   6376   6377   6387     1  180.0000771  9.6232000  2
   6373   6370   6372   6376     1  0.0000000  0.6508444  3
   6373   6370   6372   6374     1  0.0000000  0.6508444  3
   6373   6370   6372   6375     1  0.0000000  0.6508444  3
   6374   6372   6376   6377     1  180.0000771  0.0000000  2
   6374   6372   6376   6378     1  0.0000000  3.3472000  1
   6374   6372   6376   6378     1  0.0000000  0.0000000  2
   6374   6372   6376   6378     1  180.0000771  0.3347200  3
   6375   6372   6376   6377     1  180.0000771  0.0000000  2
   6375   6372   6376   6378     1  0.0000000  3.3472000  1
   6375   6372   6376   6378     1  0.0000000  0.0000000  2
   6375   6372   6376   6378     1  180.0000771  0.3347200  3
   6378   6376   6377   6387     1  0.0000000  7.9496000  1
   6378   6376   6377   6387     1  180.0000771  9.6232000  2
   6379   6369   6381   6384     1  0.0000000  0.6508444  3
   6379   6369   6381   6382     1  0.0000000  0.6508444  3
   6379   6369   6381   6383     1  0.0000000  0.6508444  3
   6380   6369   6381   6384     1  0.0000000  0.6508444  3
   6380   6369   6381   6382     1  0.0000000  0.6508444  3
   6380   6369   6381   6383     1  0.0000000  0.6508444  3
   6381   6384   6386   6388     1  180.0000771  9.6232000  2
   6382   6381   6384   6385     1  0.0000000  3.3472000  1
   6382   6381   6384   6385     1  0.0000000  0.0000000  2
   6382   6381   6384   6385     1  180.0000771  0.3347200  3
   6382   6381   6384   6386     1  180.0000771  0.0000000  2
   6383   6381   6384   6385     1  0.0000000  3.3472000  1
   6383   6381   6384   6385     1  0.0000000  0.0000000  2
   6383   6381   6384   6385     1  180.0000771  0.3347200  3
   6383   6381   6384   6386     1  180.0000771  0.0000000  2
   6385   6384   6386   6388     1  0.0000000  7.9496000  1
   6385   6384   6386   6388     1  180.0000771  9.6232000  2
   6389   6391   6393   6395     1  0.0000000  0.6508444  3
   6389   6391   6393   6396     1  0.0000000  0.6508444  3
   6390   6389   6391   6393     1  0.0000000  0.0000000  2
   6390   6389   6391   6392     1  0.0000000  0.0000000  2
   6390   6389   6391   6394     1  0.0000000  0.0000000  2
   6392   6391   6393   6397     1  0.0000000  0.6508444  3
   6392   6391   6393   6395     1  0.0000000  0.6508444  3
   6392   6391   6393   6396     1  0.0000000  0.6508444  3
   6393   6397   6398   6408     1  0.0000000  1.2552000  3
   6393   6397   6398   6409     1  0.0000000  1.2552000  3
   6393   6397   6399   6400     1  0.0000000  1.2552000  3
   6393   6397   6399   6402     1  0.0000000  1.2552000  3
   6394   6391   6393   6397     1  0.0000000  0.6508444  3
   6394   6391   6393   6395     1  0.0000000  0.6508444  3
   6394   6391   6393   6396     1  0.0000000  0.6508444  3
   6395   6393   6397   6398     1  0.0000000  1.2552000  3
   6395   6393   6397   6399     1  0.0000000  1.2552000  3
   6396   6393   6397   6398     1  0.0000000  1.2552000  3
   6396   6393   6397   6399     1  0.0000000  1.2552000  3
   6397   6398   6410   6411     1  0.0000000  0.6508444  3
   6397   6398   6410   6412     1  0.0000000  0.6508444  3
   6397   6399   6401   6403     1  0.0000000  0.6508444  3
   6397   6399   6401   6404     1  0.0000000  0.6508444  3
   6398   6397   6399   6400     1  0.0000000  1.2552000  3
   6398   6397   6399   6402     1  0.0000000  1.2552000  3
   6399   6397   6398   6408     1  0.0000000  1.2552000  3
   6399   6397   6398   6409     1  0.0000000  1.2552000  3
   6400   6399   6401   6405     1  0.0000000  0.6508444  3
   6400   6399   6401   6403     1  0.0000000  0.6508444  3
   6400   6399   6401   6404     1  0.0000000  0.6508444  3
   6401   6405   6406   6416     1  180.0000771  9.6232000  2
   6402   6399   6401   6405     1  0.0000000  0.6508444  3
   6402   6399   6401   6403     1  0.0000000  0.6508444  3
   6402   6399   6401   6404     1  0.0000000  0.6508444  3
   6403   6401   6405   6406     1  180.0000771  0.0000000  2
   6403   6401   6405   6407     1  0.0000000  3.3472000  1
   6403   6401   6405   6407     1  0.0000000  0.0000000  2
   6403   6401   6405   6407     1  180.0000771  0.3347200  3
   6404   6401   6405   6406     1  180.0000771  0.0000000  2
   6404   6401   6405   6407     1  0.0000000  3.3472000  1
   6404   6401   6405   6407     1  0.0000000  0.0000000  2
   6404   6401   6405   6407     1  180.0000771  0.3347200  3
   6407   6405   6406   6416     1  0.0000000  7.9496000  1
   6407   6405   6406   6416     1  180.0000771  9.6232000  2
   6408   6398   6410   6413     1  0.0000000  0.6508444  3
   6408   6398   6410   6411     1  0.0000000  0.6508444  3
   6408   6398   6410   6412     1  0.0000000  0.6508444  3
   6409   6398   6410   6413     1  0.0000000  0.6508444  3
   6409   6398   6410   6411     1  0.0000000  0.6508444  3
   6409   6398   6410   6412     1  0.0000000  0.6508444  3
   6410   6413   6415   6417     1  180.0000771  9.6232000  2
   6411   6410   6413   6414     1  0.0000000  3.3472000  1
   6411   6410   6413   6414     1  0.0000000  0.0000000  2
   6411   6410   6413   6414     1  180.0000771  0.3347200  3
   6411   6410   6413   6415     1  180.0000771  0.0000000  2
   6412   6410   6413   6414     1  0.0000000  3.3472000  1
   6412   6410   6413   6414     1  0.0000000  0.0000000  2
   6412   6410   6413   6414     1  180.0000771  0.3347200  3
   6412   6410   6413   6415     1  180.0000771  0.0000000  2
   6414   6413   6415   6417     1  0.0000000  7.9496000  1
   6414   6413   6415   6417     1  180.0000771  9.6232000  2
   6418   6420   6422   6424     1  0.0000000  0.6508444  3
   6418   6420   6422   6425     1  0.0000000  0.6508444  3
   6419   6418   6420   6422     1  0.0000000  0.0000000  2
   6419   6418   6420   6421     1  0.0000000  0.0000000  2
   6419   6418   6420   6423     1  0.0000000  0.0000000  2
   6421   6420   6422   6426     1  0.0000000  0.6508444  3
   6421   6420   6422   6424     1  0.0000000  0.6508444  3
   6421   6420   6422   6425     1  0.0000000  0.6508444  3
   6422   6426   6427   6437     1  0.0000000  1.2552000  3
   6422   6426   6427   6438     1  0.0000000  1.2552000  3
   6422   6426   6428   6429     1  0.0000000  1.2552000  3
   6422   6426   6428   6431     1  0.0000000  1.2552000  3
   6423   6420   6422   6426     1  0.0000000  0.6508444  3
   6423   6420   6422   6424     1  0.0000000  0.6508444  3
   6423   6420   6422   6425     1  0.0000000  0.6508444  3
   6424   6422   6426   6427     1  0.0000000  1.2552000  3
   6424   6422   6426   6428     1  0.0000000  1.2552000  3
   6425   6422   6426   6427     1  0.0000000  1.2552000  3
   6425   6422   6426   6428     1  0.0000000  1.2552000  3
   6426   6427   6439   6440     1  0.0000000  0.6508444  3
   6426   6427   6439   6441     1  0.0000000  0.6508444  3
   6426   6428   6430   6432     1  0.0000000  0.6508444  3
   6426   6428   6430   6433     1  0.0000000  0.6508444  3
   6427   6426   6428   6429     1  0.0000000  1.2552000  3
   6427   6426   6428   6431     1  0.0000000  1.2552000  3
   6428   6426   6427   6437     1  0.0000000  1.2552000  3
   6428   6426   6427   6438     1  0.0000000  1.2552000  3
   6429   6428   6430   6434     1  0.0000000  0.6508444  3
   6429   6428   6430   6432     1  0.0000000  0.6508444  3
   6429   6428   6430   6433     1  0.0000000  0.6508444  3
   6430   6434   6435   6445     1  180.0000771  9.6232000  2
   6431   6428   6430   6434     1  0.0000000  0.6508444  3
   6431   6428   6430   6432     1  0.0000000  0.6508444  3
   6431   6428   6430   6433     1  0.0000000  0.6508444  3
   6432   6430   6434   6435     1  180.0000771  0.0000000  2
   6432   6430   6434   6436     1  0.0000000  3.3472000  1
   6432   6430   6434   6436     1  0.0000000  0.0000000  2
   6432   6430   6434   6436     1  180.0000771  0.3347200  3
   6433   6430   6434   6435     1  180.0000771  0.0000000  2
   6433   6430   6434   6436     1  0.0000000  3.3472000  1
   6433   6430   6434   6436     1  0.0000000  0.0000000  2
   6433   6430   6434   6436     1  180.0000771  0.3347200  3
   6436   6434   6435   6445     1  0.0000000  7.9496000  1
   6436   6434   6435   6445     1  180.0000771  9.6232000  2
   6437   6427   6439   6442     1  0.0000000  0.6508444  3
   6437   6427   6439   6440     1  0.0000000  0.6508444  3
   6437   6427   6439   6441     1  0.0000000  0.6508444  3
   6438   6427   6439   6442     1  0.0000000  0.6508444  3
   6438   6427   6439   6440     1  0.0000000  0.6508444  3
   6438   6427   6439   6441     1  0.0000000  0.6508444  3
   6439   6442   6444   6446     1  180.0000771  9.6232000  2
   6440   6439   6442   6443     1  0.0000000  3.3472000  1
   6440   6439   6442   6443     1  0.0000000  0.0000000  2
   6440   6439   6442   6443     1  180.0000771  0.3347200  3
   6440   6439   6442   6444     1  180.0000771  0.0000000  2
   6441   6439   6442   6443     1  0.0000000  3.3472000  1
   6441   6439   6442   6443     1  0.0000000  0.0000000  2
   6441   6439   6442   6443     1  180.0000771  0.3347200  3
   6441   6439   6442   6444     1  180.0000771  0.0000000  2
   6443   6442   6444   6446     1  0.0000000  7.9496000  1
   6443   6442   6444   6446     1  180.0000771  9.6232000  2
   6447   6449   6451   6453     1  0.0000000  0.6508444  3
   6447   6449   6451   6454     1  0.0000000  0.6508444  3
   6448   6447   6449   6451     1  0.0000000  0.0000000  2
   6448   6447   6449   6450     1  0.0000000  0.0000000  2
   6448   6447   6449   6452     1  0.0000000  0.0000000  2
   6450   6449   6451   6455     1  0.0000000  0.6508444  3
   6450   6449   6451   6453     1  0.0000000  0.6508444  3
   6450   6449   6451   6454     1  0.0000000  0.6508444  3
   6451   6455   6456   6466     1  0.0000000  1.2552000  3
   6451   6455   6456   6467     1  0.0000000  1.2552000  3
   6451   6455   6457   6458     1  0.0000000  1.2552000  3
   6451   6455   6457   6460     1  0.0000000  1.2552000  3
   6452   6449   6451   6455     1  0.0000000  0.6508444  3
   6452   6449   6451   6453     1  0.0000000  0.6508444  3
   6452   6449   6451   6454     1  0.0000000  0.6508444  3
   6453   6451   6455   6456     1  0.0000000  1.2552000  3
   6453   6451   6455   6457     1  0.0000000  1.2552000  3
   6454   6451   6455   6456     1  0.0000000  1.2552000  3
   6454   6451   6455   6457     1  0.0000000  1.2552000  3
   6455   6456   6468   6469     1  0.0000000  0.6508444  3
   6455   6456   6468   6470     1  0.0000000  0.6508444  3
   6455   6457   6459   6461     1  0.0000000  0.6508444  3
   6455   6457   6459   6462     1  0.0000000  0.6508444  3
   6456   6455   6457   6458     1  0.0000000  1.2552000  3
   6456   6455   6457   6460     1  0.0000000  1.2552000  3
   6457   6455   6456   6466     1  0.0000000  1.2552000  3
   6457   6455   6456   6467     1  0.0000000  1.2552000  3
   6458   6457   6459   6463     1  0.0000000  0.6508444  3
   6458   6457   6459   6461     1  0.0000000  0.6508444  3
   6458   6457   6459   6462     1  0.0000000  0.6508444  3
   6459   6463   6464   6474     1  180.0000771  9.6232000  2
   6460   6457   6459   6463     1  0.0000000  0.6508444  3
   6460   6457   6459   6461     1  0.0000000  0.6508444  3
   6460   6457   6459   6462     1  0.0000000  0.6508444  3
   6461   6459   6463   6464     1  180.0000771  0.0000000  2
   6461   6459   6463   6465     1  0.0000000  3.3472000  1
   6461   6459   6463   6465     1  0.0000000  0.0000000  2
   6461   6459   6463   6465     1  180.0000771  0.3347200  3
   6462   6459   6463   6464     1  180.0000771  0.0000000  2
   6462   6459   6463   6465     1  0.0000000  3.3472000  1
   6462   6459   6463   6465     1  0.0000000  0.0000000  2
   6462   6459   6463   6465     1  180.0000771  0.3347200  3
   6465   6463   6464   6474     1  0.0000000  7.9496000  1
   6465   6463   6464   6474     1  180.0000771  9.6232000  2
   6466   6456   6468   6471     1  0.0000000  0.6508444  3
   6466   6456   6468   6469     1  0.0000000  0.6508444  3
   6466   6456   6468   6470     1  0.0000000  0.6508444  3
   6467   6456   6468   6471     1  0.0000000  0.6508444  3
   6467   6456   6468   6469     1  0.0000000  0.6508444  3
   6467   6456   6468   6470     1  0.0000000  0.6508444  3
   6468   6471   6473   6475     1  180.0000771  9.6232000  2
   6469   6468   6471   6472     1  0.0000000  3.3472000  1
   6469   6468   6471   6472     1  0.0000000  0.0000000  2
   6469   6468   6471   6472     1  180.0000771  0.3347200  3
   6469   6468   6471   6473     1  180.0000771  0.0000000  2
   6470   6468   6471   6472     1  0.0000000  3.3472000  1
   6470   6468   6471   6472     1  0.0000000  0.0000000  2
   6470   6468   6471   6472     1  180.0000771  0.3347200  3
   6470   6468   6471   6473     1  180.0000771  0.0000000  2
   6472   6471   6473   6475     1  0.0000000  7.9496000  1
   6472   6471   6473   6475     1  180.0000771  9.6232000  2
   6476   6478   6480   6482     1  0.0000000  0.6508444  3
   6476   6478   6480   6483     1  0.0000000  0.6508444  3
   6477   6476   6478   6480     1  0.0000000  0.0000000  2
   6477   6476   6478   6479     1  0.0000000  0.0000000  2
   6477   6476   6478   6481     1  0.0000000  0.0000000  2
   6479   6478   6480   6484     1  0.0000000  0.6508444  3
   6479   6478   6480   6482     1  0.0000000  0.6508444  3
   6479   6478   6480   6483     1  0.0000000  0.6508444  3
   6480   6484   6485   6495     1  0.0000000  1.2552000  3
   6480   6484   6485   6496     1  0.0000000  1.2552000  3
   6480   6484   6486   6487     1  0.0000000  1.2552000  3
   6480   6484   6486   6489     1  0.0000000  1.2552000  3
   6481   6478   6480   6484     1  0.0000000  0.6508444  3
   6481   6478   6480   6482     1  0.0000000  0.6508444  3
   6481   6478   6480   6483     1  0.0000000  0.6508444  3
   6482   6480   6484   6485     1  0.0000000  1.2552000  3
   6482   6480   6484   6486     1  0.0000000  1.2552000  3
   6483   6480   6484   6485     1  0.0000000  1.2552000  3
   6483   6480   6484   6486     1  0.0000000  1.2552000  3
   6484   6485   6497   6498     1  0.0000000  0.6508444  3
   6484   6485   6497   6499     1  0.0000000  0.6508444  3
   6484   6486   6488   6490     1  0.0000000  0.6508444  3
   6484   6486   6488   6491     1  0.0000000  0.6508444  3
   6485   6484   6486   6487     1  0.0000000  1.2552000  3
   6485   6484   6486   6489     1  0.0000000  1.2552000  3
   6486   6484   6485   6495     1  0.0000000  1.2552000  3
   6486   6484   6485   6496     1  0.0000000  1.2552000  3
   6487   6486   6488   6492     1  0.0000000  0.6508444  3
   6487   6486   6488   6490     1  0.0000000  0.6508444  3
   6487   6486   6488   6491     1  0.0000000  0.6508444  3
   6488   6492   6493   6503     1  180.0000771  9.6232000  2
   6489   6486   6488   6492     1  0.0000000  0.6508444  3
   6489   6486   6488   6490     1  0.0000000  0.6508444  3
   6489   6486   6488   6491     1  0.0000000  0.6508444  3
   6490   6488   6492   6493     1  180.0000771  0.0000000  2
   6490   6488   6492   6494     1  0.0000000  3.3472000  1
   6490   6488   6492   6494     1  0.0000000  0.0000000  2
   6490   6488   6492   6494     1  180.0000771  0.3347200  3
   6491   6488   6492   6493     1  180.0000771  0.0000000  2
   6491   6488   6492   6494     1  0.0000000  3.3472000  1
   6491   6488   6492   6494     1  0.0000000  0.0000000  2
   6491   6488   6492   6494     1  180.0000771  0.3347200  3
   6494   6492   6493   6503     1  0.0000000  7.9496000  1
   6494   6492   6493   6503     1  180.0000771  9.6232000  2
   6495   6485   6497   6500     1  0.0000000  0.6508444  3
   6495   6485   6497   6498     1  0.0000000  0.6508444  3
   6495   6485   6497   6499     1  0.0000000  0.6508444  3
   6496   6485   6497   6500     1  0.0000000  0.6508444  3
   6496   6485   6497   6498     1  0.0000000  0.6508444  3
   6496   6485   6497   6499     1  0.0000000  0.6508444  3
   6497   6500   6502   6504     1  180.0000771  9.6232000  2
   6498   6497   6500   6501     1  0.0000000  3.3472000  1
   6498   6497   6500   6501     1  0.0000000  0.0000000  2
   6498   6497   6500   6501     1  180.0000771  0.3347200  3
   6498   6497   6500   6502     1  180.0000771  0.0000000  2
   6499   6497   6500   6501     1  0.0000000  3.3472000  1
   6499   6497   6500   6501     1  0.0000000  0.0000000  2
   6499   6497   6500   6501     1  180.0000771  0.3347200  3
   6499   6497   6500   6502     1  180.0000771  0.0000000  2
   6501   6500   6502   6504     1  0.0000000  7.9496000  1
   6501   6500   6502   6504     1  180.0000771  9.6232000  2
   6505   6507   6509   6511     1  0.0000000  0.6508444  3
   6505   6507   6509   6512     1  0.0000000  0.6508444  3
   6506   6505   6507   6509     1  0.0000000  0.0000000  2
   6506   6505   6507   6508     1  0.0000000  0.0000000  2
   6506   6505   6507   6510     1  0.0000000  0.0000000  2
   6508   6507   6509   6513     1  0.0000000  0.6508444  3
   6508   6507   6509   6511     1  0.0000000  0.6508444  3
   6508   6507   6509   6512     1  0.0000000  0.6508444  3
   6509   6513   6514   6524     1  0.0000000  1.2552000  3
   6509   6513   6514   6525     1  0.0000000  1.2552000  3
   6509   6513   6515   6516     1  0.0000000  1.2552000  3
   6509   6513   6515   6518     1  0.0000000  1.2552000  3
   6510   6507   6509   6513     1  0.0000000  0.6508444  3
   6510   6507   6509   6511     1  0.0000000  0.6508444  3
   6510   6507   6509   6512     1  0.0000000  0.6508444  3
   6511   6509   6513   6514     1  0.0000000  1.2552000  3
   6511   6509   6513   6515     1  0.0000000  1.2552000  3
   6512   6509   6513   6514     1  0.0000000  1.2552000  3
   6512   6509   6513   6515     1  0.0000000  1.2552000  3
   6513   6514   6526   6527     1  0.0000000  0.6508444  3
   6513   6514   6526   6528     1  0.0000000  0.6508444  3
   6513   6515   6517   6519     1  0.0000000  0.6508444  3
   6513   6515   6517   6520     1  0.0000000  0.6508444  3
   6514   6513   6515   6516     1  0.0000000  1.2552000  3
   6514   6513   6515   6518     1  0.0000000  1.2552000  3
   6515   6513   6514   6524     1  0.0000000  1.2552000  3
   6515   6513   6514   6525     1  0.0000000  1.2552000  3
   6516   6515   6517   6521     1  0.0000000  0.6508444  3
   6516   6515   6517   6519     1  0.0000000  0.6508444  3
   6516   6515   6517   6520     1  0.0000000  0.6508444  3
   6517   6521   6522   6532     1  180.0000771  9.6232000  2
   6518   6515   6517   6521     1  0.0000000  0.6508444  3
   6518   6515   6517   6519     1  0.0000000  0.6508444  3
   6518   6515   6517   6520     1  0.0000000  0.6508444  3
   6519   6517   6521   6522     1  180.0000771  0.0000000  2
   6519   6517   6521   6523     1  0.0000000  3.3472000  1
   6519   6517   6521   6523     1  0.0000000  0.0000000  2
   6519   6517   6521   6523     1  180.0000771  0.3347200  3
   6520   6517   6521   6522     1  180.0000771  0.0000000  2
   6520   6517   6521   6523     1  0.0000000  3.3472000  1
   6520   6517   6521   6523     1  0.0000000  0.0000000  2
   6520   6517   6521   6523     1  180.0000771  0.3347200  3
   6523   6521   6522   6532     1  0.0000000  7.9496000  1
   6523   6521   6522   6532     1  180.0000771  9.6232000  2
   6524   6514   6526   6529     1  0.0000000  0.6508444  3
   6524   6514   6526   6527     1  0.0000000  0.6508444  3
   6524   6514   6526   6528     1  0.0000000  0.6508444  3
   6525   6514   6526   6529     1  0.0000000  0.6508444  3
   6525   6514   6526   6527     1  0.0000000  0.6508444  3
   6525   6514   6526   6528     1  0.0000000  0.6508444  3
   6526   6529   6531   6533     1  180.0000771  9.6232000  2
   6527   6526   6529   6530     1  0.0000000  3.3472000  1
   6527   6526   6529   6530     1  0.0000000  0.0000000  2
   6527   6526   6529   6530     1  180.0000771  0.3347200  3
   6527   6526   6529   6531     1  180.0000771  0.0000000  2
   6528   6526   6529   6530     1  0.0000000  3.3472000  1
   6528   6526   6529   6530     1  0.0000000  0.0000000  2
   6528   6526   6529   6530     1  180.0000771  0.3347200  3
   6528   6526   6529   6531     1  180.0000771  0.0000000  2
   6530   6529   6531   6533     1  0.0000000  7.9496000  1
   6530   6529   6531   6533     1  180.0000771  9.6232000  2
   6534   6536   6538   6540     1  0.0000000  0.6508444  3
   6534   6536   6538   6541     1  0.0000000  0.6508444  3
   6535   6534   6536   6538     1  0.0000000  0.0000000  2
   6535   6534   6536   6537     1  0.0000000  0.0000000  2
   6535   6534   6536   6539     1  0.0000000  0.0000000  2
   6537   6536   6538   6542     1  0.0000000  0.6508444  3
   6537   6536   6538   6540     1  0.0000000  0.6508444  3
   6537   6536   6538   6541     1  0.0000000  0.6508444  3
   6538   6542   6543   6553     1  0.0000000  1.2552000  3
   6538   6542   6543   6554     1  0.0000000  1.2552000  3
   6538   6542   6544   6545     1  0.0000000  1.2552000  3
   6538   6542   6544   6547     1  0.0000000  1.2552000  3
   6539   6536   6538   6542     1  0.0000000  0.6508444  3
   6539   6536   6538   6540     1  0.0000000  0.6508444  3
   6539   6536   6538   6541     1  0.0000000  0.6508444  3
   6540   6538   6542   6543     1  0.0000000  1.2552000  3
   6540   6538   6542   6544     1  0.0000000  1.2552000  3
   6541   6538   6542   6543     1  0.0000000  1.2552000  3
   6541   6538   6542   6544     1  0.0000000  1.2552000  3
   6542   6543   6555   6556     1  0.0000000  0.6508444  3
   6542   6543   6555   6557     1  0.0000000  0.6508444  3
   6542   6544   6546   6548     1  0.0000000  0.6508444  3
   6542   6544   6546   6549     1  0.0000000  0.6508444  3
   6543   6542   6544   6545     1  0.0000000  1.2552000  3
   6543   6542   6544   6547     1  0.0000000  1.2552000  3
   6544   6542   6543   6553     1  0.0000000  1.2552000  3
   6544   6542   6543   6554     1  0.0000000  1.2552000  3
   6545   6544   6546   6550     1  0.0000000  0.6508444  3
   6545   6544   6546   6548     1  0.0000000  0.6508444  3
   6545   6544   6546   6549     1  0.0000000  0.6508444  3
   6546   6550   6551   6561     1  180.0000771  9.6232000  2
   6547   6544   6546   6550     1  0.0000000  0.6508444  3
   6547   6544   6546   6548     1  0.0000000  0.6508444  3
   6547   6544   6546   6549     1  0.0000000  0.6508444  3
   6548   6546   6550   6551     1  180.0000771  0.0000000  2
   6548   6546   6550   6552     1  0.0000000  3.3472000  1
   6548   6546   6550   6552     1  0.0000000  0.0000000  2
   6548   6546   6550   6552     1  180.0000771  0.3347200  3
   6549   6546   6550   6551     1  180.0000771  0.0000000  2
   6549   6546   6550   6552     1  0.0000000  3.3472000  1
   6549   6546   6550   6552     1  0.0000000  0.0000000  2
   6549   6546   6550   6552     1  180.0000771  0.3347200  3
   6552   6550   6551   6561     1  0.0000000  7.9496000  1
   6552   6550   6551   6561     1  180.0000771  9.6232000  2
   6553   6543   6555   6558     1  0.0000000  0.6508444  3
   6553   6543   6555   6556     1  0.0000000  0.6508444  3
   6553   6543   6555   6557     1  0.0000000  0.6508444  3
   6554   6543   6555   6558     1  0.0000000  0.6508444  3
   6554   6543   6555   6556     1  0.0000000  0.6508444  3
   6554   6543   6555   6557     1  0.0000000  0.6508444  3
   6555   6558   6560   6562     1  180.0000771  9.6232000  2
   6556   6555   6558   6559     1  0.0000000  3.3472000  1
   6556   6555   6558   6559     1  0.0000000  0.0000000  2
   6556   6555   6558   6559     1  180.0000771  0.3347200  3
   6556   6555   6558   6560     1  180.0000771  0.0000000  2
   6557   6555   6558   6559     1  0.0000000  3.3472000  1
   6557   6555   6558   6559     1  0.0000000  0.0000000  2
   6557   6555   6558   6559     1  180.0000771  0.3347200  3
   6557   6555   6558   6560     1  180.0000771  0.0000000  2
   6559   6558   6560   6562     1  0.0000000  7.9496000  1
   6559   6558   6560   6562     1  180.0000771  9.6232000  2
   6563   6565   6567   6569     1  0.0000000  0.6508444  3
   6563   6565   6567   6570     1  0.0000000  0.6508444  3
   6564   6563   6565   6567     1  0.0000000  0.0000000  2
   6564   6563   6565   6566     1  0.0000000  0.0000000  2
   6564   6563   6565   6568     1  0.0000000  0.0000000  2
   6566   6565   6567   6571     1  0.0000000  0.6508444  3
   6566   6565   6567   6569     1  0.0000000  0.6508444  3
   6566   6565   6567   6570     1  0.0000000  0.6508444  3
   6567   6571   6572   6582     1  0.0000000  1.2552000  3
   6567   6571   6572   6583     1  0.0000000  1.2552000  3
   6567   6571   6573   6574     1  0.0000000  1.2552000  3
   6567   6571   6573   6576     1  0.0000000  1.2552000  3
   6568   6565   6567   6571     1  0.0000000  0.6508444  3
   6568   6565   6567   6569     1  0.0000000  0.6508444  3
   6568   6565   6567   6570     1  0.0000000  0.6508444  3
   6569   6567   6571   6572     1  0.0000000  1.2552000  3
   6569   6567   6571   6573     1  0.0000000  1.2552000  3
   6570   6567   6571   6572     1  0.0000000  1.2552000  3
   6570   6567   6571   6573     1  0.0000000  1.2552000  3
   6571   6572   6584   6585     1  0.0000000  0.6508444  3
   6571   6572   6584   6586     1  0.0000000  0.6508444  3
   6571   6573   6575   6577     1  0.0000000  0.6508444  3
   6571   6573   6575   6578     1  0.0000000  0.6508444  3
   6572   6571   6573   6574     1  0.0000000  1.2552000  3
   6572   6571   6573   6576     1  0.0000000  1.2552000  3
   6573   6571   6572   6582     1  0.0000000  1.2552000  3
   6573   6571   6572   6583     1  0.0000000  1.2552000  3
   6574   6573   6575   6579     1  0.0000000  0.6508444  3
   6574   6573   6575   6577     1  0.0000000  0.6508444  3
   6574   6573   6575   6578     1  0.0000000  0.6508444  3
   6575   6579   6580   6590     1  180.0000771  9.6232000  2
   6576   6573   6575   6579     1  0.0000000  0.6508444  3
   6576   6573   6575   6577     1  0.0000000  0.6508444  3
   6576   6573   6575   6578     1  0.0000000  0.6508444  3
   6577   6575   6579   6580     1  180.0000771  0.0000000  2
   6577   6575   6579   6581     1  0.0000000  3.3472000  1
   6577   6575   6579   6581     1  0.0000000  0.0000000  2
   6577   6575   6579   6581     1  180.0000771  0.3347200  3
   6578   6575   6579   6580     1  180.0000771  0.0000000  2
   6578   6575   6579   6581     1  0.0000000  3.3472000  1
   6578   6575   6579   6581     1  0.0000000  0.0000000  2
   6578   6575   6579   6581     1  180.0000771  0.3347200  3
   6581   6579   6580   6590     1  0.0000000  7.9496000  1
   6581   6579   6580   6590     1  180.0000771  9.6232000  2
   6582   6572   6584   6587     1  0.0000000  0.6508444  3
   6582   6572   6584   6585     1  0.0000000  0.6508444  3
   6582   6572   6584   6586     1  0.0000000  0.6508444  3
   6583   6572   6584   6587     1  0.0000000  0.6508444  3
   6583   6572   6584   6585     1  0.0000000  0.6508444  3
   6583   6572   6584   6586     1  0.0000000  0.6508444  3
   6584   6587   6589   6591     1  180.0000771  9.6232000  2
   6585   6584   6587   6588     1  0.0000000  3.3472000  1
   6585   6584   6587   6588     1  0.0000000  0.0000000  2
   6585   6584   6587   6588     1  180.0000771  0.3347200  3
   6585   6584   6587   6589     1  180.0000771  0.0000000  2
   6586   6584   6587   6588     1  0.0000000  3.3472000  1
   6586   6584   6587   6588     1  0.0000000  0.0000000  2
   6586   6584   6587   6588     1  180.0000771  0.3347200  3
   6586   6584   6587   6589     1  180.0000771  0.0000000  2
   6588   6587   6589   6591     1  0.0000000  7.9496000  1
   6588   6587   6589   6591     1  180.0000771  9.6232000  2
   6592   6594   6596   6598     1  0.0000000  0.6508444  3
   6592   6594   6596   6599     1  0.0000000  0.6508444  3
   6593   6592   6594   6596     1  0.0000000  0.0000000  2
   6593   6592   6594   6595     1  0.0000000  0.0000000  2
   6593   6592   6594   6597     1  0.0000000  0.0000000  2
   6595   6594   6596   6600     1  0.0000000  0.6508444  3
   6595   6594   6596   6598     1  0.0000000  0.6508444  3
   6595   6594   6596   6599     1  0.0000000  0.6508444  3
   6596   6600   6601   6611     1  0.0000000  1.2552000  3
   6596   6600   6601   6612     1  0.0000000  1.2552000  3
   6596   6600   6602   6603     1  0.0000000  1.2552000  3
   6596   6600   6602   6605     1  0.0000000  1.2552000  3
   6597   6594   6596   6600     1  0.0000000  0.6508444  3
   6597   6594   6596   6598     1  0.0000000  0.6508444  3
   6597   6594   6596   6599     1  0.0000000  0.6508444  3
   6598   6596   6600   6601     1  0.0000000  1.2552000  3
   6598   6596   6600   6602     1  0.0000000  1.2552000  3
   6599   6596   6600   6601     1  0.0000000  1.2552000  3
   6599   6596   6600   6602     1  0.0000000  1.2552000  3
   6600   6601   6613   6614     1  0.0000000  0.6508444  3
   6600   6601   6613   6615     1  0.0000000  0.6508444  3
   6600   6602   6604   6606     1  0.0000000  0.6508444  3
   6600   6602   6604   6607     1  0.0000000  0.6508444  3
   6601   6600   6602   6603     1  0.0000000  1.2552000  3
   6601   6600   6602   6605     1  0.0000000  1.2552000  3
   6602   6600   6601   6611     1  0.0000000  1.2552000  3
   6602   6600   6601   6612     1  0.0000000  1.2552000  3
   6603   6602   6604   6608     1  0.0000000  0.6508444  3
   6603   6602   6604   6606     1  0.0000000  0.6508444  3
   6603   6602   6604   6607     1  0.0000000  0.6508444  3
   6604   6608   6609   6619     1  180.0000771  9.6232000  2
   6605   6602   6604   6608     1  0.0000000  0.6508444  3
   6605   6602   6604   6606     1  0.0000000  0.6508444  3
   6605   6602   6604   6607     1  0.0000000  0.6508444  3
   6606   6604   6608   6609     1  180.0000771  0.0000000  2
   6606   6604   6608   6610     1  0.0000000  3.3472000  1
   6606   6604   6608   6610     1  0.0000000  0.0000000  2
   6606   6604   6608   6610     1  180.0000771  0.3347200  3
   6607   6604   6608   6609     1  180.0000771  0.0000000  2
   6607   6604   6608   6610     1  0.0000000  3.3472000  1
   6607   6604   6608   6610     1  0.0000000  0.0000000  2
   6607   6604   6608   6610     1  180.0000771  0.3347200  3
   6610   6608   6609   6619     1  0.0000000  7.9496000  1
   6610   6608   6609   6619     1  180.0000771  9.6232000  2
   6611   6601   6613   6616     1  0.0000000  0.6508444  3
   6611   6601   6613   6614     1  0.0000000  0.6508444  3
   6611   6601   6613   6615     1  0.0000000  0.6508444  3
   6612   6601   6613   6616     1  0.0000000  0.6508444  3
   6612   6601   6613   6614     1  0.0000000  0.6508444  3
   6612   6601   6613   6615     1  0.0000000  0.6508444  3
   6613   6616   6618   6620     1  180.0000771  9.6232000  2
   6614   6613   6616   6617     1  0.0000000  3.3472000  1
   6614   6613   6616   6617     1  0.0000000  0.0000000  2
   6614   6613   6616   6617     1  180.0000771  0.3347200  3
   6614   6613   6616   6618     1  180.0000771  0.0000000  2
   6615   6613   6616   6617     1  0.0000000  3.3472000  1
   6615   6613   6616   6617     1  0.0000000  0.0000000  2
   6615   6613   6616   6617     1  180.0000771  0.3347200  3
   6615   6613   6616   6618     1  180.0000771  0.0000000  2
   6617   6616   6618   6620     1  0.0000000  7.9496000  1
   6617   6616   6618   6620     1  180.0000771  9.6232000  2
   6621   6623   6625   6627     1  0.0000000  0.6508444  3
   6621   6623   6625   6628     1  0.0000000  0.6508444  3
   6622   6621   6623   6625     1  0.0000000  0.0000000  2
   6622   6621   6623   6624     1  0.0000000  0.0000000  2
   6622   6621   6623   6626     1  0.0000000  0.0000000  2
   6624   6623   6625   6629     1  0.0000000  0.6508444  3
   6624   6623   6625   6627     1  0.0000000  0.6508444  3
   6624   6623   6625   6628     1  0.0000000  0.6508444  3
   6625   6629   6630   6640     1  0.0000000  1.2552000  3
   6625   6629   6630   6641     1  0.0000000  1.2552000  3
   6625   6629   6631   6632     1  0.0000000  1.2552000  3
   6625   6629   6631   6634     1  0.0000000  1.2552000  3
   6626   6623   6625   6629     1  0.0000000  0.6508444  3
   6626   6623   6625   6627     1  0.0000000  0.6508444  3
   6626   6623   6625   6628     1  0.0000000  0.6508444  3
   6627   6625   6629   6630     1  0.0000000  1.2552000  3
   6627   6625   6629   6631     1  0.0000000  1.2552000  3
   6628   6625   6629   6630     1  0.0000000  1.2552000  3
   6628   6625   6629   6631     1  0.0000000  1.2552000  3
   6629   6630   6642   6643     1  0.0000000  0.6508444  3
   6629   6630   6642   6644     1  0.0000000  0.6508444  3
   6629   6631   6633   6635     1  0.0000000  0.6508444  3
   6629   6631   6633   6636     1  0.0000000  0.6508444  3
   6630   6629   6631   6632     1  0.0000000  1.2552000  3
   6630   6629   6631   6634     1  0.0000000  1.2552000  3
   6631   6629   6630   6640     1  0.0000000  1.2552000  3
   6631   6629   6630   6641     1  0.0000000  1.2552000  3
   6632   6631   6633   6637     1  0.0000000  0.6508444  3
   6632   6631   6633   6635     1  0.0000000  0.6508444  3
   6632   6631   6633   6636     1  0.0000000  0.6508444  3
   6633   6637   6638   6648     1  180.0000771  9.6232000  2
   6634   6631   6633   6637     1  0.0000000  0.6508444  3
   6634   6631   6633   6635     1  0.0000000  0.6508444  3
   6634   6631   6633   6636     1  0.0000000  0.6508444  3
   6635   6633   6637   6638     1  180.0000771  0.0000000  2
   6635   6633   6637   6639     1  0.0000000  3.3472000  1
   6635   6633   6637   6639     1  0.0000000  0.0000000  2
   6635   6633   6637   6639     1  180.0000771  0.3347200  3
   6636   6633   6637   6638     1  180.0000771  0.0000000  2
   6636   6633   6637   6639     1  0.0000000  3.3472000  1
   6636   6633   6637   6639     1  0.0000000  0.0000000  2
   6636   6633   6637   6639     1  180.0000771  0.3347200  3
   6639   6637   6638   6648     1  0.0000000  7.9496000  1
   6639   6637   6638   6648     1  180.0000771  9.6232000  2
   6640   6630   6642   6645     1  0.0000000  0.6508444  3
   6640   6630   6642   6643     1  0.0000000  0.6508444  3
   6640   6630   6642   6644     1  0.0000000  0.6508444  3
   6641   6630   6642   6645     1  0.0000000  0.6508444  3
   6641   6630   6642   6643     1  0.0000000  0.6508444  3
   6641   6630   6642   6644     1  0.0000000  0.6508444  3
   6642   6645   6647   6649     1  180.0000771  9.6232000  2
   6643   6642   6645   6646     1  0.0000000  3.3472000  1
   6643   6642   6645   6646     1  0.0000000  0.0000000  2
   6643   6642   6645   6646     1  180.0000771  0.3347200  3
   6643   6642   6645   6647     1  180.0000771  0.0000000  2
   6644   6642   6645   6646     1  0.0000000  3.3472000  1
   6644   6642   6645   6646     1  0.0000000  0.0000000  2
   6644   6642   6645   6646     1  180.0000771  0.3347200  3
   6644   6642   6645   6647     1  180.0000771  0.0000000  2
   6646   6645   6647   6649     1  0.0000000  7.9496000  1
   6646   6645   6647   6649     1  180.0000771  9.6232000  2
   6650   6652   6654   6656     1  0.0000000  0.6508444  3
   6650   6652   6654   6657     1  0.0000000  0.6508444  3
   6651   6650   6652   6654     1  0.0000000  0.0000000  2
   6651   6650   6652   6653     1  0.0000000  0.0000000  2
   6651   6650   6652   6655     1  0.0000000  0.0000000  2
   6653   6652   6654   6658     1  0.0000000  0.6508444  3
   6653   6652   6654   6656     1  0.0000000  0.6508444  3
   6653   6652   6654   6657     1  0.0000000  0.6508444  3
   6654   6658   6659   6669     1  0.0000000  1.2552000  3
   6654   6658   6659   6670     1  0.0000000  1.2552000  3
   6654   6658   6660   6661     1  0.0000000  1.2552000  3
   6654   6658   6660   6663     1  0.0000000  1.2552000  3
   6655   6652   6654   6658     1  0.0000000  0.6508444  3
   6655   6652   6654   6656     1  0.0000000  0.6508444  3
   6655   6652   6654   6657     1  0.0000000  0.6508444  3
   6656   6654   6658   6659     1  0.0000000  1.2552000  3
   6656   6654   6658   6660     1  0.0000000  1.2552000  3
   6657   6654   6658   6659     1  0.0000000  1.2552000  3
   6657   6654   6658   6660     1  0.0000000  1.2552000  3
   6658   6659   6671   6672     1  0.0000000  0.6508444  3
   6658   6659   6671   6673     1  0.0000000  0.6508444  3
   6658   6660   6662   6664     1  0.0000000  0.6508444  3
   6658   6660   6662   6665     1  0.0000000  0.6508444  3
   6659   6658   6660   6661     1  0.0000000  1.2552000  3
   6659   6658   6660   6663     1  0.0000000  1.2552000  3
   6660   6658   6659   6669     1  0.0000000  1.2552000  3
   6660   6658   6659   6670     1  0.0000000  1.2552000  3
   6661   6660   6662   6666     1  0.0000000  0.6508444  3
   6661   6660   6662   6664     1  0.0000000  0.6508444  3
   6661   6660   6662   6665     1  0.0000000  0.6508444  3
   6662   6666   6667   6677     1  180.0000771  9.6232000  2
   6663   6660   6662   6666     1  0.0000000  0.6508444  3
   6663   6660   6662   6664     1  0.0000000  0.6508444  3
   6663   6660   6662   6665     1  0.0000000  0.6508444  3
   6664   6662   6666   6667     1  180.0000771  0.0000000  2
   6664   6662   6666   6668     1  0.0000000  3.3472000  1
   6664   6662   6666   6668     1  0.0000000  0.0000000  2
   6664   6662   6666   6668     1  180.0000771  0.3347200  3
   6665   6662   6666   6667     1  180.0000771  0.0000000  2
   6665   6662   6666   6668     1  0.0000000  3.3472000  1
   6665   6662   6666   6668     1  0.0000000  0.0000000  2
   6665   6662   6666   6668     1  180.0000771  0.3347200  3
   6668   6666   6667   6677     1  0.0000000  7.9496000  1
   6668   6666   6667   6677     1  180.0000771  9.6232000  2
   6669   6659   6671   6674     1  0.0000000  0.6508444  3
   6669   6659   6671   6672     1  0.0000000  0.6508444  3
   6669   6659   6671   6673     1  0.0000000  0.6508444  3
   6670   6659   6671   6674     1  0.0000000  0.6508444  3
   6670   6659   6671   6672     1  0.0000000  0.6508444  3
   6670   6659   6671   6673     1  0.0000000  0.6508444  3
   6671   6674   6676   6678     1  180.0000771  9.6232000  2
   6672   6671   6674   6675     1  0.0000000  3.3472000  1
   6672   6671   6674   6675     1  0.0000000  0.0000000  2
   6672   6671   6674   6675     1  180.0000771  0.3347200  3
   6672   6671   6674   6676     1  180.0000771  0.0000000  2
   6673   6671   6674   6675     1  0.0000000  3.3472000  1
   6673   6671   6674   6675     1  0.0000000  0.0000000  2
   6673   6671   6674   6675     1  180.0000771  0.3347200  3
   6673   6671   6674   6676     1  180.0000771  0.0000000  2
   6675   6674   6676   6678     1  0.0000000  7.9496000  1
   6675   6674   6676   6678     1  180.0000771  9.6232000  2
   6679   6681   6683   6685     1  0.0000000  0.6508444  3
   6679   6681   6683   6686     1  0.0000000  0.6508444  3
   6680   6679   6681   6683     1  0.0000000  0.0000000  2
   6680   6679   6681   6682     1  0.0000000  0.0000000  2
   6680   6679   6681   6684     1  0.0000000  0.0000000  2
   6682   6681   6683   6687     1  0.0000000  0.6508444  3
   6682   6681   6683   6685     1  0.0000000  0.6508444  3
   6682   6681   6683   6686     1  0.0000000  0.6508444  3
   6683   6687   6688   6698     1  0.0000000  1.2552000  3
   6683   6687   6688   6699     1  0.0000000  1.2552000  3
   6683   6687   6689   6690     1  0.0000000  1.2552000  3
   6683   6687   6689   6692     1  0.0000000  1.2552000  3
   6684   6681   6683   6687     1  0.0000000  0.6508444  3
   6684   6681   6683   6685     1  0.0000000  0.6508444  3
   6684   6681   6683   6686     1  0.0000000  0.6508444  3
   6685   6683   6687   6688     1  0.0000000  1.2552000  3
   6685   6683   6687   6689     1  0.0000000  1.2552000  3
   6686   6683   6687   6688     1  0.0000000  1.2552000  3
   6686   6683   6687   6689     1  0.0000000  1.2552000  3
   6687   6688   6700   6701     1  0.0000000  0.6508444  3
   6687   6688   6700   6702     1  0.0000000  0.6508444  3
   6687   6689   6691   6693     1  0.0000000  0.6508444  3
   6687   6689   6691   6694     1  0.0000000  0.6508444  3
   6688   6687   6689   6690     1  0.0000000  1.2552000  3
   6688   6687   6689   6692     1  0.0000000  1.2552000  3
   6689   6687   6688   6698     1  0.0000000  1.2552000  3
   6689   6687   6688   6699     1  0.0000000  1.2552000  3
   6690   6689   6691   6695     1  0.0000000  0.6508444  3
   6690   6689   6691   6693     1  0.0000000  0.6508444  3
   6690   6689   6691   6694     1  0.0000000  0.6508444  3
   6691   6695   6696   6706     1  180.0000771  9.6232000  2
   6692   6689   6691   6695     1  0.0000000  0.6508444  3
   6692   6689   6691   6693     1  0.0000000  0.6508444  3
   6692   6689   6691   6694     1  0.0000000  0.6508444  3
   6693   6691   6695   6696     1  180.0000771  0.0000000  2
   6693   6691   6695   6697     1  0.0000000  3.3472000  1
   6693   6691   6695   6697     1  0.0000000  0.0000000  2
   6693   6691   6695   6697     1  180.0000771  0.3347200  3
   6694   6691   6695   6696     1  180.0000771  0.0000000  2
   6694   6691   6695   6697     1  0.0000000  3.3472000  1
   6694   6691   6695   6697     1  0.0000000  0.0000000  2
   6694   6691   6695   6697     1  180.0000771  0.3347200  3
   6697   6695   6696   6706     1  0.0000000  7.9496000  1
   6697   6695   6696   6706     1  180.0000771  9.6232000  2
   6698   6688   6700   6703     1  0.0000000  0.6508444  3
   6698   6688   6700   6701     1  0.0000000  0.6508444  3
   6698   6688   6700   6702     1  0.0000000  0.6508444  3
   6699   6688   6700   6703     1  0.0000000  0.6508444  3
   6699   6688   6700   6701     1  0.0000000  0.6508444  3
   6699   6688   6700   6702     1  0.0000000  0.6508444  3
   6700   6703   6705   6707     1  180.0000771  9.6232000  2
   6701   6700   6703   6704     1  0.0000000  3.3472000  1
   6701   6700   6703   6704     1  0.0000000  0.0000000  2
   6701   6700   6703   6704     1  180.0000771  0.3347200  3
   6701   6700   6703   6705     1  180.0000771  0.0000000  2
   6702   6700   6703   6704     1  0.0000000  3.3472000  1
   6702   6700   6703   6704     1  0.0000000  0.0000000  2
   6702   6700   6703   6704     1  180.0000771  0.3347200  3
   6702   6700   6703   6705     1  180.0000771  0.0000000  2
   6704   6703   6705   6707     1  0.0000000  7.9496000  1
   6704   6703   6705   6707     1  180.0000771  9.6232000  2
   6708   6710   6712   6714     1  0.0000000  0.6508444  3
   6708   6710   6712   6715     1  0.0000000  0.6508444  3
   6709   6708   6710   6712     1  0.0000000  0.0000000  2
   6709   6708   6710   6711     1  0.0000000  0.0000000  2
   6709   6708   6710   6713     1  0.0000000  0.0000000  2
   6711   6710   6712   6716     1  0.0000000  0.6508444  3
   6711   6710   6712   6714     1  0.0000000  0.6508444  3
   6711   6710   6712   6715     1  0.0000000  0.6508444  3
   6712   6716   6717   6727     1  0.0000000  1.2552000  3
   6712   6716   6717   6728     1  0.0000000  1.2552000  3
   6712   6716   6718   6719     1  0.0000000  1.2552000  3
   6712   6716   6718   6721     1  0.0000000  1.2552000  3
   6713   6710   6712   6716     1  0.0000000  0.6508444  3
   6713   6710   6712   6714     1  0.0000000  0.6508444  3
   6713   6710   6712   6715     1  0.0000000  0.6508444  3
   6714   6712   6716   6717     1  0.0000000  1.2552000  3
   6714   6712   6716   6718     1  0.0000000  1.2552000  3
   6715   6712   6716   6717     1  0.0000000  1.2552000  3
   6715   6712   6716   6718     1  0.0000000  1.2552000  3
   6716   6717   6729   6730     1  0.0000000  0.6508444  3
   6716   6717   6729   6731     1  0.0000000  0.6508444  3
   6716   6718   6720   6722     1  0.0000000  0.6508444  3
   6716   6718   6720   6723     1  0.0000000  0.6508444  3
   6717   6716   6718   6719     1  0.0000000  1.2552000  3
   6717   6716   6718   6721     1  0.0000000  1.2552000  3
   6718   6716   6717   6727     1  0.0000000  1.2552000  3
   6718   6716   6717   6728     1  0.0000000  1.2552000  3
   6719   6718   6720   6724     1  0.0000000  0.6508444  3
   6719   6718   6720   6722     1  0.0000000  0.6508444  3
   6719   6718   6720   6723     1  0.0000000  0.6508444  3
   6720   6724   6725   6735     1  180.0000771  9.6232000  2
   6721   6718   6720   6724     1  0.0000000  0.6508444  3
   6721   6718   6720   6722     1  0.0000000  0.6508444  3
   6721   6718   6720   6723     1  0.0000000  0.6508444  3
   6722   6720   6724   6725     1  180.0000771  0.0000000  2
   6722   6720   6724   6726     1  0.0000000  3.3472000  1
   6722   6720   6724   6726     1  0.0000000  0.0000000  2
   6722   6720   6724   6726     1  180.0000771  0.3347200  3
   6723   6720   6724   6725     1  180.0000771  0.0000000  2
   6723   6720   6724   6726     1  0.0000000  3.3472000  1
   6723   6720   6724   6726     1  0.0000000  0.0000000  2
   6723   6720   6724   6726     1  180.0000771  0.3347200  3
   6726   6724   6725   6735     1  0.0000000  7.9496000  1
   6726   6724   6725   6735     1  180.0000771  9.6232000  2
   6727   6717   6729   6732     1  0.0000000  0.6508444  3
   6727   6717   6729   6730     1  0.0000000  0.6508444  3
   6727   6717   6729   6731     1  0.0000000  0.6508444  3
   6728   6717   6729   6732     1  0.0000000  0.6508444  3
   6728   6717   6729   6730     1  0.0000000  0.6508444  3
   6728   6717   6729   6731     1  0.0000000  0.6508444  3
   6729   6732   6734   6736     1  180.0000771  9.6232000  2
   6730   6729   6732   6733     1  0.0000000  3.3472000  1
   6730   6729   6732   6733     1  0.0000000  0.0000000  2
   6730   6729   6732   6733     1  180.0000771  0.3347200  3
   6730   6729   6732   6734     1  180.0000771  0.0000000  2
   6731   6729   6732   6733     1  0.0000000  3.3472000  1
   6731   6729   6732   6733     1  0.0000000  0.0000000  2
   6731   6729   6732   6733     1  180.0000771  0.3347200  3
   6731   6729   6732   6734     1  180.0000771  0.0000000  2
   6733   6732   6734   6736     1  0.0000000  7.9496000  1
   6733   6732   6734   6736     1  180.0000771  9.6232000  2
   6737   6739   6741   6743     1  0.0000000  0.6508444  3
   6737   6739   6741   6744     1  0.0000000  0.6508444  3
   6738   6737   6739   6741     1  0.0000000  0.0000000  2
   6738   6737   6739   6740     1  0.0000000  0.0000000  2
   6738   6737   6739   6742     1  0.0000000  0.0000000  2
   6740   6739   6741   6745     1  0.0000000  0.6508444  3
   6740   6739   6741   6743     1  0.0000000  0.6508444  3
   6740   6739   6741   6744     1  0.0000000  0.6508444  3
   6741   6745   6746   6756     1  0.0000000  1.2552000  3
   6741   6745   6746   6757     1  0.0000000  1.2552000  3
   6741   6745   6747   6748     1  0.0000000  1.2552000  3
   6741   6745   6747   6750     1  0.0000000  1.2552000  3
   6742   6739   6741   6745     1  0.0000000  0.6508444  3
   6742   6739   6741   6743     1  0.0000000  0.6508444  3
   6742   6739   6741   6744     1  0.0000000  0.6508444  3
   6743   6741   6745   6746     1  0.0000000  1.2552000  3
   6743   6741   6745   6747     1  0.0000000  1.2552000  3
   6744   6741   6745   6746     1  0.0000000  1.2552000  3
   6744   6741   6745   6747     1  0.0000000  1.2552000  3
   6745   6746   6758   6759     1  0.0000000  0.6508444  3
   6745   6746   6758   6760     1  0.0000000  0.6508444  3
   6745   6747   6749   6751     1  0.0000000  0.6508444  3
   6745   6747   6749   6752     1  0.0000000  0.6508444  3
   6746   6745   6747   6748     1  0.0000000  1.2552000  3
   6746   6745   6747   6750     1  0.0000000  1.2552000  3
   6747   6745   6746   6756     1  0.0000000  1.2552000  3
   6747   6745   6746   6757     1  0.0000000  1.2552000  3
   6748   6747   6749   6753     1  0.0000000  0.6508444  3
   6748   6747   6749   6751     1  0.0000000  0.6508444  3
   6748   6747   6749   6752     1  0.0000000  0.6508444  3
   6749   6753   6754   6764     1  180.0000771  9.6232000  2
   6750   6747   6749   6753     1  0.0000000  0.6508444  3
   6750   6747   6749   6751     1  0.0000000  0.6508444  3
   6750   6747   6749   6752     1  0.0000000  0.6508444  3
   6751   6749   6753   6754     1  180.0000771  0.0000000  2
   6751   6749   6753   6755     1  0.0000000  3.3472000  1
   6751   6749   6753   6755     1  0.0000000  0.0000000  2
   6751   6749   6753   6755     1  180.0000771  0.3347200  3
   6752   6749   6753   6754     1  180.0000771  0.0000000  2
   6752   6749   6753   6755     1  0.0000000  3.3472000  1
   6752   6749   6753   6755     1  0.0000000  0.0000000  2
   6752   6749   6753   6755     1  180.0000771  0.3347200  3
   6755   6753   6754   6764     1  0.0000000  7.9496000  1
   6755   6753   6754   6764     1  180.0000771  9.6232000  2
   6756   6746   6758   6761     1  0.0000000  0.6508444  3
   6756   6746   6758   6759     1  0.0000000  0.6508444  3
   6756   6746   6758   6760     1  0.0000000  0.6508444  3
   6757   6746   6758   6761     1  0.0000000  0.6508444  3
   6757   6746   6758   6759     1  0.0000000  0.6508444  3
   6757   6746   6758   6760     1  0.0000000  0.6508444  3
   6758   6761   6763   6765     1  180.0000771  9.6232000  2
   6759   6758   6761   6762     1  0.0000000  3.3472000  1
   6759   6758   6761   6762     1  0.0000000  0.0000000  2
   6759   6758   6761   6762     1  180.0000771  0.3347200  3
   6759   6758   6761   6763     1  180.0000771  0.0000000  2
   6760   6758   6761   6762     1  0.0000000  3.3472000  1
   6760   6758   6761   6762     1  0.0000000  0.0000000  2
   6760   6758   6761   6762     1  180.0000771  0.3347200  3
   6760   6758   6761   6763     1  180.0000771  0.0000000  2
   6762   6761   6763   6765     1  0.0000000  7.9496000  1
   6762   6761   6763   6765     1  180.0000771  9.6232000  2
   6766   6768   6770   6772     1  0.0000000  0.6508444  3
   6766   6768   6770   6773     1  0.0000000  0.6508444  3
   6767   6766   6768   6770     1  0.0000000  0.0000000  2
   6767   6766   6768   6769     1  0.0000000  0.0000000  2
   6767   6766   6768   6771     1  0.0000000  0.0000000  2
   6769   6768   6770   6774     1  0.0000000  0.6508444  3
   6769   6768   6770   6772     1  0.0000000  0.6508444  3
   6769   6768   6770   6773     1  0.0000000  0.6508444  3
   6770   6774   6775   6785     1  0.0000000  1.2552000  3
   6770   6774   6775   6786     1  0.0000000  1.2552000  3
   6770   6774   6776   6777     1  0.0000000  1.2552000  3
   6770   6774   6776   6779     1  0.0000000  1.2552000  3
   6771   6768   6770   6774     1  0.0000000  0.6508444  3
   6771   6768   6770   6772     1  0.0000000  0.6508444  3
   6771   6768   6770   6773     1  0.0000000  0.6508444  3
   6772   6770   6774   6775     1  0.0000000  1.2552000  3
   6772   6770   6774   6776     1  0.0000000  1.2552000  3
   6773   6770   6774   6775     1  0.0000000  1.2552000  3
   6773   6770   6774   6776     1  0.0000000  1.2552000  3
   6774   6775   6787   6788     1  0.0000000  0.6508444  3
   6774   6775   6787   6789     1  0.0000000  0.6508444  3
   6774   6776   6778   6780     1  0.0000000  0.6508444  3
   6774   6776   6778   6781     1  0.0000000  0.6508444  3
   6775   6774   6776   6777     1  0.0000000  1.2552000  3
   6775   6774   6776   6779     1  0.0000000  1.2552000  3
   6776   6774   6775   6785     1  0.0000000  1.2552000  3
   6776   6774   6775   6786     1  0.0000000  1.2552000  3
   6777   6776   6778   6782     1  0.0000000  0.6508444  3
   6777   6776   6778   6780     1  0.0000000  0.6508444  3
   6777   6776   6778   6781     1  0.0000000  0.6508444  3
   6778   6782   6783   6793     1  180.0000771  9.6232000  2
   6779   6776   6778   6782     1  0.0000000  0.6508444  3
   6779   6776   6778   6780     1  0.0000000  0.6508444  3
   6779   6776   6778   6781     1  0.0000000  0.6508444  3
   6780   6778   6782   6783     1  180.0000771  0.0000000  2
   6780   6778   6782   6784     1  0.0000000  3.3472000  1
   6780   6778   6782   6784     1  0.0000000  0.0000000  2
   6780   6778   6782   6784     1  180.0000771  0.3347200  3
   6781   6778   6782   6783     1  180.0000771  0.0000000  2
   6781   6778   6782   6784     1  0.0000000  3.3472000  1
   6781   6778   6782   6784     1  0.0000000  0.0000000  2
   6781   6778   6782   6784     1  180.0000771  0.3347200  3
   6784   6782   6783   6793     1  0.0000000  7.9496000  1
   6784   6782   6783   6793     1  180.0000771  9.6232000  2
   6785   6775   6787   6790     1  0.0000000  0.6508444  3
   6785   6775   6787   6788     1  0.0000000  0.6508444  3
   6785   6775   6787   6789     1  0.0000000  0.6508444  3
   6786   6775   6787   6790     1  0.0000000  0.6508444  3
   6786   6775   6787   6788     1  0.0000000  0.6508444  3
   6786   6775   6787   6789     1  0.0000000  0.6508444  3
   6787   6790   6792   6794     1  180.0000771  9.6232000  2
   6788   6787   6790   6791     1  0.0000000  3.3472000  1
   6788   6787   6790   6791     1  0.0000000  0.0000000  2
   6788   6787   6790   6791     1  180.0000771  0.3347200  3
   6788   6787   6790   6792     1  180.0000771  0.0000000  2
   6789   6787   6790   6791     1  0.0000000  3.3472000  1
   6789   6787   6790   6791     1  0.0000000  0.0000000  2
   6789   6787   6790   6791     1  180.0000771  0.3347200  3
   6789   6787   6790   6792     1  180.0000771  0.0000000  2
   6791   6790   6792   6794     1  0.0000000  7.9496000  1
   6791   6790   6792   6794     1  180.0000771  9.6232000  2
   6795   6797   6799   6801     1  0.0000000  0.6508444  3
   6795   6797   6799   6802     1  0.0000000  0.6508444  3
   6796   6795   6797   6799     1  0.0000000  0.0000000  2
   6796   6795   6797   6798     1  0.0000000  0.0000000  2
   6796   6795   6797   6800     1  0.0000000  0.0000000  2
   6798   6797   6799   6803     1  0.0000000  0.6508444  3
   6798   6797   6799   6801     1  0.0000000  0.6508444  3
   6798   6797   6799   6802     1  0.0000000  0.6508444  3
   6799   6803   6804   6814     1  0.0000000  1.2552000  3
   6799   6803   6804   6815     1  0.0000000  1.2552000  3
   6799   6803   6805   6806     1  0.0000000  1.2552000  3
   6799   6803   6805   6808     1  0.0000000  1.2552000  3
   6800   6797   6799   6803     1  0.0000000  0.6508444  3
   6800   6797   6799   6801     1  0.0000000  0.6508444  3
   6800   6797   6799   6802     1  0.0000000  0.6508444  3
   6801   6799   6803   6804     1  0.0000000  1.2552000  3
   6801   6799   6803   6805     1  0.0000000  1.2552000  3
   6802   6799   6803   6804     1  0.0000000  1.2552000  3
   6802   6799   6803   6805     1  0.0000000  1.2552000  3
   6803   6804   6816   6817     1  0.0000000  0.6508444  3
   6803   6804   6816   6818     1  0.0000000  0.6508444  3
   6803   6805   6807   6809     1  0.0000000  0.6508444  3
   6803   6805   6807   6810     1  0.0000000  0.6508444  3
   6804   6803   6805   6806     1  0.0000000  1.2552000  3
   6804   6803   6805   6808     1  0.0000000  1.2552000  3
   6805   6803   6804   6814     1  0.0000000  1.2552000  3
   6805   6803   6804   6815     1  0.0000000  1.2552000  3
   6806   6805   6807   6811     1  0.0000000  0.6508444  3
   6806   6805   6807   6809     1  0.0000000  0.6508444  3
   6806   6805   6807   6810     1  0.0000000  0.6508444  3
   6807   6811   6812   6822     1  180.0000771  9.6232000  2
   6808   6805   6807   6811     1  0.0000000  0.6508444  3
   6808   6805   6807   6809     1  0.0000000  0.6508444  3
   6808   6805   6807   6810     1  0.0000000  0.6508444  3
   6809   6807   6811   6812     1  180.0000771  0.0000000  2
   6809   6807   6811   6813     1  0.0000000  3.3472000  1
   6809   6807   6811   6813     1  0.0000000  0.0000000  2
   6809   6807   6811   6813     1  180.0000771  0.3347200  3
   6810   6807   6811   6812     1  180.0000771  0.0000000  2
   6810   6807   6811   6813     1  0.0000000  3.3472000  1
   6810   6807   6811   6813     1  0.0000000  0.0000000  2
   6810   6807   6811   6813     1  180.0000771  0.3347200  3
   6813   6811   6812   6822     1  0.0000000  7.9496000  1
   6813   6811   6812   6822     1  180.0000771  9.6232000  2
   6814   6804   6816   6819     1  0.0000000  0.6508444  3
   6814   6804   6816   6817     1  0.0000000  0.6508444  3
   6814   6804   6816   6818     1  0.0000000  0.6508444  3
   6815   6804   6816   6819     1  0.0000000  0.6508444  3
   6815   6804   6816   6817     1  0.0000000  0.6508444  3
   6815   6804   6816   6818     1  0.0000000  0.6508444  3
   6816   6819   6821   6823     1  180.0000771  9.6232000  2
   6817   6816   6819   6820     1  0.0000000  3.3472000  1
   6817   6816   6819   6820     1  0.0000000  0.0000000  2
   6817   6816   6819   6820     1  180.0000771  0.3347200  3
   6817   6816   6819   6821     1  180.0000771  0.0000000  2
   6818   6816   6819   6820     1  0.0000000  3.3472000  1
   6818   6816   6819   6820     1  0.0000000  0.0000000  2
   6818   6816   6819   6820     1  180.0000771  0.3347200  3
   6818   6816   6819   6821     1  180.0000771  0.0000000  2
   6820   6819   6821   6823     1  0.0000000  7.9496000  1
   6820   6819   6821   6823     1  180.0000771  9.6232000  2
   6824   6826   6828   6830     1  0.0000000  0.6508444  3
   6824   6826   6828   6831     1  0.0000000  0.6508444  3
   6825   6824   6826   6828     1  0.0000000  0.0000000  2
   6825   6824   6826   6827     1  0.0000000  0.0000000  2
   6825   6824   6826   6829     1  0.0000000  0.0000000  2
   6827   6826   6828   6832     1  0.0000000  0.6508444  3
   6827   6826   6828   6830     1  0.0000000  0.6508444  3
   6827   6826   6828   6831     1  0.0000000  0.6508444  3
   6828   6832   6833   6843     1  0.0000000  1.2552000  3
   6828   6832   6833   6844     1  0.0000000  1.2552000  3
   6828   6832   6834   6835     1  0.0000000  1.2552000  3
   6828   6832   6834   6837     1  0.0000000  1.2552000  3
   6829   6826   6828   6832     1  0.0000000  0.6508444  3
   6829   6826   6828   6830     1  0.0000000  0.6508444  3
   6829   6826   6828   6831     1  0.0000000  0.6508444  3
   6830   6828   6832   6833     1  0.0000000  1.2552000  3
   6830   6828   6832   6834     1  0.0000000  1.2552000  3
   6831   6828   6832   6833     1  0.0000000  1.2552000  3
   6831   6828   6832   6834     1  0.0000000  1.2552000  3
   6832   6833   6845   6846     1  0.0000000  0.6508444  3
   6832   6833   6845   6847     1  0.0000000  0.6508444  3
   6832   6834   6836   6838     1  0.0000000  0.6508444  3
   6832   6834   6836   6839     1  0.0000000  0.6508444  3
   6833   6832   6834   6835     1  0.0000000  1.2552000  3
   6833   6832   6834   6837     1  0.0000000  1.2552000  3
   6834   6832   6833   6843     1  0.0000000  1.2552000  3
   6834   6832   6833   6844     1  0.0000000  1.2552000  3
   6835   6834   6836   6840     1  0.0000000  0.6508444  3
   6835   6834   6836   6838     1  0.0000000  0.6508444  3
   6835   6834   6836   6839     1  0.0000000  0.6508444  3
   6836   6840   6841   6851     1  180.0000771  9.6232000  2
   6837   6834   6836   6840     1  0.0000000  0.6508444  3
   6837   6834   6836   6838     1  0.0000000  0.6508444  3
   6837   6834   6836   6839     1  0.0000000  0.6508444  3
   6838   6836   6840   6841     1  180.0000771  0.0000000  2
   6838   6836   6840   6842     1  0.0000000  3.3472000  1
   6838   6836   6840   6842     1  0.0000000  0.0000000  2
   6838   6836   6840   6842     1  180.0000771  0.3347200  3
   6839   6836   6840   6841     1  180.0000771  0.0000000  2
   6839   6836   6840   6842     1  0.0000000  3.3472000  1
   6839   6836   6840   6842     1  0.0000000  0.0000000  2
   6839   6836   6840   6842     1  180.0000771  0.3347200  3
   6842   6840   6841   6851     1  0.0000000  7.9496000  1
   6842   6840   6841   6851     1  180.0000771  9.6232000  2
   6843   6833   6845   6848     1  0.0000000  0.6508444  3
   6843   6833   6845   6846     1  0.0000000  0.6508444  3
   6843   6833   6845   6847     1  0.0000000  0.6508444  3
   6844   6833   6845   6848     1  0.0000000  0.6508444  3
   6844   6833   6845   6846     1  0.0000000  0.6508444  3
   6844   6833   6845   6847     1  0.0000000  0.6508444  3
   6845   6848   6850   6852     1  180.0000771  9.6232000  2
   6846   6845   6848   6849     1  0.0000000  3.3472000  1
   6846   6845   6848   6849     1  0.0000000  0.0000000  2
   6846   6845   6848   6849     1  180.0000771  0.3347200  3
   6846   6845   6848   6850     1  180.0000771  0.0000000  2
   6847   6845   6848   6849     1  0.0000000  3.3472000  1
   6847   6845   6848   6849     1  0.0000000  0.0000000  2
   6847   6845   6848   6849     1  180.0000771  0.3347200  3
   6847   6845   6848   6850     1  180.0000771  0.0000000  2
   6849   6848   6850   6852     1  0.0000000  7.9496000  1
   6849   6848   6850   6852     1  180.0000771  9.6232000  2
     33     44     64     65     4  180.0000771  4.6024000  2
     34     69     89     90     4  180.0000771  4.6024000  2
     35     94    114    115     4  180.0000771  4.6024000  2
     36    119    139    140     4  180.0000771  4.6024000  2
     60    144    164    165     4  180.0000771  4.6024000  2
     61    169    189    190     4  180.0000771  4.6024000  2
     85    194    214    215     4  180.0000771  4.6024000  2
     86    219    239    240     4  180.0000771  4.6024000  2
    110    244    264    265     4  180.0000771  4.6024000  2
    111    269    289    290     4  180.0000771  4.6024000  2
    135    294    314    315     4  180.0000771  4.6024000  2
    136    319    339    340     4  180.0000771  4.6024000  2
    160    344    364    365     4  180.0000771  4.6024000  2
    161    369    389    390     4  180.0000771  4.6024000  2
    185    394    414    415     4  180.0000771  4.6024000  2
    186    419    439    440     4  180.0000771  4.6024000  2
    210    444    464    465     4  180.0000771  4.6024000  2
    211    469    489    490     4  180.0000771  4.6024000  2
    235    494    514    515     4  180.0000771  4.6024000  2
    236    519    539    540     4  180.0000771  4.6024000  2
    260    544    564    565     4  180.0000771  4.6024000  2
    261    569    589    590     4  180.0000771  4.6024000  2
    285    594    614    615     4  180.0000771  4.6024000  2
    286    619    639    640     4  180.0000771  4.6024000  2
    310    644    664    665     4  180.0000771  4.6024000  2
    311    669    689    690     4  180.0000771  4.6024000  2
    335    694    714    715     4  180.0000771  4.6024000  2
    336    719    739    740     4  180.0000771  4.6024000  2
    360    744    764    765     4  180.0000771  4.6024000  2
    361    769    789    790     4  180.0000771  4.6024000  2
    385    794    814    815     4  180.0000771  4.6024000  2
    386    819    839    840     4  180.0000771  4.6024000  2
    410    844    864    865     4  180.0000771  4.6024000  2
    411    869    889    890     4  180.0000771  4.6024000  2
    435    894    914    915     4  180.0000771  4.6024000  2
    436    919    939    940     4  180.0000771  4.6024000  2
    460    944    964    965     4  180.0000771  4.6024000  2
    461    969    989    990     4  180.0000771  4.6024000  2
    485    994   1014   1015     4  180.0000771  4.6024000  2
    486   1019   1039   1040     4  180.0000771  4.6024000  2
    510   1044   1064   1065     4  180.0000771  4.6024000  2
    511   1069   1089   1090     4  180.0000771  4.6024000  2
    535   1094   1114   1115     4  180.0000771  4.6024000  2
    536   1119   1139   1140     4  180.0000771  4.6024000  2
    560   1144   1164   1165     4  180.0000771  4.6024000  2
    561   1169   1189   1190     4  180.0000771  4.6024000  2
    585   1194   1214   1215     4  180.0000771  4.6024000  2
    586   1219   1239   1240     4  180.0000771  4.6024000  2
    610   1244   1264   1265     4  180.0000771  4.6024000  2
    611   1269   1289   1290     4  180.0000771  4.6024000  2
    635   1294   1314   1315     4  180.0000771  4.6024000  2
    636   1319   1339   1340     4  180.0000771  4.6024000  2
    660   1344   1364   1365     4  180.0000771  4.6024000  2
    661   1369   1389   1390     4  180.0000771  4.6024000  2
    685   1394   1414   1415     4  180.0000771  4.6024000  2
    686   1419   1439   1440     4  180.0000771  4.6024000  2
    710   1444   1464   1465     4  180.0000771  4.6024000  2
    711   1469   1489   1490     4  180.0000771  4.6024000  2
    735   1494   1514   1515     4  180.0000771  4.6024000  2
    736   1519   1539   1540     4  180.0000771  4.6024000  2
    760   1544   1564   1565     4  180.0000771  4.6024000  2
    761   1569   1589   1590     4  180.0000771  4.6024000  2
    785   1594   1614   1615     4  180.0000771  4.6024000  2
    786   1619   1639   1640     4  180.0000771  4.6024000  2
    810   1644   1664   1665     4  180.0000771  4.6024000  2
    811   1669   1689   1690     4  180.0000771  4.6024000  2
    835   1694   1714   1715     4  180.0000771  4.6024000  2
    836   1719   1739   1740     4  180.0000771  4.6024000  2
    860   1744   1764   1765     4  180.0000771  4.6024000  2
    861   1769   1789   1790     4  180.0000771  4.6024000  2
    885   1794   1814   1815     4  180.0000771  4.6024000  2
    886   1819   1839   1840     4  180.0000771  4.6024000  2
    910   1844   1864   1865     4  180.0000771  4.6024000  2
    911   1869   1889   1890     4  180.0000771  4.6024000  2
    935   1894   1914   1915     4  180.0000771  4.6024000  2
    936   1919   1939   1940     4  180.0000771  4.6024000  2
    960   1944   1964   1965     4  180.0000771  4.6024000  2
    961   1969   1989   1990     4  180.0000771  4.6024000  2
    985   1994   2014   2015     4  180.0000771  4.6024000  2
    986   2019   2039   2040     4  180.0000771  4.6024000  2
   1010   2044   2064   2065     4  180.0000771  4.6024000  2
   1011   2069   2089   2090     4  180.0000771  4.6024000  2
   1035   2094   2114   2115     4  180.0000771  4.6024000  2
   1036   2119   2139   2140     4  180.0000771  4.6024000  2
   1060   2144   2164   2165     4  180.0000771  4.6024000  2
   1061   2169   2189   2190     4  180.0000771  4.6024000  2
   1085   2194   2214   2215     4  180.0000771  4.6024000  2
   1086   2219   2239   2240     4  180.0000771  4.6024000  2
   1110   2244   2264   2265     4  180.0000771  4.6024000  2
   1111   2269   2289   2290     4  180.0000771  4.6024000  2
   1135   2294   2314   2315     4  180.0000771  4.6024000  2
   1136   2319   2339   2340     4  180.0000771  4.6024000  2
   1160   2344   2364   2365     4  180.0000771  4.6024000  2
   1161   2369   2389   2390     4  180.0000771  4.6024000  2
   1185   2394   2414   2415     4  180.0000771  4.6024000  2
   1186   2419   2439   2440     4  180.0000771  4.6024000  2
   1210   2444   2464   2465     4  180.0000771  4.6024000  2
   1211   2469   2489   2490     4  180.0000771  4.6024000  2
   1235   2494   2514   2515     4  180.0000771  4.6024000  2
   1236   2519   2539   2540     4  180.0000771  4.6024000  2
   1260   2544   2564   2565     4  180.0000771  4.6024000  2
   1261   2569   2589   2590     4  180.0000771  4.6024000  2
   1285   2594   2614   2615     4  180.0000771  4.6024000  2
   1286   2619   2639   2640     4  180.0000771  4.6024000  2
   1310   2644   2664   2665     4  180.0000771  4.6024000  2
   1311   2669   2689   2690     4  180.0000771  4.6024000  2
   1335   2694   2714   2715     4  180.0000771  4.6024000  2
   1336   2719   2739   2740     4  180.0000771  4.6024000  2
   1360   2744   2764   2765     4  180.0000771  4.6024000  2
   1361   2769   2789   2790     4  180.0000771  4.6024000  2
   1385   2794   2814   2815     4  180.0000771  4.6024000  2
   1386   2819   2839   2840     4  180.0000771  4.6024000  2
   1410   2844   2864   2865     4  180.0000771  4.6024000  2
   1411   2869   2889   2890     4  180.0000771  4.6024000  2
   1435   2894   2914   2915     4  180.0000771  4.6024000  2
   1436   2919   2939   2940     4  180.0000771  4.6024000  2
   1460   2944   2964   2965     4  180.0000771  4.6024000  2
   1461   2969   2989   2990     4  180.0000771  4.6024000  2
   1485   2994   3014   3015     4  180.0000771  4.6024000  2
   1486   3019   3039   3040     4  180.0000771  4.6024000  2
   1510   3044   3064   3065     4  180.0000771  4.6024000  2
   1511   3069   3089   3090     4  180.0000771  4.6024000  2
   1535   3094   3114   3115     4  180.0000771  4.6024000  2
   1536   3119   3139   3140     4  180.0000771  4.6024000  2
   1560   3143   3141   3142     4  180.0000771  4.6024000  2
   1561   3172   3170   3171     4  180.0000771  4.6024000  2
   1585   3201   3199   3200     4  180.0000771  4.6024000  2
   1586   3230   3228   3229     4  180.0000771  4.6024000  2
   1610   3259   3257   3258     4  180.0000771  4.6024000  2
   1611   3288   3286   3287     4  180.0000771  4.6024000  2
   1635   3317   3315   3316     4  180.0000771  4.6024000  2
   1636   3346   3344   3345     4  180.0000771  4.6024000  2
   1660   3375   3373   3374     4  180.0000771  4.6024000  2
   1661   3404   3402   3403     4  180.0000771  4.6024000  2
   1685   3433   3431   3432     4  180.0000771  4.6024000  2
   1686   3462   3460   3461     4  180.0000771  4.6024000  2
   1710   3491   3489   3490     4  180.0000771  4.6024000  2
   1711   3520   3518   3519     4  180.0000771  4.6024000  2
   1735   3549   3547   3548     4  180.0000771  4.6024000  2
   1736   3578   3576   3577     4  180.0000771  4.6024000  2
   1760   3607   3605   3606     4  180.0000771  4.6024000  2
   1761   3636   3634   3635     4  180.0000771  4.6024000  2
   1785   3665   3663   3664     4  180.0000771  4.6024000  2
   1786   3694   3692   3693     4  180.0000771  4.6024000  2
   1810   3723   3721   3722     4  180.0000771  4.6024000  2
   1811   3752   3750   3751     4  180.0000771  4.6024000  2
   1835   3781   3779   3780     4  180.0000771  4.6024000  2
   1836   3810   3808   3809     4  180.0000771  4.6024000  2
   1860   3839   3837   3838     4  180.0000771  4.6024000  2
   1861   3868   3866   3867     4  180.0000771  4.6024000  2
   1885   3897   3895   3896     4  180.0000771  4.6024000  2
   1886   3926   3924   3925     4  180.0000771  4.6024000  2
   1910   3955   3953   3954     4  180.0000771  4.6024000  2
   1911   3984   3982   3983     4  180.0000771  4.6024000  2
   1935   4013   4011   4012     4  180.0000771  4.6024000  2
   1936   4042   4040   4041     4  180.0000771  4.6024000  2
   1960   4071   4069   4070     4  180.0000771  4.6024000  2
   1961   4100   4098   4099     4  180.0000771  4.6024000  2
   1985   4129   4127   4128     4  180.0000771  4.6024000  2
   1986   4158   4156   4157     4  180.0000771  4.6024000  2
   2010   4187   4185   4186     4  180.0000771  4.6024000  2
   2011   4216   4214   4215     4  180.0000771  4.6024000  2
   2035   4245   4243   4244     4  180.0000771  4.6024000  2
   2036   4274   4272   4273     4  180.0000771  4.6024000  2
   2060   4303   4301   4302     4  180.0000771  4.6024000  2
   2061   4332   4330   4331     4  180.0000771  4.6024000  2
   2085   4361   4359   4360     4  180.0000771  4.6024000  2
   2086   4390   4388   4389     4  180.0000771  4.6024000  2
   2110   4419   4417   4418     4  180.0000771  4.6024000  2
   2111   4448   4446   4447     4  180.0000771  4.6024000  2
   2135   4477   4475   4476     4  180.0000771  4.6024000  2
   2136   4506   4504   4505     4  180.0000771  4.6024000  2
   2160   4535   4533   4534     4  180.0000771  4.6024000  2
   2161   4564   4562   4563     4  180.0000771  4.6024000  2
   2185   4593   4591   4592     4  180.0000771  4.6024000  2
   2186   4622   4620   4621     4  180.0000771  4.6024000  2
   2210   4651   4649   4650     4  180.0000771  4.6024000  2
   2211   4680   4678   4679     4  180.0000771  4.6024000  2
   2235   4709   4707   4708     4  180.0000771  4.6024000  2
   2236   4738   4736   4737     4  180.0000771  4.6024000  2
   2260   4767   4765   4766     4  180.0000771  4.6024000  2
   2261   4796   4794   4795     4  180.0000771  4.6024000  2
   2285   4825   4823   4824     4  180.0000771  4.6024000  2
   2286   4854   4852   4853     4  180.0000771  4.6024000  2
   2310   4883   4881   4882     4  180.0000771  4.6024000  2
   2311   4912   4910   4911     4  180.0000771  4.6024000  2
   2335   4941   4939   4940     4  180.0000771  4.6024000  2
   2336   4970   4968   4969     4  180.0000771  4.6024000  2
   2360   4999   4997   4998     4  180.0000771  4.6024000  2
   2361   5028   5026   5027     4  180.0000771  4.6024000  2
   2385   5057   5055   5056     4  180.0000771  4.6024000  2
   2386   5086   5084   5085     4  180.0000771  4.6024000  2
   2410   5115   5113   5114     4  180.0000771  4.6024000  2
   2411   5144   5142   5143     4  180.0000771  4.6024000  2
   2435   5173   5171   5172     4  180.0000771  4.6024000  2
   2436   5202   5200   5201     4  180.0000771  4.6024000  2
   2460   5231   5229   5230     4  180.0000771  4.6024000  2
   2461   5260   5258   5259     4  180.0000771  4.6024000  2
   2485   5289   5287   5288     4  180.0000771  4.6024000  2
   2486   5318   5316   5317     4  180.0000771  4.6024000  2
   2510   5347   5345   5346     4  180.0000771  4.6024000  2
   2511   5376   5374   5375     4  180.0000771  4.6024000  2
   2535   5405   5403   5404     4  180.0000771  4.6024000  2
   2536   5434   5432   5433     4  180.0000771  4.6024000  2
   2560   5463   5461   5462     4  180.0000771  4.6024000  2
   2561   5492   5490   5491     4  180.0000771  4.6024000  2
   2585   5521   5519   5520     4  180.0000771  4.6024000  2
   2586   5550   5548   5549     4  180.0000771  4.6024000  2
   2610   5579   5577   5578     4  180.0000771  4.6024000  2
   2611   5608   5606   5607     4  180.0000771  4.6024000  2
   2635   5637   5635   5636     4  180.0000771  4.6024000  2
   2636   5666   5664   5665     4  180.0000771  4.6024000  2
   2660   5695   5693   5694     4  180.0000771  4.6024000  2
   2661   5724   5722   5723     4  180.0000771  4.6024000  2
   2685   5753   5751   5752     4  180.0000771  4.6024000  2
   2686   5782   5780   5781     4  180.0000771  4.6024000  2
   2710   5811   5809   5810     4  180.0000771  4.6024000  2
   2711   5840   5838   5839     4  180.0000771  4.6024000  2
   2735   5869   5867   5868     4  180.0000771  4.6024000  2
   2736   5898   5896   5897     4  180.0000771  4.6024000  2
   2760   5927   5925   5926     4  180.0000771  4.6024000  2
   2761   5956   5954   5955     4  180.0000771  4.6024000  2
   2785   5985   5983   5984     4  180.0000771  4.6024000  2
   2786   6014   6012   6013     4  180.0000771  4.6024000  2
   2810   6043   6041   6042     4  180.0000771  4.6024000  2
   2811   6072   6070   6071     4  180.0000771  4.6024000  2
   2835   6101   6099   6100     4  180.0000771  4.6024000  2
   2836   6130   6128   6129     4  180.0000771  4.6024000  2
   2860   6159   6157   6158     4  180.0000771  4.6024000  2
   2861   6188   6186   6187     4  180.0000771  4.6024000  2
   2885   6217   6215   6216     4  180.0000771  4.6024000  2
   2886   6246   6244   6245     4  180.0000771  4.6024000  2
   2910   6275   6273   6274     4  180.0000771  4.6024000  2
   2911   6304   6302   6303     4  180.0000771  4.6024000  2
   2935   6333   6331   6332     4  180.0000771  4.6024000  2
   2936   6362   6360   6361     4  180.0000771  4.6024000  2
   2960   6391   6389   6390     4  180.0000771  4.6024000  2
   2961   6420   6418   6419     4  180.0000771  4.6024000  2
   2985   6449   6447   6448     4  180.0000771  4.6024000  2
   2986   6478   6476   6477     4  180.0000771  4.6024000  2
   3010   6507   6505   6506     4  180.0000771  4.6024000  2
   3011   6536   6534   6535     4  180.0000771  4.6024000  2
   3035   6565   6563   6564     4  180.0000771  4.6024000  2
   3036   6594   6592   6593     4  180.0000771  4.6024000  2
   3060   6623   6621   6622     4  180.0000771  4.6024000  2
   3061   6652   6650   6651     4  180.0000771  4.6024000  2
   3085   6681   6679   6680     4  180.0000771  4.6024000  2
   3086   6710   6708   6709     4  180.0000771  4.6024000  2
   3110   6739   6737   6738     4  180.0000771  4.6024000  2
   3111   6768   6766   6767     4  180.0000771  4.6024000  2
   3135   6797   6795   6796     4  180.0000771  4.6024000  2
   3136   6826   6824   6825     4  180.0000771  4.6024000  2

;[ system ]
;; Name
;Generic title
;
;[ molecules ]
;; Compound       #mols
;system1              1
